LAMMPS data file. CGCMM style. atom_style full generated by VMD/TopoTools v1.8 on Tue Oct 08 19:57:21 JST 2024
 36 atoms
 40 bonds
 0 angles
 0 dihedrals
 0 impropers
 36 atom types
 1 bond types
 0 angle types
 0 dihedral types
 0 improper types
 0.724000 25.724000  xlo xhi
 1.236001 26.236001  ylo yhi
 0.986000 25.986000  zlo zhi

# Pair Coeffs
#
# 1  C1
# 2  C10
# 3  C11
# 4  C12
# 5  C13
# 6  C14
# 7  C15
# 8  C16
# 9  C17
# 10  C18
# 11  C19
# 12  C2
# 13  C20
# 14  C21
# 15  C22
# 16  C3
# 17  C4
# 18  C5
# 19  C6
# 20  C7
# 21  C8
# 22  C9
# 23  H1
# 24  H10
# 25  H2
# 26  H3
# 27  H4
# 28  H5
# 29  H6
# 30  H7
# 31  H8
# 32  H9
# 33  O1
# 34  S1
# 35  S2
# 36  S3

# Bond Coeffs
#
# 1  

 Masses

 1 12.010700 # C1
 2 12.010700 # C10
 3 12.010700 # C11
 4 12.010700 # C12
 5 12.010700 # C13
 6 12.010700 # C14
 7 12.010700 # C15
 8 12.010700 # C16
 9 12.010700 # C17
 10 12.010700 # C18
 11 12.010700 # C19
 12 12.010700 # C2
 13 12.010700 # C20
 14 12.010700 # C21
 15 12.010700 # C22
 16 12.010700 # C3
 17 12.010700 # C4
 18 12.010700 # C5
 19 12.010700 # C6
 20 12.010700 # C7
 21 12.010700 # C8
 22 12.010700 # C9
 23 1.007940 # H1
 24 1.007940 # H10
 25 1.007940 # H2
 26 1.007940 # H3
 27 1.007940 # H4
 28 1.007940 # H5
 29 1.007940 # H6
 30 1.007940 # H7
 31 1.007940 # H8
 32 1.007940 # H9
 33 15.999400 # O1
 34 32.064999 # S1
 35 32.064999 # S2
 36 32.064999 # S3

 Atoms # full

1 1 33 0.000000 11.080000 13.700000 11.792000 # O1 
2 1 1 0.000000 12.026000 13.718000 12.546000 # C1 
3 1 12 0.000000 11.920000 13.248000 13.951000 # C2 
4 1 16 0.000000 10.732000 12.746000 14.399000 # C3 
5 1 17 0.000000 10.573000 12.301000 15.746000 # C4 
6 1 18 0.000000 9.347000 11.752000 16.184999 # C5 
7 1 19 0.000000 9.214000 11.291000 17.466000 # C6 
8 1 20 0.000000 10.302000 11.353000 18.358999 # C7 
9 1 21 0.000000 11.505000 11.892000 17.968000 # C8 
10 1 22 0.000000 11.667000 12.375000 16.645000 # C9 
11 1 2 0.000000 12.916000 12.904000 16.174000 # C10 
12 1 3 0.000000 13.046000 13.343000 14.843000 # C11 
13 1 4 0.000000 14.289000 13.859000 14.386000 # C12 
14 1 5 0.000000 14.455000 14.294000 13.038000 # C13 
15 1 6 0.000000 15.691000 14.794000 12.626000 # C14 
16 1 7 0.000000 15.877000 15.245000 11.268000 # C15 
17 1 8 0.000000 17.108999 15.750000 10.805000 # C16 
18 1 9 0.000000 17.232000 16.181000 9.502000 # C17 
19 1 10 0.000000 16.148001 16.117001 8.624000 # C18 
20 1 11 0.000000 14.943000 15.617000 9.040000 # C19 
21 1 13 0.000000 14.771000 15.170000 10.373000 # C20 
22 1 14 0.000000 13.524000 14.656000 10.826000 # C21 
23 1 15 0.000000 13.362000 14.225000 12.116000 # C22 
24 1 23 0.000000 9.995000 12.691000 13.801000 # H1 
25 1 25 0.000000 8.611000 11.704000 15.587000 # H2 
26 1 26 0.000000 8.386000 10.927000 17.754999 # H3 
27 1 27 0.000000 10.202000 11.019000 19.242001 # H4 
28 1 28 0.000000 12.227000 11.940000 18.583000 # H5 
29 1 29 0.000000 17.856001 15.794000 11.392000 # H6 
30 1 30 0.000000 18.062000 16.525999 9.199000 # H7 
31 1 31 0.000000 16.247999 16.422001 7.730000 # H8 
32 1 32 0.000000 14.217000 15.571000 8.429000 # H9 
33 1 24 0.000000 12.791000 14.610000 10.225000 # H10 
34 1 34 0.000000 15.629000 13.960000 15.457000 # S1 
35 1 35 0.000000 14.296000 13.037000 17.159000 # S2 
36 1 36 0.000000 16.924999 14.860000 13.783000 # S3 

 Bonds

1 1 1 2
2 1 2 3
3 1 2 23
4 1 3 12
5 1 3 4
6 1 4 24
7 1 4 5
8 1 5 10
9 1 5 6
10 1 6 25
11 1 6 7
12 1 7 8
13 1 7 26
14 1 8 9
15 1 8 27
16 1 9 10
17 1 9 28
18 1 10 11
19 1 11 12
20 1 11 35
21 1 12 13
22 1 13 14
23 1 13 34
24 1 14 23
25 1 14 15
26 1 15 36
27 1 15 16
28 1 16 17
29 1 16 21
30 1 17 18
31 1 17 29
32 1 18 30
33 1 18 19
34 1 19 20
35 1 19 31
36 1 20 21
37 1 20 32
38 1 21 22
39 1 22 33
40 1 22 23

