The final data.graphene file looks like below.
1008 atoms
1 atom types

#simulation box
-0.698000 49.558000 xlo xhi
-0.604486 50.172316 ylo yhi
-10.000000 10.000000 zlo zhi

Masses

1 12.010000 # C

Atoms # Atom-number Atom-type x y z

1 1 0.698000 0.000000 0.015267 
2 1 0.000000 1.208971 0.088500 
3 1 0.698000 2.417943 0.006160 
4 1 0.000000 3.626914 0.018574 
5 1 0.698000 4.835886 0.046163 
6 1 0.000000 6.044857 0.076198 
7 1 0.698000 7.253829 0.053319 
8 1 0.000000 8.462800 0.081526 
9 1 0.698000 9.671772 0.020934 
10 1 0.000000 10.880743 0.068122 
11 1 0.698000 12.089715 0.076754 
12 1 0.000000 13.298686 0.017590 
13 1 0.698000 14.507658 0.095471 
14 1 0.000000 15.716629 0.032581 
15 1 0.698000 16.925600 0.062492 
16 1 0.000000 18.134572 0.009586 
17 1 0.698000 19.343543 0.032973 
18 1 0.000000 20.552515 0.007141 
19 1 0.698000 21.761486 0.082570 
20 1 0.000000 22.970458 0.037880 
21 1 0.698000 24.179429 0.035837 
22 1 0.000000 25.388401 0.017993 
23 1 0.698000 26.597372 0.060022 
24 1 0.000000 27.806344 0.066469 
25 1 0.698000 29.015315 0.064103 
26 1 0.000000 30.224287 0.059562 
27 1 0.698000 31.433258 0.070040 
28 1 0.000000 32.642230 0.071186 
29 1 0.698000 33.851201 0.071373 
30 1 0.000000 35.060172 0.029901 
31 1 0.698000 36.269144 0.017907 
32 1 0.000000 37.478115 0.040796 
33 1 0.698000 38.687087 0.064525 
34 1 0.000000 39.896058 0.070695 
35 1 0.698000 41.105030 0.071747 
36 1 0.000000 42.314001 0.040036 
37 1 0.698000 43.522973 0.003397 
38 1 0.000000 44.731944 0.023986 
39 1 0.698000 45.940916 0.055296 
40 1 0.000000 47.149887 0.068320 
41 1 0.698000 48.358859 0.036304 
42 1 0.000000 49.567830 0.091961 
43 1 2.094000 0.000000 0.078482 
44 1 2.792000 1.208971 0.054719 
45 1 2.094000 2.417943 0.073983 
46 1 2.792000 3.626914 0.033709 
47 1 2.094000 4.835886 0.044451 
48 1 2.792000 6.044857 0.036367 
49 1 2.094000 7.253829 0.074275 
50 1 2.792000 8.462800 0.003751 
51 1 2.094000 9.671772 0.046819 
52 1 2.792000 10.880743 0.001330 
53 1 2.094000 12.089715 0.067524 
54 1 2.792000 13.298686 0.089656 
55 1 2.094000 14.507658 0.051322 
56 1 2.792000 15.716629 0.085203 
57 1 2.094000 16.925600 0.053939 
58 1 2.792000 18.134572 0.084707 
59 1 2.094000 19.343543 0.038515 
60 1 2.792000 20.552515 0.058791 
61 1 2.094000 21.761486 0.075270 
62 1 2.792000 22.970458 0.042407 
63 1 2.094000 24.179429 0.082524 
64 1 2.792000 25.388401 0.093302 
65 1 2.094000 26.597372 0.061347 
66 1 2.792000 27.806344 0.034716 
67 1 2.094000 29.015315 0.091615 
68 1 2.792000 30.224287 0.053785 
69 1 2.094000 31.433258 0.060434 
70 1 2.792000 32.642230 0.016441 
71 1 2.094000 33.851201 0.029713 
72 1 2.792000 35.060172 0.001717 
73 1 2.094000 36.269144 0.053239 
74 1 2.792000 37.478115 0.087424 
75 1 2.094000 38.687087 0.090968 
76 1 2.792000 39.896058 0.010733 
77 1 2.094000 41.105030 0.081562 
78 1 2.792000 42.314001 0.078107 
79 1 2.094000 43.522973 0.002352 
80 1 2.792000 44.731944 0.084140 
81 1 2.094000 45.940916 0.073450 
82 1 2.792000 47.149887 0.003646 
83 1 2.094000 48.358859 0.018186 
84 1 2.792000 49.567830 0.031853 
85 1 4.886000 0.000000 0.055880 
86 1 4.188000 1.208971 0.030145 
87 1 4.886000 2.417943 0.021041 
88 1 4.188000 3.626914 0.027720 
89 1 4.886000 4.835886 0.061916 
90 1 4.188000 6.044857 0.042426 
91 1 4.886000 7.253829 0.023103 
92 1 4.188000 8.462800 0.062728 
93 1 4.886000 9.671772 0.062695 
94 1 4.188000 10.880743 0.086969 
95 1 4.886000 12.089715 0.065427 
96 1 4.188000 13.298686 0.071413 
97 1 4.886000 14.507658 0.099395 
98 1 4.188000 15.716629 0.074967 
99 1 4.886000 16.925600 0.091011 
100 1 4.188000 18.134572 0.030128 
101 1 4.886000 19.343543 0.034441 
102 1 4.188000 20.552515 0.037145 
103 1 4.886000 21.761486 0.072455 
104 1 4.188000 22.970458 0.027636 
105 1 4.886000 24.179429 0.066214 
106 1 4.188000 25.388401 0.011449 
107 1 4.886000 26.597372 0.085644 
108 1 4.188000 27.806344 0.034593 
109 1 4.886000 29.015315 0.081613 
110 1 4.188000 30.224287 0.016630 
111 1 4.886000 31.433258 0.086856 
112 1 4.188000 32.642230 0.001170 
113 1 4.886000 33.851201 0.035297 
114 1 4.188000 35.060172 0.099197 
115 1 4.886000 36.269144 0.090883 
116 1 4.188000 37.478115 0.050294 
117 1 4.886000 38.687087 0.070541 
118 1 4.188000 39.896058 0.086712 
119 1 4.886000 41.105030 0.003110 
120 1 4.188000 42.314001 0.002087 
121 1 4.886000 43.522973 0.012102 
122 1 4.188000 44.731944 0.011554 
123 1 4.886000 45.940916 0.007815 
124 1 4.188000 47.149887 0.098376 
125 1 4.886000 48.358859 0.069349 
126 1 4.188000 49.567830 0.001137 
127 1 6.282000 0.000000 0.014451 
128 1 6.980000 1.208971 0.065385 
129 1 6.282000 2.417943 0.030608 
130 1 6.980000 3.626914 0.024998 
131 1 6.282000 4.835886 0.040536 
132 1 6.980000 6.044857 0.095732 
133 1 6.282000 7.253829 0.031859 
134 1 6.980000 8.462800 0.009927 
135 1 6.282000 9.671772 0.047808 
136 1 6.980000 10.880743 0.021378 
137 1 6.282000 12.089715 0.019839 
138 1 6.980000 13.298686 0.078046 
139 1 6.282000 14.507658 0.066697 
140 1 6.980000 15.716629 0.026000 
141 1 6.282000 16.925600 0.093021 
142 1 6.980000 18.134572 0.090734 
143 1 6.282000 19.343543 0.066122 
144 1 6.980000 20.552515 0.071621 
145 1 6.282000 21.761486 0.060692 
146 1 6.980000 22.970458 0.085737 
147 1 6.282000 24.179429 0.054468 
148 1 6.980000 25.388401 0.058896 
149 1 6.282000 26.597372 0.025869 
150 1 6.980000 27.806344 0.080408 
151 1 6.282000 29.015315 0.025014 
152 1 6.980000 30.224287 0.059026 
153 1 6.282000 31.433258 0.002982 
154 1 6.980000 32.642230 0.068358 
155 1 6.282000 33.851201 0.009003 
156 1 6.980000 35.060172 0.002998 
157 1 6.282000 36.269144 0.058189 
158 1 6.980000 37.478115 0.045960 
159 1 6.282000 38.687087 0.063167 
160 1 6.980000 39.896058 0.068381 
161 1 6.282000 41.105030 0.064285 
162 1 6.980000 42.314001 0.005766 
163 1 6.282000 43.522973 0.062565 
164 1 6.980000 44.731944 0.090326 
165 1 6.282000 45.940916 0.055431 
166 1 6.980000 47.149887 0.084942 
167 1 6.282000 48.358859 0.063041 
168 1 6.980000 49.567830 0.009288 
169 1 9.074000 0.000000 0.059200 
170 1 8.376000 1.208971 0.012384 
171 1 9.074000 2.417943 0.005879 
172 1 8.376000 3.626914 0.050148 
173 1 9.074000 4.835886 0.099453 
174 1 8.376000 6.044857 0.097430 
175 1 9.074000 7.253829 0.018237 
176 1 8.376000 8.462800 0.058936 
177 1 9.074000 9.671772 0.041102 
178 1 8.376000 10.880743 0.037852 
179 1 9.074000 12.089715 0.057656 
180 1 8.376000 13.298686 0.064021 
181 1 9.074000 14.507658 0.065686 
182 1 8.376000 15.716629 0.038285 
183 1 9.074000 16.925600 0.044392 
184 1 8.376000 18.134572 0.061571 
185 1 9.074000 19.343543 0.098625 
186 1 8.376000 20.552515 0.019275 
187 1 9.074000 21.761486 0.060296 
188 1 8.376000 22.970458 0.058924 
189 1 9.074000 24.179429 0.010267 
190 1 8.376000 25.388401 0.099350 
191 1 9.074000 26.597372 0.024255 
192 1 8.376000 27.806344 0.058757 
193 1 9.074000 29.015315 0.013856 
194 1 8.376000 30.224287 0.087891 
195 1 9.074000 31.433258 0.004351 
196 1 8.376000 32.642230 0.065280 
197 1 9.074000 33.851201 0.049616 
198 1 8.376000 35.060172 0.012931 
199 1 9.074000 36.269144 0.096894 
200 1 8.376000 37.478115 0.094340 
201 1 9.074000 38.687087 0.053800 
202 1 8.376000 39.896058 0.094039 
203 1 9.074000 41.105030 0.077561 
204 1 8.376000 42.314001 0.015231 
205 1 9.074000 43.522973 0.026271 
206 1 8.376000 44.731944 0.022055 
207 1 9.074000 45.940916 0.013751 
208 1 8.376000 47.149887 0.032538 
209 1 9.074000 48.358859 0.036077 
210 1 8.376000 49.567830 0.032370 
211 1 10.470000 0.000000 0.064731 
212 1 11.168000 1.208971 0.025557 
213 1 10.470000 2.417943 0.075552 
214 1 11.168000 3.626914 0.095816 
215 1 10.470000 4.835886 0.086740 
216 1 11.168000 6.044857 0.083150 
217 1 10.470000 7.253829 0.011603 
218 1 11.168000 8.462800 0.062486 
219 1 10.470000 9.671772 0.016433 
220 1 11.168000 10.880743 0.085899 
221 1 10.470000 12.089715 0.083214 
222 1 11.168000 13.298686 0.056663 
223 1 10.470000 14.507658 0.022282 
224 1 11.168000 15.716629 0.094404 
225 1 10.470000 16.925600 0.077928 
226 1 11.168000 18.134572 0.000861 
227 1 10.470000 19.343543 0.027169 
228 1 11.168000 20.552515 0.027328 
229 1 10.470000 21.761486 0.062851 
230 1 11.168000 22.970458 0.043443 
231 1 10.470000 24.179429 0.002546 
232 1 11.168000 25.388401 0.010845 
233 1 10.470000 26.597372 0.075827 
234 1 11.168000 27.806344 0.009265 
235 1 10.470000 29.015315 0.097420 
236 1 11.168000 30.224287 0.048818 
237 1 10.470000 31.433258 0.066330 
238 1 11.168000 32.642230 0.083364 
239 1 10.470000 33.851201 0.093953 
240 1 11.168000 35.060172 0.072942 
241 1 10.470000 36.269144 0.088687 
242 1 11.168000 37.478115 0.086457 
243 1 10.470000 38.687087 0.075796 
244 1 11.168000 39.896058 0.084038 
245 1 10.470000 41.105030 0.083524 
246 1 11.168000 42.314001 0.015341 
247 1 10.470000 43.522973 0.013003 
248 1 11.168000 44.731944 0.007065 
249 1 10.470000 45.940916 0.041495 
250 1 11.168000 47.149887 0.006559 
251 1 10.470000 48.358859 0.030950 
252 1 11.168000 49.567830 0.098127 
253 1 13.262000 0.000000 0.016455 
254 1 12.564000 1.208971 0.081984 
255 1 13.262000 2.417943 0.008699 
256 1 12.564000 3.626914 0.062902 
257 1 13.262000 4.835886 0.045690 
258 1 12.564000 6.044857 0.015617 
259 1 13.262000 7.253829 0.028459 
260 1 12.564000 8.462800 0.033686 
261 1 13.262000 9.671772 0.015569 
262 1 12.564000 10.880743 0.072063 
263 1 13.262000 12.089715 0.070807 
264 1 12.564000 13.298686 0.000948 
265 1 13.262000 14.507658 0.084374 
266 1 12.564000 15.716629 0.078667 
267 1 13.262000 16.925600 0.088495 
268 1 12.564000 18.134572 0.023692 
269 1 13.262000 19.343543 0.035084 
270 1 12.564000 20.552515 0.063154 
271 1 13.262000 21.761486 0.085058 
272 1 12.564000 22.970458 0.007012 
273 1 13.262000 24.179429 0.091592 
274 1 12.564000 25.388401 0.031891 
275 1 13.262000 26.597372 0.096018 
276 1 12.564000 27.806344 0.036885 
277 1 13.262000 29.015315 0.049271 
278 1 12.564000 30.224287 0.015869 
279 1 13.262000 31.433258 0.032113 
280 1 12.564000 32.642230 0.099619 
281 1 13.262000 33.851201 0.071615 
282 1 12.564000 35.060172 0.097442 
283 1 13.262000 36.269144 0.027776 
284 1 12.564000 37.478115 0.074490 
285 1 13.262000 38.687087 0.042087 
286 1 12.564000 39.896058 0.010354 
287 1 13.262000 41.105030 0.007399 
288 1 12.564000 42.314001 0.031945 
289 1 13.262000 43.522973 0.052373 
290 1 12.564000 44.731944 0.008606 
291 1 13.262000 45.940916 0.031492 
292 1 12.564000 47.149887 0.006991 
293 1 13.262000 48.358859 0.084323 
294 1 12.564000 49.567830 0.040379 
295 1 14.658000 0.000000 0.050372 
296 1 15.356000 1.208971 0.033016 
297 1 14.658000 2.417943 0.021746 
298 1 15.356000 3.626914 0.085178 
299 1 14.658000 4.835886 0.001020 
300 1 15.356000 6.044857 0.009595 
301 1 14.658000 7.253829 0.005150 
302 1 15.356000 8.462800 0.077160 
303 1 14.658000 9.671772 0.088782 
304 1 15.356000 10.880743 0.040349 
305 1 14.658000 12.089715 0.003718 
306 1 15.356000 13.298686 0.035911 
307 1 14.658000 14.507658 0.007471 
308 1 15.356000 15.716629 0.018777 
309 1 14.658000 16.925600 0.018463 
310 1 15.356000 18.134572 0.001450 
311 1 14.658000 19.343543 0.012525 
312 1 15.356000 20.552515 0.079613 
313 1 14.658000 21.761486 0.041604 
314 1 15.356000 22.970458 0.079895 
315 1 14.658000 24.179429 0.060068 
316 1 15.356000 25.388401 0.084254 
317 1 14.658000 26.597372 0.021416 
318 1 15.356000 27.806344 0.050554 
319 1 14.658000 29.015315 0.095808 
320 1 15.356000 30.224287 0.090212 
321 1 14.658000 31.433258 0.035784 
322 1 15.356000 32.642230 0.021309 
323 1 14.658000 33.851201 0.014559 
324 1 15.356000 35.060172 0.074220 
325 1 14.658000 36.269144 0.091125 
326 1 15.356000 37.478115 0.005529 
327 1 14.658000 38.687087 0.038066 
328 1 15.356000 39.896058 0.060735 
329 1 14.658000 41.105030 0.014391 
330 1 15.356000 42.314001 0.026047 
331 1 14.658000 43.522973 0.091585 
332 1 15.356000 44.731944 0.035126 
333 1 14.658000 45.940916 0.013093 
334 1 15.356000 47.149887 0.026912 
335 1 14.658000 48.358859 0.035198 
336 1 15.356000 49.567830 0.035043 
337 1 17.450000 0.000000 0.032026 
338 1 16.752000 1.208971 0.001397 
339 1 17.450000 2.417943 0.026208 
340 1 16.752000 3.626914 0.016605 
341 1 17.450000 4.835886 0.039160 
342 1 16.752000 6.044857 0.003890 
343 1 17.450000 7.253829 0.034971 
344 1 16.752000 8.462800 0.010193 
345 1 17.450000 9.671772 0.076157 
346 1 16.752000 10.880743 0.087893 
347 1 17.450000 12.089715 0.097075 
348 1 16.752000 13.298686 0.007937 
349 1 17.450000 14.507658 0.031218 
350 1 16.752000 15.716629 0.017262 
351 1 17.450000 16.925600 0.009162 
352 1 16.752000 18.134572 0.030768 
353 1 17.450000 19.343543 0.058547 
354 1 16.752000 20.552515 0.064384 
355 1 17.450000 21.761486 0.001879 
356 1 16.752000 22.970458 0.041368 
357 1 17.450000 24.179429 0.081559 
358 1 16.752000 25.388401 0.008182 
359 1 17.450000 26.597372 0.014674 
360 1 16.752000 27.806344 0.019535 
361 1 17.450000 29.015315 0.002557 
362 1 16.752000 30.224287 0.051560 
363 1 17.450000 31.433258 0.076765 
364 1 16.752000 32.642230 0.092895 
365 1 17.450000 33.851201 0.015217 
366 1 16.752000 35.060172 0.004326 
367 1 17.450000 36.269144 0.060523 
368 1 16.752000 37.478115 0.068007 
369 1 17.450000 38.687087 0.089106 
370 1 16.752000 39.896058 0.050493 
371 1 17.450000 41.105030 0.040877 
372 1 16.752000 42.314001 0.033160 
373 1 17.450000 43.522973 0.013044 
374 1 16.752000 44.731944 0.086554 
375 1 17.450000 45.940916 0.086810 
376 1 16.752000 47.149887 0.043874 
377 1 17.450000 48.358859 0.044320 
378 1 16.752000 49.567830 0.057503 
379 1 18.846000 0.000000 0.089023 
380 1 19.544000 1.208971 0.024442 
381 1 18.846000 2.417943 0.082931 
382 1 19.544000 3.626914 0.048178 
383 1 18.846000 4.835886 0.007447 
384 1 19.544000 6.044857 0.049026 
385 1 18.846000 7.253829 0.019230 
386 1 19.544000 8.462800 0.041597 
387 1 18.846000 9.671772 0.042305 
388 1 19.544000 10.880743 0.041729 
389 1 18.846000 12.089715 0.061604 
390 1 19.544000 13.298686 0.027342 
391 1 18.846000 14.507658 0.019456 
392 1 19.544000 15.716629 0.085290 
393 1 18.846000 16.925600 0.055423 
394 1 19.544000 18.134572 0.080076 
395 1 18.846000 19.343543 0.079746 
396 1 19.544000 20.552515 0.063627 
397 1 18.846000 21.761486 0.086835 
398 1 19.544000 22.970458 0.023027 
399 1 18.846000 24.179429 0.088906 
400 1 19.544000 25.388401 0.094089 
401 1 18.846000 26.597372 0.079450 
402 1 19.544000 27.806344 0.075445 
403 1 18.846000 29.015315 0.028056 
404 1 19.544000 30.224287 0.074033 
405 1 18.846000 31.433258 0.034121 
406 1 19.544000 32.642230 0.007503 
407 1 18.846000 33.851201 0.085351 
408 1 19.544000 35.060172 0.006415 
409 1 18.846000 36.269144 0.098195 
410 1 19.544000 37.478115 0.094722 
411 1 18.846000 38.687087 0.047464 
412 1 19.544000 39.896058 0.038475 
413 1 18.846000 41.105030 0.063009 
414 1 19.544000 42.314001 0.049522 
415 1 18.846000 43.522973 0.091800 
416 1 19.544000 44.731944 0.028401 
417 1 18.846000 45.940916 0.001077 
418 1 19.544000 47.149887 0.012398 
419 1 18.846000 48.358859 0.056735 
420 1 19.544000 49.567830 0.083856 
421 1 21.638000 0.000000 0.055963 
422 1 20.940000 1.208971 0.096804 
423 1 21.638000 2.417943 0.045067 
424 1 20.940000 3.626914 0.034740 
425 1 21.638000 4.835886 0.003691 
426 1 20.940000 6.044857 0.002491 
427 1 21.638000 7.253829 0.028638 
428 1 20.940000 8.462800 0.039272 
429 1 21.638000 9.671772 0.041127 
430 1 20.940000 10.880743 0.029520 
431 1 21.638000 12.089715 0.065712 
432 1 20.940000 13.298686 0.024746 
433 1 21.638000 14.507658 0.001085 
434 1 20.940000 15.716629 0.032424 
435 1 21.638000 16.925600 0.085393 
436 1 20.940000 18.134572 0.079771 
437 1 21.638000 19.343543 0.042846 
438 1 20.940000 20.552515 0.023202 
439 1 21.638000 21.761486 0.066423 
440 1 20.940000 22.970458 0.098432 
441 1 21.638000 24.179429 0.029013 
442 1 20.940000 25.388401 0.068118 
443 1 21.638000 26.597372 0.009033 
444 1 20.940000 27.806344 0.089184 
445 1 21.638000 29.015315 0.004548 
446 1 20.940000 30.224287 0.066270 
447 1 21.638000 31.433258 0.005328 
448 1 20.940000 32.642230 0.034034 
449 1 21.638000 33.851201 0.021655 
450 1 20.940000 35.060172 0.053681 
451 1 21.638000 36.269144 0.003630 
452 1 20.940000 37.478115 0.000359 
453 1 21.638000 38.687087 0.041118 
454 1 20.940000 39.896058 0.081864 
455 1 21.638000 41.105030 0.089245 
456 1 20.940000 42.314001 0.051943 
457 1 21.638000 43.522973 0.006059 
458 1 20.940000 44.731944 0.082535 
459 1 21.638000 45.940916 0.049130 
460 1 20.940000 47.149887 0.092359 
461 1 21.638000 48.358859 0.083505 
462 1 20.940000 49.567830 0.027682 
463 1 23.034000 0.000000 0.037391 
464 1 23.732000 1.208971 0.031076 
465 1 23.034000 2.417943 0.052644 
466 1 23.732000 3.626914 0.088246 
467 1 23.034000 4.835886 0.039153 
468 1 23.732000 6.044857 0.027737 
469 1 23.034000 7.253829 0.029650 
470 1 23.732000 8.462800 0.033952 
471 1 23.034000 9.671772 0.093876 
472 1 23.732000 10.880743 0.018317 
473 1 23.034000 12.089715 0.005928 
474 1 23.732000 13.298686 0.076087 
475 1 23.034000 14.507658 0.025557 
476 1 23.732000 15.716629 0.043579 
477 1 23.034000 16.925600 0.001657 
478 1 23.732000 18.134572 0.090143 
479 1 23.034000 19.343543 0.052015 
480 1 23.732000 20.552515 0.053530 
481 1 23.034000 21.761486 0.048518 
482 1 23.732000 22.970458 0.001068 
483 1 23.034000 24.179429 0.088910 
484 1 23.732000 25.388401 0.024977 
485 1 23.034000 26.597372 0.031781 
486 1 23.732000 27.806344 0.066691 
487 1 23.034000 29.015315 0.037990 
488 1 23.732000 30.224287 0.054492 
489 1 23.034000 31.433258 0.066881 
490 1 23.732000 32.642230 0.084599 
491 1 23.034000 33.851201 0.006016 
492 1 23.732000 35.060172 0.090493 
493 1 23.034000 36.269144 0.002062 
494 1 23.732000 37.478115 0.055093 
495 1 23.034000 38.687087 0.022497 
496 1 23.732000 39.896058 0.020025 
497 1 23.034000 41.105030 0.029826 
498 1 23.732000 42.314001 0.024840 
499 1 23.034000 43.522973 0.073702 
500 1 23.732000 44.731944 0.047305 
501 1 23.034000 45.940916 0.061815 
502 1 23.732000 47.149887 0.025809 
503 1 23.034000 48.358859 0.054181 
504 1 23.732000 49.567830 0.075001 
505 1 25.826000 0.000000 0.063222 
506 1 25.128000 1.208971 0.018079 
507 1 25.826000 2.417943 0.076470 
508 1 25.128000 3.626914 0.099927 
509 1 25.826000 4.835886 0.082828 
510 1 25.128000 6.044857 0.066671 
511 1 25.826000 7.253829 0.084137 
512 1 25.128000 8.462800 0.016560 
513 1 25.826000 9.671772 0.065709 
514 1 25.128000 10.880743 0.049321 
515 1 25.826000 12.089715 0.065067 
516 1 25.128000 13.298686 0.052032 
517 1 25.826000 14.507658 0.000009 
518 1 25.128000 15.716629 0.098472 
519 1 25.826000 16.925600 0.061865 
520 1 25.128000 18.134572 0.085769 
521 1 25.826000 19.343543 0.027674 
522 1 25.128000 20.552515 0.092944 
523 1 25.826000 21.761486 0.057060 
524 1 25.128000 22.970458 0.045133 
525 1 25.826000 24.179429 0.014528 
526 1 25.128000 25.388401 0.049967 
527 1 25.826000 26.597372 0.023102 
528 1 25.128000 27.806344 0.010598 
529 1 25.826000 29.015315 0.063498 
530 1 25.128000 30.224287 0.068011 
531 1 25.826000 31.433258 0.051586 
532 1 25.128000 32.642230 0.027405 
533 1 25.826000 33.851201 0.061039 
534 1 25.128000 35.060172 0.099402 
535 1 25.826000 36.269144 0.044932 
536 1 25.128000 37.478115 0.029395 
537 1 25.826000 38.687087 0.011146 
538 1 25.128000 39.896058 0.095638 
539 1 25.826000 41.105030 0.085517 
540 1 25.128000 42.314001 0.036981 
541 1 25.826000 43.522973 0.054772 
542 1 25.128000 44.731944 0.030677 
543 1 25.826000 45.940916 0.009577 
544 1 25.128000 47.149887 0.068997 
545 1 25.826000 48.358859 0.075981 
546 1 25.128000 49.567830 0.050828 
547 1 27.222000 0.000000 0.025419 
548 1 27.920000 1.208971 0.034494 
549 1 27.222000 2.417943 0.089348 
550 1 27.920000 3.626914 0.098499 
551 1 27.222000 4.835886 0.004890 
552 1 27.920000 6.044857 0.098357 
553 1 27.222000 7.253829 0.036821 
554 1 27.920000 8.462800 0.015435 
555 1 27.222000 9.671772 0.072068 
556 1 27.920000 10.880743 0.004898 
557 1 27.222000 12.089715 0.044310 
558 1 27.920000 13.298686 0.037082 
559 1 27.222000 14.507658 0.006731 
560 1 27.920000 15.716629 0.025395 
561 1 27.222000 16.925600 0.082161 
562 1 27.920000 18.134572 0.082897 
563 1 27.222000 19.343543 0.094249 
564 1 27.920000 20.552515 0.050919 
565 1 27.222000 21.761486 0.012740 
566 1 27.920000 22.970458 0.098400 
567 1 27.222000 24.179429 0.089123 
568 1 27.920000 25.388401 0.024539 
569 1 27.222000 26.597372 0.078207 
570 1 27.920000 27.806344 0.024733 
571 1 27.222000 29.015315 0.019131 
572 1 27.920000 30.224287 0.062072 
573 1 27.222000 31.433258 0.039974 
574 1 27.920000 32.642230 0.084833 
575 1 27.222000 33.851201 0.073367 
576 1 27.920000 35.060172 0.034698 
577 1 27.222000 36.269144 0.066186 
578 1 27.920000 37.478115 0.083478 
579 1 27.222000 38.687087 0.010663 
580 1 27.920000 39.896058 0.023150 
581 1 27.222000 41.105030 0.087555 
582 1 27.920000 42.314001 0.093854 
583 1 27.222000 43.522973 0.004225 
584 1 27.920000 44.731944 0.086986 
585 1 27.222000 45.940916 0.031818 
586 1 27.920000 47.149887 0.049897 
587 1 27.222000 48.358859 0.077615 
588 1 27.920000 49.567830 0.025804 
589 1 30.014000 0.000000 0.075061 
590 1 29.316000 1.208971 0.057079 
591 1 30.014000 2.417943 0.069303 
592 1 29.316000 3.626914 0.072521 
593 1 30.014000 4.835886 0.003929 
594 1 29.316000 6.044857 0.088134 
595 1 30.014000 7.253829 0.055631 
596 1 29.316000 8.462800 0.094223 
597 1 30.014000 9.671772 0.094886 
598 1 29.316000 10.880743 0.070216 
599 1 30.014000 12.089715 0.036447 
600 1 29.316000 13.298686 0.015681 
601 1 30.014000 14.507658 0.065485 
602 1 29.316000 15.716629 0.056775 
603 1 30.014000 16.925600 0.004905 
604 1 29.316000 18.134572 0.087136 
605 1 30.014000 19.343543 0.016287 
606 1 29.316000 20.552515 0.022974 
607 1 30.014000 21.761486 0.023902 
608 1 29.316000 22.970458 0.086808 
609 1 30.014000 24.179429 0.094352 
610 1 29.316000 25.388401 0.042887 
611 1 30.014000 26.597372 0.033129 
612 1 29.316000 27.806344 0.081121 
613 1 30.014000 29.015315 0.057981 
614 1 29.316000 30.224287 0.013056 
615 1 30.014000 31.433258 0.026869 
616 1 29.316000 32.642230 0.030173 
617 1 30.014000 33.851201 0.044332 
618 1 29.316000 35.060172 0.001499 
619 1 30.014000 36.269144 0.011068 
620 1 29.316000 37.478115 0.093221 
621 1 30.014000 38.687087 0.005823 
622 1 29.316000 39.896058 0.075681 
623 1 30.014000 41.105030 0.029015 
624 1 29.316000 42.314001 0.097794 
625 1 30.014000 43.522973 0.050335 
626 1 29.316000 44.731944 0.080965 
627 1 30.014000 45.940916 0.094944 
628 1 29.316000 47.149887 0.069262 
629 1 30.014000 48.358859 0.041892 
630 1 29.316000 49.567830 0.071334 
631 1 31.410000 0.000000 0.001155 
632 1 32.108000 1.208971 0.068260 
633 1 31.410000 2.417943 0.047261 
634 1 32.108000 3.626914 0.065538 
635 1 31.410000 4.835886 0.054007 
636 1 32.108000 6.044857 0.078983 
637 1 31.410000 7.253829 0.067008 
638 1 32.108000 8.462800 0.064298 
639 1 31.410000 9.671772 0.025078 
640 1 32.108000 10.880743 0.074491 
641 1 31.410000 12.089715 0.035570 
642 1 32.108000 13.298686 0.012728 
643 1 31.410000 14.507658 0.081439 
644 1 32.108000 15.716629 0.058852 
645 1 31.410000 16.925600 0.047914 
646 1 32.108000 18.134572 0.010705 
647 1 31.410000 19.343543 0.067256 
648 1 32.108000 20.552515 0.025011 
649 1 31.410000 21.761486 0.011790 
650 1 32.108000 22.970458 0.017513 
651 1 31.410000 24.179429 0.082868 
652 1 32.108000 25.388401 0.044962 
653 1 31.410000 26.597372 0.059148 
654 1 32.108000 27.806344 0.031325 
655 1 31.410000 29.015315 0.001442 
656 1 32.108000 30.224287 0.024943 
657 1 31.410000 31.433258 0.094998 
658 1 32.108000 32.642230 0.071129 
659 1 31.410000 33.851201 0.078381 
660 1 32.108000 35.060172 0.069243 
661 1 31.410000 36.269144 0.078021 
662 1 32.108000 37.478115 0.051336 
663 1 31.410000 38.687087 0.036979 
664 1 32.108000 39.896058 0.048602 
665 1 31.410000 41.105030 0.024406 
666 1 32.108000 42.314001 0.044236 
667 1 31.410000 43.522973 0.068403 
668 1 32.108000 44.731944 0.021694 
669 1 31.410000 45.940916 0.046316 
670 1 32.108000 47.149887 0.012850 
671 1 31.410000 48.358859 0.067271 
672 1 32.108000 49.567830 0.015394 
673 1 34.202000 0.000000 0.087373 
674 1 33.504000 1.208971 0.095666 
675 1 34.202000 2.417943 0.017606 
676 1 33.504000 3.626914 0.067403 
677 1 34.202000 4.835886 0.088297 
678 1 33.504000 6.044857 0.033580 
679 1 34.202000 7.253829 0.072948 
680 1 33.504000 8.462800 0.080518 
681 1 34.202000 9.671772 0.077234 
682 1 33.504000 10.880743 0.078153 
683 1 34.202000 12.089715 0.057213 
684 1 33.504000 13.298686 0.093466 
685 1 34.202000 14.507658 0.014771 
686 1 33.504000 15.716629 0.022860 
687 1 34.202000 16.925600 0.029261 
688 1 33.504000 18.134572 0.013632 
689 1 34.202000 19.343543 0.075433 
690 1 33.504000 20.552515 0.025519 
691 1 34.202000 21.761486 0.007415 
692 1 33.504000 22.970458 0.081037 
693 1 34.202000 24.179429 0.084734 
694 1 33.504000 25.388401 0.019626 
695 1 34.202000 26.597372 0.057276 
696 1 33.504000 27.806344 0.021995 
697 1 34.202000 29.015315 0.038450 
698 1 33.504000 30.224287 0.057520 
699 1 34.202000 31.433258 0.030427 
700 1 33.504000 32.642230 0.085911 
701 1 34.202000 33.851201 0.043446 
702 1 33.504000 35.060172 0.070082 
703 1 34.202000 36.269144 0.020828 
704 1 33.504000 37.478115 0.016583 
705 1 34.202000 38.687087 0.071751 
706 1 33.504000 39.896058 0.009816 
707 1 34.202000 41.105030 0.078120 
708 1 33.504000 42.314001 0.060684 
709 1 34.202000 43.522973 0.058493 
710 1 33.504000 44.731944 0.062495 
711 1 34.202000 45.940916 0.040236 
712 1 33.504000 47.149887 0.069326 
713 1 34.202000 48.358859 0.003053 
714 1 33.504000 49.567830 0.086489 
715 1 35.598000 0.000000 0.048254 
716 1 36.296000 1.208971 0.012359 
717 1 35.598000 2.417943 0.072843 
718 1 36.296000 3.626914 0.017711 
719 1 35.598000 4.835886 0.003332 
720 1 36.296000 6.044857 0.083734 
721 1 35.598000 7.253829 0.082538 
722 1 36.296000 8.462800 0.014391 
723 1 35.598000 9.671772 0.069693 
724 1 36.296000 10.880743 0.037238 
725 1 35.598000 12.089715 0.032738 
726 1 36.296000 13.298686 0.029031 
727 1 35.598000 14.507658 0.031986 
728 1 36.296000 15.716629 0.004745 
729 1 35.598000 16.925600 0.032936 
730 1 36.296000 18.134572 0.058305 
731 1 35.598000 19.343543 0.027052 
732 1 36.296000 20.552515 0.075779 
733 1 35.598000 21.761486 0.054920 
734 1 36.296000 22.970458 0.033129 
735 1 35.598000 24.179429 0.087486 
736 1 36.296000 25.388401 0.007049 
737 1 35.598000 26.597372 0.039514 
738 1 36.296000 27.806344 0.048883 
739 1 35.598000 29.015315 0.080916 
740 1 36.296000 30.224287 0.070602 
741 1 35.598000 31.433258 0.073547 
742 1 36.296000 32.642230 0.048731 
743 1 35.598000 33.851201 0.030524 
744 1 36.296000 35.060172 0.084908 
745 1 35.598000 36.269144 0.019142 
746 1 36.296000 37.478115 0.068073 
747 1 35.598000 38.687087 0.015929 
748 1 36.296000 39.896058 0.006904 
749 1 35.598000 41.105030 0.033895 
750 1 36.296000 42.314001 0.030554 
751 1 35.598000 43.522973 0.004947 
752 1 36.296000 44.731944 0.056525 
753 1 35.598000 45.940916 0.096294 
754 1 36.296000 47.149887 0.077895 
755 1 35.598000 48.358859 0.058797 
756 1 36.296000 49.567830 0.074803 
757 1 38.390000 0.000000 0.019434 
758 1 37.692000 1.208971 0.017873 
759 1 38.390000 2.417943 0.045889 
760 1 37.692000 3.626914 0.099738 
761 1 38.390000 4.835886 0.031952 
762 1 37.692000 6.044857 0.020495 
763 1 38.390000 7.253829 0.037376 
764 1 37.692000 8.462800 0.066197 
765 1 38.390000 9.671772 0.009745 
766 1 37.692000 10.880743 0.014570 
767 1 38.390000 12.089715 0.061228 
768 1 37.692000 13.298686 0.022113 
769 1 38.390000 14.507658 0.095697 
770 1 37.692000 15.716629 0.084366 
771 1 38.390000 16.925600 0.065001 
772 1 37.692000 18.134572 0.020140 
773 1 38.390000 19.343543 0.004904 
774 1 37.692000 20.552515 0.005583 
775 1 38.390000 21.761486 0.022859 
776 1 37.692000 22.970458 0.054167 
777 1 38.390000 24.179429 0.045704 
778 1 37.692000 25.388401 0.031587 
779 1 38.390000 26.597372 0.015552 
780 1 37.692000 27.806344 0.000630 
781 1 38.390000 29.015315 0.008979 
782 1 37.692000 30.224287 0.034734 
783 1 38.390000 31.433258 0.003213 
784 1 37.692000 32.642230 0.094273 
785 1 38.390000 33.851201 0.099904 
786 1 37.692000 35.060172 0.090432 
787 1 38.390000 36.269144 0.077277 
788 1 37.692000 37.478115 0.095360 
789 1 38.390000 38.687087 0.077516 
790 1 37.692000 39.896058 0.065131 
791 1 38.390000 41.105030 0.044607 
792 1 37.692000 42.314001 0.044184 
793 1 38.390000 43.522973 0.000709 
794 1 37.692000 44.731944 0.091495 
795 1 38.390000 45.940916 0.065286 
796 1 37.692000 47.149887 0.016458 
797 1 38.390000 48.358859 0.026305 
798 1 37.692000 49.567830 0.031081 
799 1 39.786000 0.000000 0.082165 
800 1 40.484000 1.208971 0.089766 
801 1 39.786000 2.417943 0.066433 
802 1 40.484000 3.626914 0.057444 
803 1 39.786000 4.835886 0.033925 
804 1 40.484000 6.044857 0.040802 
805 1 39.786000 7.253829 0.088059 
806 1 40.484000 8.462800 0.083938 
807 1 39.786000 9.671772 0.014013 
808 1 40.484000 10.880743 0.087537 
809 1 39.786000 12.089715 0.029019 
810 1 40.484000 13.298686 0.079126 
811 1 39.786000 14.507658 0.060460 
812 1 40.484000 15.716629 0.070484 
813 1 39.786000 16.925600 0.069461 
814 1 40.484000 18.134572 0.093585 
815 1 39.786000 19.343543 0.097203 
816 1 40.484000 20.552515 0.065639 
817 1 39.786000 21.761486 0.027980 
818 1 40.484000 22.970458 0.087438 
819 1 39.786000 24.179429 0.012151 
820 1 40.484000 25.388401 0.009091 
821 1 39.786000 26.597372 0.036220 
822 1 40.484000 27.806344 0.068483 
823 1 39.786000 29.015315 0.061719 
824 1 40.484000 30.224287 0.078304 
825 1 39.786000 31.433258 0.064208 
826 1 40.484000 32.642230 0.011395 
827 1 39.786000 33.851201 0.095524 
828 1 40.484000 35.060172 0.049945 
829 1 39.786000 36.269144 0.011322 
830 1 40.484000 37.478115 0.078248 
831 1 39.786000 38.687087 0.042720 
832 1 40.484000 39.896058 0.061167 
833 1 39.786000 41.105030 0.069165 
834 1 40.484000 42.314001 0.070114 
835 1 39.786000 43.522973 0.029195 
836 1 40.484000 44.731944 0.072750 
837 1 39.786000 45.940916 0.031908 
838 1 40.484000 47.149887 0.012241 
839 1 39.786000 48.358859 0.088747 
840 1 40.484000 49.567830 0.058741 