LAMMPS data file via write_data, version 22 Dec 2022, timestep = 20000

6249 atoms
3 atom types

9.211456778382148 90.78854322161637 xlo xhi
-11.69235726982977 111.69235726982797 ylo yhi
-0.2469849166282092 10.246984916628492 zlo zhi

Masses

1 26.982
2 24.32
3 65.39

Atoms # atomic

2958 1 10.746937493363138 -7.375770396210071 4.068585799853946 0 1 0
2956 1 12.438472888681124 -7.074643072151839 2.2213672439577894 0 1 0
2708 2 10.916226619010558 -9.309205871444998 1.6519229194708365 0 1 0
7 1 12.665131815912773 -8.595088600385804 -0.2049360441362015 0 0 0
2957 1 12.69180159713301 -9.472652899120808 3.7459057996056058 0 1 0
446 1 49.683744200069945 4.400447011053011 3.934201930614601 0 0 0
2961 1 16.616410401358195 -9.225807094536457 3.6938200383436244 0 1 0
2962 1 14.492065674047605 -7.26213891379349 4.057200790364684 0 1 0
2960 1 16.508956947064238 -6.757289035730539 2.0400002107880284 0 1 0
2712 1 16.60778896991757 -8.45514481037163 10.218491468177152 0 1 -1
2959 1 14.614255180718587 -8.881767138840615 1.7584516370857504 0 1 0
507 1 18.50601424987849 -7.11714043661918 4.135785257625029 0 0 0
2964 1 20.485739278362388 -8.373861100342888 -0.17753313640049168 0 1 0
2966 1 18.526394244914954 -8.865943693728784 1.7943317414389353 0 1 0
2965 1 20.516716994445723 -9.177512283360636 3.656761448277784 0 1 0
2963 1 20.675474748458875 -10.951438612567943 1.4565830183458448 0 1 0
3110 1 22.397778737591157 -6.897913431370006 4.328670881741934 0 1 0
2968 1 24.510605781217706 -8.389052150146872 -0.09534889318244605 0 1 0
2970 1 22.50351850053115 -8.691046164448199 1.921856664721893 0 1 0
2969 1 24.3662068751554 -9.101174621315613 3.9308972084008635 0 1 0
2720 1 24.307859326693166 -10.940418146489602 1.5936974926992695 0 1 0
2973 2 26.34212888300567 -8.793753205203286 2.040419403105868 0 1 0
2728 1 27.39388099036711 -11.3869209191878 1.4395810219883418 0 1 0
3114 1 28.348155742106414 -9.17908768122277 4.397258552062326 0 1 0
2972 1 28.350268652601166 -8.637482333725547 9.69932673645756 0 1 -1
2977 1 28.953443902389793 -11.580575116422827 3.407670783314381 0 1 0
2918 1 26.37782855318403 -11.093707191573522 4.07683348959428 0 1 0
277 1 29.260649640631954 -9.347422480660063 1.820174816765622 0 0 0
279 1 31.523057695914773 -8.965392759621356 -0.09897816349860111 0 0 0
281 1 31.308616342002793 -11.475118453149506 1.847656781452201 0 0 0
514 1 31.042811585537613 -9.301331567454953 3.7660630489552602 0 0 0
3116 1 32.99529092977424 -11.152595683091771 4.490739352701726 0 1 0
286 1 33.25152025669785 -9.142586305224842 2.262820498899667 0 0 0
283 1 33.71741055995871 -11.2237188821504 0.33216522572319596 0 0 0
285 1 35.282872233719296 -11.424221965268185 2.684651921785908 0 0 0
284 1 35.63605841057769 -9.317258028359126 1.0864572550663993 0 0 0
290 1 37.28088993747657 -9.542579275228874 3.323540702333799 0 0 0
287 1 37.50041159591474 -11.551243102647817 1.25074578931789 0 0 0
2912 1 14.788683622417555 -11.44645041367962 3.58945653394898 0 1 0
294 1 41.100014530825284 -9.679351866754399 4.228696698471918 0 0 0
288 1 39.58350011318131 -9.504140006488196 1.7619202794388298 0 0 0
3083 1 20.618124721605533 -11.579056912789888 5.544031736693852 0 1 0
292 1 43.38311650667308 -9.794645550665404 2.495955602510723 0 0 0
44 2 41.744072441928566 -9.71352464670311 0.14545923897927582 0 0 0
48 1 45.84180292145957 -9.852904672763014 1.0837438886839843 0 0 0
922 1 49.89038189545132 10.567597925129967 6.142399035256025 0 0 0
494 1 46.10357524356508 10.780146180350556 5.281002263260107 0 0 0
296 1 47.32779132599385 -9.893269720398607 3.356111900901138 0 0 0
349 1 49.38776211639588 -8.083728980668628 3.736630612479325 0 0 0
97 1 47.75707507791483 -7.984666931721282 1.309022624863617 0 0 0
50 1 49.5010773812769 -10.111233169037998 1.7088612034023323 0 0 0
255 1 10.516561322157031 -6.663345913089563 0.004059480568445795 0 0 0
257 1 12.417714732560547 -5.332227344247804 4.523309253206037 0 0 0
258 1 10.454748819280395 -5.02725419448663 2.331919711008694 0 0 0
256 1 12.356842256225294 -4.607195487868254 0.6265958371304472 0 0 0
307 1 12.166886805379646 -2.969791481659371 2.9146885199518033 0 0 0
259 1 14.465529963829763 -6.581842356297576 0.20590704356434875 0 0 0
261 1 16.22883495222173 -5.1978896048069645 4.561450617929219 0 0 0
262 1 14.249303811514489 -4.733021633258328 2.589366498093084 0 0 0
260 1 16.11398750332878 -4.401959111436955 0.533115727478316 0 0 0
263 2 18.39723158682346 -6.2226501508056185 0.1718626900638452 0 0 0
265 1 20.38849163892718 -6.67261157065208 2.1995578540705223 0 0 0
266 1 18.181234624228345 -4.822077636646439 2.6227335941051386 0 0 0
264 1 20.219100040983463 -4.331181182621577 0.536382966486671 0 0 0
508 1 20.26471357775699 -4.978024186392672 4.528576704108789 0 0 0
533 1 18.157067958486348 -3.127122548901898 4.969118516871582 0 0 0
267 1 22.343838065076998 -6.1797741215003255 0.24264467365182446 0 0 0
269 1 24.344134746173665 -6.554862346710635 2.1734603246390125 0 0 0
509 1 24.240175639634575 -4.933793916517344 4.559527919935173 0 0 0
270 1 22.133727234830467 -4.61040291400279 2.6064978755965327 0 0 0
268 1 24.07420187368091 -4.222796324615358 0.6333078373497164 0 0 0
510 1 22.037952134307154 -3.111557688784597 4.856443381688146 0 0 0
271 1 26.22276600000005 -6.282763815553111 0.3049040801735887 0 0 0
2974 1 26.283612761573202 -7.03394197560438 4.197171561606675 0 1 0
273 1 28.314384890694342 -6.599293131656616 2.2878933328420206 0 0 0
274 1 26.012261260392947 -4.567046952571544 2.6130438239343103 0 0 0
272 1 27.940918021031045 -4.075822344470307 0.5448755557533443 0 0 0
22 1 28.042870091795507 -4.950626392664881 4.8104920142358445 0 0 -1
536 1 26.052922105471794 -2.8727975631816847 5.125602468949494 0 0 0
515 1 30.086856527405132 -6.90065700593776 4.606598086891532 0 0 0
282 1 31.188317482724017 -7.154294614693598 2.0656436554295725 0 0 0
517 1 32.96102177993569 -6.969305488842076 4.462353359290317 0 0 0
278 2 29.99081953341196 -4.696040459450175 2.2999853922362976 0 0 0
276 1 31.815221994177207 -4.566407048396669 0.27604383870705884 0 0 0
513 1 31.604505021872143 -4.679336416154197 4.689514186352428 0 0 0
2978 1 30.021731698865807 -6.357177940419801 -0.24180790365549065 0 1 0
280 1 33.493019602173526 -6.989136092748076 0.6345508650478404 0 0 0
335 1 35.2281676972739 -6.8555710429794265 3.007520182803133 0 0 0
337 1 37.51441077082342 -7.3261627206271065 1.4989323227053686 0 0 0
331 1 33.16266354550456 -4.929046546651448 2.689152347246258 0 0 0
333 1 35.557022482202335 -5.014300800874622 0.9904369230466765 0 0 0
340 1 37.27934361254729 -5.097099301187986 3.4692872351011976 0 0 0
339 1 39.22358281017142 -7.40250025712828 3.894584094676227 0 0 0
89 1 39.85889106858172 -7.487936863385826 -0.18746830093330927 0 0 0
341 1 41.48049178431434 -7.620872193812854 2.102378078336298 0 0 0
338 1 39.56809285298551 -5.398664341484113 1.9127461574755626 0 0 0
344 1 41.07028432256075 -5.361914611956689 4.445539965785482 0 0 0
93 1 43.804741160626286 -7.872826052327417 0.6107767328552984 0 0 0
345 2 45.404280012198406 -7.918029617581539 2.9873069884005283 0 0 0
343 1 43.07177433436838 -7.844805587773392 4.696108311924375 0 0 0
342 2 43.32997519582322 -5.593313302063351 2.6689545891433317 0 0 0
94 1 41.85401408514887 -5.727391156978972 0.43133345740130136 0 0 0
348 1 45.07845445190994 -5.768173989580419 4.985149835620672 0 0 0
2920 1 22.52485317350238 -11.301083074817216 3.520769576177035 0 1 0
98 1 45.88243152149129 -5.8926862374230256 0.7992261197152108 0 0 0
346 1 47.44365808107451 -5.999495195020985 3.3269755075937675 0 0 0
147 1 47.905103007276594 -4.038654331758956 1.2294136686986887 0 0 0
252 1 10.051626319616513 -2.783518668476347 0.8215266371628334 0 0 0
303 1 10.025355127664024 -0.9936375463270313 3.112593452361159 0 0 0
305 2 11.8576490548673 -0.6863601144613867 1.1205747335948313 0 0 0
308 1 11.689795656082024 1.072033280538987 3.4718851205491346 0 0 0
309 1 14.081023491296587 -2.4956578471874487 0.8820016637054251 0 0 0
311 1 16.055966449918756 -2.7645127158242513 3.107911482425737 0 0 0
312 1 13.999424161433474 -0.6538447630838835 3.2158625593148304 0 0 0
310 1 15.877128027497498 -0.3172770230053281 1.2913446489782483 0 0 0
361 1 15.734489699559253 1.4200757724438837 3.671626991185227 0 0 0
313 1 17.9200053658979 -2.469647451865537 0.9703654457733313 0 0 0
315 1 20.02967448567901 -2.518820374556686 2.998695556300177 0 0 0
316 1 17.90394514161261 -0.8864235743982292 3.3211050453027338 0 0 0
314 1 19.858808381427426 -0.30868615191654136 1.2815954664091007 0 0 0
317 1 22.04320679354984 -2.1838521621530766 0.8557346883736214 0 0 0
319 1 23.911076786186754 -2.637321045868708 2.957619726453071 0 0 0
320 1 21.881911828912507 -0.49426824320320684 3.3571821059966522 0 0 0
324 1 25.742138103444965 -0.5484012672206209 3.3138253555760193 0 0 0
318 1 23.766894146284955 -0.06268791968546594 1.3936054242797948 0 0 0
321 1 25.910253209931284 -2.167193917680315 0.9757609435549606 0 0 0
323 1 28.082575241153556 -2.5669285291344437 2.9985966871597585 0 0 0
328 1 29.716147374558183 -0.32177600217237057 3.181557369342084 0 0 0
322 3 27.790923445876707 -0.04552214194729132 1.2155869443133231 0 0 0
325 1 29.852336979727525 -1.9625000495772866 0.6823877621327701 0 0 0
327 1 31.731384846128222 -2.3598686633472568 2.915678817868487 0 0 0
332 1 33.70048409749437 -0.3134512736419257 3.2023407469689396 0 0 0
326 1 31.53198224285017 0.00625166734385374 1.2126421318601628 0 0 0
329 1 33.75962053263408 -2.889333136417326 0.8749998373966614 0 0 0
336 1 35.504422999789305 -2.8300534664706394 3.08771945295386 0 0 0
330 2 35.604308545584864 -0.8683691218712202 1.1670126519956954 0 0 0
385 1 37.43812201375074 -0.7157169499447509 3.644021836718017 0 0 0
334 1 37.70233927356937 -3.1295242192315573 1.5791403359897718 0 0 0
90 1 39.95214740182092 -3.2061125992309645 -0.09579856775198156 0 0 0
387 1 41.61454646518863 -3.433206623205905 2.213508154604513 0 0 0
384 1 39.574532735747965 -1.16731323548027 1.97363998955294 0 0 0
135 1 38.251120418769645 -1.2023144298103272 9.954195352593858 0 0 -1
390 1 41.22697520149631 -1.563807171569417 4.454508485136087 0 0 0
143 1 44.0181962592623 -3.7768586192873945 0.7542655120122181 0 0 0
393 1 43.22476310283475 -3.7477255104149334 4.638693457673756 0 0 0
395 1 45.64610911683246 -3.8335250533417247 2.8848115479487206 0 0 0
391 1 43.56439220216183 -1.5693272912677312 2.6770373529689557 0 0 0
139 1 42.123065090997045 -1.441402498693499 0.37500857301286183 0 0 0
399 1 49.371322388673114 -3.8866340722221056 3.8398229643088646 0 0 0
396 1 47.72797632223805 -1.759474076618762 3.467950269584675 0 0 0
148 1 46.01186103202096 -1.7546321016124278 0.9881822904944393 0 0 0
302 1 9.673006000874967 1.356440045513743 1.4568201472185447 0 0 0
353 1 9.698016883058951 2.9183240638498624 3.936556672403496 0 0 0
355 1 11.520361130839094 3.411113105948534 1.7998965585111981 0 0 0
103 1 9.434763448646672 3.939889739249587 -0.008239105324863744 0 0 0
352 1 9.269933210687858 5.370570045835205 2.527295219962571 0 0 0
358 1 11.297261548751653 4.978754681049214 4.25461808085585 0 0 0
306 1 13.678225866886997 1.5227277283893095 1.5735546224814876 0 0 0
357 1 13.477318377005892 3.146838010462666 4.0664640207936635 0 0 0
359 1 15.497044016569536 3.497718882376274 1.9653289947675794 0 0 0
107 1 13.461511957792379 3.9536524608231804 -0.242703435758671 0 0 0
362 1 15.40300781919051 5.180774706118999 4.364150523001759 0 0 0
366 1 17.551777259898742 3.258974472042256 4.165201615696667 0 0 0
363 1 17.70232660404149 1.60915054087444 1.4824569476750717 0 0 0
365 1 19.707632023337588 1.2153491896140896 3.497819803382005 0 0 0
116 1 17.372646687707388 4.0887958451336655 0.11672092710122112 0 0 0
364 1 19.472172991378038 3.6496997071333492 1.9736023567409395 0 0 0
120 1 21.298093835421426 4.3018926536976085 0.10727519205367309 0 0 0
415 1 19.42686169064349 5.3636883494733 4.446235231120883 0 0 0
367 1 21.568010925932075 1.8606244082230248 1.5831053848173473 0 0 0
119 1 23.482500478771563 2.3604748524694568 10.188203371243437 0 0 -1
369 1 23.67389684600846 1.5635049182741838 3.6118065809290925 0 0 0
371 1 25.58103089248084 2.1446141481325753 1.7471054549728537 0 0 0
370 1 21.72349987151127 3.2353498798980667 3.980609050421892 0 0 0
374 1 25.351461523940415 3.7645535544740714 3.9246830374841313 0 0 0
368 1 23.418068371681045 3.858043841411849 1.9753271913531876 0 0 0
124 1 25.365502601224485 4.339523763290437 0.023042323849034763 0 0 0
373 1 27.6338526665604 1.7067067806772496 3.562152683357631 0 0 0
123 1 27.642024535012837 2.337312614107109 9.987662969065363 0 0 -1
375 2 29.462945976582148 2.1270821841070777 1.6096421231897917 0 0 0
378 1 29.249343801360787 3.8236921153705783 4.038981292574025 0 0 0
372 1 27.32491345084729 4.054440053110566 1.9904230417729325 0 0 0
128 1 29.176137207887287 4.67850333960774 -0.146970013370406 0 0 0
377 1 31.53906252109728 1.6696847757473225 3.4441496051638483 0 0 0
127 1 31.418838053324215 2.5732167718297685 -0.18856456456719317 0 0 0
379 1 33.5022637568763 2.236359947671497 1.6034012359395213 0 0 0
382 1 33.282054600002674 3.7086856945328925 3.9978395944934064 0 0 0
376 1 31.179423230756434 4.19380647274094 1.924875244986171 0 0 0
132 1 32.97326458352485 4.652800187361105 -0.16883028311586915 0 0 0
381 1 35.35154311065856 1.5864476418780544 3.6173136985679353 0 0 0
383 1 37.7330198394567 1.2419051910369312 1.9261304416490046 0 0 0
386 1 37.11952846992385 3.5070821432284447 4.035136081010864 0 0 0
380 1 35.09159606918069 4.361660711912716 2.1389430567542544 0 0 0
181 1 36.7184851310303 4.9208589876785425 0.14381694498752357 0 0 0
131 1 35.21042845175328 2.9659131099349914 9.855143379567156 0 0 -1
435 1 39.48559546096679 0.876061141419596 4.1989391016292235 0 0 0
140 1 40.29521185118111 0.667865588702151 0.13242061052659887 0 0 0
433 1 38.47857341958811 4.876785952763129 2.2026501748004876 0 0 0
185 1 40.624765955377796 4.908613547904558 0.21683131038052195 0 0 0
437 1 40.10462384283162 2.583153005087958 2.124460377972172 0 0 0
136 1 38.57357442391248 2.8123613533521983 -0.03240130750964232 0 0 0
388 1 41.839202659528496 0.5490541385163361 2.5215693630043092 0 0 0
144 1 44.112662860836366 0.38498353726680357 0.7742507777807826 0 0 0
392 1 45.67800591152479 0.3364392826200202 3.221066775030735 0 0 0
394 1 43.41883893319705 0.2922414273626188 4.7844291919212445 0 0 0
189 1 42.40000864789513 2.5611855063958693 0.43950180429514474 0 0 0
441 1 43.86797027939714 2.6798594443694075 2.794868202929513 0 0 0
197 1 48.09552258114096 0.33012995103178255 1.385717469301901 0 0 0
445 1 47.50222910198918 2.3097699540674217 3.319328103914885 0 0 0
449 1 49.62323985841481 0.3819335809978561 3.937039072852519 0 0 0
193 1 45.91348933735025 2.519634701014473 1.0667604415597522 0 0 0
2910 1 16.608211749909994 -10.846414903838339 1.361778215521308 0 1 0
108 1 11.20680865214652 5.888561940926461 0.510836387309038 0 0 0
405 1 10.877265897363271 7.541839007376602 2.8384958832335117 0 0 0
157 1 13.085531369774184 8.048704192448604 0.6779100213460899 0 0 0
150 1 49.761353247120375 -2.027673016361703 1.7664265243166772 0 0 0
356 1 13.305676529994816 5.576422713810874 2.5016517173278587 0 0 0
112 2 15.305163515658151 5.999846882611497 0.5275647241681043 0 0 0
409 1 15.23547020829994 7.649972611731894 2.906324569423318 0 0 0
161 1 17.17454605202227 8.021854118556028 0.8522271086776882 0 0 0
407 1 13.022270855380595 7.040895454200996 4.906930954581455 0 0 0
360 1 17.2143703355093 5.557140268483984 2.512111797496181 0 0 0
413 1 19.11070896474301 7.660735992360934 2.8491173036300412 0 0 0
165 1 19.086395857772075 5.862131149877836 0.3294816369096131 0 0 0
417 1 21.101333351188003 5.85428001780604 2.4001536088806525 0 0 0
170 1 21.12889896699402 8.059697110534074 0.7654979488682412 0 0 0
169 1 23.108983509155188 6.239803589343406 0.41977744108564796 0 0 0
418 1 22.955984915866857 7.942835880181555 2.6655032240815593 0 0 0
421 1 25.10603154078973 5.881154439243012 2.383007233536549 0 0 0
419 1 23.19745491167151 5.565315590951929 4.428174455514599 0 0 0
174 1 24.829339130205426 8.463162423310262 0.7553414173804811 0 0 0
173 2 27.155423972471972 6.473495243907738 0.3857591098303238 0 0 0
422 1 26.896098716257214 8.109262718120096 2.9246795027890453 0 0 0
425 1 29.11356307821525 6.375703912175794 2.3895319414909815 0 0 0
423 1 27.223655520037674 5.651071286017757 4.427438818628533 0 0 0
178 1 28.835810387019535 8.483767796922592 0.8838333688547144 0 0 0
177 2 30.9562675556529 6.321109467833235 0.3607779270300593 0 0 0
426 1 30.933721761612176 8.146414345317577 2.679308144666902 0 0 0
429 1 32.85349846999921 6.3740949546803165 2.3920480979782166 0 0 0
427 1 31.117733161699007 5.909916381835927 4.355623168246836 0 0 0
227 1 32.659540782548476 8.634529669857134 0.8559858719920777 0 0 0
182 1 34.7289627172993 6.662815616984581 0.4448649779676721 0 0 0
431 1 35.074480526968095 5.914816725533225 4.491295239400299 0 0 0
430 1 36.701463751111866 6.513177611751946 2.6076810334781566 0 0 0
479 1 34.5969103659365 8.348324170916907 2.848507891431116 0 0 0
231 1 36.49510448175761 8.936806644578336 0.7975295850403619 0 0 0
186 1 38.60909827470783 6.939060050341656 0.3856177964175548 0 0 0
436 1 38.97430947004628 6.064386680723871 4.59799140614224 0 0 0
434 1 40.50800089177689 6.879075507778239 2.256328670408285 0 0 0
440 1 41.86986266653496 6.049898501957173 4.405671940749251 0 0 0
483 2 38.475440286839245 8.555073335502136 2.804140073658497 0 0 0
190 1 42.69597441638406 7.043282767747012 0.508357075216571 0 0 0
438 1 44.07413830228443 6.5604416830228445 2.953360488572279 0 0 0
194 1 44.058170941105374 4.624041010808984 0.6979828547078858 0 0 0
487 1 42.457977270393634 8.79002139533062 2.729664354055132 0 0 0
489 1 43.9524884000806 8.588876149131387 4.921204610196136 0 0 0
442 1 45.910468994080055 4.456402987621519 2.951934125620497 0 0 0
198 1 48.07686618403532 4.539092645342485 1.3959441977703673 0 0 0
495 1 47.80990235554634 6.604206728065499 3.5465086813316207 0 0 0
243 2 46.456713604755095 6.5741712198804265 1.2685738449771835 0 0 0
158 1 10.82048779026925 9.804052087171183 1.1908600301864867 0 0 0
455 1 10.576029577438579 11.303046053003282 3.5729438326677325 0 0 0
406 1 12.776522711472388 9.40292146430236 3.0948970927138784 0 0 0
207 1 12.564045335465725 11.916866688255713 1.5783166413152905 0 0 0
162 1 14.758850954314823 9.80086820365123 1.3520551210685534 0 0 0
459 1 14.532908458242467 11.49728600807277 3.601725011249412 0 0 0
410 1 16.82578583932282 9.607817201372498 3.3102666879493574 0 0 0
211 1 16.383548965163833 11.880654909085155 1.5337171676588834 0 0 0
166 1 18.72998641845531 10.108452581644347 1.1923782093488617 0 0 0
463 1 18.459865253433428 11.634667287877349 3.694255886328508 0 0 0
213 1 18.495526649263972 12.45009673146955 10.110612335220138 0 0 -1
414 1 20.810094743169884 9.778524673182861 3.2091568177118344 0 0 0
215 2 20.614949912162288 12.23466101242752 1.6654137373255182 0 0 0
467 1 22.55699099476341 11.8571464612099 3.4914881045804593 0 0 0
219 1 22.744354878358408 10.334500698715217 1.1040408349801591 0 0 0
217 1 22.437723553330933 12.550762278254577 -0.23395490691591916 0 0 0
471 1 24.74412914490054 9.909210309818643 3.2510216273940467 0 0 0
224 1 24.6122553694722 12.316343446574137 1.558779749727804 0 0 0
472 1 26.596362519805353 12.070841715165333 3.6070716263227998 0 0 0
223 1 26.639928033976652 10.500862815202286 1.1717478898137277 0 0 0
646 1 26.424873608404297 12.82406180997712 10.105294543651286 0 0 -1
648 1 28.266222824503892 12.583569597029111 1.7669873087522054 0 0 0
475 2 28.54330706935206 10.301963788652472 3.3978882790981153 0 0 0
900 1 30.384953612400423 12.15190946697178 3.6084559244344 0 0 0
228 1 30.48231423378261 10.58263971918857 1.1872220678967202 0 0 0
652 1 32.284183219630876 12.655405193528125 1.5776109424028772 0 0 0
476 1 32.68566695772319 10.220478870265481 3.3643444101824462 0 0 0
656 1 36.23437848606996 12.896981783809306 1.6380100956369406 0 0 0
904 1 34.13919762510861 12.464535522406191 3.473860385024603 0 0 0
232 1 34.285325068116876 10.911984330240799 1.2899243420757154 0 0 0
480 1 36.40495866784929 10.421640755224661 3.113883792527356 0 0 0
2913 1 18.59258824990254 -11.300846863953886 3.4340242682017608 0 1 0
236 1 38.41109064946647 10.754078165586368 1.126079462327919 0 0 0
908 1 38.25156690938441 12.795566693767078 3.7538688118751633 0 0 0
484 1 40.284636333838165 10.791489317915477 3.2537731417516187 0 0 0
235 1 40.475510300216236 8.955635239759172 0.6195835156732133 0 0 0
912 1 42.18720779004357 12.92582987717486 3.447248234066698 0 0 0
1148 1 49.48724173481265 12.414994503123182 8.038609051523997 0 0 0
240 1 42.17708676875553 11.118736557257836 1.1861320635099633 0 0 0
239 1 44.61441722080574 9.146727649259923 0.6106651174458283 0 0 0
488 1 44.241590678365135 10.933733967054252 3.030252805502812 0 0 0
244 1 46.50133014083863 11.099120175089304 1.1955703603565844 0 0 0
491 1 46.39891301798384 8.771034016076392 3.0394933172870937 0 0 0
492 1 48.175434263569876 10.703754383401616 3.360381743161065 0 0 0
248 1 48.48543222434324 8.484320214796078 1.5126420329983414 0 0 0
242 1 49.03832625828715 10.606874891697405 10.030724688112544 0 0 -1
2952 2 10.882500646136082 -10.84946304046318 9.82591987845295 0 1 -1
2706 1 12.725154521242413 -10.317401395938585 8.022335272486943 0 1 -1
503 2 10.699683066262335 -9.86587621288082 5.65887556014874 0 0 0
5 1 10.68907432510766 -8.231268037103217 8.081185416865722 0 0 -1
3104 1 12.464447780111502 -7.808414213982719 6.178000145658114 0 1 0
2662 1 14.834511711816258 -10.750909774506878 9.86440891239607 0 1 -1
9 1 14.520926458510598 -7.9671696620468175 8.129241741863058 0 0 -1
3106 1 16.410202215096056 -7.527988933411593 6.162590595681121 0 1 0
3105 1 14.666521088103483 -9.62474937031218 5.7941875016259905 0 1 0
2710 1 16.459747524966765 -9.853486974280706 8.009582686982617 0 1 -1
2716 1 18.5658712181177 -10.545346778130327 9.879839442291829 0 1 -1
2714 1 20.504220621388235 -9.754561617870396 7.73059442901448 0 1 -1
3108 1 20.451394966820185 -7.420958650953937 6.08950195300169 0 1 0
3107 2 18.38104508648249 -7.788285689758757 8.36973708990224 0 1 0
2916 1 18.558557626648692 -9.631331558952509 5.857525519196098 0 1 0
2715 1 22.5258633025647 -10.319886661864311 9.909643908193102 0 1 -1
2718 1 24.197876856700315 -9.7910790350326 7.955332890420202 0 1 -1
17 1 22.418359074425183 -7.887127345821657 8.377643800447464 0 0 -1
511 1 24.12998586719818 -7.275055130866871 6.08306928080577 0 0 0
3109 1 22.24231034949925 -9.447738827953684 5.726650524215378 0 1 0
2971 1 26.246565472901516 -10.76604858035833 9.500386192587639 0 1 -1
2724 1 26.135150749586764 -7.65202422741657 8.28396830311869 0 1 -1
3112 1 28.021159492668964 -7.301296256024719 6.395920108891496 0 1 0
3111 1 26.353114262177932 -9.499842433286329 6.208196763193293 0 1 0
2668 1 28.182102474317233 -11.050558089404756 7.663960563295913 0 1 -1
2721 1 29.972825953327778 -8.70605619276391 7.702322397250164 0 1 -1
2976 1 29.827953644820717 -11.200345910645712 -0.22806152079291342 0 1 0
2726 1 30.282237394125993 -11.14484521898331 5.9631868348891075 0 1 -1
2732 1 32.16373925744929 -11.017203936437292 8.508355896982827 0 1 -1
25 1 32.366786772832235 -9.033342079426 6.429347236265603 0 0 -1
518 1 34.82994221528918 -9.270133415271987 4.843907077907807 0 0 0
918 1 47.854658318246805 12.54104711962255 5.682286586174603 0 0 0
31 1 34.05134854798655 -9.101507127251335 9.038635397062329 0 0 -1
2730 1 34.396928697417124 -11.263809325621082 6.840784775816316 0 1 -1
35 1 36.07479010714879 -11.649918043716202 9.37053026536421 0 0 -1
34 1 36.42733451748176 -9.390810135428364 7.393535235442961 0 0 -1
238 1 44.23325190423881 11.475404306477117 9.566802910856357 0 0 -1
40 1 37.82460217915792 -9.54631020468776 9.916864400650594 0 0 -1
520 1 38.7846811342913 -9.43836064981341 5.907247683035924 0 0 0
914 1 44.1334199366885 12.436485343672679 5.330312771652059 0 0 0
38 1 40.298290003308985 -9.510306939263982 8.40791967763364 0 0 -1
298 1 44.85839140760745 -9.96865050347923 5.00249807534526 0 0 0
522 1 42.56164824180895 -9.785809038096204 6.63568725353797 0 0 0
42 1 44.021643859099015 -9.901960933016184 9.131657579951973 0 0 -1
624 1 49.3974847412852 8.311572677900593 7.978021164378497 0 0 0
2707 1 13.032650987167225 -11.010701594111293 1.4578657028898958 0 1 0
622 2 47.50178875830796 10.23854093909609 7.651632187266346 0 0 0
300 1 48.87031441930702 -10.22647021922997 5.801736277304222 0 0 0
524 1 46.46620179499063 -9.984775059404814 7.308307984702595 0 0 0
46 1 47.94064644335657 -10.073068862148832 9.589115995167544 0 0 -1
550 1 48.417413141559955 -8.107874723108093 7.668931301796298 0 0 0
95 1 46.191618424559906 -8.055521330472306 9.311188706551047 0 0 -1
6 1 12.576035321780086 -6.132639740265474 8.516282542328717 0 0 -1
504 1 10.5164725644341 -5.80458849420257 6.638156555049342 0 0 0
8 1 10.36248208230723 -4.239688075870469 8.949408388656659 0 0 -1
530 1 12.295544526314448 -3.745183629596956 6.807840738073181 0 0 0
502 1 10.206078332308778 -3.3723351527007637 4.698335031915513 0 0 0
11 1 16.493381766715125 -5.87891485299077 8.652092526880999 0 0 -1
505 1 14.345978236199535 -5.678970424957874 6.447627237442112 0 0 0
12 1 14.225834834810616 -4.106601032959101 8.923552381251968 0 0 -1
506 2 14.097753257713485 -2.966334643407034 5.052241358585225 0 0 0
10 1 16.10366123333705 -3.6310676293360444 6.895394943834034 0 0 -1
13 1 18.238559165101087 -5.483712124314623 6.556445060251414 0 0 -1
15 1 20.355188014590027 -5.916874449715969 8.647755968768745 0 0 -1
16 1 18.149139955195537 -3.7889871291157142 9.172290865155098 0 0 -1
532 1 20.164301662548347 -3.5445616865104306 6.944921115652151 0 0 0
19 1 24.26301126372337 -5.740567467657123 8.630314358537875 0 0 -1
14 1 22.193913462283195 -5.244585732779735 6.654727141643743 0 0 -1
20 1 22.157103120080315 -3.7403091658813112 8.954834171429146 0 0 -1
18 1 23.967029092048012 -3.4373514673522454 6.940498746543406 0 0 -1
21 2 26.040106521405015 -5.273171403580672 6.595457714759822 0 0 -1
23 1 27.898986458923062 -5.647931938069408 8.786154135801047 0 0 -1
24 1 25.927816664644595 -3.5994357779553052 8.882473972759758 0 0 -1
512 2 27.941046707710534 -3.2749277462117643 7.063874604544522 0 0 0
2722 1 30.0100342115349 -5.209835132834918 6.921762876809158 0 1 -1
275 1 31.958935010051952 -6.973837326099081 8.459936006703579 0 0 -1
28 1 29.825153100290997 -3.4751954179141507 9.026904215836195 0 0 -1
27 1 32.80335288933803 -5.404570423168889 6.694220506316674 0 0 -1
544 1 36.93173463155038 -7.269614937717098 5.3470212592058886 0 0 0
542 1 35.20556612624039 -5.106175266859385 4.976385127858857 0 0 0
33 1 34.608292589106036 -7.443998646560762 7.019223281459972 0 0 -1
36 1 36.10141208722155 -7.2633131567985085 9.522425128879348 0 0 -1
32 1 34.00667960317405 -4.864602347579055 9.227001955829353 0 0 -1
516 1 36.50579112684335 -5.461743893974733 7.5200088334798645 0 0 0
546 1 40.691374342933315 -7.499513033761797 6.240245736465954 0 0 0
87 1 38.52974271923824 -7.548662594231337 7.869963908759807 0 0 -1
85 1 38.01943445729834 -5.3051515883116425 10.14925621146325 0 0 -1
88 1 40.377734030650224 -5.582488442747333 8.460229780838382 0 0 -1
545 1 38.78382525252227 -5.417428906152957 6.094773253554378 0 0 0
548 1 44.5359395716082 -7.760547302728604 6.8630393576741096 0 0 0
91 1 42.26370412421222 -7.493074429671072 8.608279345493866 0 0 -1
92 1 44.33531569272917 -5.619208951433203 9.074378967474448 0 0 -1
547 1 42.598596226285814 -5.486579096312899 6.825852198977192 0 0 0
347 1 46.92449246215523 -7.9180632858951885 5.308404648903068 0 0 0
350 1 49.013281835821424 -5.970508923085176 5.6295107628848795 0 0 0
549 1 46.75828746850212 -5.742881902828571 7.401984514011738 0 0 0
96 1 48.27022316488494 -5.892968354012098 9.697284004226072 0 0 -1
2 1 10.168257816876343 -1.892191465630935 7.1652652997616455 0 0 -1
528 1 12.066809547764832 -1.1639707356477533 5.1178086903594915 0 0 0
57 1 12.010503830111073 -2.2937540527797875 9.352144650529887 0 0 -1
53 1 9.840103166540692 -0.3674090535704071 9.507972166442947 0 0 -1
527 1 9.748457609827229 0.6847501979734147 5.711989866902771 0 0 0
55 1 11.932712331158212 0.13680033777089662 7.689652461228916 0 0 -1
59 1 13.910539234858861 -1.5739714111028178 7.308264286082825 0 0 -1
61 1 15.95225173474757 -2.0583001620992647 9.225579602034477 0 0 -1
531 2 15.915018085329223 -1.0743036470189065 5.318271037477568 0 0 0
62 1 13.885742375986952 -0.12398927592698072 9.867906294826865 0 0 -1
60 1 15.721001988178681 0.4205997093323095 7.669511471740654 0 0 -1
529 1 13.580865514568789 0.8028930134960053 5.591871994652048 0 0 0
63 1 18.011243184119085 -1.5543794089503589 7.331259285556887 0 0 -1
65 1 19.948263736496237 -1.9910829118417936 9.424434264097028 0 0 -1
66 1 17.78494372915692 -0.008087088014814725 9.778811367918818 0 0 -1
534 1 19.836807179566364 -0.988696016050195 5.424049278034341 0 0 0
64 1 19.706027116115667 0.4889719567339874 7.765143056225991 0 0 -1
557 1 17.763906638922702 0.8421547463149022 5.685424068898623 0 0 0
69 1 23.97553954223865 -1.7160395401329236 9.36468033888906 0 0 -1
67 1 21.919214889280894 -1.4799310406837627 7.335904982596561 0 0 -1
559 1 21.65020434185687 0.9877304826040092 5.710473092586709 0 0 0
70 1 21.641229320432437 0.2078767713353784 9.774261395833744 0 0 -1
535 1 23.814734053105845 -0.9287769115357509 5.186974230876602 0 0 0
68 1 23.673023114931162 0.5698745124838691 7.742857496003403 0 0 -1
561 2 25.66314872295245 1.3158845816844789 5.4905691748845165 0 0 0
73 1 27.74303659934703 -1.6675016798821662 9.254317390602464 0 0 -1