ITEM: TIMESTEP
0
ITEM: NUMBER OF ATOMS
12000
ITEM: BOX BOUNDS pp pp pp
-5.9098402990169774e-03 2.7346909840298856e+01
7.2146666857975106e-04 2.7340278533331023e+01
-3.5654840423504197e-02 2.1876365484042282e+02
ITEM: ATOMS id type x y z c_peratom fx fy fz 
202 2 5.50287 0.013867 5.51542 -25.2571 -0.120037 -0.11066 -0.742631 
242 2 5.52279 5.41006 5.47771 -25.5784 -0.565485 0.556918 -0.209643 
1201 2 5.44102 2.75804 2.69659 -25.6153 0.669282 -0.73529 0.21782 
1202 2 5.46735 2.74737 8.18216 -25.4217 0.533663 0.0182578 0.649969 
2041 2 2.74153 5.4519 2.72128 -25.5968 0.0185429 -0.19591 -0.980773 
2042 2 2.78662 5.45491 8.18701 -25.7704 -0.337827 0.481727 -0.378172 
3002 2 2.80072 2.72677 5.44546 -25.5446 -0.424244 -0.0296526 -0.618039 
4001 1 1.33201 1.4346 1.43176 -7.31744 1.00465 -1.28825 -0.801747 
4002 1 1.47213 1.37324 6.80044 -7.76283 -1.26815 0.620924 -0.556932 
5001 1 4.13866 4.07684 4.07755 -7.54045 0.0495846 0.0553905 -0.0498446 
6001 1 4.10587 4.09049 1.36584 -7.56083 -0.404186 -0.113706 0.318533 
6002 1 4.18665 4.07949 6.76095 -7.59211 -0.810768 -0.316324 0.791355 
7001 1 1.39545 1.35114 4.06102 -7.1033 -0.808322 0.15779 0.843465 
8001 1 4.05447 1.32755 4.06117 -7.50334 1.14312 -0.122299 0.586496 
9001 1 1.32631 4.05911 1.34313 -7.28103 0.167377 0.890415 -0.32121 
9002 1 1.37697 4.19474 6.70862 -7.59006 0.691711 -1.25936 0.869073 
10001 1 1.41399 4.06014 4.03623 -7.70047 0.0823263 0.171363 -0.113812 
11001 1 4.13016 1.36477 1.37463 -7.6541 -0.116719 -0.015111 -0.514768 
11002 1 4.13147 1.39595 6.8411 -7.7842 0.749473 -0.277417 -0.16542 
4041 1 1.33359 6.81523 1.22408 -7.23807 -0.0316053 -0.179683 0.515271 
4042 1 1.43334 6.83112 6.66632 -7.46664 -0.470697 0.520767 0.647241 
11041 1 4.05987 6.80989 1.32664 -7.51997 0.0532148 0.474338 0.169887 
42 2 0.138446 5.4309 5.28395 -25.4135 -1.36784 1.14918 0.773648 
8041 1 4.03665 6.79906 4.0638 -7.30288 0.638596 0.291 0.0620686 
11042 1 4.18295 6.75357 6.81759 -7.17711 0.192168 0.154788 0.194223 
241 2 5.45321 5.44426 0.100357 -25.589 0.107273 0.819692 -1.32378 
3001 2 2.71922 2.65539 -0.0215523 -25.5405 -0.0456184 1.30118 0.91343 
7241 1 6.75108 6.82859 4.16088 -7.66614 -0.143935 0.270493 -0.0874092 
2002 2 2.70331 0.0339073 8.12092 -25.4664 0.641868 0.0212886 1.13585 
201 2 5.48332 0.048882 0.00552817 -25.6239 0.317933 0.351618 0.473091 
1 2 0.0555686 0.0153534 0.0407908 -25.7104 -0.819498 -0.142208 -0.570827 
9202 1 6.84532 4.08001 6.82003 -7.4394 0.271817 -0.134047 0.372448 
9201 1 6.83264 4.11546 1.32505 -7.42625 0.188637 0.3103 0.681386 
4201 1 6.93001 1.47283 1.4607 -7.02721 -0.412267 -0.815321 -0.382199 
4202 1 6.96321 1.37081 6.78339 -7.51146 -0.881044 -0.33637 0.368436 
7201 1 6.87151 1.32441 4.12104 -7.42943 -0.842825 0.412295 0.273085 
10201 1 6.85642 4.08125 4.06761 -7.69172 -0.749175 -0.109974 0.00203178 
442 2 10.9752 5.58331 5.47621 -25.8983 -0.895032 -0.843723 -0.221984 
1401 2 10.9664 2.80979 2.72322 -25.6462 -0.359728 -0.474654 0.314665 
1402 2 11.0138 2.71564 8.17354 -25.6662 -0.176301 0.442955 -1.05617 
2241 2 8.0858 5.45008 2.73106 -25.6584 1.19457 0.935685 0.0346835 
2242 2 8.2203 5.48086 8.24865 -25.5051 0.106099 -0.644348 -0.473687 
3202 2 8.24447 2.77458 5.39989 -25.9175 0.273378 -0.0573834 0.73889 
4401 1 12.4478 1.31315 1.37868 -7.57218 -0.917662 1.04043 -0.464606 
4402 1 12.3117 1.3236 6.80913 -7.0648 0.423035 0.321161 -0.133057 
5201 1 9.504 4.18827 4.11693 -7.16134 0.793006 -0.0785701 -0.439199 
6201 1 9.60475 4.19067 1.41282 -7.6424 -0.199838 -0.208897 -0.0473595 
6202 1 9.57445 4.22893 6.77334 -7.19278 0.246087 -0.270187 0.884945 
7401 1 12.2523 1.4077 4.10425 -7.25202 0.474259 0.000360147 -0.473879 
8201 1 9.60475 1.42266 4.05973 -7.44884 -0.495035 -0.547311 -0.166698 
9401 1 12.306 4.09929 1.2978 -7.79532 0.376969 0.109846 -0.17308 
9402 1 12.3419 4.13572 6.69639 -7.34618 0.344939 -0.531618 0.331122 
10401 1 12.2789 4.15719 3.98541 -7.47736 0.464348 0.141376 0.4252 
11201 1 9.65351 1.45318 1.37011 -7.35711 0.579748 -0.245676 -0.170264 
11202 1 9.67163 1.44851 6.76656 -7.31112 -0.437251 -0.271229 0.230208 
4442 1 12.3278 6.80022 6.90518 -7.34212 -0.0554309 0.764747 -0.471601 
4242 1 6.94839 6.76566 6.94997 -7.75543 -1.02291 0.256006 -0.522135 
402 2 10.9318 0.011868 5.35646 -25.7063 0.372664 0.492238 0.885508 
3201 2 8.39589 2.79187 -0.0249626 -25.7636 -1.79824 -0.505812 1.09389 
441 2 10.9122 5.52795 0.0852437 -25.5128 0.463126 0.00615423 -1.31907 
3402 2 13.7822 2.78463 5.40587 -25.5832 -1.81539 0.133238 0.614665 
2442 2 13.7551 5.43247 8.16451 -26.0288 -0.500444 -0.06614 0.0406583 
2441 2 13.6979 5.44823 2.70382 -25.5909 -0.136326 1.06876 0.341345 
3401 2 13.7655 2.79917 -0.0063135 -25.4277 -0.604303 -0.332554 -0.650754 
602 2 16.4079 0.0801725 5.4416 -25.4805 -0.407766 -0.818303 -0.566616 
642 2 16.4261 5.47227 5.35071 -25.6373 -0.014834 0.925511 0.355759 
1601 2 16.45 2.73989 2.65023 -25.3194 -0.127527 -0.087996 -0.954107 
1602 2 16.5184 2.69032 8.22831 -25.4973 -1.54549 0.890789 -0.850708 
2641 2 19.2122 5.41571 2.54702 -25.5313 -0.534845 0.721161 1.21341 
2642 2 19.1504 5.42699 8.14615 -25.5113 0.102824 0.893506 -0.583349 
3602 2 19.0784 2.8278 5.3271 -25.4599 0.85939 -0.797567 0.408253 
4601 1 17.9044 1.36754 1.28273 -6.94207 -0.969026 0.0752579 1.01537 
4602 1 17.7593 1.43725 6.71799 -7.72973 0.130106 0.249813 0.750532 
5401 1 15.057 4.13323 3.99975 -7.82843 0.312504 -0.449423 0.783997 
6401 1 15.0828 4.22725 1.33183 -7.56113 -0.106386 -1.36419 -0.577275 
6402 1 15.1408 4.15196 6.85783 -7.27708 -0.602302 -0.369395 -1.13879 
7601 1 17.7406 1.35368 4.00083 -7.78654 -0.1846 0.36917 0.200913 
8401 1 14.9342 1.44017 4.0472 -7.64704 1.25694 -0.515196 -1.01767 
9601 1 17.7926 4.07191 1.17006 -7.2717 -0.0868358 0.413173 1.09915 
9602 1 17.7384 4.19464 6.72209 -7.63543 1.22618 -0.663188 -0.204597 
10601 1 17.8098 4.15677 3.88126 -7.85006 -0.362072 -0.577233 0.782347 
11401 1 15.1222 1.36035 1.20511 -7.54619 0.270106 1.09956 0.828676 
11402 1 15.0446 1.43927 6.729 -7.53109 0.401106 -0.541677 0.941378 
4641 1 17.8583 6.82933 1.28478 -7.51105 -0.886777 -0.358518 -0.545146 
8441 1 15.0197 6.83164 4.14529 -7.16273 0.10616 -0.439786 -0.339824 
11602 1 20.4525 1.41189 6.65808 -7.45831 0.0597994 0.0709932 1.00909 
2602 2 19.1547 0.0287938 8.15554 -25.3438 0.11612 0.291858 -0.655216 
3601 2 19.1834 2.70298 -0.0211582 -25.9951 -0.0435394 -0.188246 -0.742718 
1001 2 27.3055 2.77745 2.68559 -25.6705 1.00467 -0.597461 0.252212 
6602 1 20.5544 4.12996 6.78095 -7.4694 -0.600399 0.323313 -0.184935 
11601 1 20.5401 1.34406 1.2574 -7.29782 0.336845 -0.385789 0.018336 
1002 2 27.3455 2.73773 8.05816 -25.3457 0.654919 0.428616 0.838097 
5601 1 20.5185 4.06458 4.10534 -7.38598 0.544892 1.24289 -0.597579 
6601 1 20.5266 4.03075 1.36742 -7.48406 -0.0699831 0.341755 -0.229831 
8601 1 20.5317 1.41943 3.94333 -7.28361 -0.462531 -0.64925 0.474573 
842 2 21.9574 5.54683 5.40236 -25.4784 -0.392763 -0.255283 0.215039 
1801 2 21.9167 2.68462 2.70342 -25.7398 -0.541683 0.79479 0.161528 
1802 2 21.8764 2.85013 8.1164 -25.5156 0.106784 -0.502476 -0.305727 
2841 2 24.6192 5.43077 2.66834 -25.6375 -0.0817128 0.95006 -0.210523 
2842 2 24.7443 5.46169 8.07642 -25.6001 -1.02193 0.936151 0.3234 
3802 2 24.6329 2.76717 5.40305 -25.3377 -0.191208 0.440123 0.234557 
4801 1 23.2133 1.39392 1.38747 -7.66601 1.06216 0.0118114 -0.516953 
4802 1 23.2048 1.54107 6.83166 -7.83231 0.444304 -1.0187 -0.290454 
5801 1 26.0228 4.19797 4.00071 -7.59082 0.270573 -1.05077 0.421775 
6801 1 25.9278 4.03815 1.3587 -7.72092 -0.342055 0.798844 -1.18432 
6802 1 26.0363 4.14586 6.71116 -7.67385 0.222164 -0.964312 0.281568 
7801 1 23.2642 1.35516 4.0872 -7.66892 0.0634078 -0.524491 0.351009 
8801 1 25.9541 1.3772 4.07796 -8.02224 0.437539 0.0873359 -0.461372 
9801 1 23.1608 4.15554 1.36233 -7.5366 0.888552 -0.451322 -0.340218 
9802 1 23.3075 4.28219 6.69664 -7.31088 0.0804235 -0.676779 -0.136802 
10801 1 23.336 4.05508 4.05477 -7.54468 -0.753345 0.591222 -0.371666 
11801 1 26.0679 1.43192 1.27305 -7.59375 -1.43325 -0.892682 0.10941 
11802 1 25.9859 1.36839 6.7325 -7.99347 -0.0342652 -0.0879534 0.138754 
11641 1 20.5285 6.80449 1.29152 -7.42797 0.0547547 -0.957622 -0.0284206 
11842 1 26.0241 6.81114 6.7322 -7.78358 0.127775 0.698276 -0.301678 
3801 2 24.5791 2.71774 -0.0305137 -25.1331 0.855485 -0.401495 0.162395 
2802 2 24.5643 0.0262482 8.11092 -25.1442 -0.137084 0.375705 1.01533 
2801 2 24.6486 0.0176174 2.76169 -25.3202 -0.515806 -0.643931 -0.722425 
11841 1 25.9555 6.82437 1.2832 -7.48125 -0.02404 0.155236 0.115092 
802 2 21.8316 0.0625631 5.45993 -25.5188 0.0775575 -0.298141 -0.324999 
2 2 27.3142 0.0196457 5.40884 -25.0535 0.517569 -0.216721 -0.0643305 
7041 1 1.42129 6.8828 3.92989 -7.83881 -1.07506 -0.17309 0.104884 
4241 1 6.80043 6.87631 1.37234 -7.49044 -0.303868 -0.557668 0.304093 
282 2 5.45453 10.8938 5.37572 -25.5795 -0.00914776 0.467511 0.346833 
1241 2 5.42792 8.24268 2.73087 -25.5839 0.538644 -0.513746 -0.784689 
1242 2 5.567 8.16424 8.10716 -25.6136 -1.63817 -0.00166241 1.87735 
2081 2 2.76058 10.9164 2.56266 -25.5268 -0.634729 0.565364 1.04695 
2082 2 2.75405 10.9241 8.03025 -25.7683 -0.372472 -0.782019 0.781213 
3042 2 2.63151 8.23292 5.30737 -25.5347 1.40502 -0.183922 1.19861 
4081 1 1.35477 12.2971 1.27468 -7.62388 -0.506993 0.224387 -0.465011 
4082 1 1.37594 12.41 6.67979 -7.54102 0.148894 -0.756117 0.238022 
5041 1 4.12229 9.55397 4.04308 -7.69743 -0.467558 0.0888459 -0.211515 
6041 1 4.12081 9.62943 1.28602 -7.6065 -0.160481 -0.826324 0.267579 
6042 1 4.0803 9.44492 6.77091 -7.38194 -0.272581 0.37336 -0.231909 
7081 1 1.34951 12.4408 3.95317 -7.53581 -0.567655 -1.1451 -0.0636601 
8081 1 4.04478 12.2965 4.05594 -7.33659 0.0279389 -0.365173 -0.333001 
9041 1 1.39645 9.53941 1.25463 -7.45211 -0.349078 0.147671 0.149249 
9042 1 1.26701 9.6005 6.71279 -7.54222 0.484138 0.0679965 -0.120176 
10041 1 1.41636 9.6573 4.01027 -7.68171 -0.597226 0.148962 -0.398805 
11081 1 3.98899 12.3475 1.29017 -7.30642 0.49854 -0.439399 0.375359 
11082 1 4.0882 12.1771 6.76334 -7.40096 0.373763 0.875821 -0.723661 
82 2 0.00381263 11.0564 5.36404 -25.4261 0.378864 -0.772195 0.272766 
1282 2 5.47403 13.6106 8.17713 -25.6127 -0.668034 0.940787 -0.520268 
3082 2 2.66197 13.6616 5.3238 -25.3289 1.42469 0.183472 1.12364 
4281 1 6.70844 12.36 1.25892 -7.48861 0.831792 -0.877195 0.0974307 
9242 1 6.8017 9.48966 6.79972 -7.7413 -0.0821522 0.673991 -0.308276 
10241 1 6.80938 9.64146 3.98833 -7.52899 0.542713 -0.264779 0.381637 
7281 1 6.73414 12.3795 3.99632 -7.42834 0.415807 -0.621964 0.300699 
9241 1 6.82812 9.5424 1.25546 -7.20824 -0.0627475 0.989781 -0.128797 
8241 1 9.44669 6.90637 4.06291 -7.18153 0.475471 -0.66663 -0.284554 
11242 1 9.55162 6.99013 6.74657 -7.19376 1.32313 -0.879329 0.676283 
4441 1 12.353 6.91333 1.46802 -7.7409 -0.789804 -0.882217 -0.617838 
7441 1 12.235 6.89106 4.12664 -7.40289 0.216038 -0.0325876 0.28315 
11241 1 9.5 6.87266 1.34034 -7.47719 0.583201 0.0246888 0.119195 
482 2 10.9342 10.9782 5.41261 -25.437 -0.4324 -0.492012 0.443346 
1441 2 10.8784 8.18072 2.73517 -25.5622 -0.09132 0.407012 0.54667 
1442 2 10.9679 8.29086 8.16444 -25.5383 -0.426737 -0.852407 0.257156 
2281 2 8.18288 11.0524 2.62789 -25.4157 -0.966808 -1.33039 0.541839 
2282 2 8.2101 10.9964 8.15649 -25.573 -0.39589 -0.398784 0.456551 
3242 2 8.1608 8.16087 5.51814 -25.7297 0.273019 1.14105 -1.34709 
4282 1 6.83273 12.2593 6.78354 -7.62433 0.0856952 -0.0169345 -0.313427 
4481 1 12.3548 12.3237 1.29537 -7.58639 -0.343397 -0.408229 0.19317 
4482 1 12.2727 12.3325 6.82945 -7.66644 0.529026 -0.269935 -0.806999 
5241 1 9.62885 9.54652 4.21998 -7.20006 0.0449526 0.283142 -0.586344 
6241 1 9.56206 9.60674 1.44275 -7.61184 0.224442 0.247388 -0.443097 
6242 1 9.47781 9.6307 6.92501 -7.20236 0.883928 -0.222064 -0.282618 
7481 1 12.1758 12.3641 3.99247 -7.85211 0.33077 -0.814458 0.47847 
8281 1 9.43657 12.2743 4.08391 -7.54073 0.558116 0.329712 -0.586119 
9441 1 12.294 9.57071 1.29991 -7.93592 0.339193 -0.0418059 0.719068 
9442 1 12.2974 9.54494 6.84444 -7.88925 0.137141 0.704192 -0.50107 
10441 1 12.4312 9.57567 4.102 -7.75934 -0.61255 0.900212 -0.374994 
11281 1 9.55202 12.3503 1.34291 -7.94803 0.084932 -0.211848 -0.324044 
11282 1 9.59802 12.2792 6.7496 -7.41035 -0.483885 0.914549 0.396262 
1482 2 10.9005 13.6651 8.16801 -25.5517 0.434758 0.291755 -0.416443 
3282 2 8.15814 13.668 5.37421 -25.7073 0.142814 0.370369 0.333998 
3482 2 13.5497 13.6353 5.35429 -25.3935 1.07709 0.405044 0.36393 
481 2 11.0011 10.9034 0.0535888 -25.3263 -1.09771 0.570632 -1.57277 
2481 2 13.6472 10.8846 2.63588 -25.2769 0.895102 0.436984 0.158754 
7641 1 17.8607 6.85116 3.94435 -7.14215 -0.0539621 -0.684229 0.591712 
11441 1 15.039 6.8357 1.39798 -7.51846 0.789318 0.460131 -0.769965 
11442 1 15.0491 6.88412 6.83148 -7.23817 -0.308142 -0.0948825 -0.252745 
2482 2 13.7243 10.9224 8.15682 -25.355 -0.448657 0.476739 0.233802 
3442 2 13.6943 8.29265 5.47152 -25.581 0.230396 -1.73632 -0.630353 
682 2 16.3991 10.9053 5.42698 -25.6 0.636523 0.806113 -0.92045 
1641 2 16.5374 8.1859 2.67273 -25.7127 -0.467637 -0.391988 -0.100199 
1642 2 16.4539 8.19011 8.06499 -25.629 -0.141613 0.118611 0.973842 
2681 2 19.1417 10.8363 2.69415 -25.4271 0.700588 0.651918 -0.939258 
2682 2 19.1236 10.9766 8.13388 -25.6996 0.36079 0.0876924 -0.71468 
3642 2 19.2786 8.21588 5.42925 -25.775 -1.1598 -0.595811 -0.130775 
4642 1 17.7248 6.91167 6.6809 -7.41097 1.02573 -0.157157 0.0594391 
4681 1 17.7604 12.3022 1.26652 -7.52386 0.123353 -0.444924 0.487684 
4682 1 17.8211 12.4194 6.65413 -7.07555 -0.0866852 0.0329273 0.424089 
5441 1 15.1997 9.43625 3.98516 -7.32639 -0.335012 1.13558 0.587157 
6441 1 15.1136 9.57814 1.29413 -7.64903 -0.413986 -0.140393 0.286253 
6442 1 15.0539 9.59222 6.74806 -7.92793 -0.279324 0.31709 0.526666 
7681 1 17.7936 12.2331 4.0172 -7.41751 -0.47758 -0.17311 -0.496212 
8481 1 14.9687 12.1606 3.9918 -7.45748 -0.0497552 0.428555 0.0164921 
9641 1 17.8713 9.53145 1.2171 -7.55582 -0.802615 0.417966 0.384373 
9642 1 17.753 9.67168 6.76625 -7.4473 0.128 -0.305705 -0.160741 
10641 1 17.9808 9.4924 4.01708 -7.5448 -0.954146 0.410894 0.306956 
11481 1 15.0688 12.3458 1.2956 -7.3148 -0.195863 -0.577872 -0.0298533 
11482 1 15.0299 12.3313 6.63481 -7.49368 -0.280502 -0.175073 0.837671 
1681 2 16.4231 13.6112 2.66262 -25.7196 -0.116065 0.199169 -0.278692 
3441 2 13.7079 8.1493 0.0797128 -25.3377 0.00334782 0.591713 -1.50966 
6642 1 20.4493 9.51718 6.83374 -7.37707 0.890657 0.971905 -0.722646 
8681 1 20.4987 12.2959 3.97406 -7.68721 -0.225093 -0.741098 -0.113447 
11642 1 20.5474 6.88 6.8496 -7.21488 -0.0950246 -0.854882 -1.06304 
4842 1 23.2868 6.96772 6.8427 -7.51574 0.559701 0.0134563 -1.07455 
7841 1 23.3444 6.88918 3.94685 -7.67695 -0.412284 -0.672028 0.930395 
8641 1 20.6124 6.89984 4.10572 -7.50681 0.100951 -1.34356 -0.401891 
4841 1 23.1967 6.84699 1.20424 -7.20767 0.778363 -0.476716 0.720161 
8841 1 26.0205 6.84826 3.93515 -7.27922 0.477226 0.385457 0.884847 
1041 2 27.3336 8.22762 2.63434 -25.5094 0.211477 0.0842288 -0.68398 
11681 1 20.5097 12.1225 1.15154 -7.5182 -0.43443 0.350807 1.34532 
11682 1 20.6299 12.2749 6.73497 -7.5648 -1.19763 0.510053 0.221185 
1042 2 27.2517 8.19282 8.04388 -25.233 1.48316 0.498864 0.664305 
5641 1 20.6797 9.50876 4.05195 -7.50999 -0.421737 1.11279 0.302309 
6641 1 20.5215 9.40112 1.3619 -7.28328 -0.13563 1.03361 -0.280821 
882 2 21.8492 10.9413 5.37791 -25.3936 0.804491 0.2534 0.386604 
1841 2 21.923 8.1605 2.65339 -25.877 0.131526 -0.0575735 0.0363492 
1842 2 21.9698 8.24081 8.15589 -25.7625 -0.866497 0.118136 -0.159243 
2881 2 24.6457 10.9646 2.75654 -25.4109 -0.415333 -0.115875 -1.11203 
2882 2 24.6394 10.9708 8.0575 -25.5958 0.289613 0.484561 0.957351 
3842 2 24.6789 8.29036 5.3694 -25.4176 -0.446505 -1.19139 -0.198712 
4881 1 23.2982 12.3202 1.37761 -7.47546 0.0770512 -1.00222 -0.849172 
4882 1 23.2653 12.4012 6.80965 -7.21288 0.495952 -0.722072 -0.736193 
5841 1 26.0115 9.59268 4.01351 -7.64165 0.78029 0.18334 -0.189101 
6841 1 25.9612 9.69042 1.30126 -7.43269 0.292978 -1.00181 0.00825687 
6842 1 25.9593 9.6277 6.66462 -7.6895 0.129764 -0.332489 0.786363 
7881 1 23.2037 12.3941 4.0077 -7.58949 0.639032 -1.18485 1.16621 
8881 1 25.9506 12.34 4.11302 -7.96251 0.0441671 0.0846692 -0.638077 
9841 1 23.2297 9.46256 1.30561 -7.37308 0.270227 1.34314 0.0821495 
9842 1 23.281 9.69582 6.75389 -7.60628 -0.637716 -0.480554 -0.134384 
10841 1 23.3531 9.59549 4.04775 -7.49158 -0.562359 0.544549 0.00419456 
11881 1 26.0282 12.3049 1.33798 -7.86311 -0.584716 0.824006 -0.185215 
11882 1 26.0559 12.3305 6.80201 -7.42045 -0.644851 -0.029728 0.029711 
1881 2 21.8898 13.5504 2.63471 -25.8321 -0.0643291 1.33924 -0.199349 
881 2 21.8059 10.7867 -0.0273532 -25.5559 1.45296 0.775763 -0.51006 
203 2 5.51442 0.00328716 10.9157 -25.8453 -0.178242 0.799235 0.520455 
2003 2 2.63666 0.00220011 13.6563 -25.6509 1.36451 0.279345 -1.06849 
204 2 5.41785 0.0716846 16.3347 -25.23 0.959375 -1.37385 -0.0665936 
243 2 5.46162 5.52651 11.0869 -25.9884 0.611772 -0.856602 -1.81501 
244 2 5.46091 5.43895 16.4027 -25.8261 -0.0278976 0.620197 1.01006 
1203 2 5.44338 2.75522 13.6681 -25.8701 0.548985 0.191316 -0.55218 
2043 2 2.66142 5.42697 13.6819 -25.2852 1.17878 1.30334 -0.790617 
3003 2 2.70263 2.76199 10.9589 -25.9779 0.621659 -0.659814 -1.05763 
3004 2 2.77889 2.78598 16.4162 -25.2684 -0.714347 0.36736 -0.237002 
4003 1 1.38922 1.36166 12.2992 -7.51137 -0.450602 -0.146959 -0.613823 
4004 1 1.40664 1.44635 17.8551 -7.63272 0.11061 0.068322 -1.08879 
5002 1 3.99994 4.14298 9.56544 -7.29048 0.822907 -0.641314 -0.19724 
5003 1 4.11229 4.26096 15.0441 -7.83187 -0.173366 -1.27704 -0.0717689 
6003 1 4.09321 4.09335 12.3023 -7.4274 -0.592692 0.465197 0.473301 
6004 1 4.08621 4.01243 17.8323 -6.95987 0.213162 0.483364 -0.8194 
7002 1 1.37432 1.3899 9.51085 -7.18911 -0.0925772 0.189396 0.183625 
7003 1 1.34144 1.41141 14.942 -7.63425 0.292536 0.147169 1.72895 
8002 1 4.1257 1.38449 9.56503 -7.34379 0.451263 0.0725051 -0.408157 
8003 1 4.06309 1.40287 14.8986 -7.60265 -0.771819 0.242753 1.40902 
9003 1 1.31582 4.02252 12.1946 -7.59106 -0.100115 0.612766 1.30605 
9004 1 1.39788 4.2392 17.6748 -7.45996 -0.674406 -0.614516 0.756022 
10002 1 1.30021 4.05473 9.51661 -7.27538 -0.0831337 0.469479 -0.740054 
10003 1 1.38267 4.20566 15.015 -7.83328 -0.432625 -0.68225 -0.3759 
11003 1 4.1766 1.46852 12.2658 -6.9489 -0.662475 -0.874982 -0.421932 
11004 1 4.1444 1.4011 17.6646 -7.9165 0.365522 -0.774615 0.0264701 
8042 1 4.11195 6.80886 9.61402 -7.01671 0.358118 0.23788 -0.686916 
11044 1 4.04929 6.75298 17.876 -7.22657 0.911234 1.10364 -0.485442 
7203 1 6.7063 1.34029 14.982 -7.48205 1.21121 0.130114 0.290807 
9203 1 6.81828 4.15239 12.3856 -7.2745 0.0327322 -0.17009 -0.391551 
9204 1 6.80193 4.04286 17.8408 -7.52698 0.652976 0.413187 -0.818421 
7243 1 6.81796 6.66863 15.0183 -7.17716 0.367992 1.14081 -0.0163649 
7042 1 1.44743 6.80826 9.55311 -7.43651 -1.20211 -0.100503 -1.44044 
11043 1 4.22406 6.80195 12.3148 -7.23984 -2.16114 0.553291 1.30461 
10202 1 6.81109 4.0968 9.62076 -7.53585 -0.4237 0.25054 -0.389911 
43 2 0.0156044 5.46895 10.8888 -25.6788 -0.347409 -0.116093 -0.123656 
44 2 0.00864281 5.58666 16.2943 -25.3711 -0.000402484 0.404504 0.834808 
4043 1 1.47487 6.72903 12.181 -7.54803 -0.745428 0.323135 1.01214 
4 2 0.0498356 0.00265008 16.4675 -25.3334 -0.662343 0.737231 -0.654985 
4203 1 6.86151 1.41255 12.3017 -7.21459 0.342223 0.00801166 -0.570638 
10203 1 6.8788 4.07089 15.0989 -7.36243 -0.356629 -0.747529 0.194193 
7202 1 7.00626 1.36514 9.53293 -7.37185 -1.69483 -0.130185 -0.446035 
404 2 10.989 0.00810293 16.3565 -25.7506 -0.347516 -0.0307387 0.00589409 
443 2 10.9378 5.43248 10.836 -25.6128 0.888316 -0.233272 0.58589 
444 2 10.9144 5.39867 16.3535 -25.4637 1.05297 -0.330628 -0.0999387 
1403 2 10.935 2.72056 13.5906 -25.792 0.481039 -0.160946 0.158943 
2203 2 8.28203 0.0245975 13.5634 -25.607 -0.506062 -0.0731478 0.958168 
2243 2 8.23599 5.43325 13.6989 -25.8072 -0.650672 -0.0146549 -0.909114 
3203 2 8.2089 2.73693 10.8388 -25.7549 -0.0227411 0.271322 1.38724 
3204 2 8.21025 2.6584 16.3351 -25.619 0.349903 0.332536 0.0613507 
4204 1 6.99777 1.28001 17.6946 -7.63036 -1.28279 0.22233 -0.00227355 
4403 1 12.3095 1.39915 12.251 -7.53255 -0.314443 -1.09506 0.125039 
4404 1 12.3969 1.26062 17.6446 -7.32881 0.182991 -0.0740591 0.977124 
5202 1 9.54294 4.14739 9.56125 -7.72707 0.59012 -0.387268 -0.32366 
5203 1 9.58202 4.00797 14.88 -7.4352 0.261606 0.702695 1.44018 
6203 1 9.5344 4.08496 12.2982 -7.25601 0.364983 -0.0586183 -0.985673 
6204 1 9.58616 4.07745 17.6557 -7.64958 -0.210035 0.373722 -0.279026 
7402 1 12.4353 1.35876 9.47755 -7.39723 -1.08259 -0.743858 0.573008 
7403 1 12.3322 1.34243 15.0233 -7.26083 0.200627 -0.000144985 -0.809409 
8202 1 9.61307 1.4501 9.51885 -7.63167 1.08069 -1.11433 -0.372137 
8203 1 9.58801 1.36815 14.9933 -7.44962 -0.450574 -0.356377 -0.713822 
9403 1 12.3062 4.02563 12.1694 -7.32757 -0.326113 0.707669 0.686707 
9404 1 12.3405 3.96819 17.772 -7.33799 -0.0235445 0.511066 0.289292 
10402 1 12.3894 3.97589 9.44901 -7.36732 -0.703394 1.07894 0.197942 
10403 1 12.3774 3.99469 15.0443 -7.34982 0.0430501 0.386874 -0.565449 
11203 1 9.58223 1.33532 12.2094 -7.55775 0.231897 -0.0763958 -0.00572851 
11204 1 9.64684 1.38927 17.6559 -7.30337 0.272808 -0.484391 1.07279 
11243 1 9.62288 6.7882 12.1561 -7.68575 -0.263571 -0.0578475 0.409947 
2403 2 13.6632 0.0391712 13.6296 -25.4263 0.176966 -0.216958 0.0406088 
7442 1 12.3168 6.7753 9.57477 -7.34273 0.24822 0.42376 -0.191051 
8242 1 9.65521 6.82139 9.42511 -7.67686 -0.514265 0.738551 0.42049 
8243 1 9.62605 6.76998 14.9653 -7.7665 -0.60841 -0.212276 0.0571534 
4443 1 12.3879 6.76758 12.2552 -7.23197 -0.261273 -0.0312316 -0.0560079 
4444 1 12.3578 6.6951 17.7449 -7.51661 -0.813308 0.986515 -0.57072 
7443 1 12.3129 6.65366 14.9289 -7.45935 -0.418305 1.01125 0.861688 
2443 2 13.7493 5.45148 13.6623 -25.765 -0.142708 -0.0846749 -0.458943 
3403 2 13.6864 2.66412 10.9365 -25.9081 0.482502 1.00853 -0.999256 
3404 2 13.7356 2.71743 16.4311 -25.5893 -0.305109 0.220945 -0.435578 
603 2 16.4191 0.0220774 10.9247 -25.4272 0.115027 0.194956 0.451615 
604 2 16.4333 0.0568245 16.4695 -25.3514 0.605369 -0.747952 -1.00968 
643 2 16.4616 5.53466 10.8547 -25.772 -0.543445 -1.08677 0.589523 
644 2 16.5059 5.45998 16.4499 -25.3893 -0.698354 0.801285 -0.688433 
1603 2 16.4256 2.69175 13.6658 -25.3118 0.211734 1.1446 -0.0067551 
2603 2 19.1811 0.135736 13.7014 -25.4818 0.0454679 -1.65413 0.00577311 
2643 2 19.1126 5.49013 13.6263 -25.6237 0.656889 -0.0767143 -1.10486 
3603 2 19.1805 2.67954 10.9035 -25.3194 0.0318936 1.04728 0.488348 
3604 2 19.2643 2.81512 16.4101 -25.3501 -0.347365 -0.267646 -0.560992 
4603 1 17.8425 1.43442 12.3743 -7.83696 -0.372538 -0.271192 -0.711439 
4604 1 17.9652 1.38028 17.7828 -7.85912 -1.03929 0.486352 -0.233164 
5402 1 15.078 4.08662 9.51782 -7.08431 0.356962 -0.291769 0.95128 
5403 1 15.197 4.1528 15.0528 -7.70361 -0.262302 -0.333232 0.474394 
6403 1 15.0384 4.12965 12.3447 -7.3781 0.336699 -0.241039 -0.499873 
6404 1 15.1172 4.1902 17.8644 -7.64899 -0.143289 -0.337049 -1.08754 
7602 1 17.8637 1.34188 9.55349 -7.97918 -0.500946 -0.0183668 0.0654363 
7603 1 17.835 1.41467 15.1064 -7.77129 -0.0115283 0.184806 -0.17285 
8402 1 15.1192 1.36595 9.56037 -7.3354 0.495106 0.181994 -0.562554 
8403 1 15.0877 1.38356 15.0115 -7.696 -0.122681 -0.00120354 -0.0428958 
9603 1 17.7897 4.10434 12.2613 -7.44971 -0.273037 0.270926 0.00282193 
9604 1 17.8229 4.14722 17.7918 -7.65166 0.0151869 -0.823035 -0.183505 
10602 1 17.7995 4.07338 9.47791 -7.64158 0.661513 -0.324509 0.517981 
10603 1 17.9727 4.21685 15.0581 -7.48514 -1.23454 -1.00015 0.193522 
11403 1 15.0253 1.3923 12.2736 -7.69997 0.6245 -0.00105557 0.36191 
11404 1 15.1677 1.41656 17.7149 -7.8413 -0.130992 0.239334 0.78165 
4644 1 17.8072 6.79563 17.7505 -7.43449 -0.00523715 0.714181 -0.667463 
6604 1 20.4848 4.20635 17.7967 -7.71531 0.452738 -0.0266327 -0.950514 
7642 1 17.7536 6.74148 9.46305 -7.51472 0.790652 0.902391 -0.554642 
8442 1 15.0483 6.7671 9.53256 -7.3996 -0.0243348 0.827601 -0.104109 
8603 1 20.6395 1.33406 15.0378 -7.61187 -0.289537 0.742621 0.0821763 
5603 1 20.5751 4.14293 14.9783 -7.4868 -0.014028 -0.475602 0.00582478 
8602 1 20.5178 1.45439 9.52604 -7.68058 0.0988192 -0.506152 -0.357706 
11603 1 20.5934 1.33617 12.3718 -7.57371 -0.338611 0.589163 -0.921699 
11643 1 20.5369 6.78277 12.1794 -7.46022 -0.43028 0.600883 -0.0705574 
6603 1 20.5124 4.05931 12.1873 -7.28591 -0.154213 -0.126898 0.354838 
1003 2 27.3354 2.71731 13.6565 -25.457 -0.269938 0.40553 -0.281477 
843 2 21.9038 5.41736 10.8222 -25.6374 -0.265387 1.14175 0.161888 
844 2 21.8603 5.51522 16.2998 -25.5998 0.0475794 -0.0399776 0.148334 
1803 2 21.964 2.75391 13.6201 -25.7049 -0.310879 -0.00860988 -0.275826 
2843 2 24.5999 5.52564 13.6246 -25.5621 -0.316724 0.0375423 -0.363809 
3803 2 24.5908 2.80431 10.8094 -25.542 0.217367 -0.329172 0.717989 
3804 2 24.6733 2.84134 16.3526 -25.7635 -0.0574649 -0.834829 0.13228 
4803 1 23.2964 1.42539 12.171 -7.11862 -0.17654 0.581426 0.782175 
4804 1 23.3845 1.38553 17.749 -7.24086 -0.7229 0.237603 -0.201342 
5602 1 20.571 4.1278 9.47051 -7.71424 -0.532197 0.310205 0.402887 
5802 1 25.9197 4.14953 9.54563 -7.55345 1.00565 0.119236 -0.323732 
5803 1 25.9999 4.17956 15.0353 -7.73091 0.0918848 0.294157 -0.473983 
6803 1 25.9547 4.121 12.3285 -7.48673 -0.12169 0.166322 -0.309407 
6804 1 25.9589 4.26645 17.716 -7.64423 0.308955 -0.494201 0.17812 
7802 1 23.1862 1.44525 9.55534 -7.53043 0.683348 -0.378846 -0.937827 
7803 1 23.4069 1.44775 14.9903 -7.4377 -0.976234 -0.100263 -0.149975 
8802 1 26.0314 1.46054 9.43232 -7.67158 -0.908576 -0.523795 0.462855 
8803 1 26.0038 1.40201 15.0581 -7.41039 0.725313 0.127477 0.120196 
9803 1 23.1882 4.17952 12.1533 -7.58004 0.995688 -0.763552 0.0375278 
9804 1 23.1752 4.06041 17.496 -7.36249 0.119534 0.575704 1.59844 
10802 1 23.3215 4.17976 9.31113 -7.43133 -0.685925 -0.591673 1.30663 
10803 1 23.2168 4.14559 14.9132 -7.30673 0.983731 0.209277 -0.57192 
11604 1 20.6623 1.51218 17.7136 -7.63387 -0.605391 -1.19505 -0.233523 
11803 1 25.9586 1.38007 12.2916 -7.5896 0.679951 0.173028 -0.62569 
11804 1 26.0415 1.42869 17.8075 -7.31432 0.719051 0.971269 -0.589275 
4844 1 23.2948 6.78917 17.7574 -7.62002 -0.585933 0.672461 -0.103393 
2803 2 24.6842 0.0475843 13.6734 -25.8475 -0.573768 0.17694 -0.498494 
804 2 21.9938 0.0355654 16.3541 -25.4908 -0.424263 0.56021 0.505296 
803 2 21.8671 0.0565481 10.8687 -25.7465 0.338526 -0.196557 0.561951 
3 2 27.3071 0.0707762 10.8681 -25.4857 0.546608 -0.0213825 0.406648 
7043 1 1.40476 7.00269 14.933 -7.60087 -1.10791 -0.898512 0.175279 
8043 1 4.08675 6.97267 15.1606 -7.19377 0.067435 -0.763433 -0.335988 
4243 1 6.81728 6.88839 12.3713 -6.93156 1.44051 -0.264629 0.12848 
4044 1 1.37983 6.89383 17.7807 -7.53925 -0.247428 0.867674 -0.490541 
3083 2 2.64668 13.6658 10.8286 -25.8741 1.59947 0.350647 0.988014 
83 2 0.0988881 10.9139 10.8436 -25.4052 -0.700384 0.0434618 -0.0978963 
283 2 5.43997 10.9061 10.8855 -26.0023 0.002174 -0.330921 -0.0619502 
284 2 5.55681 11.0037 16.4405 -25.2603 -0.904587 -1.33014 -0.298784 
1243 2 5.42418 8.15344 13.7082 -26.0522 0.800857 0.337515 -0.335722 
2083 2 2.85062 10.935 13.648 -25.8265 -0.812093 0.643014 -0.507351 
3043 2 2.65449 8.15934 10.8566 -25.727 1.94261 0.575341 0.012853 
3044 2 2.73751 8.34279 16.4064 -25.4391 0.324815 -0.92973 -0.0196828 
4083 1 1.40462 12.364 12.2894 -7.47404 -0.572817 -0.917882 -1.08728 
4084 1 1.29909 12.4491 17.6788 -7.8508 0.759564 -0.135161 0.666323 
5042 1 4.20106 9.53415 9.5484 -7.02017 -0.490589 -0.507862 -0.462395 
5043 1 4.16388 9.6017 14.9425 -7.25085 0.034171 0.176631 1.34747 
6043 1 4.0874 9.55565 12.2925 -7.32972 -0.389559 -0.066658 -0.481769 
6044 1 4.20863 9.64706 17.8063 -7.78325 -0.618001 -0.802062 -0.988236 
7082 1 1.43477 12.3331 9.42568 -7.62366 -0.234046 -0.00274892 0.519299 
7083 1 1.53825 12.3805 14.9146 -7.22813 -1.53264 -0.0488142 1.03148 
8082 1 4.06439 12.1792 9.42313 -7.12017 0.150682 1.06923 0.53134 
8083 1 4.13193 12.2409 15.0014 -7.26328 1.18163 1.02049 0.362914 
9043 1 1.29444 9.52213 12.1912 -7.96878 0.437368 0.239237 0.174009 
9044 1 1.31917 9.71387 17.7906 -8.06842 0.641823 -0.542133 -0.377212 
10042 1 1.41693 9.5847 9.40922 -7.55034 -0.338265 -0.292779 0.413568 
10043 1 1.46878 9.64451 15.0329 -7.31375 -0.197427 0.62666 -0.216074 
11083 1 4.0904 12.3262 12.175 -7.19243 0.469893 -0.616001 0.315937 
11084 1 4.01723 12.3346 17.7476 -7.91476 0.67912 0.211596 0.129554 
7283 1 6.82591 12.2719 15.0441 -7.92264 0.00337504 0.376088 -0.780961 
7282 1 6.72127 12.3904 9.4999 -7.64926 1.39795 -0.967496 0.430368 
10243 1 6.83202 9.46766 15.1302 -7.65403 -0.0173766 0.571644 -0.353877 
4283 1 6.82046 12.2524 12.1938 -7.72758 -0.211173 0.676421 0.969192 
4284 1 6.8034 12.4094 17.7329 -7.97763 -0.0708337 -0.773469 0.348872 
84 2 0.00118178 11.0696 16.378 -25.5867 -0.153864 -0.294758 -0.575025 
1483 2 10.8682 13.5776 13.5928 -25.5759 0.356474 0.426397 -0.0744241 
7242 1 6.86094 6.8578 9.72217 -7.48106 0.195598 -0.386575 -1.37179 
4244 1 6.85969 6.89496 17.6591 -7.41706 -0.397581 -0.676694 1.10892 
10242 1 6.92886 9.61076 9.61136 -7.30525 -0.202645 0.0724294 -1.01192 
9243 1 6.84763 9.56805 12.3354 -7.08323 -0.93306 -0.247334 -0.0608472 
9244 1 6.99045 9.63063 17.8913 -7.20863 -1.5504 -0.140485 -1.21096 
11244 1 9.59139 6.88993 17.6592 -7.69164 0.389856 -0.645755 0.399592 
3283 2 8.14802 13.6147 10.9009 -25.4522 0.901333 0.789603 -0.125896 
483 2 10.9117 10.8162 10.9583 -25.6603 0.50874 1.49267 -0.2164 
484 2 10.8518 10.9222 16.3326 -25.6883 0.8169 -0.0721666 -0.444485 
1443 2 10.8977 8.07876 13.6034 -25.5869 0.854333 0.561093 0.0349724 
2283 2 8.1128 10.8415 13.6191 -25.5076 0.838676 0.42772 0.495151 
3243 2 8.28691 8.16896 10.8451 -25.7268 -1.0859 0.476866 1.13145 
3244 2 8.22812 8.2034 16.3733 -25.6146 -0.325805 -0.327434 0.648438 
4483 1 12.3368 12.2633 12.0739 -7.1824 -1.11479 -0.479933 1.20485 
4484 1 12.3339 12.2761 17.5427 -7.47705 0.0201724 0.343698 0.615016 