# LAMMPS data file written by OVITO Basic 3.8.4

6 atoms
2 atom types

0.0 3.1903157234 xlo xhi
0.0 5.5257883072 ylo yhi
-15.0 20.0 zlo zhi

Masses

1 95.94  # Mo
2 32.065  # S

Atoms  # atomic

1 1 0.000000000 1.841929491 3.719750881
2 1 1.595157101 4.604823809 3.719750881
3 2 1.595157767 0.920964745 5.284635273
4 2 3.190315153 3.683858981 5.284635273
5 2 1.595157767 0.920964745 2.15486649
6 2 3.190315153 3.683858981 2.15486649
