ITEM: TIMESTEP
0
ITEM: NUMBER OF ATOMS
12000
ITEM: BOX BOUNDS pp pp pp
-1.0944538273239779e-01 2.7450445382732298e+01
-1.1022947312886977e-01 2.7451229473129168e+01
-8.0188867438667444e-01 2.1952988867439012e+02
ITEM: ATOMS id type x y z c_peratom fx fy fz 
242 2 5.25647 5.35181 4.71773 -24.8969 3.21542 -1.30044 0.77212 
1201 2 5.56727 2.62049 2.00802 -25.4654 0.390819 -0.809568 0.380208 
1202 2 5.30601 2.38962 7.63877 -25.0648 0.675904 1.64513 -1.98743 
2041 2 2.66765 5.19469 2.00367 -25.2145 0.222846 0.506629 0.214253 
2042 2 2.73127 5.22968 7.36219 -25.7028 -1.1229 1.21421 2.28911 
3002 2 2.52036 2.55159 4.73733 -25.0803 0.967579 -0.715152 -0.276377 
4001 1 1.27626 1.22391 0.480379 -7.57864 1.04516 -0.498759 1.58797 
4002 1 1.17791 1.00863 5.99339 -7.59336 1.97626 2.35296 2.55394 
5001 1 4.11995 4.00309 3.43825 -8.1345 -0.0230136 -0.516573 -0.439224 
6001 1 3.94074 3.68592 0.716982 -7.26311 1.01208 0.916443 0.628232 
6002 1 4.00626 3.95459 6.22246 -7.54487 0.462898 -1.83502 -1.68954 
7001 1 1.09985 1.27797 3.37978 -7.02924 0.503585 -0.228966 -0.69794 
8001 1 4.01663 1.22027 3.41493 -7.39178 -0.16063 -0.0350322 0.512775 
9001 1 1.31194 3.91555 0.76397 -7.27567 -1.72427 0.678281 -2.03093 
9002 1 1.21003 3.97969 6.09411 -7.65994 0.11212 -1.88332 -1.87593 
10001 1 1.27012 3.84821 3.28019 -7.82512 -0.750727 1.41455 1.80046 
11001 1 4.31258 1.0864 0.757577 -8.04644 -1.32599 1.56259 -0.454951 
11002 1 3.85896 1.16361 6.21059 -8.0824 0.96278 -0.298432 -0.00288815 
9201 1 6.70574 3.9716 0.439412 -7.57221 0.416197 -1.07765 -0.195964 
201 2 5.50727 -0.0699138 -0.599054 -25.0276 3.26083 -0.724648 -3.24604 
7041 1 1.32618 6.64273 3.53097 -7.84784 -0.437758 -0.198892 -2.04679 
4202 1 6.76594 1.05924 6.20665 -7.81801 -0.941417 0.788301 -0.644212 
42 2 -0.0283073 5.34157 4.70938 -24.6649 -0.594689 -0.822551 0.317114 
3001 2 2.78881 2.38995 -0.682226 -25.1496 -0.884383 1.46023 -0.688761 
11042 1 4.25975 6.61979 6.08025 -7.08989 -3.0894 1.02645 2.1821 
11041 1 4.12248 6.47178 0.818111 -7.70083 0.115056 0.256459 -1.06997 
4042 1 1.4602 6.54902 6.07156 -7.44197 0.0209233 1.81118 0.823768 
4242 1 6.7222 6.64475 6.13284 -7.43791 1.13348 -0.853937 0.135022 
241 2 5.4503 5.29013 -0.763711 -25.4645 -1.35868 -0.42877 -1.00461 
4201 1 7.14998 1.30748 0.855886 -6.85495 -1.49729 0.156659 -2.19473 
9202 1 6.78669 3.86887 6.05504 -7.14991 -0.286529 -0.204479 -1.01875 
4241 1 6.82597 6.5555 0.568219 -7.74087 0.62238 1.45549 -0.601761 
10201 1 7.26749 3.85449 3.15341 -7.27985 -2.62427 -0.703117 0.657469 
7201 1 6.86088 1.14797 3.42555 -7.15794 -1.73296 -0.422521 0.967815 
442 2 10.775 5.21313 4.60303 -25.3923 1.57424 1.09042 1.2542 
1401 2 11.0964 2.54585 2.00007 -25.6148 -0.525397 -2.11956 -1.6513 
1402 2 10.9718 2.44575 7.53839 -25.1627 -1.28471 2.45796 -3.37394 
2241 2 8.21091 5.28788 1.7502 -25.5498 1.05839 -0.262303 1.52597 
2242 2 8.23796 5.16159 7.41653 -25.1239 -1.81292 0.0843326 -0.259513 
3202 2 8.07748 2.46823 4.70649 -25.3836 1.08687 -0.510216 0.127235 
4401 1 12.4784 1.13377 0.559471 -6.79466 -0.669329 0.967729 -0.256714 
4402 1 12.4135 1.12726 6.05073 -7.39962 -1.03112 0.991647 -0.175422 
5201 1 9.85912 3.95426 3.03148 -7.12688 -0.725417 0.16463 0.706769 
6201 1 9.45116 4.01131 0.356647 -7.72024 0.635689 0.601282 0.648563 
6202 1 9.48914 3.73996 5.88902 -7.66816 0.739914 0.744733 0.621803 
7401 1 12.256 1.13146 3.28342 -7.36908 0.181385 -0.311403 0.859489 
8201 1 9.56223 1.01177 3.24868 -7.04619 0.356264 1.16097 1.33297 
9401 1 12.3139 3.9038 0.672155 -7.70578 0.000587839 0.836963 -0.312528 
9402 1 12.3083 3.90694 6.04202 -6.99938 -1.65643 0.230789 0.85405 
10401 1 12.4505 3.94539 3.42977 -7.86601 -1.16945 1.08791 -1.07457 
11201 1 9.76597 1.22689 0.602333 -6.91389 0.368597 -0.267847 -1.57204 
11202 1 9.54996 1.07097 6.02426 -7.62868 -0.0479793 0.27957 0.161646 
2441 2 13.6455 5.27778 2.0872 -24.9498 0.595264 0.444787 -1.12625 
7241 1 6.83123 6.46834 3.22268 -7.80691 -0.265875 1.12684 1.24477 
8241 1 9.61127 6.61937 3.22074 -7.22365 -1.5163 -0.380154 1.24789 
3402 2 13.6155 2.60134 4.65951 -26.0298 0.87575 -1.6875 0.205977 
11242 1 9.39316 6.49764 6.06352 -7.76379 0.946949 0.486516 -0.218092 
4442 1 12.2824 6.7144 5.97897 -7.03275 -0.805517 -1.42229 0.458262 
2402 2 13.638 -0.022598 7.52388 -24.9982 1.68585 -2.56715 -0.925937 
2202 2 8.22334 -0.0779801 7.51541 -25.2061 -0.0545451 -2.61636 -0.919665 
441 2 10.9058 5.32099 -0.696746 -25.3375 2.0142 0.0890812 -1.01217 
2442 2 13.7109 5.19225 7.54826 -25.726 0.00444457 0.42745 -1.8464 
642 2 16.4154 5.11694 4.7298 -25.2195 0.385542 0.681153 0.685738 
1601 2 16.5161 2.60031 1.96224 -25.1578 -1.05739 -1.77053 0.302501 
1602 2 16.491 2.43057 7.33522 -24.8719 -0.365321 0.577083 1.60554 
2641 2 19.1396 5.196 2.07229 -25.0417 1.11568 0.535492 -0.902386 
2642 2 19.2376 5.20683 7.575 -25.1679 -0.332978 0.253707 0.47749 
3602 2 19.1225 2.52591 4.77385 -25.4723 1.10696 -0.631075 0.439749 
4601 1 17.8934 1.06765 0.457215 -7.83757 -0.539019 0.483212 1.53614 
4602 1 17.8786 1.09009 6.11253 -7.60606 0.0395795 -0.360727 0.390537 
5401 1 15.1165 3.83564 3.29488 -7.35982 0.135082 1.10067 0.607209 
6401 1 15.0666 3.76446 0.703913 -7.85228 -0.192569 0.707437 -1.76361 
6402 1 14.8993 3.85855 6.01331 -7.11425 1.91221 2.19384 0.908847 
7601 1 17.7391 1.1081 3.36046 -7.90231 -0.763499 0.174641 -1.14161 
8401 1 14.9338 1.2009 3.19401 -6.9208 1.12273 -0.742814 0.507975 
9601 1 17.7986 3.98137 0.716524 -7.40532 -0.378712 -1.6633 -1.50707 
9602 1 17.7951 3.7216 5.99582 -8.05894 -1.04523 1.89692 1.65794 
10601 1 17.8654 3.81782 3.32407 -7.68287 -0.790563 0.12479 0.581739 
11401 1 15.0442 0.942356 0.600779 -7.55467 1.83879 0.259977 -0.852667 
11402 1 15.0787 1.4381 5.89497 -7.21585 0.943129 -3.06388 1.38131 
6601 1 20.4676 3.77884 0.593358 -7.62479 0.26961 0.0491955 1.96527 
5601 1 20.4733 3.95948 3.60519 -7.25814 0.0664359 0.0803536 -1.82143 
8601 1 20.3419 1.19513 3.62788 -7.14686 1.18399 -0.602859 -3.1688 
4641 1 17.6286 6.48789 0.487765 -7.51853 1.74028 2.94596 1.39833 
8441 1 15.3 6.56285 3.47536 -7.79561 -2.34707 0.290004 -0.397251 
6602 1 20.5276 3.86542 6.24027 -7.55182 0.467353 -0.729419 0.804291 
11442 1 15.0738 6.6397 6.24138 -7.12511 -0.510769 -0.535274 -1.51061 
7641 1 17.9298 6.54657 3.4412 -7.53643 0.832597 -0.753306 -0.315257 
4642 1 17.7889 6.5633 6.2098 -7.78786 1.01181 -0.955255 -0.77628 
11441 1 14.9053 6.59848 0.702614 -7.57845 0.0881432 0.0576799 0.512013 
3401 2 13.8673 2.42373 -0.750772 -25.1807 -1.51408 0.231745 -0.0548275 
641 2 16.3153 5.27016 -0.661677 -24.6762 -0.0986426 -0.810333 -0.567461 
3601 2 19.3941 2.42743 -0.776342 -25.1931 -2.00545 -0.182044 -0.712956 
1002 2 27.4127 2.59437 7.47852 -25.5589 0.888109 -1.70733 2.09283 
11601 1 20.5816 0.912243 0.592506 -7.89177 -0.907026 2.13027 1.88557 
11642 1 20.643 6.57493 6.28916 -7.41746 -0.832767 -0.352453 -1.01913 
841 2 21.965 5.21211 -0.734102 -25.3982 -0.289305 0.56115 -0.499177 
11602 1 20.8781 1.01502 6.13315 -6.67897 -2.32417 1.80802 1.99523 
1001 2 27.2999 2.60371 2.02289 -25.2566 1.36276 -0.317384 0.248939 
842 2 21.9975 5.16048 4.75028 -25.8114 -0.537639 0.395347 1.03356 
1801 2 21.9798 2.39548 1.88687 -25.1308 -1.45727 0.289006 0.923919 
1802 2 22.0053 2.47022 7.52532 -25.0548 0.43726 0.930836 -0.954069 
2841 2 24.6244 5.26931 1.92202 -24.9557 0.692955 -1.11167 1.29478 
2842 2 24.8001 5.28944 7.4683 -25.2021 -0.203498 -0.388409 1.33622 
3802 2 24.6237 2.65336 4.79833 -25.0346 -0.204449 -0.934237 -0.546241 
4801 1 23.2818 1.0462 0.588382 -7.08541 1.16994 1.72174 -1.40428 
4802 1 23.4243 1.16088 5.98001 -7.33279 0.682228 0.510002 0.166342 
5801 1 25.8248 4.08184 3.43876 -7.89801 2.14249 -0.253579 0.0733966 
6801 1 25.9225 3.85793 0.612567 -8.1552 0.487993 0.581979 0.0163039 
6802 1 26.034 3.72549 6.24904 -7.95505 -0.181345 0.818894 -0.928538 
7801 1 23.1055 1.02997 3.11838 -6.85208 0.642193 -0.26665 1.94767 
8801 1 25.9129 1.31615 3.49099 -7.52425 0.0839219 0.746503 0.576891 
9801 1 23.0687 3.874 0.678988 -7.63835 2.01428 -0.115162 -0.88347 
9802 1 23.3907 4.04501 6.19742 -7.76192 -0.805828 -2.07951 -0.501387 
10801 1 23.1873 3.74115 3.34445 -7.36743 0.106732 -0.248128 0.495817 
11801 1 26.0747 1.15361 0.828005 -7.54213 0.795585 0.889744 -1.51833 
11802 1 26.1566 0.906529 6.33195 -7.29766 -0.68492 0.793847 -0.193574 
7841 1 23.3786 6.40959 3.48042 -7.23152 0.630292 0.850782 -1.76776 
4841 1 23.4996 6.5242 0.623652 -7.819 -0.957773 1.14708 -0.714246 
4842 1 23.3646 6.58069 6.06943 -7.32287 1.10307 0.0406954 0.437344 
11842 1 26.2992 6.50187 6.18453 -8.00138 -1.20882 -0.260349 -0.296605 
8641 1 20.8814 6.663 3.47565 -7.39091 -2.67111 0.162326 -0.383053 
11641 1 20.6197 6.61082 0.644686 -8.06529 -0.697586 -0.502668 0.33105 
11841 1 26.3726 6.58987 0.417491 -7.8125 -1.26279 0.715619 0.850203 
8841 1 25.9579 6.76238 3.33858 -7.86784 2.61585 -1.12163 -1.43522 
1281 2 5.31901 13.6159 2.01579 -25.2705 0.670298 -2.23457 -2.03847 
4041 1 1.44487 6.79838 0.731949 -7.62442 0.0371212 -0.767685 -0.472662 
8041 1 4.15252 6.82738 3.51712 -7.3031 -1.05281 -0.685086 -1.49029 
282 2 5.43329 10.7865 4.78197 -25.5826 -0.459881 -0.669179 -0.296585 
1241 2 5.51007 7.89873 1.95985 -25.5882 -0.41128 1.45196 0.5789 
1242 2 5.45175 8.0581 7.4554 -25.4297 0.365171 -0.720272 -0.218709 
2081 2 2.88881 10.6977 2.18436 -25.517 -1.38285 0.996452 -2.46152 
2082 2 2.59123 10.7155 7.50997 -24.9771 -0.301539 0.148993 -0.733524 
3042 2 2.6643 8.10323 4.76302 -25.5138 0.808821 -1.34902 0.346697 
4081 1 1.10556 12.3484 0.508665 -6.82611 1.09145 -0.847964 -0.832846 
4082 1 1.0881 12.092 6.15119 -7.60665 1.35534 0.869526 -0.184453 
5041 1 4.19063 9.43181 3.44014 -7.14336 -0.572418 0.163916 -1.06277 
6041 1 4.18196 9.32378 0.514016 -7.44768 -0.429093 -0.338231 1.23036 
6042 1 4.03669 9.30442 6.01713 -7.42991 -0.408856 0.669952 1.36073 
7081 1 1.40809 12.2834 3.1985 -6.95487 -0.342583 -0.644347 1.1567 
8081 1 4.03613 12.2461 3.31673 -7.50204 0.965942 0.0846668 1.86093 
9041 1 1.40677 9.53022 0.621993 -7.12222 0.144175 -0.0608072 -0.364254 
9042 1 1.04349 9.3924 6.0542 -7.57466 2.34396 -0.874867 1.25779 
10041 1 1.52156 9.37559 3.42082 -7.56585 -1.59878 0.727769 -0.745372 
11081 1 4.11631 12.086 0.664052 -7.29198 -0.703535 0.379587 -0.936156 
11082 1 3.95867 11.9536 6.17343 -7.4702 -0.435388 1.01183 -0.266192 
4282 1 6.63823 12.2058 6.15396 -7.95967 0.858401 -0.0556867 -0.663103 
9241 1 6.78006 9.30938 0.668892 -7.29087 0.711168 -0.159519 -1.57671 
10241 1 6.73687 9.48509 3.30428 -6.93035 0.826549 -2.55012 0.805416 
1282 2 5.30216 13.5119 7.50893 -25.3798 0.459504 0.37339 -0.0136253 
3041 2 2.78764 8.08059 -0.721497 -25.4064 -0.577811 -0.374609 -0.348115 
1042 2 -0.0285967 7.90196 7.53977 -25.3692 0.616255 0.054771 -0.750197 
1041 2 -0.045664 7.97001 2.01799 -25.4287 0.33018 1.45925 -0.468938 
3081 2 2.68386 13.4355 -0.783934 -25.1525 -0.106638 0.170284 0.439693 
3282 2 8.06259 13.4544 4.62413 -24.6285 1.12636 1.00409 2.16046 
4441 1 12.2148 6.8012 0.463234 -6.96818 0.791415 -1.29171 0.611758 
3281 2 8.20686 13.4527 -0.554631 -25.3283 -1.03476 1.90342 -1.80207 
4281 1 6.85406 12.134 0.770652 -7.28987 -0.118981 -0.270765 -0.555014 
11241 1 9.67013 6.85906 0.627168 -7.53283 -2.49312 -1.92751 -1.88143 
9242 1 6.8442 9.3139 6.05875 -7.75741 -0.629247 1.20777 0.194188 
7441 1 12.2821 6.88267 3.25205 -7.29181 2.19678 -3.07693 0.0662628 
7281 1 6.86259 11.9978 3.48902 -7.59063 -0.246776 1.84726 -0.15263 
482 2 10.9336 10.7536 4.80484 -25.6944 -0.827966 -1.10882 0.472029 
1441 2 10.8614 8.04215 1.98705 -26.0044 0.0987086 1.00061 0.206359 
1442 2 11.0423 8.01089 7.60546 -24.8916 -1.47158 0.702789 -1.98152 
2281 2 8.21149 10.7364 2.11907 -25.749 -0.67201 -0.40654 -0.951755 
2282 2 8.0352 10.8647 7.46539 -25.1681 1.7478 -0.356466 -0.100668 
3242 2 7.98213 7.8369 4.75377 -25.2132 2.13325 1.57636 -1.06724 
4481 1 12.5492 12.0695 0.607354 -7.16268 -1.43416 0.301713 -0.459724 
4482 1 12.4149 12.1506 5.99954 -7.75228 -0.734389 -0.944757 0.0599044 
5241 1 9.48605 9.35236 3.45286 -6.81544 -1.90309 -0.252277 -0.186043 
6241 1 9.40586 9.47485 0.591757 -7.53518 1.30904 0.951055 0.000639785 
6242 1 9.56915 9.45638 6.2198 -6.86629 0.286995 -0.593526 0.388617 
7481 1 12.3128 11.9299 3.23012 -7.52531 -1.13678 2.78622 1.94891 
8281 1 9.6495 12.0556 3.3926 -8.0501 -0.950245 0.97095 0.830292 
9441 1 12.3616 9.40321 0.632097 -7.9456 -1.19591 -0.0528824 -0.223536 
9442 1 12.3554 9.30646 6.12209 -7.6336 0.146715 1.39691 1.08944 
10441 1 11.9484 9.35193 3.40688 -6.74855 3.08074 1.09973 -0.22011 
11281 1 9.5285 12.3093 0.701141 -7.75009 1.87461 -1.73623 0.475914 
11282 1 9.50503 12.1414 6.18806 -7.89427 0.0426522 0.589192 -0.166766 
2481 2 13.4951 10.6239 2.03862 -25.1517 2.86087 0.27097 -0.145242 
3482 2 13.6682 13.5599 4.71738 -25.4821 0.650979 -0.3972 1.40206 
1481 2 10.8821 13.5246 2.2568 -24.9552 0.4228 0.994806 -3.03041 
1482 2 10.9366 13.4134 7.55934 -25.4609 -0.67012 1.82609 -1.62793 
481 2 10.9768 10.7595 -0.68328 -25.1149 -0.595388 0.661737 -0.341783 
3682 2 19.2576 13.4758 4.74831 -25.5773 -1.17617 0.0262254 -1.30874 
3442 2 13.6884 7.9525 4.80288 -25.4221 -0.271156 0.0959796 0.178047 
1682 2 16.485 13.4951 7.58842 -25.3119 -1.18315 1.0629 -1.77516 
2482 2 13.6734 10.7486 7.48185 -25.5354 1.16482 0.36715 -0.994718 
682 2 16.3688 10.6225 4.60367 -25.5448 0.746311 1.03828 1.43078 
1641 2 16.2893 8.03276 2.0288 -25.2979 1.39323 -0.705821 -1.24655 
1642 2 16.5317 7.97442 7.45657 -26.35 -0.482229 0.389177 0.110794 
2681 2 19.1418 10.8399 2.05356 -25.9571 0.524888 -1.81864 -0.484228 
2682 2 19.1259 10.8347 7.32681 -25.2408 1.99682 -0.101403 -0.414676 
3642 2 19.2226 7.77351 4.86346 -25.3961 0.303232 1.59819 -0.748846 
4681 1 18.0671 12.3614 0.820519 -7.35566 -2.56755 -0.7896 -0.671077 
4682 1 17.9001 12.1953 6.0621 -7.14378 0.321975 -0.616354 1.5691 
5441 1 14.8732 9.26395 3.34915 -8.27931 -0.212331 0.22702 -0.104827 
6441 1 15.152 9.36527 0.545494 -7.46378 -1.86163 -0.0946389 -0.156563 
6442 1 15.1366 9.41805 6.10873 -7.16067 -0.705714 -0.0397323 -2.07598 
7681 1 17.8239 11.9866 3.48929 -7.24979 -0.47678 0.503145 -0.741232 
8481 1 14.9868 12.0115 3.41951 -7.42204 0.117336 1.00379 -0.307821 
9641 1 17.7149 9.50223 0.642902 -7.13036 1.47177 -0.225365 -0.461819 
9642 1 17.8658 9.39089 6.09681 -7.07876 -0.406719 -0.399632 -2.49269 
10641 1 17.7485 9.15701 3.29627 -7.31425 -0.0386029 1.20882 0.908771 
11481 1 15.2422 12.105 0.640022 -7.50976 0.204018 1.22654 -0.257665 
11482 1 15.2225 12.2778 6.19942 -6.60876 -0.9483 -1.26611 -1.44211 
3641 2 19.2318 7.99573 -0.707179 -25.524 -0.608205 0.378023 -0.186593 
3681 2 19.0715 13.5232 -0.722885 -25.2886 2.66956 0.829909 -0.31188 
3881 2 24.6517 13.4576 -0.775635 -24.8025 -0.245078 0.390246 0.562422 
1082 2 27.3727 13.538 7.46317 -25.4455 0.774841 -1.72554 -1.61876 
81 2 27.4073 10.8498 -0.761144 -25.3026 1.75141 -0.169283 0.878836 
82 2 27.3658 10.6898 4.78485 -25.6444 -0.154248 1.29641 -1.3417 
6642 1 20.6013 9.28144 5.89926 -7.02141 -0.822523 -0.0135846 1.27068 
11682 1 20.6909 12.16 5.96157 -7.3108 -1.42011 -0.737942 1.26735 
11681 1 20.6237 12.0094 0.722352 -6.82565 0.582877 0.230006 -0.576211 
5641 1 20.6114 9.42544 3.25113 -6.89003 -2.22984 -2.89039 -2.00781 
8681 1 20.5722 11.9918 3.41475 -7.1954 -0.756927 2.42198 -0.922696 
6641 1 20.6864 9.36919 0.575335 -7.1669 -0.522611 -1.09584 0.461996 
882 2 21.813 10.5224 4.51634 -26.2593 3.93464 2.65994 2.34581 
1841 2 22.0256 7.86027 1.91518 -25.5876 0.694322 1.80359 0.755544 
1842 2 22.1572 7.91856 7.44347 -25.5187 -2.67078 1.71289 -1.40885 
2881 2 24.7106 10.7655 1.94701 -26.1661 0.833594 -0.65296 1.26925 
2882 2 24.6389 10.6642 7.36081 -25.5907 0.277985 1.64235 -1.22854 
3842 2 24.7138 7.81741 4.70536 -25.3567 -1.37843 1.64 -0.328064 
4881 1 23.3528 12.0125 0.702676 -7.77375 -0.223345 1.22034 -2.19981 
4882 1 23.3292 12.078 5.96334 -6.18046 0.12441 -0.480725 0.0572579 
5841 1 26.2227 9.48718 3.14281 -6.84958 0.362918 0.225437 2.19701 
6841 1 26.1807 9.42592 0.715606 -7.01583 0.582102 -0.83207 -3.17762 
6842 1 26.0569 9.133 5.82276 -7.36539 -0.802229 1.08118 1.87816 
7881 1 23.3064 12.0888 3.32199 -6.72556 0.620553 -0.369943 -0.340559 
8881 1 26.2415 12.3003 3.4614 -7.37347 -1.06156 -0.206802 -0.507358 
9841 1 23.561 9.25764 0.725513 -6.84895 -1.18289 -0.431863 -2.34519 
9842 1 23.2708 9.21302 5.79234 -7.1966 0.674056 0.534144 2.08188 
10841 1 23.3908 9.37302 3.20371 -6.72022 -0.221949 -1.34584 0.831976 
11881 1 26.0809 12.1271 0.582495 -7.57575 -1.20721 0.595473 0.168899 
11882 1 25.9941 12.0581 6.15767 -6.95067 0.279344 -0.850499 -0.212459 
3882 2 24.6516 13.6087 4.64955 -25.6772 1.70239 -3.91661 2.52041 
1081 2 27.4112 13.5813 1.96462 -25.9322 1.35942 -0.312781 -0.00330091 
1882 2 21.8786 13.4333 7.39322 -25.3523 1.83675 0.750758 -1.21447 
1881 2 21.9412 13.4588 2.02526 -25.9298 0.0519472 -0.722515 -0.610727 
881 2 21.9642 10.7213 -0.689579 -25.4218 -0.14288 -0.217149 0.0605114 
6004 1 3.83619 3.97045 17.1835 -7.32313 2.83527 0.529726 -0.876611 
243 2 5.38775 5.37087 9.95809 -25.4182 0.0763157 -1.14688 3.47974 
244 2 5.38125 5.2178 15.6639 -24.7007 0.910122 1.19647 0.61698 
1203 2 5.40712 2.57337 12.9972 -26.1062 0.00204113 -1.35594 -0.174501 
2043 2 2.52067 5.36508 12.9319 -25.0273 1.18362 0.279691 -0.232445 
3003 2 2.70833 2.54841 10.3035 -25.7687 0.0911418 1.20376 -0.344621 
3004 2 2.75358 2.54704 15.7391 -25.4955 -0.459543 0.0889963 0.542184 
4003 1 1.42346 1.23333 11.5278 -7.03383 -1.56865 -1.17232 2.19606 
4004 1 1.39977 1.14754 17.0702 -7.18203 -0.193086 0.964474 0.0591824 
5002 1 3.99289 3.95296 8.88903 -7.63554 -0.710448 -0.918768 0.561285 
5003 1 4.27932 3.79001 14.5066 -7.49616 -2.15745 -0.637251 -0.121965 
6003 1 3.93243 3.84855 11.7921 -6.88416 -0.978195 0.0210609 -0.440641 
4 2 0.0460871 -0.0836112 15.695 -25.5146 -1.09688 -1.29715 1.06134 
7002 1 1.56961 1.22335 8.98296 -6.97714 -1.04095 -0.719079 -2.86287 
7003 1 1.32359 1.30216 14.3405 -8.12112 1.23114 0.214282 0.165099 
8002 1 4.15161 1.13108 9.01798 -7.84142 -0.143032 -0.547109 -0.677865 
8003 1 4.11853 1.09637 14.4226 -7.34107 -0.495314 -0.125572 -0.0767501 
9003 1 1.21667 3.93436 11.546 -7.8192 0.512736 0.852034 -0.33692 
9004 1 1.21567 3.89115 17.0348 -7.07843 -0.253871 -0.745368 -0.4527 
10002 1 1.22292 4.01886 8.61924 -6.8139 -0.161836 -1.0556 1.72511 
10003 1 1.20431 4.15116 14.2586 -7.76942 0.838995 -1.27241 0.422403 
11003 1 3.93502 1.17315 11.6821 -7.45738 1.61271 -0.932217 0.586187 
11004 1 4.05131 1.4227 17.1651 -7.03594 1.82988 -1.9704 0.577747 
7243 1 6.68684 6.72478 14.3202 -7.56341 0.538081 -0.903956 0.847588 
7042 1 1.41234 6.5742 8.90032 -7.03125 -0.111721 0.873812 -0.442548 
11043 1 4.0051 6.47539 11.5357 -7.23523 -1.16015 1.74331 0.31172 
8042 1 4.03894 6.6986 8.89301 -7.44659 0.292923 0.144021 -1.93014 
11044 1 3.94811 6.72181 17.1326 -8.17874 0.384989 -0.0492972 -0.916832 
10202 1 6.59828 3.92113 8.69696 -7.66682 1.74767 -0.16631 0.753627 
4203 1 6.76317 1.0699 11.6435 -7.32058 -0.222531 -0.516918 -0.213868 
9203 1 6.57515 3.71834 11.4915 -7.44135 1.65882 1.42529 -1.52311 
4243 1 6.70543 6.58066 11.6483 -7.11671 0.133378 0.195123 -0.674644 
43 2 -0.095024 5.32528 10.2532 -25.7785 0.414037 -1.79073 0.207025 
1003 2 0.098312 2.56865 13.0175 -25.6805 -3.12116 0.291817 -1.57475 
8043 1 4.11358 6.44923 14.3134 -7.5637 -2.1188 1.70845 0.192176 
4044 1 1.06944 6.53578 17.1788 -7.38712 1.54471 0.910658 0.697923 
7043 1 1.15592 6.76945 14.5606 -7.12928 1.35829 -0.578741 -1.58373 
10203 1 6.94905 3.82556 14.1425 -7.21493 0.0176322 1.95694 1.34783 
9204 1 6.88827 4.23512 17.0327 -8.11601 -1.13506 -1.92891 -1.42446 
7202 1 6.84029 1.08922 8.85884 -7.97749 -0.503501 -0.185788 0.715757 
7203 1 6.83586 1.34085 14.3721 -7.2279 0.904291 -2.06345 -0.0262437 
4204 1 7.04309 1.26192 16.9948 -7.76617 -2.43634 0.0490566 1.85439 
443 2 10.8045 5.14677 10.1575 -25.307 1.6879 -0.271282 0.734296 
444 2 11.0713 5.29948 15.474 -24.633 -1.52754 -0.144133 2.10576 
1403 2 11.0263 2.39814 12.9103 -25.0366 -0.662644 0.886628 -1.00045 
2243 2 8.02293 5.1884 12.7461 -25.0806 0.937227 0.412398 0.613672 
3203 2 8.05737 2.41664 10.1873 -25.2331 0.675514 0.365687 0.59198 
3204 2 8.2864 2.54737 15.7201 -25.2844 0.311892 0.849983 -0.811068 
4403 1 12.2417 1.11709 11.3877 -7.54051 1.09423 -0.0823304 1.34776 
4404 1 12.4783 1.29983 17.1637 -7.59035 -2.28661 -1.04165 -0.535991 
5202 1 9.45852 3.85845 8.75362 -7.76631 0.0349569 -0.162739 -0.526702 
5203 1 9.60756 3.79313 14.3324 -7.76221 1.18902 0.984938 -0.426919 
6203 1 9.49086 3.75557 11.3864 -7.70276 -0.726641 0.846961 1.65836 
6204 1 9.70165 3.76767 17.1864 -7.27149 -0.629814 2.11702 -1.11573 
7402 1 12.0616 1.06887 8.67281 -7.57093 3.88344 -0.840074 1.62334 
7403 1 12.5086 1.18897 14.2674 -7.87176 -1.4589 0.907475 0.302314 
8202 1 9.59334 1.2261 8.75209 -7.42044 -2.33883 -0.0447695 0.823407 
8203 1 9.81086 1.06795 14.2759 -8.10473 -1.04658 -0.437438 0.712594 
9403 1 12.2711 3.69378 11.4444 -7.26498 0.0457895 1.0637 0.905767 
9404 1 12.4656 3.99174 17.0792 -7.50975 0.0224583 0.607089 -0.847327 
10402 1 12.3139 3.76892 8.77693 -7.44136 -0.0599756 0.397861 0.384871 
10403 1 12.4405 4.03107 14.2259 -8.33096 -0.844757 -1.10662 0.574507 
11203 1 9.53108 1.07579 11.4916 -7.25662 -0.545543 0.506893 1.01582 
11204 1 9.57335 1.28546 17.1881 -7.39884 1.48693 -1.43132 -0.372948 
11243 1 9.49745 6.60377 11.5088 -7.41515 -0.0155247 -0.201028 0.43198 
8242 1 9.55355 6.52925 8.9206 -7.85061 0.339915 1.06855 -1.76203 
4444 1 12.424 6.75672 17.1792 -7.73738 -0.529563 0.055148 0.36513 
11244 1 9.66022 6.58199 16.803 -7.73897 0.165985 -0.551174 0.81364 
7242 1 6.81712 6.73794 8.97473 -7.65259 0.0876557 -0.510183 -1.7696 
7442 1 12.3301 6.54745 8.65204 -8.0643 -0.0393493 0.689917 2.04618 
4443 1 12.2772 6.48198 11.5708 -7.35161 -0.229167 0.35876 -0.536378 
3403 2 13.7859 2.3928 10.2798 -24.798 -1.08584 1.33674 -0.385736 
3404 2 13.7355 2.67322 15.7715 -25.28 1.09322 -1.02734 0.124086 
2443 2 13.7526 5.22929 12.9387 -25.2181 0.112273 1.55146 -0.281481 
643 2 16.4778 5.1086 10.3439 -25.3091 -0.154282 2.02301 -0.695644 
644 2 16.4975 5.30174 15.816 -25.6552 0.382511 0.802323 -0.59155 
1603 2 16.4606 2.40364 13.0483 -24.9641 -0.691272 0.395086 0.310421 
2643 2 19.1491 5.15397 13.1374 -25.4223 0.264608 0.943865 -0.710035 
3603 2 19.2129 2.49229 10.3779 -25.3595 -0.760363 0.110995 -1.54273 
3604 2 19.1021 2.46802 15.9363 -24.9842 0.236959 2.00187 -1.70864 
4603 1 17.6498 1.0282 11.5662 -7.59785 0.990213 1.61161 0.780836 
4604 1 17.6262 1.22134 17.0248 -8.07011 0.439721 -0.279911 2.60956 
5402 1 15.0208 3.9374 8.80285 -7.67161 0.791936 -0.888525 1.1799 
5403 1 15.1709 3.96049 14.3651 -7.58266 0.0991972 -0.710788 0.475264 
6403 1 15.0117 3.83347 11.7164 -8.11373 0.830419 -0.921399 -1.28097 
6404 1 15.3293 4.06728 17.1655 -7.64778 -2.33367 -0.953036 1.20125 
7602 1 18.0064 1.07159 8.91697 -7.3509 -1.23971 0.033174 -0.325645 
7603 1 17.768 1.00947 14.3007 -7.88298 0.658005 0.362349 0.526112 
8402 1 15.1381 1.15191 8.9534 -8.41656 -0.442919 0.407916 -1.37366 
8403 1 15.0666 1.15432 14.6366 -7.13073 0.793043 1.43301 -1.3673 
9603 1 17.8098 3.81948 11.6517 -7.78842 -0.70187 -0.831002 0.929124 
9604 1 17.9141 3.96576 17.2542 -7.07629 0.0315383 -1.60461 0.288762 
10602 1 17.7518 3.81724 8.94943 -7.63245 0.572454 -0.179544 -1.1383 
10603 1 17.9441 3.70584 14.4869 -7.82919 -1.12045 1.10623 -0.698056 
11403 1 14.9749 0.961982 11.6973 -7.94239 0.400693 1.01658 -0.101714 
11404 1 14.9545 1.1821 17.3169 -7.28258 2.10185 0.845136 0.531001 
11603 1 20.4406 1.13663 11.7179 -7.88831 1.27084 0.321621 -0.77085 
7643 1 17.8057 6.72226 14.513 -7.56727 0.668696 -0.848762 0.894508 
11443 1 14.99 6.64685 11.6691 -7.44905 0.639223 0.119034 -0.819918 
11604 1 20.3641 1.27279 17.1449 -7.94277 1.78941 -1.70173 0.765548 
6603 1 20.449 3.74581 11.8116 -7.47498 0.976007 0.615891 0.612115 
7642 1 17.7825 6.59889 8.88755 -7.29047 1.61244 -0.263899 0.93399 
8443 1 15.0523 6.64879 14.4003 -7.11693 -0.29492 0.343437 -0.355719 
4644 1 17.7887 6.51356 17.3342 -7.24849 0.450152 1.63597 -0.661271 
8442 1 15.1545 6.75474 8.8067 -6.96193 -1.38641 -1.0173 1.91903 
4643 1 17.78 6.48465 11.8921 -6.84473 -1.07866 0.131893 -0.818696 
11643 1 20.4028 6.50025 11.4616 -7.24253 1.05636 0.479574 1.33618 
8842 1 26.3055 6.54309 8.91616 -7.52394 -1.74078 0.519337 -1.71479 
8643 1 20.6426 6.63413 14.3462 -7.76738 -0.830684 -1.45179 0.324756 
8603 1 20.6739 1.11972 14.4728 -7.6848 -1.88682 -0.786731 0.473616 
8602 1 20.5839 1.30728 8.74777 -7.6772 0.991574 -1.2294 2.10067 
6604 1 20.608 4.05322 17.3337 -7.25561 0.086782 0.0261964 -1.55134 
5602 1 20.5939 4.02536 9.11092 -7.59526 -0.91777 -1.53269 -1.26401 
44 2 27.303 5.32191 15.7368 -25.7856 1.83815 1.19086 -1.445 
5603 1 20.5929 3.85796 14.584 -7.56689 -0.518166 0.541146 0.0419007 
843 2 21.9166 5.19726 10.3445 -25.1225 0.258774 0.965766 0.0376537 
844 2 21.8651 5.3985 15.7997 -25.3175 0.869109 -0.672664 0.0211438 
1803 2 21.8414 2.49046 13.2332 -25.5885 1.53799 1.29683 -1.54893 
2843 2 24.7819 5.45995 12.8753 -25.4838 -2.07507 -1.92955 1.90739 
3803 2 24.5921 2.5264 10.3611 -25.771 2.30758 -0.0150562 0.548324 
3804 2 24.7708 2.63188 15.7158 -25.4604 -0.514284 -0.477574 -0.67673 
4803 1 23.4204 1.16728 11.7233 -7.38229 -1.33683 0.000980094 -1.56139 
4804 1 23.3235 1.2272 17.0733 -8.44508 -0.2851 0.528457 0.802734 
5802 1 26.0429 3.69851 9.10417 -7.06946 0.20502 1.60774 -1.18993 
5803 1 25.9913 3.98363 14.3581 -7.15015 0.887633 0.104974 0.606963 
6803 1 26.0221 4.0173 11.8205 -6.58169 0.793241 -0.381536 -1.54812 
6804 1 26.0848 4.10432 16.9974 -7.53164 -1.18236 -2.0654 1.69513 
7802 1 23.5101 1.0564 8.72937 -8.16246 -1.64433 1.40907 1.95423 
7803 1 23.3116 1.27048 14.3252 -7.24206 1.35241 -2.24421 1.51547 
8802 1 26.3899 1.09012 9.06226 -6.40864 -1.22047 0.457224 -1.61119 
8803 1 26.2032 1.04297 14.3796 -7.24414 -0.869844 1.00063 -0.765446 
9803 1 23.2196 3.94628 11.6993 -7.58309 0.00574299 0.107047 -0.129859 
9804 1 23.3532 4.21812 17.0945 -7.62585 -0.681604 -1.97268 0.101961 
10802 1 23.3645 4.0117 8.89187 -7.68447 -0.561799 -0.769561 0.482594 
10803 1 23.3077 3.86846 14.521 -6.59386 -0.703841 0.902746 -0.694232 
11803 1 26.1965 1.33952 11.6793 -6.29967 -0.224283 -0.659747 0.533768 
11804 1 26.2114 1.16642 16.9425 -7.52514 -1.19509 1.43237 1.23324 
8642 1 20.6924 6.66741 8.87973 -7.49126 0.956394 -0.487175 -0.77663 
11844 1 25.9923 6.77879 16.9263 -7.53209 -0.210045 0.788854 -0.427959 
7843 1 23.3358 6.63259 14.3006 -7.75311 0.117427 0.502973 -0.0605751 
11843 1 25.8997 6.62909 11.4621 -7.44919 0.948722 1.77315 -0.370494 
1283 2 5.47842 13.6129 12.8823 -25.9483 -2.67949 -1.00329 0.839306 
3084 2 2.66408 13.5801 15.619 -25.8109 0.584973 -0.617778 -0.33175 
4043 1 1.08383 6.81292 11.5813 -7.7578 1.05951 -1.1503 1.23406 
283 2 5.37276 10.8034 10.0706 -25.3915 0.815887 -0.136471 1.35179 
284 2 5.34307 10.7422 15.6086 -25.5087 0.0901837 1.69626 0.028564 
1243 2 5.40784 8.10396 13.0309 -25.2053 -0.370891 -1.67038 -2.57564 
2083 2 2.52033 10.6944 12.8533 -25.3536 0.387081 1.29289 0.273748 
3043 2 2.72245 7.98762 10.2016 -25.6206 -1.03354 -0.0146293 -0.323121 
3044 2 2.5229 7.91896 15.8917 -24.522 -1.28129 1.27715 -1.12969 
4083 1 1.24755 12.1597 11.7213 -7.40893 -1.11029 -0.310505 -0.746512 
4084 1 1.45812 12.1179 16.9741 -6.83086 -0.152141 -0.0676981 0.220942 
5042 1 4.10435 9.32002 8.68773 -7.66607 -0.181123 1.34054 0.181459 
5043 1 3.81963 9.38492 14.0258 -7.86074 0.663688 -1.27598 1.86262 
6043 1 4.0479 9.42477 11.315 -7.55381 0.274984 -0.598566 1.14335 
6044 1 3.92374 9.52512 16.9929 -7.82201 -1.50534 -2.3426 -1.04616 
7082 1 1.15191 12.1879 8.97336 -7.79731 0.279099 -0.812591 -0.943694 
7083 1 1.18871 12.248 14.419 -7.25274 0.0369537 -0.152244 -1.30813 
8082 1 3.92681 12.0877 8.89614 -8.03493 -0.162927 -0.354097 -0.341342 
8083 1 4.09219 12.1272 14.464 -7.02997 -1.3193 0.824944 -0.23272 
9043 1 1.26299 9.39957 11.3878 -7.59791 -0.657418 0.966512 1.33777 
9044 1 0.938186 9.34661 17.1504 -7.19731 3.57525 -0.0978278 0.041345 
10042 1 1.30577 9.33018 8.7831 -7.62419 0.2545 0.572696 -0.419641 
10043 1 1.03434 9.37445 14.3132 -7.31111 1.84091 1.37549 -0.573301 
11083 1 3.9668 12.1286 11.7456 -6.9097 -0.370867 -0.0177691 -0.965932 
11084 1 4.18783 12.0605 17.2086 -6.95324 0.54407 1.39554 0.0971407 
7283 1 6.72219 12.1437 14.0538 -7.24345 0.662124 0.692429 0.534927 
10243 1 6.67521 9.4622 14.2159 -7.96484 0.284523 -0.320065 1.5314 
9244 1 6.52557 9.75449 17.1706 -7.13193 0.916592 -1.11762 -0.752484 
7282 1 6.69902 12.2604 8.77861 -7.17251 0.119186 -1.60338 -0.841788 
4283 1 6.57564 12.3072 11.2984 -6.93115 1.42013 -0.521283 1.12727 
84 2 -0.0915247 10.8673 15.6718 -26.1281 -0.678517 -0.237276 0.314362 
3083 2 2.64135 13.4466 10.1875 -25.7908 0.13162 0.918028 1.48826 
3284 2 8.13823 13.6373 15.6516 -25.177 -0.288962 1.42218 -0.277471 
4244 1 6.88153 6.96924 17.1069 -7.85274 -0.482036 -0.75343 -1.00617 
9243 1 6.91221 9.37596 11.5305 -7.29465 -0.975931 0.400433 -0.213781 
7443 1 12.2333 6.82344 14.3915 -7.87456 0.101738 -0.64159 -0.833002 
10242 1 6.95928 9.40972 8.77853 -7.74578 -1.79481 0.767982 -0.0913559 
4284 1 7.04919 12.3104 16.8651 -7.20055 -2.59845 -0.064926 1.87147 
8243 1 9.4155 6.79102 14.2102 -7.47984 0.935725 -1.75142 -1.21386 
483 2 10.9866 10.777 10.3267 -25.0087 -0.923305 -0.393856 0.0423716 
484 2 10.7325 10.8562 15.688 -25.8013 1.75387 -0.202417 0.546883 
1443 2 10.8558 8.11498 12.962 -25.303 0.570364 -1.14467 0.728101 
2283 2 8.16756 10.7566 12.9027 -25.3898 -0.921887 0.579901 0.206097 
3243 2 8.23476 8.03637 10.0936 -25.5194 -0.211446 0.196778 2.02113 
3244 2 8.14046 7.94264 15.5544 -25.1329 0.554841 1.85316 0.677278 
4483 1 12.5124 11.9322 11.5274 -7.3943 -2.31477 1.18081 -0.371624 
5242 1 9.59322 9.44047 8.94283 -7.61007 1.08742 0.0994685 -0.0809782 
5243 1 9.45164 9.50886 14.4061 -7.75042 0.349581 0.198632 -1.03428 
6243 1 9.56365 9.40864 11.704 -7.69757 0.416755 0.0305574 -1.0617 
6244 1 9.33326 9.28845 17.0033 -7.03033 0.0428197 0.311258 0.617211 
7482 1 12.2532 12.0483 8.73404 -8.09748 -0.477073 0.702299 1.09281 
7483 1 12.0949 12.1711 14.2514 -7.08017 0.111836 1.02581 0.310494 