ITEM: TIMESTEP
0
ITEM: NUMBER OF ATOMS
12960
ITEM: BOX BOUNDS xy xz yz pp pp pp
-8.0028467867757414e-02 2.1670428467867431e+01 0.0000000000000000e+00
-9.0171754818140215e-02 2.1680571754817962e+01 0.0000000000000000e+00
-2.8186331722835689e+00 3.1193863317227840e+02 0.0000000000000000e+00
ITEM: ATOMS id type x y z c_peratom fx fy fz 
6 1 1.32089 0.80909 -0.636514 -8.32447 -1.23194 -0.00499193 0.979362 
222 1 1.0644 0.710792 4.80493 -7.90926 0.361572 -0.535192 1.23094 
183 1 2.66511 20.8096 -2.66307 -7.91403 0.355385 -0.534099 0.383631 
42 1 1.10772 4.63183 -0.135051 -8.31181 -0.291303 -1.13975 -1.47766 
258 1 1.08436 4.31936 4.87995 -8.48506 -1.20238 -0.150871 0.749133 
534 1 15.4442 7.68758 9.87719 -7.86202 -0.242301 2.013 0.980631 
78 1 1.25306 7.99556 -0.528354 -7.97209 -1.54031 -0.0104624 -0.380229 
294 1 0.752743 7.78953 4.71847 -7.45242 -0.929525 0.649973 0.051145 
15 1 10.1339 2.30269 -2.43125 -8.19864 -0.0527224 0.990562 0.413984 
114 1 0.996861 11.5273 -0.404259 -7.70916 -0.0931711 0.00679346 -0.840273 
330 1 0.748278 11.6829 4.82494 -7.70259 1.3445 0.145283 0.0730541 
636 1 11.8439 18.8445 9.83 -8.57177 0.0300909 0.315186 1.44814 
150 1 1.26087 15.2053 -0.413582 -6.91722 0.235193 0.601902 -2.36966 
366 1 0.699007 15.0127 4.73502 -8.17246 0.601421 1.48089 -0.266396 
189 1 6.32138 20.8936 -2.36532 -7.04238 2.04198 0.553563 -2.00445 
186 1 0.991087 18.6378 -0.626558 -7.37908 -0.0613684 1.89724 0.482965 
402 1 1.07399 18.8613 4.55204 -7.95997 -0.0753814 -0.193733 -0.771554 
51 1 9.93684 6.27043 -2.6612 -7.61398 0.461738 0.744653 -0.323412 
12 1 4.37113 0.702271 -0.554588 -7.36372 0.431659 -0.224142 -0.908402 
228 1 4.7236 0.734635 4.65132 -7.70455 -0.192276 -1.2126 -0.415904 
201 1 13.794 20.542 -2.51577 -7.56733 -0.539436 -0.487044 -0.127718 
48 1 4.83401 4.36616 -0.666844 -8.02499 0.167547 0.297311 0.490511 
264 1 4.54186 4.30096 4.75758 -7.79467 0.141824 -0.909305 -1.70535 
33 1 20.8254 2.60882 -2.32069 -7.39191 1.39624 0.882651 -0.841368 
84 1 4.82483 7.92588 -0.674641 -7.19897 0.582217 0.262903 0.231612 
300 1 4.44061 8.09643 4.56543 -7.44728 0.0428343 0.275602 0.287196 
468 1 19.12 0.668754 9.89962 -8.30937 -0.140135 -0.562705 -0.553009 
120 1 4.92658 11.5067 -0.635301 -8.10198 -1.41743 -0.35788 0.188147 
336 1 4.26823 11.309 4.4685 -7.87163 -0.906999 2.40489 2.43609 
522 1 8.03557 7.90753 9.95583 -7.35039 -0.0446197 0.69977 0.0230627 
156 1 4.74364 15.053 -0.485492 -7.91825 -0.354122 0.767929 0.150319 
372 1 4.69947 14.9567 4.9175 -7.2826 -2.26341 2.76866 -2.47049 
87 1 9.93916 9.70832 -2.53747 -7.61028 2.0494 0.0647988 -1.54411 
192 1 4.92739 18.9806 -0.517881 -8.25103 -2.05656 -2.7619 -1.04217 
408 1 4.5348 18.5996 4.80757 -8.30658 0.792548 -0.202955 -2.07276 
93 1 13.5635 9.83861 -2.76651 -7.56521 -0.439374 0.0143492 1.65067 
18 1 8.407 0.696116 -0.29866 -8.40745 -0.0203678 0.844672 -1.10189 
234 1 8.35483 0.453781 4.76297 -7.65036 -0.169152 1.83531 -0.718698 
510 1 1.04246 8.08432 10.0076 -7.83481 -0.560296 -0.478357 -0.95124 
54 1 8.2645 4.1197 -0.297227 -8.21668 -0.0523022 -1.67064 -0.498498 
270 1 8.09827 4.35376 4.7154 -8.31471 -0.277877 1.26858 0.674083 
456 1 11.8517 0.686607 9.78735 -7.34657 -0.646465 -0.643105 0.10668 
90 1 8.20049 7.8879 -0.521188 -7.61916 2.47943 0.633908 -0.682207 
306 1 8.02887 7.84873 4.67517 -8.75377 -0.0688765 0.223158 1.27051 
588 1 4.7026 15.3145 9.9313 -7.41767 0.058129 -1.88271 0.438172 
126 1 8.26172 11.49 -0.675954 -7.42346 0.846675 0.349038 0.325527 
342 1 8.24721 11.4784 4.85972 -7.67629 -0.578241 0.99887 -2.05901 
129 1 13.6611 13.2557 -2.68051 -7.49831 -0.229175 -0.723548 1.24616 
162 1 8.41837 15.1518 -0.606303 -7.66319 -0.102243 -0.161648 1.08367 
378 1 7.94999 14.8738 4.59923 -7.95358 0.776987 1.08258 0.480021 
516 1 4.57317 7.81413 9.90999 -7.85714 -0.0915542 0.585416 -0.890938 
198 1 8.28605 18.9505 -0.498766 -8.36229 -0.885917 -0.797922 -0.0036145 
414 1 8.19536 18.7056 4.66883 -7.49045 -1.12202 -0.0374037 -0.7105 
612 1 19.1639 15.2745 9.80517 -7.70758 -0.0635753 0.408968 0.20691 
24 1 12.3115 0.500308 -0.475266 -7.33637 -1.54893 0.180076 0.0282288 
240 1 11.6733 0.547876 4.63574 -8.09587 -0.195425 1.91577 0.182801 
39 1 2.8047 6.07423 -2.4976 -7.72085 -0.808195 0.938596 0.487333 
60 1 11.9274 4.3547 -0.531651 -7.93108 1.18617 0.0666414 0.891471 
276 1 11.7754 4.38755 4.61856 -7.93814 0.139228 -0.315334 -1.13089 
141 1 20.9751 13.5583 -2.55295 -8.53071 0.228433 -0.922196 -0.73849 
96 1 11.8814 7.75049 -0.623474 -7.64757 -1.05986 0.332568 0.549998 
312 1 11.874 7.94625 4.68077 -8.11797 0.547925 1.39144 -0.517224 
123 1 9.90095 13.6426 -2.39668 -8.18306 -0.681326 -0.0196115 -1.13057 
132 1 12.1297 11.4224 -0.625017 -7.94781 -0.226366 2.267 0.92806 
348 1 11.6484 11.3409 4.9365 -8.26326 0.95508 0.847686 -1.39165 
546 1 1.22971 11.4509 10.0198 -7.92137 -0.582344 0.929204 0.485896 
168 1 11.8203 15.1016 -0.442461 -8.34758 -1.00994 1.6763 -1.34888 
384 1 11.8307 14.9601 4.78414 -7.96028 -0.474887 2.55187 0.105709 
153 1 6.28114 17.3599 -2.63355 -8.28849 0.326971 -0.452255 1.31027 
204 1 11.8409 18.6502 -0.671221 -7.93062 0.874647 0.536998 1.89969 
420 1 11.851 18.5288 4.73284 -7.64345 -0.160793 0.179233 -0.475195 
564 1 11.8973 11.5389 10.0242 -7.9185 -1.57257 -1.14715 0.584043 
30 1 15.4673 0.594472 -0.572704 -7.77435 0.694234 0.302385 1.13046 
246 1 15.24 0.628902 4.81369 -8.00284 0.0287742 -0.21414 -0.863608 
438 1 0.948661 0.413088 9.86881 -7.7621 -0.332136 1.16176 1.58267 
66 1 15.7585 4.17687 -0.482401 -8.23619 -0.855664 0.497443 -0.0601088 
282 1 15.3354 4.18381 4.69301 -8.08375 0.0634718 0.379353 0.921673 
135 1 17.1186 13.3327 -2.56746 -7.75437 0.158781 1.38585 -0.000629773 
102 1 15.5169 7.99506 -0.634519 -7.71765 1.14718 -0.256086 -0.101723 
318 1 15.5172 7.65387 4.62922 -7.72543 -1.32114 1.43431 -0.118035 
618 1 0.883733 18.7061 9.88112 -8.10839 1.14816 -0.304698 -0.561246 
138 1 15.2642 11.3968 -0.757333 -7.68242 -0.68109 1.20944 0.673271 
354 1 15.7173 11.6421 4.56964 -7.79336 -1.83043 -0.40583 -0.589051 
582 1 1.08841 15.0867 10.0364 -8.3035 -2.02519 2.20667 -0.368329 
174 1 15.8414 15.0759 -0.725078 -8.23263 0.387604 1.49322 1.31996 
390 1 15.3464 15.1677 4.7449 -8.05207 1.13284 -0.37806 0.0996444 
630 1 8.30107 18.8649 9.9078 -7.90758 -0.0319323 -0.634512 -0.180008 
210 1 15.9695 18.6052 -0.506519 -7.85318 -0.752493 -0.248565 1.09213 
426 1 15.362 18.8474 4.7955 -7.84118 0.711821 0.0553486 -0.120602 
99 1 17.3087 9.66003 -2.6463 -7.98861 1.60064 -0.0121741 -0.0316985 
36 1 19.2666 0.61493 -0.723354 -7.00304 1.32437 0.0909195 0.810612 
252 1 19.1464 0.416125 4.58197 -7.2616 -0.578176 2.8026 0.231059 
214 1 21.3267 20.7123 0.185188 -8.01946 -0.301855 0.570372 -0.082245 
72 1 19.2719 4.24293 -0.586966 -7.78764 -0.797068 0.671525 0.61138 
288 1 18.9324 4.08716 4.62463 -7.90637 0.0775321 1.79858 0.864734 
45 1 6.61112 6.15607 -2.45242 -8.28964 -1.22166 -1.09842 -1.02256 
108 1 19.015 8.06583 -0.692439 -8.07503 0.389514 0.264013 0.974037 
324 1 19.1554 7.97913 4.65751 -7.68199 -0.576965 -0.644521 0.195915 
177 1 20.8252 16.9861 -2.53067 -8.39052 -0.357522 -0.224471 -1.52445 
144 1 19.4749 11.6788 -0.67031 -7.6768 0.289383 -0.738297 -0.194534 
360 1 18.6029 11.502 4.58142 -7.62525 1.45465 -0.608198 0.448104 
600 1 12.0256 15.1805 9.99225 -7.53183 -0.9785 0.640922 -0.841279 
180 1 19.1729 14.8818 -0.457136 -7.58554 -0.150776 0.407989 -0.866723 
396 1 19.1935 15.261 4.71961 -8.04302 -0.417941 -0.857043 0.551097 
462 1 15.4459 0.728322 10.1239 -8.21705 1.23916 1.05247 -1.17854 
216 1 19.3129 18.8849 -0.598872 -7.8216 0.800256 0.204805 -0.120322 
432 1 19.1459 18.8358 4.64483 -8.04196 -0.0147059 -0.684729 -0.703416 
142 1 21.2811 13.5095 0.157464 -7.29204 -0.521189 -0.864228 -0.897633 
5 1 1.18841 0.617493 2.28299 -7.93383 0.375231 -0.0474589 -2.21193 
221 1 1.10286 0.623056 7.49308 -7.90435 -0.7174 -0.150181 -1.58438 
41 1 0.933702 4.35561 2.38341 -7.68467 1.42862 0.321113 -0.544024 
257 1 1.05092 4.26729 7.43321 -7.57417 -2.17458 -0.00879044 -0.998918 
77 1 0.92875 7.90982 2.09431 -7.81861 0.434081 -0.00248925 -0.172508 
293 1 0.91312 7.94572 7.27194 -8.11779 -0.77575 0.170889 1.14525 
113 1 0.786124 11.4104 2.24888 -7.74292 -0.0593215 1.02789 -0.67478 
329 1 1.00435 11.4396 7.45366 -7.93027 0.600937 0.475196 -0.916031 
149 1 0.97397 15.1781 2.08617 -7.39554 -0.0817508 0.582301 1.72354 
365 1 0.690462 15.005 7.24874 -8.22374 1.37841 1.33097 2.01417 
185 1 1.04518 18.6065 1.8476 -7.53362 -0.667413 0.098059 1.92901 
401 1 0.971478 19.0184 7.04831 -7.63301 -0.409406 -0.53449 1.7724 
11 1 4.42922 0.578834 2.02747 -7.46195 -0.137448 -0.323537 0.466629 
227 1 4.49185 0.654402 7.17039 -7.97513 0.791732 0.464249 2.23479 
47 1 4.66759 4.34973 2.09118 -7.89084 0.419866 -0.271327 0.219692 
263 1 4.43636 4.42902 7.16312 -7.49718 0.86338 -0.377401 1.69297 
83 1 4.56993 8.29014 1.9116 -7.47243 -0.165043 -0.320733 -0.0453009 
299 1 4.6987 7.92956 7.22039 -8.0903 -0.906831 -1.11725 0.845507 
119 1 4.58091 11.5133 2.06392 -8.12478 0.156252 0.916823 -1.77552 
335 1 4.31903 11.6591 7.22133 -8.01301 0.19384 -0.651289 -0.00487548 
155 1 4.44439 15.0801 2.17947 -7.88968 1.28408 0.0881525 0.147723 
371 1 4.44935 15.3101 7.33225 -7.97892 -0.0645405 -0.0212023 0.906534 
191 1 4.80907 18.5264 1.98877 -8.68884 0.126545 -0.108317 2.27466 
407 1 4.70483 18.5679 7.33046 -7.69873 -0.134309 -0.0021249 0.0576855 
17 1 8.12917 0.602612 2.2512 -7.64365 0.809441 0.968726 -0.750233 
233 1 8.17617 0.793686 7.16679 -7.7463 -2.06159 -0.95245 1.9287 
53 1 8.09557 4.33731 2.28961 -7.99007 -0.65625 0.154945 -0.988803 
269 1 8.16797 4.17349 7.24057 -7.57693 1.33925 -0.365692 0.523804 
89 1 8.31098 8.04387 2.09192 -8.17721 0.0219055 -0.243098 0.637886 
305 1 8.04989 7.99346 7.44571 -8.28213 -0.54372 0.206078 -1.54603 
125 1 8.10961 11.7049 2.09479 -7.83733 -0.080502 -1.46404 -0.532775 
341 1 7.90223 11.542 7.28253 -7.97923 4.10029 0.66159 2.78561 
161 1 8.40639 14.894 1.98148 -8.25816 0.950075 -0.194998 1.03841 
377 1 8.20873 14.7807 7.40393 -8.30874 -1.01575 0.944786 -0.891408 
197 1 8.1727 18.8763 2.12071 -8.01978 -0.964066 -1.38696 -0.612945 
413 1 8.12249 18.9343 7.25485 -7.74378 -1.00793 -0.375073 1.26702 
23 1 11.6607 0.552215 2.04142 -7.67099 1.2359 0.942993 0.73089 
239 1 11.694 0.547921 7.1877 -8.05287 0.773936 -0.200512 0.478509 
59 1 11.8805 4.37581 2.05299 -8.55705 -0.0485306 0.625423 0.76718 
275 1 11.6523 4.18149 7.04089 -7.18844 -0.875443 0.772305 1.25679 
95 1 11.7467 7.83117 1.96465 -8.26225 0.850457 -0.347654 1.41049 
311 1 11.746 7.90245 7.40344 -7.22577 1.6238 -0.836781 -2.29003 
131 1 11.9066 11.259 2.11218 -8.32666 3.29595 1.15517 0.193539 
347 1 11.888 11.5791 7.41081 -7.2203 -0.651442 -1.93287 0.211036 
167 1 11.7209 14.9434 2.1531 -8.16742 -0.155151 0.582368 0.293046 
383 1 11.5875 15.2093 7.48334 -7.9091 1.41678 -0.530849 -0.734255 
203 1 11.8412 18.6707 2.10979 -8.17327 0.293726 0.515236 -0.53721 
419 1 11.5827 18.7319 7.28621 -7.49456 0.974582 0.976872 0.315352 
29 1 15.5479 0.739369 2.1902 -8.68896 -3.90065 -0.904973 -0.166901 
245 1 15.3331 0.621633 7.41734 -8.11346 -1.13163 0.739695 0.498343 
65 1 15.5479 3.91283 2.25015 -7.69193 -2.35939 2.18551 -2.79677 
281 1 15.4677 4.25761 7.26384 -7.84904 -0.448924 -0.225604 -0.24003 
101 1 15.7312 7.84578 1.94021 -7.77717 -1.26502 -0.443824 1.39955 
317 1 15.1678 7.68472 7.32663 -8.08721 1.42816 0.478718 -1.25311 
137 1 15.2979 11.4609 1.92439 -7.72403 0.226319 -0.20651 0.342665 
353 1 15.4193 11.7579 7.12703 -8.10186 -0.454533 -1.10776 -0.0712012 
173 1 15.562 15.2803 2.04908 -8.07303 1.11873 0.0134368 -0.0465686 
389 1 15.2823 15.2974 7.2896 -8.03844 0.301715 -1.03616 -0.162355 
209 1 15.3703 18.7718 2.27642 -8.4778 0.984346 -0.236753 -0.453918 
425 1 15.3346 18.6599 7.29368 -7.81133 1.5211 -0.053029 1.04422 
35 1 19.1126 0.812171 2.00837 -8.13171 -0.0214454 -1.36859 0.180094 
251 1 19.0336 0.625316 7.23872 -7.86159 -0.404672 1.03677 0.929259 
71 1 19.2356 3.9992 2.02981 -7.73356 -0.0393827 1.03443 -0.236624 
287 1 19.1031 4.19728 7.28835 -8.16897 -0.590034 0.40886 0.0237579 
107 1 18.8781 7.67048 2.03194 -7.9251 1.30348 0.75753 -0.511645 
323 1 18.9407 7.932 7.29995 -8.26871 0.71486 0.00636652 -0.286213 
143 1 19.1862 11.5847 2.00548 -7.74007 1.16094 -0.140965 0.292059 
359 1 18.7847 11.4902 7.35649 -8.03866 0.833719 0.179304 -0.66279 
179 1 18.9802 15.0337 2.23079 -7.75081 0.0909883 0.756877 -0.731478 
395 1 19.1561 15.1339 7.2602 -8.0134 -0.617592 0.865325 0.610451 
215 1 19.2449 18.9864 1.96042 -7.97212 -0.187335 0.246551 0.772332 
431 1 18.8952 19.0144 7.2199 -8.12115 1.14862 -2.06399 0.833755 
2 2 0.962772 2.64069 -1.40418 -28.9684 -0.219271 0.484209 -0.952829 
218 2 1.22717 2.51826 3.81782 -29.0583 -2.69051 -0.567447 -1.50936 
434 2 0.933578 2.35248 8.94837 -29.2308 0.121594 1.25625 0.360465 
38 2 0.944889 6.25462 -1.50587 -29.0421 0.684283 -0.436139 0.134289 
254 2 0.882072 6.10311 3.74761 -29.3042 1.30029 0.307708 -0.308554 
470 2 0.942149 6.15125 9.06886 -29.5346 -0.0295696 -0.160837 -0.193119 
74 2 1.02874 9.79914 -1.63755 -28.9866 -0.122369 0.339687 0.397167 
290 2 0.994182 9.81761 3.63298 -29.4802 -2.50602 -1.03139 0.488816 
506 2 1.03072 9.7961 8.88853 -29.2149 -1.00515 -0.240348 0.274895 
110 2 0.987388 13.4936 -1.58616 -29.3635 0.291313 0.0299713 1.66292 
326 2 0.888965 13.4326 3.80293 -28.6783 -0.224338 -2.0014 -2.36935 
542 2 0.945325 13.3533 9.0952 -29.1626 -0.3349 -1.24092 -0.905093 
146 2 0.936127 17.1013 -1.73389 -29.315 1.8408 -2.71906 1.54538 
362 2 0.968927 17.0574 3.60308 -29.3012 0.567974 -1.05402 0.26795 
578 2 0.83072 16.9857 8.80961 -28.2819 -0.123042 -0.849543 0.857186 
182 2 1.13927 20.6765 -1.3701 -29.1322 -1.50948 -0.842572 -1.37169 
398 2 1.02032 20.6746 3.68993 -29.2521 0.11497 0.763325 0.327263 
614 2 1.04747 20.3707 8.83968 -29.1364 -1.18366 1.80701 -0.726346 
8 2 4.59369 2.62014 -1.60734 -29.4869 0.0927528 -2.00524 0.385764 
224 2 4.51697 2.47964 3.72014 -29.0461 1.57709 -0.150035 -0.290642 
440 2 4.47263 2.51145 8.81008 -28.8662 0.538532 0.473157 0.310178 
44 2 4.71215 6.12035 -1.64732 -29.3842 -1.14968 1.04544 1.3796 
260 2 4.52428 6.1489 3.80779 -29.7142 -0.312973 0.426582 -0.0450546 
476 2 4.51955 6.11134 8.80237 -29.4965 0.979378 -0.561788 0.416463 
80 2 4.6232 9.65752 -1.65736 -29.1054 -0.693308 -0.28383 0.494327 
296 2 4.64905 9.80152 3.45562 -29.1028 -1.07018 -1.95921 0.306138 
512 2 4.52522 9.77061 9.02003 -29.1449 0.261291 -0.0761085 0.0809477 
116 2 4.49242 13.181 -1.58882 -28.8455 0.589128 1.88752 -0.114465 
332 2 4.5211 13.3059 3.68764 -29.283 0.384239 0.038737 -0.0060578 
548 2 4.50172 13.3936 8.95745 -29.2307 -1.60479 0.424462 1.46036 
152 2 4.65494 16.9026 -1.3591 -28.4896 0.231161 -0.208585 0.0939288 
368 2 4.80801 16.8438 3.60818 -28.6835 -2.63274 -0.749443 1.2264 
584 2 4.49539 16.88 8.80834 -29.744 0.521716 1.42806 0.83786 
188 2 4.63239 20.6732 -1.58457 -29.5271 -1.35762 1.25012 -0.223712 
404 2 4.52285 20.4805 3.75198 -28.7948 1.13745 1.33794 -0.00942482 
620 2 4.47325 20.5192 8.9451 -28.8403 0.779269 -0.35913 0.0760325 
14 2 8.24238 2.45447 -1.49096 -28.6309 0.0874826 -0.325364 -0.449408 
230 2 8.17588 2.49268 3.77077 -28.8484 -1.22869 -1.20103 0.312855 
446 2 8.1567 2.4795 8.90974 -29.3615 -0.370689 0.020512 -1.40637 
50 2 8.29518 6.00959 -1.40064 -29.4749 -0.418195 0.0615991 -0.0426207 
266 2 8.15167 6.12775 3.58216 -28.6757 0.291817 -0.201325 -0.19674 
482 2 8.15886 6.16993 8.94184 -29.1968 -0.878365 0.302733 0.300997 
86 2 8.35533 9.69263 -1.61393 -29.5834 -3.14712 -0.0502663 0.667397 
302 2 8.20966 9.65354 3.76622 -28.6687 0.172023 1.60226 -0.328759 
518 2 8.13361 9.84219 8.99358 -29.1411 -0.23687 -1.23401 -0.329547 
122 2 8.02097 13.3528 -1.60754 -29.3052 0.641941 -0.295632 1.07926 
338 2 8.24319 13.219 3.51358 -29.2812 -0.417525 -0.53226 1.01521 
554 2 8.09114 13.447 8.95628 -29.2685 0.623838 -0.0766401 1.20398 
158 2 8.17379 17.0244 -1.35713 -28.69 -0.214754 -0.0624532 -0.92928 
374 2 8.21092 16.7787 3.70245 -28.5832 0.514827 0.873998 0.479998 
590 2 8.2151 16.9748 9.06671 -28.9548 -0.606599 1.40979 -0.854211 
194 2 8.17897 20.6789 -1.56657 -29.4146 0.819914 1.0236 0.227243 
410 2 8.134 20.5647 3.62751 -29.9127 0.356871 -0.301102 0.423148 
626 2 8.09111 20.674 8.87982 -29.1443 0.103351 -0.579258 -0.0521253 
20 2 11.9642 2.5543 -1.34673 -29.0693 -0.540626 -2.3472 -0.737965 
236 2 11.7722 2.57514 3.79654 -28.5118 -0.770776 -1.56893 -0.411291 
452 2 11.8234 2.44179 8.86384 -29.43 -1.76718 0.438053 -0.161999 
56 2 11.8113 6.08231 -1.56414 -29.4018 -0.133241 0.181694 -1.29443 
272 2 11.9748 6.06706 3.59544 -28.6737 -1.82173 1.73594 0.550834 
488 2 11.5235 6.03888 8.79599 -29.2815 2.60384 2.12488 0.263525 
92 2 11.9047 9.67784 -1.52968 -29.7394 0.159959 -1.0682 -0.765571 
308 2 11.7446 9.75666 3.72861 -28.5352 0.351482 -0.962282 -0.849882 
524 2 11.8453 9.75792 8.99731 -29.5696 -0.316722 -0.486798 -1.5899 
128 2 11.7222 13.2919 -1.56926 -29.1425 1.13394 0.22842 -0.0236031 
344 2 11.8512 13.1708 3.65032 -28.8035 1.03632 0.889157 0.844511 
560 2 11.7782 13.386 8.96589 -29.832 0.181932 -0.357062 -0.140655 
164 2 11.8021 16.9547 -1.54453 -28.3574 0.404554 -0.717451 -0.833924 
380 2 11.6426 16.8104 3.71426 -28.597 1.94411 0.194799 0.614473 
596 2 11.7563 17.0027 8.93573 -29.2114 -0.918882 -0.706617 -0.524496 
200 2 12.0323 20.4899 -1.52975 -29.9043 -1.24642 1.8487 -0.159583 
416 2 11.742 20.5583 3.71745 -29.3942 -0.327489 -1.22944 -0.698439 
632 2 11.6098 20.5382 8.83986 -28.871 1.11174 1.7266 -0.400338 
26 2 15.4225 2.45668 -1.55535 -28.7924 -0.608092 -1.00984 0.133526 
242 2 15.4052 2.35242 3.57947 -29.0759 0.108559 0.749146 2.03435 
458 2 15.2637 2.40654 8.8773 -28.7519 0.422599 0.715091 -0.113025 
62 2 15.3952 6.12035 -1.64417 -29.4123 0.757605 0.781993 0.819192 
278 2 15.5726 5.91468 3.619 -28.8395 0.552473 0.206144 -0.00477576 
494 2 15.2399 5.93875 8.84685 -29.6519 0.957039 0.326733 0.429402 
98 2 15.606 9.70849 -1.76565 -29.5118 -2.46116 0.075817 0.538734 
314 2 15.4631 9.70557 3.70588 -29.3046 1.40899 -0.142663 -0.909241 
530 2 15.4847 9.61134 8.87173 -28.5329 -2.1621 -0.297102 0.803637 
134 2 15.446 13.3309 -1.52907 -29.1835 -1.06743 -1.16277 -0.913748 
350 2 15.5001 13.5024 3.87866 -28.7218 -0.149425 -1.51184 -2.08581 
566 2 15.3923 13.3559 8.72691 -28.856 -1.45758 -0.0209732 0.30577 
170 2 15.4104 16.9152 -1.58661 -28.7377 0.581058 0.495888 -0.363629 
386 2 15.4704 17.0484 3.94682 -28.9344 -0.572995 -0.384436 -1.17728 
602 2 15.2233 16.9966 8.83283 -29.1881 0.394053 0.309908 0.379006 
206 2 15.5771 20.5797 -1.52655 -29.6279 0.691278 0.1516 0.531116 
422 2 15.3641 20.6675 3.66951 -28.6368 0.304127 -0.850677 1.64375 
638 2 15.4232 20.6818 8.86632 -28.894 -1.23206 -0.141449 0.462701 
32 2 18.8361 2.55207 -1.74242 -29.3262 2.0828 -0.764907 0.731692 
248 2 19.0394 2.44074 3.66665 -29.5884 1.31993 -1.3044 -0.380791 
464 2 19.0733 2.4284 8.86165 -29.2329 -0.457931 1.63329 0.713549 
68 2 19.136 6.16939 -1.51829 -29.5762 -1.09644 -0.522845 -0.769216 
284 2 18.9994 6.0972 3.6718 -29.2396 0.876622 0.00473188 0.524312 
500 2 19.104 6.21251 8.88872 -28.8035 -1.71851 -1.46318 0.415283 
104 2 19.1359 9.78765 -1.6793 -29.017 0.341888 1.19706 0.212404 
320 2 19.1668 9.74943 3.66764 -29.2936 -1.15171 0.0821444 0.580966 
536 2 18.9746 9.72217 8.82102 -28.9232 0.483573 0.728194 0.366993 
140 2 19.0847 13.3363 -1.63881 -29.1475 -0.838328 -0.0797187 -0.354871 
356 2 19.0565 13.329 3.75862 -29.5404 0.0264464 -0.20387 -0.268163 
572 2 18.8637 13.3615 8.98581 -29.1729 2.32042 0.158215 -0.414865 
176 2 19.1221 17.0019 -1.52162 -29.0398 -1.17766 -0.462545 1.20081 
392 2 19.127 16.8415 3.67696 -28.5542 -0.538468 1.98694 -0.380085 
608 2 18.9055 17.1608 8.79719 -28.0795 1.60581 -1.51363 0.517117 
212 2 19.1489 20.6359 -1.62968 -29.3689 0.860883 0.227059 0.155176 
428 2 19.0319 20.6546 3.53749 -28.9838 0.754663 -1.39728 0.538467 
644 2 19.1406 20.6382 8.95598 -28.9992 -1.03544 0.34023 -1.04619 
1 2 2.76623 0.682543 0.864986 -29.168 1.16425 0.365257 1.61047 
217 2 2.80248 0.701038 6.32456 -28.9191 -1.33403 -1.1572 -0.928024 
37 2 2.80888 4.30107 1.20478 -29.323 0.273393 2.41867 -0.0162041 
253 2 2.74879 4.37476 6.29669 -29.1398 -0.457892 -0.206761 -0.14673 
73 2 2.70096 8.0663 1.1046 -29.7085 1.19268 -1.12506 -0.551616 
289 2 2.70225 7.89607 6.39692 -29.1282 0.810026 0.739848 -1.4011 
109 2 2.71387 11.4924 1.14111 -28.8298 -0.903311 1.09504 -0.714582 
325 2 2.66653 11.531 6.06535 -28.6431 -0.478081 -1.56986 1.48878 
145 2 2.80758 15.0592 1.09991 -29.8632 -1.31968 0.766324 -0.944327 
361 2 2.64833 15.0195 6.40139 -28.7804 0.319142 1.23519 -0.551744 
181 2 3.04569 18.7808 1.14887 -28.9937 -2.57703 -0.811638 -0.623597 
397 2 2.85624 18.7058 6.19453 -29.6424 -0.30253 0.171201 0.200295 
7 2 6.37855 0.651967 1.11908 -29.3696 -0.92587 -0.111563 1.08941 
223 2 6.22748 0.633863 6.2882 -29.2413 2.04411 -0.61504 -0.650936 
43 2 6.43301 4.13056 1.12421 -29.0865 -0.438929 1.25923 -0.785366 
259 2 6.35833 4.34557 6.26962 -29.8242 -0.558215 -0.522043 0.687095 
79 2 6.53899 8.01147 1.19386 -29.8038 -1.76887 -1.87951 -1.77506 
295 2 6.36439 8.0729 6.19565 -28.638 -0.593278 -0.678346 0.370751 
115 2 6.36095 11.3843 0.981542 -29.3878 1.01217 2.16576 -0.295535 
331 2 6.28919 11.5336 6.44782 -28.8663 -2.12308 0.10947 -1.5293 
151 2 6.56579 15.0185 1.2353 -29.0478 -1.62289 -0.155286 -1.75914 
367 2 6.3059 15.0019 6.30805 -29.3789 0.169011 0.159812 -0.0234737 
187 2 6.44613 18.9166 0.953855 -28.4275 1.50121 0.22632 0.16886 
403 2 6.51042 18.5575 6.26188 -28.9862 -1.59065 1.46208 0.130377 
13 2 10.0143 0.732147 1.10923 -29.0121 -0.980742 -1.7663 0.154702 
229 2 9.8891 0.602476 6.2119 -29.356 0.507247 -0.173092 0.0705476 
49 2 10.0768 4.31119 1.19275 -28.8023 -1.46243 0.478293 -0.53662 
265 2 9.85638 4.27753 6.1547 -28.9495 0.880172 1.90225 1.05434 
85 2 10.0499 7.93897 0.967513 -28.7242 -0.401818 -0.904341 -0.218647 
301 2 9.83623 7.89926 6.37903 -29.1353 1.85667 0.483773 0.145821 
121 2 10.0911 11.4173 1.14966 -29.207 -1.31635 0.12373 -0.137503 
337 2 9.90528 11.5565 6.36759 -29.661 0.636728 -0.435657 -0.106264 
157 2 10.1211 15.1602 0.913926 -28.9232 -0.54107 -1.08885 -0.0688938 
373 2 9.89669 15.035 6.36682 -28.7721 0.717828 1.93893 0.745151 
193 2 10.0077 18.8902 1.03381 -29.2835 0.273353 -0.453114 0.863533 
409 2 9.83463 18.7943 6.26103 -29.7003 0.969292 -1.14937 -0.09527 
19 2 13.6146 0.542731 1.17949 -28.9746 -0.316169 0.0622927 -1.61171 
235 2 13.4096 0.561222 6.20329 -28.8966 1.74066 0.666361 0.158561 
55 2 13.675 4.19378 1.15061 -28.2946 1.10917 0.199645 -0.918322 
271 2 13.5671 4.29 6.20287 -29.5674 -0.157651 -0.153701 0.826367 
91 2 13.685 7.83405 1.24268 -29.4824 0.694029 0.679058 -1.92432 
307 2 13.5839 7.9581 6.08649 -28.6964 -0.917016 -0.501948 1.49505 
127 2 13.6245 11.6413 0.83602 -28.9999 0.748818 -1.36457 0.225123 
343 2 13.5575 11.5096 6.29982 -28.6871 -0.54597 0.393299 0.653482 
163 2 13.657 15.1975 1.29479 -28.7368 -0.384395 -0.590874 -1.06642 
379 2 13.5559 15.1128 6.32166 -29.0218 -1.43667 0.0141401 -0.604431 
199 2 13.7794 18.6282 1.28602 -27.9879 -1.98228 0.128721 -1.30479 
415 2 13.4962 18.8477 6.39248 -29.7682 -0.102689 -1.68274 -1.36995 
25 2 17.1624 0.559307 1.21488 -28.7353 2.3928 1.43209 -2.51697 
241 2 17.2273 0.519506 6.34074 -29.2989 -0.348264 0.454774 -0.627156 
61 2 17.4651 4.0883 0.9352 -29.2182 -0.499815 1.08651 1.26053 
277 2 17.243 4.25156 6.29039 -28.8616 0.20497 -0.763491 -0.149373 
97 2 17.2623 7.93151 0.875465 -29.0439 0.792728 0.591872 -0.874339 
313 2 17.0783 7.82185 6.25981 -28.7416 0.640321 -0.161387 0.547238 
133 2 17.3017 11.4537 1.34635 -29.3075 -0.553126 1.2283 -0.70962 
349 2 17.1058 11.4686 6.1479 -29.3169 1.60065 0.485501 -0.096004 
169 2 17.2433 14.9313 1.0135 -29.1384 1.82366 0.891351 -0.252978 
385 2 17.2868 15.2183 6.47782 -28.6503 -0.675384 -0.774144 -0.492587 
205 2 17.3841 18.771 1.26476 -29.0555 -0.251111 -0.648053 -2.13047 
421 2 17.2039 18.7964 6.32347 -28.6519 -1.15433 1.28797 -1.13225 
31 2 20.9678 0.826368 1.21653 -29.1542 -0.00544484 -0.883688 0.114803 
247 2 21.0211 0.73721 6.45735 -29.5203 -0.950938 -2.20514 -0.615687 
67 2 21.0506 4.42373 1.11195 -29.2922 -0.832481 -0.543728 0.459866 
283 2 20.9778 4.1523 6.32629 -28.6124 -0.557945 1.19822 0.551602 
103 2 20.8421 7.96529 1.11752 -28.8313 -0.125447 0.557621 0.654381 
319 2 20.881 7.94783 6.29551 -29.0784 -0.834502 0.186614 -1.01526 
139 2 20.9385 11.6601 0.904318 -29.6926 0.224668 -0.540313 0.748496 
355 2 20.7956 11.6065 6.53541 -29.2022 0.439474 -1.01494 -0.232279 
175 2 20.8955 15.1666 1.18833 -29.8716 -0.252642 -0.175906 -0.508994 
391 2 20.848 15.1424 6.17759 -29.0242 -0.790326 0.126814 0.294855 
211 2 21.0931 18.7032 0.923551 -29.3292 -1.12371 0.501253 -0.247587 
427 2 20.8277 18.9474 6.13921 -29.4634 0.0116646 -1.05845 1.05608 
570 1 15.5676 11.6078 9.6953 -8.36417 0.234063 -0.669238 1.22005 
219 1 2.86938 2.63308 2.64354 -7.89501 -0.561178 0.000560893 -0.312893 
435 1 2.73108 2.46987 7.81471 -8.07403 0.626267 0.0546692 0.326645 
171 1 17.2193 16.9441 -2.74387 -8.04003 0.46164 -0.707222 3.10897 
255 1 2.85619 6.20582 2.74951 -7.4863 -1.05504 -0.382174 -0.576329 
471 1 2.6907 6.07831 7.92412 -7.87786 0.331536 1.93232 -1.2338 
394 1 20.9882 17.044 5.32138 -7.8263 -0.111007 0.537495 -0.979212 
291 1 2.65725 9.8969 2.44965 -8.08601 0.515908 -1.29719 0.571886 
507 1 2.81958 9.53592 7.92088 -8.20676 0.224951 0.372123 -0.447084 
576 1 18.9637 11.4956 9.97091 -7.91112 0.353356 0.811966 -0.163865 
327 1 2.64808 13.3318 2.62511 -8.27308 0.198589 -1.25485 0.290936 
543 1 2.64652 13.5208 7.98503 -7.90508 0.277666 0.171984 -0.514933 
358 1 20.584 13.1752 5.38719 -7.9671 -0.59042 0.881519 -0.62844 
363 1 2.80726 16.9084 2.7562 -7.41146 0.893134 0.729477 0.569052 
579 1 2.56353 17.1098 7.92059 -8.25813 -0.112774 -0.830283 -0.310832 
624 1 4.42758 18.623 9.93259 -7.46339 0.682808 1.54284 0.114612 
399 1 2.78917 20.2898 2.64036 -8.02761 1.03496 0.0289459 0.307455 
615 1 2.89998 20.4843 7.70133 -7.93575 -0.267466 -0.20702 1.89116 
444 1 4.5533 0.829168 9.88697 -8.24832 -1.2009 -2.55056 -0.0989285 
225 1 6.32666 2.33548 2.6563 -8.16094 0.290597 1.17685 0.475311 
441 1 6.19515 2.60421 7.85454 -7.74578 0.780683 -0.869159 1.12809 
178 1 20.9422 16.8044 0.0121565 -7.70107 -0.514927 0.831736 -0.15594 
261 1 6.21747 6.36712 2.8253 -7.80063 1.51072 0.382182 -0.230138 
477 1 6.49243 5.83382 7.94655 -7.51841 -1.24372 1.34466 0.083481 
498 1 15.3786 4.18098 9.95136 -7.81186 -0.0226546 0.0313009 -0.348824 
297 1 6.42987 9.77607 2.62624 -8.12649 1.87099 0.197727 0.509173 
513 1 6.24362 9.90682 7.94198 -7.85096 -0.144851 -0.727017 -0.567336 
528 1 11.5534 7.99755 9.84397 -7.50342 0.468865 -0.630637 2.47555 
333 1 6.29888 13.4028 2.59374 -7.80276 0.00388193 -0.354406 0.733895 
549 1 6.1421 13.3632 8.00847 -8.21469 1.3612 0.295817 -0.851898 
207 1 17.4883 20.8107 -2.60452 -7.42975 -1.40719 1.20619 0.569902 
369 1 6.50617 16.5395 2.69784 -8.38464 0.633152 0.980492 -0.257888 
585 1 6.54911 16.8226 7.92743 -7.92533 0.146378 -0.223267 -0.72153 
195 1 10.0747 20.8783 -2.38538 -7.27714 -0.659948 -1.12357 -1.15815 
405 1 6.27961 20.6387 2.68246 -7.96843 -0.600592 -0.975998 -0.419224 
621 1 6.24023 20.651 8.02374 -7.80658 0.513646 0.916091 -1.66966 
480 1 4.52473 4.2853 9.78813 -7.83078 -1.36393 -0.501007 0.63145 
231 1 9.85917 2.65273 2.74352 -8.34864 1.71071 -0.87032 -0.329675 
447 1 9.96866 2.30651 8.00386 -7.15692 0.376645 0.735153 -0.950199 
558 1 8.1069 11.6789 10.0173 -8.05691 0.141711 -0.774146 -1.32935 
267 1 9.92657 6.14312 2.54894 -8.07435 0.894725 -0.88478 -0.166266 
483 1 9.88356 6.15823 7.80716 -8.34552 -1.34219 -0.722526 -0.898587 
213 1 21.1389 20.6255 -2.62484 -7.66962 -1.1701 0.88388 1.55107 
303 1 9.98545 9.85671 2.64385 -8.0821 -0.79412 -0.99003 0.631141 
519 1 10.0295 9.66112 7.74661 -7.70284 -1.4108 2.01374 1.88709 
165 1 13.6524 17.1683 -2.54572 -7.95146 -0.0211398 0.0731887 -0.294029 
339 1 10.184 12.887 2.79615 -7.65389 -0.947135 0.922143 0.635869 
555 1 10.0816 13.1277 7.9541 -7.53841 -2.13828 -0.394428 -0.591955 
159 1 9.88029 17.0057 -2.44143 -8.36139 1.4561 0.373996 -0.989462 
375 1 10.0019 16.8604 2.65312 -8.20633 -0.801903 0.0166583 0.789272 
591 1 9.84992 16.9964 7.82887 -7.60287 -0.850561 -0.466998 1.64236 
63 1 17.3221 6.27903 -2.68156 -7.74499 -0.403425 0.122727 -0.428484 
411 1 9.93074 20.5985 2.58791 -7.34313 0.717004 -0.603705 0.0457833 
627 1 9.89709 20.5447 7.76374 -7.96341 -0.369349 1.5447 0.542779 
111 1 2.65974 13.6322 -2.63133 -7.80748 2.44281 -1.08925 -0.522282 
237 1 13.3975 2.42008 2.61537 -8.48736 1.2143 -0.569448 -0.387817 
453 1 13.4506 2.64802 7.78739 -8.03175 1.77504 -1.73866 0.571874 
642 1 15.2972 18.9029 9.95963 -8.10261 0.443299 0.101497 -0.614889 
273 1 13.8338 6.05642 2.59882 -8.79449 -0.711963 -0.248295 -0.0803214 
489 1 13.4752 5.78382 7.9938 -7.56203 -0.925951 0.0974012 -1.18359 
105 1 20.9613 10.1433 -2.67822 -8.0399 -1.11958 -0.717697 0.508046 
309 1 13.7825 9.37349 2.80307 -7.66385 -1.67833 -0.297964 -0.56073 
525 1 13.6827 9.67289 7.91873 -7.74027 0.0566023 1.04513 -2.41474 
57 1 13.5944 6.20863 -2.60397 -7.46911 -0.445859 -0.242137 0.380649 
345 1 13.7978 13.5084 2.50932 -7.87153 -0.820244 -1.4847 0.494209 
561 1 13.5369 13.3086 7.70829 -7.99999 0.509989 2.25651 -0.413146 
69 1 20.826 6.19324 -2.43554 -7.35799 1.55939 0.249465 -0.451158 
381 1 13.5794 16.7739 2.69386 -8.30831 -0.303475 0.915555 -0.225399 
597 1 13.4141 17.0738 7.80038 -7.86106 0.300093 -0.698441 1.05443 
81 1 6.33169 9.96687 -2.42651 -7.44994 0.957613 -0.527557 -1.49513 
417 1 13.5887 20.6935 2.6768 -8.44033 0.113521 0.138184 -0.356352 
633 1 13.6018 20.469 7.71099 -8.00273 -1.09404 0.773376 1.48947 
430 1 21.0508 20.6977 5.49731 -7.13516 0.648596 0.287156 -1.93043 
243 1 17.2414 2.37507 2.65531 -7.29835 2.00512 -0.585621 0.257996 
459 1 17.1394 2.39454 8.05877 -7.98447 0.868804 -0.148979 -0.348604 
648 1 19.0167 18.9007 9.83951 -8.36452 -0.240707 -3.01803 1.09092 
279 1 17.3512 5.75298 2.61332 -7.73334 -0.832113 -0.688856 -0.853901 
495 1 17.1694 6.02518 7.91098 -7.93366 1.02147 0.317049 -0.496127 
450 1 7.94654 0.700534 9.87065 -8.06885 -0.647193 -1.01332 0.203593 