Output produced by LAMMPSStructureWriter


15000 atoms
3 atom types
0.00000000 27.34000000 xlo xhi
0.00000000 27.34000000 ylo yhi
0.00000000 273.40000000 zlo zhi
0.00000000 0.00000000 0.00000000 xy xz yz



Masses

1 15.99939999999999962199 #O
2 91.22400000000000375167 #Zr
3 238.02890999999999621650 #U

Atoms

1 0 1 0.0 1.36700000000000021494 1.36700000000000021494 4.10099999999999909051
2 0 1 0.0 1.36700000000000065903 1.36700000000000065903 9.56900000000000083844
3 0 1 0.0 1.36700000000000088107 1.36700000000000088107 15.03699999999999903366
4 0 1 0.0 1.36700000000000132516 1.36700000000000132516 20.50499999999999900524
5 0 1 0.0 1.36700000000000154721 1.36700000000000154721 25.97299999999999897682
6 0 1 0.0 1.36700000000000199130 1.36700000000000199130 31.44099999999999894840
7 0 1 0.0 1.36700000000000221334 1.36700000000000221334 36.90899999999999891998
8 0 1 0.0 1.36700000000000265743 1.36700000000000265743 42.37699999999999533884
9 0 1 0.0 1.36700000000000287947 1.36700000000000287947 47.84499999999999175770
10 0 1 0.0 1.36700000000000332356 1.36700000000000332356 53.31299999999999528200
11 0 1 0.0 1.36700000000000354561 1.36700000000000354561 58.78099999999999170086
12 0 1 0.0 1.36700000000000398970 1.36700000000000398970 64.24899999999999522515
13 0 1 0.0 1.36700000000000421174 1.36700000000000421174 69.71699999999999874944
14 0 1 0.0 1.36700000000000465583 1.36700000000000465583 75.18500000000000227374
15 0 1 0.0 1.36700000000000487788 1.36700000000000487788 80.65299999999999158717
16 0 1 0.0 1.36700000000000532197 1.36700000000000532197 86.12099999999999511147
17 0 1 0.0 1.36700000000000554401 1.36700000000000554401 91.58899999999999863576
18 0 1 0.0 1.36700000000000598810 1.36700000000000598810 97.05699999999998794920
19 0 1 0.0 1.36700000000000621014 1.36700000000000621014 102.52499999999999147349
20 0 1 0.0 1.36700000000000665423 1.36700000000000665423 107.99299999999999499778
21 0 1 0.0 1.36700000000000687628 1.36700000000000687628 113.46099999999998431122
22 0 1 0.0 1.36700000000000732037 1.36700000000000732037 118.92899999999998783551
23 0 1 0.0 1.36700000000000754241 1.36700000000000754241 124.39699999999999135980
24 0 1 0.0 1.36700000000000798650 1.36700000000000798650 129.86499999999998067324
25 0 1 0.0 1.36700000000000820854 1.36700000000000820854 135.33299999999999840838
26 0 1 0.0 1.36700000000000865263 1.36700000000000865263 140.80099999999998772182
27 0 1 0.0 1.36700000000000887468 1.36700000000000887468 146.26900000000000545697
28 0 1 0.0 1.36700000000000931877 1.36700000000000931877 151.73699999999999477041
29 0 1 0.0 1.36700000000000954081 1.36700000000000954081 157.20499999999998408384
30 0 1 0.0 1.36700000000000998490 1.36700000000000998490 162.67299999999997339728
31 0 1 0.0 1.36700000000001020695 1.36700000000001020695 168.14099999999999113243
32 0 1 0.0 1.36700000000001065104 1.36700000000001065104 173.60899999999998044586
33 0 1 0.0 1.36700000000001087308 1.36700000000001087308 179.07699999999999818101
34 0 1 0.0 1.36700000000001131717 1.36700000000001131717 184.54499999999998749445
35 0 1 0.0 1.36700000000001153921 1.36700000000001153921 190.01299999999997680789
36 0 1 0.0 1.36700000000001198330 1.36700000000001198330 195.48099999999996612132
37 0 1 0.0 1.36700000000001220535 1.36700000000001220535 200.94899999999998385647
38 0 1 0.0 1.36700000000001264944 1.36700000000001264944 206.41699999999997316991
39 0 1 0.0 1.36700000000001287148 1.36700000000001287148 211.88499999999999090505
40 0 1 0.0 1.36700000000001331557 1.36700000000001331557 217.35299999999998021849
41 0 1 0.0 1.36700000000001353762 1.36700000000001353762 222.82099999999996953193
42 0 1 0.0 1.36700000000001398170 1.36700000000001398170 228.28899999999995884536
43 0 1 0.0 1.36700000000001420375 1.36700000000001420375 233.75699999999997658051
44 0 1 0.0 1.36700000000001464784 1.36700000000001464784 239.22499999999996589395
45 0 1 0.0 1.36700000000001486988 1.36700000000001486988 244.69299999999998362910
46 0 1 0.0 1.36700000000001531397 1.36700000000001531397 250.16100000000000136424
47 0 1 0.0 1.36700000000001553602 1.36700000000001553602 255.62899999999999067768
48 0 1 0.0 1.36700000000001598011 1.36700000000001598011 261.09699999999997999112
49 0 1 0.0 1.36700000000001642420 1.36700000000001642420 266.56499999999999772626
50 0 1 0.0 1.36700000000001664624 1.36700000000001664624 272.03299999999995861799
51 0 1 0.0 1.36700000000000065903 6.83499999999999996447 4.10099999999999909051
52 0 1 0.0 1.36700000000000110312 6.83500000000000085265 9.56900000000000083844
53 0 1 0.0 1.36700000000000132516 6.83500000000000085265 15.03699999999999903366
54 0 1 0.0 1.36700000000000176925 6.83500000000000085265 20.50499999999999900524
55 0 1 0.0 1.36700000000000199130 6.83500000000000174083 25.97299999999999897682
56 0 1 0.0 1.36700000000000243539 6.83500000000000174083 31.44099999999999894840
57 0 1 0.0 1.36700000000000265743 6.83500000000000262901 36.90899999999999891998
58 0 1 0.0 1.36700000000000310152 6.83500000000000262901 42.37699999999999533884
59 0 1 0.0 1.36700000000000332356 6.83500000000000262901 47.84499999999999175770
60 0 1 0.0 1.36700000000000376765 6.83500000000000351719 53.31299999999999528200
61 0 1 0.0 1.36700000000000398970 6.83500000000000351719 58.78099999999999170086
62 0 1 0.0 1.36700000000000443379 6.83500000000000351719 64.24899999999999522515
63 0 1 0.0 1.36700000000000465583 6.83500000000000440536 69.71699999999999874944
64 0 1 0.0 1.36700000000000509992 6.83500000000000440536 75.18500000000000227374
65 0 1 0.0 1.36700000000000532197 6.83500000000000529354 80.65299999999999158717
66 0 1 0.0 1.36700000000000576605 6.83500000000000529354 86.12099999999999511147
67 0 1 0.0 1.36700000000000598810 6.83500000000000529354 91.58899999999999863576
68 0 1 0.0 1.36700000000000643219 6.83500000000000618172 97.05699999999998794920
69 0 1 0.0 1.36700000000000665423 6.83500000000000618172 102.52499999999999147349
70 0 1 0.0 1.36700000000000709832 6.83500000000000618172 107.99299999999999499778
71 0 1 0.0 1.36700000000000732037 6.83500000000000706990 113.46099999999998431122
72 0 1 0.0 1.36700000000000776446 6.83500000000000706990 118.92899999999998783551
73 0 1 0.0 1.36700000000000798650 6.83500000000000795808 124.39699999999999135980
74 0 1 0.0 1.36700000000000843059 6.83500000000000795808 129.86499999999998067324
75 0 1 0.0 1.36700000000000865263 6.83500000000000795808 135.33299999999999840838
76 0 1 0.0 1.36700000000000909672 6.83500000000000884626 140.80099999999998772182
77 0 1 0.0 1.36700000000000931877 6.83500000000000884626 146.26900000000000545697
78 0 1 0.0 1.36700000000000976286 6.83500000000000884626 151.73699999999999477041
79 0 1 0.0 1.36700000000000998490 6.83500000000000973444 157.20499999999998408384
80 0 1 0.0 1.36700000000001042899 6.83500000000000973444 162.67299999999997339728
81 0 1 0.0 1.36700000000001065104 6.83500000000001062261 168.14099999999999113243
82 0 1 0.0 1.36700000000001109512 6.83500000000001062261 173.60899999999998044586
83 0 1 0.0 1.36700000000001131717 6.83500000000001062261 179.07699999999999818101
84 0 1 0.0 1.36700000000001176126 6.83500000000001151079 184.54499999999998749445
85 0 1 0.0 1.36700000000001198330 6.83500000000001151079 190.01299999999997680789
86 0 1 0.0 1.36700000000001242739 6.83500000000001151079 195.48099999999996612132
87 0 1 0.0 1.36700000000001264944 6.83500000000001239897 200.94899999999998385647
88 0 1 0.0 1.36700000000001309353 6.83500000000001239897 206.41699999999997316991
89 0 1 0.0 1.36700000000001331557 6.83500000000001328715 211.88499999999999090505
90 0 1 0.0 1.36700000000001375966 6.83500000000001328715 217.35299999999998021849
91 0 1 0.0 1.36700000000001398170 6.83500000000001328715 222.82099999999996953193
92 0 1 0.0 1.36700000000001442579 6.83500000000001417533 228.28899999999995884536
93 0 1 0.0 1.36700000000001464784 6.83500000000001417533 233.75699999999997658051
94 0 1 0.0 1.36700000000001509193 6.83500000000001417533 239.22499999999996589395
95 0 1 0.0 1.36700000000001531397 6.83500000000001506351 244.69299999999998362910
96 0 1 0.0 1.36700000000001575806 6.83500000000001506351 250.16100000000000136424
97 0 1 0.0 1.36700000000001598011 6.83500000000001595168 255.62899999999999067768
98 0 1 0.0 1.36700000000001642420 6.83500000000001595168 261.09699999999997999112
99 0 1 0.0 1.36700000000001686828 6.83500000000001595168 266.56499999999999772626
100 0 1 0.0 1.36700000000001709033 6.83500000000001683986 272.03299999999995861799
101 0 1 0.0 1.36700000000000088107 12.30300000000000082423 4.10099999999999909051
102 0 1 0.0 1.36700000000000132516 12.30300000000000082423 9.56900000000000083844
103 0 1 0.0 1.36700000000000154721 12.30300000000000260059 15.03699999999999903366
104 0 1 0.0 1.36700000000000199130 12.30300000000000260059 20.50499999999999900524
105 0 1 0.0 1.36700000000000221334 12.30300000000000260059 25.97299999999999897682
106 0 1 0.0 1.36700000000000265743 12.30300000000000260059 31.44099999999999894840
107 0 1 0.0 1.36700000000000287947 12.30300000000000260059 36.90899999999999891998
108 0 1 0.0 1.36700000000000332356 12.30300000000000260059 42.37699999999999533884
109 0 1 0.0 1.36700000000000354561 12.30300000000000437694 47.84499999999999175770
110 0 1 0.0 1.36700000000000398970 12.30300000000000437694 53.31299999999999528200
111 0 1 0.0 1.36700000000000421174 12.30300000000000437694 58.78099999999999170086
112 0 1 0.0 1.36700000000000465583 12.30300000000000437694 64.24899999999999522515
113 0 1 0.0 1.36700000000000487788 12.30300000000000437694 69.71699999999999874944
114 0 1 0.0 1.36700000000000532197 12.30300000000000615330 75.18500000000000227374
115 0 1 0.0 1.36700000000000554401 12.30300000000000615330 80.65299999999999158717
116 0 1 0.0 1.36700000000000598810 12.30300000000000615330 86.12099999999999511147
117 0 1 0.0 1.36700000000000621014 12.30300000000000615330 91.58899999999999863576
118 0 1 0.0 1.36700000000000665423 12.30300000000000615330 97.05699999999998794920
119 0 1 0.0 1.36700000000000687628 12.30300000000000792966 102.52499999999999147349
120 0 1 0.0 1.36700000000000732037 12.30300000000000792966 107.99299999999999499778
121 0 1 0.0 1.36700000000000754241 12.30300000000000792966 113.46099999999998431122
122 0 1 0.0 1.36700000000000798650 12.30300000000000792966 118.92899999999998783551
123 0 1 0.0 1.36700000000000820854 12.30300000000000792966 124.39699999999999135980
124 0 1 0.0 1.36700000000000865263 12.30300000000000792966 129.86499999999998067324
125 0 1 0.0 1.36700000000000887468 12.30300000000000970601 135.33299999999999840838
126 0 1 0.0 1.36700000000000931877 12.30300000000000970601 140.80099999999998772182
127 0 1 0.0 1.36700000000000954081 12.30300000000000970601 146.26900000000000545697
128 0 1 0.0 1.36700000000000998490 12.30300000000000970601 151.73699999999999477041
129 0 1 0.0 1.36700000000001020695 12.30300000000000970601 157.20499999999998408384
130 0 1 0.0 1.36700000000001065104 12.30300000000001148237 162.67299999999997339728
131 0 1 0.0 1.36700000000001087308 12.30300000000001148237 168.14099999999999113243
132 0 1 0.0 1.36700000000001131717 12.30300000000001148237 173.60899999999998044586
133 0 1 0.0 1.36700000000001153921 12.30300000000001148237 179.07699999999999818101
134 0 1 0.0 1.36700000000001198330 12.30300000000001148237 184.54499999999998749445
135 0 1 0.0 1.36700000000001220535 12.30300000000001325873 190.01299999999997680789
136 0 1 0.0 1.36700000000001264944 12.30300000000001325873 195.48099999999996612132
137 0 1 0.0 1.36700000000001287148 12.30300000000001325873 200.94899999999998385647
138 0 1 0.0 1.36700000000001331557 12.30300000000001325873 206.41699999999997316991
139 0 1 0.0 1.36700000000001353762 12.30300000000001325873 211.88499999999999090505
140 0 1 0.0 1.36700000000001398170 12.30300000000001325873 217.35299999999998021849
141 0 1 0.0 1.36700000000001420375 12.30300000000001503508 222.82099999999996953193
142 0 1 0.0 1.36700000000001464784 12.30300000000001503508 228.28899999999995884536
143 0 1 0.0 1.36700000000001486988 12.30300000000001503508 233.75699999999997658051
144 0 1 0.0 1.36700000000001531397 12.30300000000001503508 239.22499999999996589395
145 0 1 0.0 1.36700000000001553602 12.30300000000001503508 244.69299999999998362910
146 0 1 0.0 1.36700000000001598011 12.30300000000001681144 250.16100000000000136424
147 0 1 0.0 1.36700000000001620215 12.30300000000001681144 255.62899999999999067768
148 0 1 0.0 1.36700000000001664624 12.30300000000001681144 261.09699999999997999112
149 0 1 0.0 1.36700000000001709033 12.30300000000001681144 266.56499999999999772626
150 0 1 0.0 1.36700000000001731237 12.30300000000001681144 272.03299999999995861799
151 0 1 0.0 1.36700000000000132516 17.77100000000000079581 4.10099999999999909051
152 0 1 0.0 1.36700000000000176925 17.77100000000000079581 9.56900000000000083844
153 0 1 0.0 1.36700000000000199130 17.77100000000000079581 15.03699999999999903366
154 0 1 0.0 1.36700000000000243539 17.77100000000000079581 20.50499999999999900524
155 0 1 0.0 1.36700000000000265743 17.77100000000000079581 25.97299999999999897682
156 0 1 0.0 1.36700000000000310152 17.77100000000000434852 31.44099999999999894840
157 0 1 0.0 1.36700000000000332356 17.77100000000000434852 36.90899999999999891998
158 0 1 0.0 1.36700000000000376765 17.77100000000000434852 42.37699999999999533884
159 0 1 0.0 1.36700000000000398970 17.77100000000000434852 47.84499999999999175770
160 0 1 0.0 1.36700000000000443379 17.77100000000000434852 53.31299999999999528200
161 0 1 0.0 1.36700000000000465583 17.77100000000000434852 58.78099999999999170086
162 0 1 0.0 1.36700000000000509992 17.77100000000000434852 64.24899999999999522515
163 0 1 0.0 1.36700000000000532197 17.77100000000000434852 69.71699999999999874944
164 0 1 0.0 1.36700000000000576605 17.77100000000000434852 75.18500000000000227374
165 0 1 0.0 1.36700000000000598810 17.77100000000000434852 80.65299999999999158717
166 0 1 0.0 1.36700000000000643219 17.77100000000000434852 86.12099999999999511147
167 0 1 0.0 1.36700000000000665423 17.77100000000000790124 91.58899999999999863576
168 0 1 0.0 1.36700000000000709832 17.77100000000000790124 97.05699999999998794920
169 0 1 0.0 1.36700000000000732037 17.77100000000000790124 102.52499999999999147349
170 0 1 0.0 1.36700000000000776446 17.77100000000000790124 107.99299999999999499778
171 0 1 0.0 1.36700000000000798650 17.77100000000000790124 113.46099999999998431122
172 0 1 0.0 1.36700000000000843059 17.77100000000000790124 118.92899999999998783551
173 0 1 0.0 1.36700000000000865263 17.77100000000000790124 124.39699999999999135980
174 0 1 0.0 1.36700000000000909672 17.77100000000000790124 129.86499999999998067324
175 0 1 0.0 1.36700000000000931877 17.77100000000000790124 135.33299999999999840838
176 0 1 0.0 1.36700000000000976286 17.77100000000000790124 140.80099999999998772182
177 0 1 0.0 1.36700000000000998490 17.77100000000001145395 146.26900000000000545697
178 0 1 0.0 1.36700000000001042899 17.77100000000001145395 151.73699999999999477041
179 0 1 0.0 1.36700000000001065104 17.77100000000001145395 157.20499999999998408384
180 0 1 0.0 1.36700000000001109512 17.77100000000001145395 162.67299999999997339728
181 0 1 0.0 1.36700000000001131717 17.77100000000001145395 168.14099999999999113243
182 0 1 0.0 1.36700000000001176126 17.77100000000001145395 173.60899999999998044586
183 0 1 0.0 1.36700000000001198330 17.77100000000001145395 179.07699999999999818101
184 0 1 0.0 1.36700000000001242739 17.77100000000001145395 184.54499999999998749445
185 0 1 0.0 1.36700000000001264944 17.77100000000001145395 190.01299999999997680789
186 0 1 0.0 1.36700000000001309353 17.77100000000001145395 195.48099999999996612132
187 0 1 0.0 1.36700000000001331557 17.77100000000001145395 200.94899999999998385647
188 0 1 0.0 1.36700000000001375966 17.77100000000001500666 206.41699999999997316991
189 0 1 0.0 1.36700000000001398170 17.77100000000001500666 211.88499999999999090505
190 0 1 0.0 1.36700000000001442579 17.77100000000001500666 217.35299999999998021849
191 0 1 0.0 1.36700000000001464784 17.77100000000001500666 222.82099999999996953193
192 0 1 0.0 1.36700000000001509193 17.77100000000001500666 228.28899999999995884536
193 0 1 0.0 1.36700000000001531397 17.77100000000001500666 233.75699999999997658051
194 0 1 0.0 1.36700000000001575806 17.77100000000001500666 239.22499999999996589395
195 0 1 0.0 1.36700000000001598011 17.77100000000001500666 244.69299999999998362910
196 0 1 0.0 1.36700000000001642420 17.77100000000001500666 250.16100000000000136424
197 0 1 0.0 1.36700000000001664624 17.77100000000001500666 255.62899999999999067768
198 0 1 0.0 1.36700000000001709033 17.77100000000001855938 261.09699999999997999112
199 0 1 0.0 1.36700000000001753442 17.77100000000001855938 266.56499999999999772626
200 0 1 0.0 1.36700000000001775646 17.77100000000001855938 272.03299999999995861799
201 0 1 0.0 1.36700000000000154721 23.23900000000000076739 4.10099999999999909051
202 0 1 0.0 1.36700000000000199130 23.23900000000000076739 9.56900000000000083844
203 0 1 0.0 1.36700000000000221334 23.23900000000000076739 15.03699999999999903366
204 0 1 0.0 1.36700000000000265743 23.23900000000000076739 20.50499999999999900524
205 0 1 0.0 1.36700000000000287947 23.23900000000000076739 25.97299999999999897682
206 0 1 0.0 1.36700000000000332356 23.23900000000000432010 31.44099999999999894840
207 0 1 0.0 1.36700000000000354561 23.23900000000000432010 36.90899999999999891998
208 0 1 0.0 1.36700000000000398970 23.23900000000000432010 42.37699999999999533884
209 0 1 0.0 1.36700000000000421174 23.23900000000000432010 47.84499999999999175770
210 0 1 0.0 1.36700000000000465583 23.23900000000000432010 53.31299999999999528200
211 0 1 0.0 1.36700000000000487788 23.23900000000000432010 58.78099999999999170086
212 0 1 0.0 1.36700000000000532197 23.23900000000000432010 64.24899999999999522515
213 0 1 0.0 1.36700000000000554401 23.23900000000000432010 69.71699999999999874944
214 0 1 0.0 1.36700000000000598810 23.23900000000000432010 75.18500000000000227374
215 0 1 0.0 1.36700000000000621014 23.23900000000000432010 80.65299999999999158717
216 0 1 0.0 1.36700000000000665423 23.23900000000000432010 86.12099999999999511147
217 0 1 0.0 1.36700000000000687628 23.23900000000000787281 91.58899999999999863576
218 0 1 0.0 1.36700000000000732037 23.23900000000000787281 97.05699999999998794920
219 0 1 0.0 1.36700000000000754241 23.23900000000000787281 102.52499999999999147349
220 0 1 0.0 1.36700000000000798650 23.23900000000000787281 107.99299999999999499778
221 0 1 0.0 1.36700000000000820854 23.23900000000000787281 113.46099999999998431122
222 0 1 0.0 1.36700000000000865263 23.23900000000000787281 118.92899999999998783551
223 0 1 0.0 1.36700000000000887468 23.23900000000000787281 124.39699999999999135980
224 0 1 0.0 1.36700000000000931877 23.23900000000000787281 129.86499999999998067324
225 0 1 0.0 1.36700000000000954081 23.23900000000000787281 135.33299999999999840838
226 0 1 0.0 1.36700000000000998490 23.23900000000000787281 140.80099999999998772182
227 0 1 0.0 1.36700000000001020695 23.23900000000001142553 146.26900000000000545697
228 0 1 0.0 1.36700000000001065104 23.23900000000001142553 151.73699999999999477041
229 0 1 0.0 1.36700000000001087308 23.23900000000001142553 157.20499999999998408384
230 0 1 0.0 1.36700000000001131717 23.23900000000001142553 162.67299999999997339728
231 0 1 0.0 1.36700000000001153921 23.23900000000001142553 168.14099999999999113243
232 0 1 0.0 1.36700000000001198330 23.23900000000001142553 173.60899999999998044586
233 0 1 0.0 1.36700000000001220535 23.23900000000001142553 179.07699999999999818101
234 0 1 0.0 1.36700000000001264944 23.23900000000001142553 184.54499999999998749445
235 0 1 0.0 1.36700000000001287148 23.23900000000001142553 190.01299999999997680789
236 0 1 0.0 1.36700000000001331557 23.23900000000001142553 195.48099999999996612132
237 0 1 0.0 1.36700000000001353762 23.23900000000001142553 200.94899999999998385647
238 0 1 0.0 1.36700000000001398170 23.23900000000001497824 206.41699999999997316991
239 0 1 0.0 1.36700000000001420375 23.23900000000001497824 211.88499999999999090505
240 0 1 0.0 1.36700000000001464784 23.23900000000001497824 217.35299999999998021849
241 0 1 0.0 1.36700000000001486988 23.23900000000001497824 222.82099999999996953193
242 0 1 0.0 1.36700000000001531397 23.23900000000001497824 228.28899999999995884536
243 0 1 0.0 1.36700000000001553602 23.23900000000001497824 233.75699999999997658051
244 0 1 0.0 1.36700000000001598011 23.23900000000001497824 239.22499999999996589395
245 0 1 0.0 1.36700000000001620215 23.23900000000001497824 244.69299999999998362910
246 0 1 0.0 1.36700000000001664624 23.23900000000001497824 250.16100000000000136424
247 0 1 0.0 1.36700000000001686828 23.23900000000001497824 255.62899999999999067768
248 0 1 0.0 1.36700000000001731237 23.23900000000001853095 261.09699999999997999112
249 0 1 0.0 1.36700000000001775646 23.23900000000001853095 266.56499999999999772626
250 0 1 0.0 1.36700000000001797851 23.23900000000001853095 272.03299999999995861799
251 0 1 0.0 6.83499999999999996447 1.36700000000000021494 4.10099999999999909051
252 0 1 0.0 6.83500000000000085265 1.36700000000000065903 9.56900000000000083844
253 0 1 0.0 6.83500000000000085265 1.36700000000000088107 15.03699999999999903366
254 0 1 0.0 6.83500000000000085265 1.36700000000000132516 20.50499999999999900524
255 0 1 0.0 6.83500000000000174083 1.36700000000000154721 25.97299999999999897682
256 0 1 0.0 6.83500000000000174083 1.36700000000000199130 31.44099999999999894840
257 0 1 0.0 6.83500000000000262901 1.36700000000000221334 36.90899999999999891998
258 0 1 0.0 6.83500000000000262901 1.36700000000000265743 42.37699999999999533884
259 0 1 0.0 6.83500000000000262901 1.36700000000000287947 47.84499999999999175770
260 0 1 0.0 6.83500000000000351719 1.36700000000000332356 53.31299999999999528200
261 0 1 0.0 6.83500000000000351719 1.36700000000000354561 58.78099999999999170086
262 0 1 0.0 6.83500000000000351719 1.36700000000000398970 64.24899999999999522515
263 0 1 0.0 6.83500000000000440536 1.36700000000000421174 69.71699999999999874944
264 0 1 0.0 6.83500000000000440536 1.36700000000000465583 75.18500000000000227374
265 0 1 0.0 6.83500000000000529354 1.36700000000000487788 80.65299999999999158717
266 0 1 0.0 6.83500000000000529354 1.36700000000000532197 86.12099999999999511147
267 0 1 0.0 6.83500000000000529354 1.36700000000000554401 91.58899999999999863576
268 0 1 0.0 6.83500000000000618172 1.36700000000000598810 97.05699999999998794920
269 0 1 0.0 6.83500000000000618172 1.36700000000000621014 102.52499999999999147349
270 0 1 0.0 6.83500000000000618172 1.36700000000000665423 107.99299999999999499778
271 0 1 0.0 6.83500000000000706990 1.36700000000000687628 113.46099999999998431122
272 0 1 0.0 6.83500000000000706990 1.36700000000000732037 118.92899999999998783551
273 0 1 0.0 6.83500000000000795808 1.36700000000000754241 124.39699999999999135980
274 0 1 0.0 6.83500000000000795808 1.36700000000000798650 129.86499999999998067324
275 0 1 0.0 6.83500000000000795808 1.36700000000000820854 135.33299999999999840838
276 0 1 0.0 6.83500000000000884626 1.36700000000000865263 140.80099999999998772182
277 0 1 0.0 6.83500000000000884626 1.36700000000000887468 146.26900000000000545697
278 0 1 0.0 6.83500000000000884626 1.36700000000000931877 151.73699999999999477041
279 0 1 0.0 6.83500000000000973444 1.36700000000000954081 157.20499999999998408384
280 0 1 0.0 6.83500000000000973444 1.36700000000000998490 162.67299999999997339728
281 0 1 0.0 6.83500000000001062261 1.36700000000001020695 168.14099999999999113243
282 0 1 0.0 6.83500000000001062261 1.36700000000001065104 173.60899999999998044586
283 0 1 0.0 6.83500000000001062261 1.36700000000001087308 179.07699999999999818101
284 0 1 0.0 6.83500000000001151079 1.36700000000001131717 184.54499999999998749445
285 0 1 0.0 6.83500000000001151079 1.36700000000001153921 190.01299999999997680789
286 0 1 0.0 6.83500000000001151079 1.36700000000001198330 195.48099999999996612132
287 0 1 0.0 6.83500000000001239897 1.36700000000001220535 200.94899999999998385647
288 0 1 0.0 6.83500000000001239897 1.36700000000001264944 206.41699999999997316991
289 0 1 0.0 6.83500000000001328715 1.36700000000001287148 211.88499999999999090505
290 0 1 0.0 6.83500000000001328715 1.36700000000001331557 217.35299999999998021849
291 0 1 0.0 6.83500000000001328715 1.36700000000001353762 222.82099999999996953193
292 0 1 0.0 6.83500000000001417533 1.36700000000001398170 228.28899999999995884536
293 0 1 0.0 6.83500000000001417533 1.36700000000001420375 233.75699999999997658051
294 0 1 0.0 6.83500000000001417533 1.36700000000001464784 239.22499999999996589395
295 0 1 0.0 6.83500000000001506351 1.36700000000001486988 244.69299999999998362910
296 0 1 0.0 6.83500000000001506351 1.36700000000001531397 250.16100000000000136424
297 0 1 0.0 6.83500000000001595168 1.36700000000001553602 255.62899999999999067768
298 0 1 0.0 6.83500000000001595168 1.36700000000001598011 261.09699999999997999112
299 0 1 0.0 6.83500000000001595168 1.36700000000001642420 266.56499999999999772626
300 0 1 0.0 6.83500000000001683986 1.36700000000001664624 272.03299999999995861799
301 0 1 0.0 6.83499999999999996447 6.83499999999999996447 4.10099999999999909051
302 0 1 0.0 6.83500000000000085265 6.83500000000000085265 9.56900000000000083844
303 0 1 0.0 6.83500000000000085265 6.83500000000000085265 15.03699999999999903366
304 0 1 0.0 6.83500000000000085265 6.83500000000000085265 20.50499999999999900524
305 0 1 0.0 6.83500000000000174083 6.83500000000000174083 25.97299999999999897682
306 0 1 0.0 6.83500000000000174083 6.83500000000000174083 31.44099999999999894840
307 0 1 0.0 6.83500000000000262901 6.83500000000000262901 36.90899999999999891998
308 0 1 0.0 6.83500000000000262901 6.83500000000000262901 42.37699999999999533884
309 0 1 0.0 6.83500000000000262901 6.83500000000000262901 47.84499999999999175770
310 0 1 0.0 6.83500000000000351719 6.83500000000000351719 53.31299999999999528200
311 0 1 0.0 6.83500000000000351719 6.83500000000000351719 58.78099999999999170086
312 0 1 0.0 6.83500000000000351719 6.83500000000000351719 64.24899999999999522515
313 0 1 0.0 6.83500000000000440536 6.83500000000000440536 69.71699999999999874944
314 0 1 0.0 6.83500000000000440536 6.83500000000000440536 75.18500000000000227374
315 0 1 0.0 6.83500000000000529354 6.83500000000000529354 80.65299999999999158717
316 0 1 0.0 6.83500000000000529354 6.83500000000000529354 86.12099999999999511147
317 0 1 0.0 6.83500000000000529354 6.83500000000000529354 91.58899999999999863576
318 0 1 0.0 6.83500000000000618172 6.83500000000000618172 97.05699999999998794920
319 0 1 0.0 6.83500000000000618172 6.83500000000000618172 102.52499999999999147349
320 0 1 0.0 6.83500000000000618172 6.83500000000000618172 107.99299999999999499778
321 0 1 0.0 6.83500000000000706990 6.83500000000000706990 113.46099999999998431122
322 0 1 0.0 6.83500000000000706990 6.83500000000000706990 118.92899999999998783551
323 0 1 0.0 6.83500000000000795808 6.83500000000000795808 124.39699999999999135980
324 0 1 0.0 6.83500000000000795808 6.83500000000000795808 129.86499999999998067324
325 0 1 0.0 6.83500000000000795808 6.83500000000000795808 135.33299999999999840838
326 0 1 0.0 6.83500000000000884626 6.83500000000000884626 140.80099999999998772182
327 0 1 0.0 6.83500000000000884626 6.83500000000000884626 146.26900000000000545697
328 0 1 0.0 6.83500000000000884626 6.83500000000000884626 151.73699999999999477041
329 0 1 0.0 6.83500000000000973444 6.83500000000000973444 157.20499999999998408384
330 0 1 0.0 6.83500000000000973444 6.83500000000000973444 162.67299999999997339728
331 0 1 0.0 6.83500000000001062261 6.83500000000001062261 168.14099999999999113243
332 0 1 0.0 6.83500000000001062261 6.83500000000001062261 173.60899999999998044586
333 0 1 0.0 6.83500000000001062261 6.83500000000001062261 179.07699999999999818101
334 0 1 0.0 6.83500000000001151079 6.83500000000001151079 184.54499999999998749445
335 0 1 0.0 6.83500000000001151079 6.83500000000001151079 190.01299999999997680789
336 0 1 0.0 6.83500000000001151079 6.83500000000001151079 195.48099999999996612132
337 0 1 0.0 6.83500000000001239897 6.83500000000001239897 200.94899999999998385647
338 0 1 0.0 6.83500000000001239897 6.83500000000001239897 206.41699999999997316991
339 0 1 0.0 6.83500000000001328715 6.83500000000001328715 211.88499999999999090505
340 0 1 0.0 6.83500000000001328715 6.83500000000001328715 217.35299999999998021849
341 0 1 0.0 6.83500000000001328715 6.83500000000001328715 222.82099999999996953193
342 0 1 0.0 6.83500000000001417533 6.83500000000001417533 228.28899999999995884536
343 0 1 0.0 6.83500000000001417533 6.83500000000001417533 233.75699999999997658051
344 0 1 0.0 6.83500000000001417533 6.83500000000001417533 239.22499999999996589395
345 0 1 0.0 6.83500000000001506351 6.83500000000001506351 244.69299999999998362910
346 0 1 0.0 6.83500000000001506351 6.83500000000001506351 250.16100000000000136424
347 0 1 0.0 6.83500000000001595168 6.83500000000001595168 255.62899999999999067768
348 0 1 0.0 6.83500000000001595168 6.83500000000001595168 261.09699999999997999112
349 0 1 0.0 6.83500000000001595168 6.83500000000001595168 266.56499999999999772626
350 0 1 0.0 6.83500000000001683986 6.83500000000001683986 272.03299999999995861799
351 0 1 0.0 6.83500000000000085265 12.30300000000000082423 4.10099999999999909051
352 0 1 0.0 6.83500000000000174083 12.30300000000000082423 9.56900000000000083844
353 0 1 0.0 6.83500000000000174083 12.30300000000000260059 15.03699999999999903366
354 0 1 0.0 6.83500000000000174083 12.30300000000000260059 20.50499999999999900524
355 0 1 0.0 6.83500000000000262901 12.30300000000000260059 25.97299999999999897682
356 0 1 0.0 6.83500000000000262901 12.30300000000000260059 31.44099999999999894840
357 0 1 0.0 6.83500000000000351719 12.30300000000000260059 36.90899999999999891998
358 0 1 0.0 6.83500000000000351719 12.30300000000000260059 42.37699999999999533884