ITEM: TIMESTEP
0
ITEM: NUMBER OF ATOMS
8640
ITEM: BOX BOUNDS xy xz yz pp pp pp
-1.9687895667977351e-01 2.1787278956679664e+01 0.0000000000000000e+00
-1.9986608825387897e-01 2.1790266088254029e+01 0.0000000000000000e+00
5.6828586373569578e-04 2.0607943171413589e+02 0.0000000000000000e+00
ITEM: ATOMS id type x y z c_peratom fx fy fz 
6 1 1.9678 1.05396 1.66389 -8.82065 -1.45238 -0.40393 -0.106516 
222 1 1.61963 0.886217 7.15727 -7.95091 -0.845759 1.03759 -0.304619 
438 1 1.50408 0.963708 12.5573 -8.26815 -0.668586 -1.85193 -1.26441 
42 1 0.736995 5.24418 3.01549 -7.88145 0.357141 -1.45358 -1.85224 
258 1 0.958056 5.25097 7.87765 -7.93918 -0.89579 -0.77452 3.57992 
474 1 0.573515 5.07375 13.1864 -8.62012 3.14704 0.564528 1.43566 
78 1 1.76835 8.218 1.76624 -6.28209 -0.10266 2.32455 1.47697 
294 1 1.35491 8.18929 6.84563 -8.03199 1.33355 -1.19067 0.763088 
510 1 1.33383 8.28515 12.3716 -7.46243 -0.545276 -0.622127 -0.121127 
114 1 0.862651 12.4408 2.69762 -7.03332 -0.711781 0.130589 -0.193147 
330 1 0.513637 12.3448 7.99227 -7.30004 0.752458 -1.25255 0.522959 
546 1 0.837319 12.4694 13.5474 -7.97346 0.86609 1.49562 -2.00759 
150 1 1.63988 15.453 1.80562 -7.91685 -0.194581 1.31694 -0.829616 
366 1 1.30093 15.563 7.13852 -7.31496 1.28277 -1.49129 1.08795 
582 1 1.32452 15.4474 12.3901 -8.32592 2.38556 1.83075 1.79545 
186 1 1.02522 20.0625 2.62674 -8.55979 -1.44243 0.692209 1.31795 
402 1 0.851432 19.9131 7.99043 -8.18648 -0.306577 0.3119 -0.514912 
618 1 0.810564 19.5936 13.0795 -8.17286 0.226878 1.00014 0.61259 
12 1 4.71156 1.87034 2.75134 -9.28777 -0.0457979 0.622661 0.399242 
228 1 4.27538 1.47403 8.04251 -7.86107 3.20495 2.06905 -1.63785 
444 1 4.69524 1.59329 13.2049 -8.02515 -0.0785125 -0.963614 1.54796 
48 1 5.36233 4.62224 1.99344 -9.67561 -0.699331 -0.0492485 -0.804985 
264 1 5.36643 4.84245 7.21327 -8.81219 -1.9851 -0.800647 -0.469687 
480 1 5.24937 4.55268 12.391 -8.30373 0.203299 1.02183 1.03434 
84 1 4.59906 8.95943 2.62886 -8.10344 1.16384 -1.45534 2.39929 
300 1 4.2357 9.12288 8.02275 -7.54546 0.398696 -1.7941 2.48499 
516 1 4.34186 8.73484 13.2302 -8.6082 1.00373 1.64429 -0.247138 
120 1 5.77256 11.7801 1.50484 -8.50137 -0.739006 2.22358 1.73393 
336 1 5.26861 12.1023 7.28532 -8.59848 -1.52606 -0.0654552 -2.03253 
552 1 4.95109 11.7986 12.4611 -7.74366 0.149973 -2.02329 -0.160088 
156 1 4.54306 16.4625 2.79049 -8.15805 -0.992401 0.660892 -0.412098 
372 1 4.30397 16.0144 7.62993 -8.44426 0.209412 -2.51383 0.970265 
588 1 4.44547 15.9903 13.0656 -8.05642 0.821052 -0.0404097 0.952431 
192 1 5.50372 18.9952 1.69286 -8.25066 0.356794 0.753533 2.76552 
408 1 4.83669 18.9503 6.98647 -7.88568 -0.00833423 2.46701 0.753736 
624 1 5.29693 19.1711 12.499 -7.71207 -0.194752 1.51423 1.1265 
18 1 8.73878 0.78273 2.24697 -7.71681 1.1673 0.214599 -1.08215 
234 1 8.72013 0.898451 7.32485 -7.55222 -1.26154 0.362906 -1.14023 
450 1 8.70765 0.68843 12.4886 -8.48589 2.29607 1.42467 0.907915 
54 1 8.07842 5.37441 2.76139 -8.1009 0.201171 -2.61863 0.824377 
270 1 8.25435 5.23848 7.80161 -7.99963 -2.3464 1.12345 1.71329 
486 1 8.23049 5.07636 13.3108 -8.73656 -1.81159 1.4997 -0.682058 
90 1 9.23239 8.40123 1.88283 -8.30979 0.860182 -2.61833 -0.997963 
306 1 8.67499 8.15834 6.93597 -7.62194 0.632829 0.18438 1.79905 
522 1 8.97008 8.09577 12.291 -8.39688 -0.355857 -0.592154 -1.76183 
126 1 8.14815 12.6453 2.83904 -8.72981 -0.577516 0.494124 0.138969 
342 1 8.24273 12.2287 7.90861 -8.31022 -0.328937 2.92636 0.126519 
558 1 8.1697 12.16 13.0723 -8.10038 0.233161 0.879817 0.482071 
162 1 8.84587 15.3779 1.89233 -7.77568 -0.438403 -0.14498 -0.725572 
378 1 9.08187 15.6608 7.12898 -8.54388 -0.931088 -0.974004 -1.49282 
594 1 9.03861 15.4412 12.3426 -8.29449 -0.717533 3.09673 0.545032 
198 1 8.34671 20.0413 2.99885 -8.64848 -1.18408 -1.40753 1.00096 
414 1 8.17109 20.3855 8.3035 -7.45924 -0.310381 -2.77886 0.135473 
630 1 8.19803 19.9485 13.43 -9.53376 -1.61821 -0.0850422 -1.57 
5 1 1.13642 0.572481 4.57109 -7.94858 -0.974372 -0.947498 -1.8046 
221 1 1.02524 0.186103 9.55937 -8.49377 -0.146154 0.0725209 2.09965 
437 1 0.989451 0.181581 15.1997 -7.36528 -0.87183 1.24206 -3.05908 
662 2 8.02845 2.89738 16.7465 -29.1311 2.29695 1.54167 0.381148 
329 1 -0.0829996 12.1212 11.0832 -7.94636 0.969929 -0.966496 -1.19398 
758 2 0.970536 13.6667 16.7703 -28.7414 0.829718 1.09484 -1.90549 
77 1 0.965857 7.59138 4.01235 -6.9221 0.0845983 0.178443 2.86637 
293 1 0.768919 7.28539 9.84111 -9.31463 -0.697949 0.568029 -1.53993 
509 1 0.916128 7.74448 15.3174 -8.09954 -0.622597 -0.97798 -2.6799 
722 2 0.961747 9.96277 16.651 -30.2859 -0.181776 -0.674279 -0.520091 
553 2 9.78929 11.8372 14.3462 -29.0973 1.13441 0.175502 -0.225921 
448 1 10.0773 3.41633 12.1676 -8.55042 -0.497385 -1.60293 1.1101 
149 1 0.967324 14.9204 4.69214 -7.01397 0.0591579 0.503874 -2.41082 
365 1 0.79744 14.9064 9.69252 -7.96562 0.292335 -1.34156 0.505756 
581 1 0.864968 14.7754 15.0904 -8.03365 0.0933117 0.876555 -1.24571 
195 1 9.97655 20.8156 0.187391 -8.38612 0.586207 -0.89831 0.820662 
8507 1 4.0453 8.36999 0.162104 -7.07572 1.00207 -1.54191 -0.823783 
650 2 0.941356 2.59427 16.7391 -29.2443 -1.60823 0.00904749 2.06342 
11 1 3.73296 0.790721 5.19721 -8.14713 0.546665 0.213989 0.494839 
227 1 3.75849 1.03498 10.8298 -7.52729 -0.244067 -0.96558 -0.362193 
443 1 3.85789 0.748082 15.6774 -8.13024 1.58248 2.64014 0.371767 
47 1 4.56718 4.21642 4.71252 -8.23538 -0.263012 -0.428238 -1.42674 
263 1 4.73103 3.73874 9.71845 -7.62593 -2.24156 2.21233 -1.40905 
479 1 4.4484 3.76208 14.8428 -8.4799 -0.0554417 0.665374 -0.353429 
83 1 3.811 8.37359 5.47443 -8.28652 0.977808 -1.32974 -0.544623 
299 1 3.69713 8.19063 10.6001 -8.5425 0.200512 -0.773047 -0.472371 
515 1 3.89915 8.40575 16.1571 -7.3927 2.29208 -0.637202 -1.8106 
119 1 4.45249 11.1828 4.30323 -8.3485 1.49564 -0.164354 0.348991 
335 1 4.5602 11.1815 9.66244 -7.83565 -0.928107 -0.214783 0.993764 
551 1 4.56546 11.1691 15.1213 -7.68112 0.948987 -0.21194 -0.584672 
155 1 4.12621 15.1809 4.98602 -7.87962 1.03606 1.38091 1.01764 
371 1 4.05706 15.7659 10.4346 -7.44977 -1.81917 -0.509729 -0.337859 
587 1 3.86823 15.5014 16.0362 -8.46704 0.718186 -0.774285 -0.604133 
191 1 4.44482 18.9896 4.37328 -8.37591 1.77891 -0.0223907 -0.341414 
407 1 4.528 18.6569 9.94191 -7.81206 -0.975552 -0.479761 -2.21829 
623 1 4.46306 17.9996 14.95 -7.42447 0.20683 2.25123 -2.21422 
17 1 8.06197 0.553451 4.71197 -8.07416 0.872321 0.0624771 1.46146 
233 1 8.16327 0.366351 9.97282 -8.12459 0.387637 1.18861 0.328695 
449 1 8.10382 0.33783 15.1019 -8.30993 0.713778 -1.25885 -0.0136053 
53 1 7.27688 4.59307 5.38542 -8.68825 1.61563 -0.499025 -0.335064 
269 1 7.39313 4.55559 10.7456 -8.13277 1.17199 1.36506 -0.946837 
485 1 7.41457 4.89238 15.9639 -8.85335 -0.533964 -1.21568 -0.302072 
89 1 8.3618 7.35092 4.46702 -7.38912 -1.6728 0.0205695 -0.886273 
305 1 8.02796 7.53224 9.55828 -8.46821 0.163902 0.00220411 0.940348 
521 1 8.06598 7.79263 14.6773 -8.06611 1.29623 -3.07188 2.45009 
125 1 7.5933 11.6074 5.47053 -8.0219 -0.411243 2.35603 -2.21838 
341 1 7.48854 11.7425 10.5283 -7.15227 1.36021 0.609811 -0.0338995 
557 1 7.83172 12.1014 15.7386 -8.72118 -0.108807 -1.34165 0.15646 
161 1 8.12152 14.8723 4.61335 -9.2662 -0.602602 -0.400603 0.957668 
377 1 8.34812 14.7003 9.68725 -7.90097 -1.26414 -0.643318 0.178783 
593 1 8.20157 14.6272 14.8126 -8.92155 0.425736 1.90724 0.463554 
197 1 7.3895 19.2424 6.07814 -8.50736 -0.411335 -1.33289 -2.0876 
413 1 7.14014 19.1153 10.5173 -7.83282 3.06308 0.631554 0.745434 
629 1 7.55143 19.1074 16.241 -8.19711 0.879481 2.09799 -2.06483 
2 2 0.928208 2.77694 0.930502 -27.9869 -1.3198 0.0227097 -0.97003 
218 2 0.744637 2.98417 6.20146 -28.7642 1.98556 -1.63121 1.63104 
434 2 1.01228 2.49724 11.5825 -28.6172 -1.44567 3.17493 -1.74833 
556 1 10.5864 13.6939 13.3103 -8.30403 0.550673 0.150728 0.631624 
38 2 0.856192 6.35295 1.00249 -29.3883 0.702695 2.65296 2.05801 
254 2 0.917233 6.31176 6.25743 -28.8224 -1.83208 2.5067 -1.27438 
470 2 0.806952 6.2621 11.4774 -27.9009 0.795959 -0.839705 1.82091 
8435 1 4.52745 0.481417 0.12053 -7.45713 0.139164 4.49041 1.03584 
74 2 0.862573 10.066 1.05735 -29.0302 2.28695 -2.96371 0.212524 
290 2 0.837728 10.1129 6.2975 -29.0063 1.37103 1.14966 0.107656 
506 2 0.711841 10.2165 11.6638 -28.4977 -0.643703 -0.884394 -0.719489 
232 1 9.94766 3.33077 7.22663 -7.139 2.05106 -0.466877 0.321684 
110 2 0.626649 13.5801 0.867631 -28.9877 0.688967 2.3287 3.14107 
326 2 0.742662 13.8225 6.28568 -29.8369 0.938365 -1.33398 0.215841 
542 2 0.844124 13.8857 11.5595 -28.3711 -1.4633 -2.14549 -0.977694 
686 2 0.904105 6.49294 16.8465 -29.1121 0.651828 0.0664947 1.70633 
146 2 0.879557 17.131 1.07131 -28.5738 -1.66818 1.32679 -0.941723 
362 2 0.965338 17.4781 6.21302 -29.3905 -0.109647 -3.45958 1.77581 
578 2 0.867233 17.7684 11.7522 -29.4959 -1.62584 -1.04753 -0.0643453 
16 1 10.0021 3.74043 1.89686 -7.86998 0.571419 0.438244 2.26359 
182 2 0.916063 20.9149 0.7907 -27.7884 -1.09509 2.03514 0.361553 
398 2 0.943412 21.2751 6.27242 -28.2003 -1.32194 -0.388475 -0.409833 
614 2 0.92623 21.1417 11.5196 -28.772 -0.283862 -1.07592 0.460839 
39 1 2.62269 5.83004 0.134311 -7.87786 1.0194 -0.476359 -0.616222 
8 2 4.62639 2.74454 0.990441 -27.4708 -1.05586 -0.645093 -1.94556 
224 2 4.55377 2.86494 6.39679 -28.1253 -2.4456 0.498428 0.153107 
440 2 4.60684 2.83124 11.6165 -29.53 -0.185625 -0.793965 -1.92745 
51 1 10.0383 6.08957 0.148836 -7.85579 -0.168932 1.58156 -0.0238677 
44 2 4.67362 6.48191 1.24278 -28.0128 -1.78261 2.23865 -2.32593 
260 2 4.63966 6.495 6.33351 -28.0517 -3.96476 0.288828 -0.785394 
476 2 4.3447 6.1975 11.5468 -28.2027 0.740384 1.45493 0.743269 
734 2 8.14211 10.1303 16.8985 -28.5838 -0.0380247 1.18031 0.136542 
80 2 4.60816 10.1584 1.01404 -29.2526 -1.03955 -1.34955 -0.864059 
296 2 4.62139 10.1032 6.32504 -28.6475 -1.70247 1.28626 0.525148 
512 2 4.19615 9.93483 11.4896 -28.4491 1.24274 1.21607 -0.886926 
830 2 0.930977 21.0745 16.7096 -29.8428 -1.80654 0.92378 2.22201 
116 2 4.54869 13.4189 0.657685 -27.7657 -2.43881 -0.232232 2.50351 
332 2 4.37043 13.8306 6.52037 -28.6061 1.03055 0.284715 -0.488029 
548 2 4.51556 13.8056 11.674 -29.456 2.27252 0.271981 -3.60373 
268 1 10.7542 6.63045 8.02254 -7.92006 -0.57061 0.774069 0.844641 
152 2 4.39517 17.3496 0.97192 -28.6276 -0.829376 -0.522197 -0.246457 
368 2 4.41944 17.2689 6.11685 -28.5547 -2.50891 0.570272 -0.161862 
584 2 4.52575 17.4727 11.6539 -29.773 0.61278 0.0810976 -0.948636 
124 1 10.7444 13.5049 3.03549 -8.11393 0.076344 0.703535 -0.30146 
188 2 4.69564 20.7051 1.05889 -28.8449 -0.794937 0.219367 -1.49462 
404 2 4.41175 21.1501 6.00942 -28.2188 0.323591 -1.52583 2.32073 
620 2 4.55992 21.2276 11.5659 -28.887 -2.71156 -1.55732 1.66719 
770 2 8.3549 13.8208 16.7388 -28.0212 -0.0721492 -0.312982 1.42237 
14 2 8.23682 2.80129 1.25585 -28.6231 0.644958 -1.32476 -1.01304 
230 2 7.73135 2.82044 6.09994 -28.3388 3.72334 -1.37225 1.78972 
446 2 8.18039 2.65532 11.392 -28.387 0.0576255 0.282745 0.404598 
123 1 9.8371 13.5417 0.327322 -7.72929 0.164573 -1.65044 -0.355796 
50 2 8.17681 6.37677 1.04846 -28.4504 1.75318 0.512569 -1.03666 
266 2 7.7542 6.61953 6.22952 -28.7293 2.0397 -1.75348 -0.302806 
482 2 8.08798 6.31096 11.3786 -28.1826 0.599459 0.743823 0.910378 
88 1 9.96899 10.7509 1.97757 -8.69724 1.0365 1.18426 -1.50836 
86 2 8.28349 9.76221 1.04526 -27.9717 -2.14867 2.04744 -1.53501 
302 2 8.11868 10.0652 6.35698 -29.0492 1.64858 -1.27082 0.794226 
518 2 8.24122 9.90612 11.6579 -28.4862 -2.09152 1.9065 -0.240058 
322 1 -0.0460512 9.74049 8.06261 -7.82259 -1.9138 0.452706 1.56958 
122 2 7.53502 13.5991 0.966948 -28.121 4.0418 -0.0517754 0.736816 
338 2 8.29746 13.5972 6.25479 -27.747 -2.30164 0.336818 1.2796 
554 2 8.39516 13.7877 11.6932 -29.0819 -1.5257 -2.1592 -1.45656 
185 1 0.383974 18.9727 5.31422 -8.56407 -1.06178 2.81241 -1.59404 
158 2 7.98755 17.1551 0.739186 -28.7366 1.69304 -0.129046 1.46872 
374 2 8.10926 17.202 6.29886 -27.5234 -0.750152 0.869228 1.97213 
590 2 8.14206 17.4995 11.5225 -28.1874 -0.611767 -1.15648 -1.18921 
257 1 -0.0649875 4.16331 10.6489 -7.73746 2.00512 2.08481 -0.146057 
194 2 8.20098 21.0341 1.20053 -28.8068 -0.736989 -0.241437 -0.499465 
410 2 8.01102 21.0963 6.18371 -28.7688 1.20601 0.875245 1.91416 
626 2 7.88155 21.1877 11.5657 -27.4147 0.399308 -2.40348 -2.52134 
622 1 6.3035 21.7791 12.4943 -8.27718 -0.505658 -0.614835 0.609643 
1 2 2.84663 1.26739 3.46426 -27.8485 -1.2334 -0.87706 1.05053 
217 2 2.7842 0.783468 8.81981 -28.864 -0.293237 0.965773 2.37288 
433 2 2.7764 1.10396 14.0549 -28.6884 0.0891988 -1.94629 -0.419098 
37 2 2.67804 4.77359 3.45031 -27.7586 -0.556754 -0.089033 2.88059 
253 2 2.93198 4.50018 8.82062 -28.5527 -1.17202 -0.891979 0.811434 
469 2 2.36134 4.52188 14.3585 -27.2665 1.38456 1.30447 -1.72329 
73 2 2.76718 8.40047 3.85547 -29.0522 -0.604318 -0.483441 -3.22764 
289 2 2.3648 8.14417 8.84181 -28.1095 1.10765 1.54045 -0.653399 
505 2 2.89985 8.11095 14.349 -29.1839 -2.69037 0.259755 1.20271 
109 2 2.64676 12.0087 3.71003 -29.8765 -1.3748 0.35782 0.286597 
325 2 2.71366 11.7155 8.78719 -28.7264 -0.62482 0.955091 0.665364 
541 2 2.70199 11.8823 13.9614 -28.9689 1.56844 -0.89336 2.48029 
145 2 2.80846 15.5305 3.50169 -29.1403 -1.81479 -1.15415 0.621229 
361 2 2.59078 15.5759 8.99128 -29.3005 0.0509828 0.828537 -0.372299 
577 2 2.6262 15.6044 14.0208 -28.4238 0.96251 -0.0437956 1.39104 
181 2 2.58549 19.3657 3.66047 -27.7125 0.842041 -0.224812 1.36099 
397 2 2.70738 19.3117 8.88787 -28.879 -0.280481 -0.749488 0.882197 
613 2 2.49912 19.3445 14.2681 -28.9032 1.43756 -0.539382 0.502403 
7 2 6.2591 0.729732 3.6418 -28.0373 1.15858 2.49327 -0.831134 
223 2 6.45471 0.886207 8.86164 -29.1217 -0.575529 0.990874 0.438981 
439 2 6.3302 0.759715 14.2224 -28.502 0.100725 1.09196 1.91001 
43 2 6.2893 4.73957 3.64024 -27.197 0.932212 -0.514353 1.4973 
259 2 6.30441 4.834 8.88557 -28.1075 2.6235 -2.99925 1.04433 
475 2 6.39084 4.48635 14.2947 -28 -1.57544 0.072696 -1.72354 
79 2 6.60766 8.42962 3.61911 -27.4843 0.193327 -0.869948 2.24623 
295 2 6.13508 8.34318 9.17851 -28.4624 -0.699204 0.739332 -1.46801 
511 2 6.22117 8.22844 13.9597 -28.2224 0.156943 -0.263808 1.26829 
115 2 6.4108 11.9892 3.66998 -27.858 -1.03717 -1.19052 -0.297326 
331 2 6.38858 11.8446 8.78296 -28.9949 0.0275648 1.40911 4.06046 
547 2 6.40789 11.7525 14.0723 -28.7078 -1.48657 1.04913 -0.0953468 
151 2 6.24678 15.5806 3.71962 -28.0254 -1.49338 -2.02602 0.458786 
367 2 6.25829 15.6542 8.92332 -28.9659 -0.588706 -0.61501 2.63786 
583 2 6.41049 15.4731 14.2182 -27.4736 -1.26622 -0.544682 -1.4663 
187 2 6.5197 18.9923 3.88669 -26.9941 -0.273043 -0.039019 -0.960989 
403 2 6.20157 19.2322 8.56966 -28.8302 -0.234862 2.34676 1.53823 
619 2 6.44112 18.9886 14.2703 -28.1073 -2.00696 0.860262 1.42269 
13 2 9.9753 0.774794 4.04994 -29.2315 0.454308 -0.018592 -0.900459 
229 2 10.008 1.1071 8.88163 -29.6052 0.504852 -1.60505 -1.60115 
445 2 10.0119 0.751317 14.2725 -27.9422 -0.872577 1.09701 0.0219154 
49 2 9.76824 4.43055 3.8821 -28.82 1.26106 1.94043 -0.25263 
265 2 10.0717 4.82827 8.64308 -29.2039 -0.147077 -1.53284 0.6974 
481 2 9.84058 4.47568 13.974 -27.6351 3.53778 0.079742 0.251395 
85 2 10.2858 8.04192 3.53876 -29.3419 -2.26961 0.637464 2.40832 
301 2 10.0338 8.44301 8.68984 -28.707 -0.518032 -0.872385 -0.159855 
517 2 10.0145 8.21385 14.07 -28.8111 1.07748 1.34308 -0.222371 
121 2 9.88496 11.8225 3.63554 -28.17 0.468422 -1.32971 1.47899 
337 2 9.85938 11.7679 8.95143 -28.4225 0.940214 1.39756 0.416774 
8621 1 8.07102 19.0854 0.239623 -7.76089 -1.02166 0.279521 -1.03807 
157 2 9.60432 15.5559 3.61831 -27.6447 3.14266 -0.296948 -0.996326 
373 2 9.90747 15.4145 8.85617 -28.7176 2.83526 1.27835 1.8985 
589 2 10.2402 15.6685 14.1129 -27.1998 -1.45744 -1.02437 -2.5088 
193 2 10.2418 19.0533 3.58466 -27.6287 -0.616068 1.58633 0.789556 
409 2 9.80317 19.3351 8.91757 -28.9312 0.862568 -1.03319 -0.2261 
625 2 9.96049 19.4362 13.7845 -26.7224 2.53117 -2.90928 1.95854 
178 1 -0.113716 17.1725 3.03473 -8.12577 -0.298505 1.3115 -0.818161 
219 1 2.1533 3.10705 4.60921 -8.2629 -0.50688 -0.751786 -2.14695 
435 1 2.10326 2.74687 9.80961 -7.51081 -0.777361 -0.316731 -0.99972 
651 1 2.11161 2.62655 15.0925 -9.01151 0.455389 2.30352 -0.446504 
656 2 4.23387 2.86307 16.5669 -28.1938 0.355464 -2.50272 2.31901 
255 1 2.58079 5.83716 5.62153 -7.75179 2.97573 0.418859 -2.3764 
471 1 2.75672 5.31235 10.7059 -8.56875 -1.48835 1.46671 0.138338 
687 1 3.0097 6.03834 15.5749 -8.15017 -1.75327 -1.29961 1.76137 
160 1 9.858 18.0165 1.90008 -8.29322 0.672284 -0.334365 1.0817 
291 1 1.92627 10.1128 4.44994 -7.66262 0.731188 -0.712109 -1.3082 
507 1 1.93543 10.1794 9.88844 -8.5261 -0.0776466 -0.723528 -0.645277 
723 1 2.06487 10.0285 14.9805 -7.34259 0.620308 0.586801 -1.52955 
9 1 6.43772 2.2065 0.151632 -8.14121 -0.392089 2.03405 2.39776 
327 1 2.77886 13.1138 5.5795 -7.19262 0.86087 -0.172494 -0.593027 
543 1 2.72353 13.234 10.6307 -7.94865 -0.639037 -0.549176 1.89786 
759 1 2.69593 12.9282 15.7397 -7.98196 0.253079 1.56149 0.792066 
304 1 9.88113 10.3535 7.36245 -8.29068 2.12307 -0.107979 -0.030975 
363 1 2.5325 17.2196 4.87599 -8.34958 -0.0833303 1.06411 -1.13439 
579 1 1.89363 17.2767 10.2875 -7.14811 2.29622 0.443873 -3.36015 
795 1 1.91921 17.2712 14.8787 -8.07242 -0.71937 0.262909 -1.67916 
617 1 0.439484 19.3314 15.78 -7.90389 0.148318 -2.2195 -0.378091 
399 1 2.48464 20.2339 5.72649 -8.37945 1.68654 0.602036 -1.42431 
615 1 2.69458 20.4851 10.7398 -8.0157 0.463854 -0.117285 -0.310533 
831 1 2.66989 20.3323 16.0788 -7.46474 1.68968 -0.944302 -1.82819 
800 2 4.75739 17.291 16.7206 -28.0939 -2.37662 -0.118714 -0.550449 
225 1 5.9203 1.94788 5.50191 -8.61751 2.27404 0.188338 -0.579107 
441 1 6.37135 2.26046 10.6452 -7.56274 1.21464 -3.40932 1.26687 
657 1 6.30794 2.24958 16.2836 -7.7664 -2.64809 -0.6776 -3.89818 
698 2 8.2582 6.60858 16.5161 -27.7137 -0.994109 0.840857 2.60055 
261 1 5.80631 6.51611 4.65442 -9.00441 -0.148367 2.47359 -1.25049 
477 1 5.50136 6.36108 9.78114 -8.82401 0.376763 0.977758 0.486511 
693 1 5.68324 6.5701 14.8045 -8.33288 -0.669596 -1.46925 1.99051 
692 2 4.69975 6.52796 16.9208 -28.8326 -2.57422 1.39246 -0.601682 
297 1 6.28008 9.39998 5.82436 -8.204 0.932729 -0.874097 -4.54616 
513 1 6.32165 9.41567 10.8506 -8.23103 -0.612476 -0.862944 0.631836 
729 1 6.46256 9.46191 16.2913 -7.75867 -1.00771 -0.41787 -1.44455 
842 2 8.43177 21.0864 16.9276 -28.1578 -0.851243 2.46318 -2.51901 
333 1 5.93147 13.4013 4.87138 -7.7125 -0.0742441 1.56532 -0.143754 
549 1 5.61884 13.8671 9.7445 -7.14662 -0.211624 -1.55995 -1.71447 
765 1 5.64589 13.5742 14.9027 -8.57408 1.69171 1.57335 0.482043 
376 1 10.0062 18.1359 7.21697 -7.89801 -1.28293 -0.480233 -0.842693 
369 1 6.15642 16.9196 5.2822 -9.31557 1.9953 0.631695 -1.30529 
585 1 6.38125 16.5114 10.8114 -7.4545 1.77539 0.991836 -0.199724 
801 1 6.46683 16.8195 16.0549 -8.63226 2.65702 -2.89715 -1.24373 
52 1 10.7267 6.28248 2.95791 -7.9245 0.669134 -1.93034 -1.06893 
405 1 6.06445 21.168 4.71105 -8.85614 -1.09573 -3.30788 0.127946 
621 1 5.6271 21.2758 10.097 -7.668 1.99531 0.0890041 -2.85324 
837 1 5.53687 20.8552 15.028 -8.13053 1.31063 -0.881174 -2.34236 
473 1 0.524915 4.59717 16.0222 -8.58308 1.19961 0.759291 -3.16886 
231 1 9.59792 2.75734 4.8708 -8.01181 -0.530502 -0.236006 -1.11464 
447 1 9.32228 2.83229 9.62414 -7.70419 -0.408693 0.0945018 1.46719 
663 1 9.49908 2.93953 15.186 -8.26532 -0.540168 -0.675282 -1.25177 
771 1 10.3359 13.1879 15.9732 -7.86953 -4.86594 -1.18024 -2.51953 
267 1 10.0277 5.62113 5.70716 -7.44107 -0.32301 -0.68074 -1.52444 
483 1 9.95419 5.79968 10.5818 -8.10589 0.0419474 0.148617 -0.403145 
699 1 9.96345 5.74829 15.8034 -9.32225 1.08565 0.870937 -0.551682 
592 1 9.98226 18.0902 12.1476 -8.30939 0.386758 -1.05124 1.87589 
303 1 9.11535 9.73837 4.47776 -7.25124 1.20632 2.36563 -0.140276 
519 1 9.50694 10.0133 9.96986 -8.92721 -0.0722109 -0.161042 0.813867 
735 1 9.3725 9.91698 15.2054 -7.80497 -0.0162311 0.766778 1.18863 
41 1 0.0474726 4.72607 5.55668 -7.71553 0.702297 -2.21234 -0.829861 
339 1 9.97249 12.6405 5.81987 -8.66758 -0.50626 0.137441 -2.13311 
555 1 10.0542 12.9475 10.845 -7.99751 -0.732313 -0.215375 -0.176934 
401 1 0.287283 19.3874 10.5383 -7.62158 -0.343238 0.198736 -0.575955 
113 1 0.624979 12.026 5.17306 -7.52845 -2.72634 -0.537195 1.88147 
375 1 9.03735 17.3934 4.60439 -9.35254 1.54291 0.817814 -0.835434 
591 1 9.07155 17.2936 9.61019 -7.96043 -0.0820477 0.500631 0.190451 
807 1 9.23208 17.5464 14.6551 -9.41834 1.1865 -0.66553 0.550595 
520 1 9.96146 10.4342 12.7323 -8.18753 -0.743584 0.325551 -1.28598 
411 1 9.82219 20.2963 5.33848 -7.98322 0.453213 -0.291893 0.319112 
627 1 10.1305 20.0464 10.7522 -8.10162 -1.7588 2.44914 1.39456 
843 1 10.0456 20.2894 15.7285 -8.39714 -2.75946 -0.161385 1.8509 
4 1 2.62797 3.60087 1.72147 -9.09092 0.903245 -0.298716 1.62372 
220 1 2.69917 3.53255 7.14366 -7.99412 1.1217 -1.29077 -0.123112 
436 1 2.78966 3.17397 12.4226 -8.10635 -1.51477 1.96249 2.3232 
40 1 3.30237 6.49723 2.80564 -8.59903 2.73068 -1.23776 0.765904 
256 1 3.21877 6.40988 8.19053 -8.3258 1.35551 0.866804 -0.27939 
472 1 3.01872 6.48156 13.1608 -8.01846 -0.0896124 -2.41524 -1.38863 
76 1 2.92853 10.9748 1.78046 -7.84663 -0.205802 -0.11155 0.0470178 
292 1 2.73703 10.712 6.98352 -7.95064 -1.02299 1.07734 0.466335 
508 1 2.50195 10.7308 12.3426 -8.3712 1.03776 0.692545 -0.139304 
112 1 3.2747 13.6695 2.60156 -7.41812 2.42512 -0.791754 1.42891 
328 1 2.91763 13.5539 8.12153 -7.93321 1.57606 1.58528 -0.939746 
544 1 3.60618 13.7389 13.2835 -8.00787 -4.5413 -0.084825 1.63238 
148 1 2.57167 18.2034 2.05646 -8.49084 1.01622 -1.38341 -0.654361 
364 1 2.50283 17.7982 7.53232 -7.5893 0.609523 0.891802 0.96976 
580 1 2.72865 18.1031 12.5703 -7.76314 1.08452 -0.474241 0.242045 
184 1 3.63359 21.2108 2.9031 -8.4525 -0.219214 -0.843128 -0.0808758 
400 1 3.59188 21.019 8.16001 -8.00603 -0.818802 -1.29803 -0.802887 
616 1 3.11834 21.1199 13.3434 -8.14356 1.19114 -0.658787 -0.255248 
10 1 7.49179 2.78115 3.18318 -8.40414 -2.2833 1.63084 -0.39757 
226 1 6.77759 2.81298 7.96527 -8.15814 -0.00690216 -0.732178 -0.967021 
442 1 7.17426 2.60369 13.6279 -8.2389 -0.0991268 1.09552 -0.666183 
46 1 6.81 7.32788 2.00699 -8.29506 -3.21409 1.04729 0.64379 
262 1 6.06121 7.37577 7.27472 -8.35089 1.41282 -1.65418 1.37773 
478 1 6.3075 7.1429 12.3027 -8.15422 0.343301 -1.34291 -1.95958 
82 1 7.1295 10.0333 2.77629 -8.49254 -0.499426 1.20832 0.366721 
298 1 6.98921 10.0791 8.20993 -7.88722 -0.139192 -2.08235 0.472351 
514 1 6.98071 9.88948 13.5368 -8.27492 0.0377419 1.79974 -1.45585 
118 1 5.95617 14.3689 2.16104 -8.73996 1.3163 -1.59103 -1.08958 
334 1 6.62355 14.7236 7.29437 -8.13947 0.163556 -1.83331 -1.87246 
550 1 6.44988 14.0365 12.2474 -7.61261 0.832457 1.58071 2.41736 
154 1 7.14505 16.9724 2.66262 -8.20832 -0.173425 2.55652 0.876517 
370 1 6.6572 17.4073 7.94345 -8.52579 1.75996 -0.482572 0.686933 
586 1 6.86936 17.2433 13.3249 -8.83549 1.5384 -0.121477 0.101483 
190 1 6.2993 21.66 1.91036 -8.36338 0.793008 -0.331386 0.951672 
406 1 6.20096 21.6285 7.3786 -8.12905 -0.931152 -0.608187 -1.78541 
764 2 4.53209 13.5338 16.4835 -27.9939 -0.710344 -0.308908 1.32376 
545 1 0.200297 11.8106 16.0399 -7.66562 0.347419 1.88335 1.14654 
794 2 0.991188 17.4309 16.5637 -28.9398 -1.71732 -0.275313 1.9287 
8465 1 0.119902 4.72597 0.38937 -7.65311 1.81007 -1.63356 -0.0899015 
836 2 4.49734 21.1381 16.6645 -29.4169 0.593456 -0.203449 0.992413 
806 2 8.59593 17.5797 16.5329 -27.0538 -1.43928 -1.55981 2.54066 
412 1 10.7447 21.0212 8.12265 -7.46378 -0.341814 -0.844058 -0.12574 
340 1 10.7687 13.6697 8.16216 -7.95023 -1.30436 -1.38445 0.294682 
728 2 4.5139 10.1539 17.0795 -29.4706 0.0340562 -1.68875 -1.31368 
111 1 2.58631 13.5755 0.131243 -8.38873 -0.0198366 -0.919753 -3.52085 
8477 1 7.95904 4.66276 0.0492985 -8.36508 -1.74969 -0.858158 0.624585 
8537 1 0.727094 11.7715 0.188383 -8.5443 -0.925782 -0.603622 -2.60715 
8609 1 0.774983 19.2099 0.0203917 -7.82874 1.89172 -1.07387 -0.653215 
906 1 0.710809 5.31094 23.6697 -8.6522 1.06816 0.00937762 -0.386057 
870 1 1.63426 1.10956 22.7192 -8.21546 -0.148504 0.165437 0.0867262 
1086 1 1.65744 0.943225 27.8185 -7.21321 -0.912748 -0.374916 1.95143 
810 1 8.85599 15.725 17.5121 -8.33301 -0.629428 -0.00864152 -1.14027 
690 1 0.821899 5.30892 18.5461 -7.23017 -0.160417 0.997753 0.440541 
905 1 0.427427 4.66533 26.4419 -7.86086 -0.839125 -1.5418 -1.30565 
1122 1 0.776014 5.61622 29.0186 -7.81726 0.787984 0.078904 0.558942 
768 1 5.38024 11.9489 17.6334 -8.68156 -0.701394 0.669828 0.446942 
664 1 10.0332 3.36046 17.7701 -7.38878 2.77905 1.11233 -2.08764 
942 1 1.51109 8.21771 22.8174 -7.96307 0.260218 -0.600869 -1.57425 
1158 1 1.52689 8.15727 28.0993 -8.58854 -0.106113 -0.139396 -0.343699 
1024 1 9.87585 18.0775 22.9832 -7.27402 -0.259078 0.0261562 1.32929 
1384 1 9.75466 9.08188 33.3185 -8.18024 -1.24438 -0.0854702 -1.63624 
978 1 0.985082 13.0011 24.0666 -7.6257 0.58442 -1.11553 -2.22717 
1194 1 0.963417 12.9086 28.8835 -8.17516 0.208061 0.665702 1.27069 
1308 1 4.06732 21.7878 34.1859 -7.48282 2.04026 -0.215567 0.340375 
1486 1 6.11934 20.1678 33.0231 -8.93738 0.803958 -0.761213 0.716701 
1014 1 1.46151 15.851 22.7458 -7.85512 0.0781753 -3.28203 1.52041 
1230 1 1.62055 15.7568 27.9878 -8.16379 1.82114 -4.94152 2.53288 
694 1 6.25311 7.11979 17.8517 -8.06161 2.37506 -0.746417 -2.12194 
844 1 10.748 21.1199 18.3664 -8.16904 -1.4307 0.198285 -0.81893 
1050 1 1.14338 20.2019 23.9405 -7.85573 -1.0515 -0.705743 -0.819751 
1266 1 0.874085 20.1583 29.1049 -8.18148 -0.259068 0.789428 -1.00691 
1336 1 1.54204 6.2518 34.0315 -7.79762 3.19404 -1.33407 1.2953 
1480 1 1.51269 20.8232 34.0876 -7.68301 0.394254 0.0255783 0.83865 
876 1 4.74 1.54844 23.9979 -8.48368 -1.8508 1.76283 -1.93474 
1092 1 4.42079 1.7263 29.0133 -7.71355 -0.333999 1.38919 1.53827 
1410 1 0.805966 11.2582 33.8688 -8.57702 0.0835974 0.960994 -0.02198 
736 1 9.96508 10.9187 17.7627 -8.08089 -0.0705312 -1.85603 -1.53664 
912 1 5.38474 4.59027 22.7599 -8.0621 0.0271818 -1.12886 0.496965 
1128 1 5.21134 4.5311 28.051 -7.62438 1.21654 1.64823 -0.0325575 
1344 1 3.46596 4.25498 33.1401 -8.67562 -1.40344 3.51247 0.446307 
732 1 4.49795 8.86533 18.7158 -7.38265 0.44236 0.893099 0.628277 
948 1 4.60526 9.08654 23.978 -7.5385 -0.884006 0.466571 -3.28034 
1164 1 4.68139 8.86711 28.9622 -8.11195 -2.37239 1.26131 -1.43705 
654 1 1.72869 0.975708 17.5707 -7.2438 -0.400789 -2.05643 0.619247 
1372 1 2.58759 9.23091 33.2465 -7.24337 0.879451 0.0404565 0.165092 
984 1 5.32382 11.7442 22.8452 -8.31429 -0.81036 1.15773 -1.02309 
1200 1 5.50858 11.942 27.9713 -8.4922 0.26626 0.386636 0.651483 
1416 1 3.87917 11.6811 33.3532 -8.17423 -1.32358 2.22473 -1.7289 
1258 1 -0.106261 17.5794 28.9946 -7.97351 -1.78538 -0.0643594 -0.824594 
1020 1 4.59623 16.178 23.6285 -7.74789 2.06131 1.665 -0.901552 
1236 1 4.78106 16.5951 28.9856 -8.11243 -3.05735 2.21472 -1.63184 
724 1 2.78816 10.9398 17.4971 -7.71364 -0.655743 2.02422 2.05137 
952 1 10.223 10.6529 23.0842 -7.63777 -0.840686 1.44048 -2.49864 
1056 1 5.31561 19.282 22.5649 -7.96909 0.18565 -0.795645 2.87507 
1272 1 5.50585 19.388 28.0817 -8.01183 -0.895048 -0.876052 -0.740189 
1488 1 3.59597 19.045 33.2174 -8.65394 -0.454286 0.918716 0.283151 
774 1 8.15728 12.3697 18.4918 -8.31685 -2.16249 2.45964 -0.410438 
882 1 8.73899 0.539293 22.5271 -7.89096 2.39279 1.79164 0.300939 
1098 1 8.89158 0.890289 28.1074 -7.03187 2.56616 4.23363 1.15378 
1314 1 6.98461 0.814223 33.1823 -8.24188 1.39186 -0.517263 1.07748 
696 1 4.71198 4.6117 17.3727 -8.01403 1.99542 -0.522082 0.67813 
918 1 8.15812 5.213 23.5862 -7.9673 -0.0498876 -0.224492 0.174528 
1134 1 8.10554 5.55342 28.7714 -8.84799 0.300398 -0.490582 2.46368 
1456 1 9.60665 16.5086 33.2885 -8.50888 1.49768 -0.855952 0.222544 
660 1 4.60607 1.33907 18.426 -7.61268 -0.486261 2.25834 -0.645809 
954 1 8.909 8.25389 22.5554 -8.58961 0.0516343 0.59799 3.29513 
1170 1 8.9884 8.263 28.0399 -8.47394 -1.31217 -0.185379 -0.857129 
1386 1 6.75902 8.16446 33.0673 -8.80663 1.3492 -1.44943 0.129024 
834 1 0.850646 20.1196 18.5413 -7.87608 1.67451 -1.08241 0.134874 
990 1 8.34647 12.299 23.5201 -8.15562 0.542272 1.0476 -0.0540504 
1206 1 8.56976 12.8075 29.0408 -8.78175 -2.02278 0.169175 1.4841 
726 1 1.83103 8.4298 17.5875 -6.82318 -1.51846 -1.69241 1.22242 
804 1 4.65611 16.5071 18.6853 -9.37682 -0.120773 1.69594 -0.168994 
1026 1 8.79357 15.6273 22.8166 -7.81571 -0.125356 -0.730675 0.467363 
1242 1 8.9659 15.6026 28.0992 -7.83789 0.886477 -2.61341 -0.236326 
1458 1 7.07947 15.3989 32.9966 -8.31599 -0.122498 2.35899 1.92792 
846 1 8.3926 20.1091 18.5049 -8.64325 -0.758775 -0.449831 2.18541 
1062 1 8.14016 19.9519 23.508 -7.89016 -0.19958 -0.718922 0.972248 
1278 1 8.29315 20.4459 28.9015 -7.1071 -0.0123316 -4.57645 4.31259 
1492 1 9.01766 21.0486 34.2036 -8.49671 -1.22939 -0.325582 -2.19522 
653 1 0.921027 0.407649 20.1158 -7.76906 -0.329518 -0.295989 0.140635 
869 1 0.972265 0.498375 25.3675 -7.50404 0.158536 -0.0549969 -0.130791 
1085 1 0.719798 0.910041 30.6082 -7.57222 1.49366 -2.12754 0.941519 
1168 1 9.93318 10.8815 27.8433 -7.36169 0.540757 -0.0163204 1.47218 
652 1 2.38829 3.35595 17.7247 -7.36723 4.16232 1.51008 -1.67728 
1121 1 0.72004 4.59334 31.1715 -7.61911 -0.0996334 -1.88505 2.75254 
725 1 0.898869 7.65436 20.1004 -7.97002 -5.71034 -1.07227 1.37279 
941 1 0.968168 7.93511 25.3775 -8.11645 -0.0411402 -0.418277 1.58066 
1157 1 0.986668 8.3358 30.8514 -7.91811 -3.38071 -1.16395 -0.02091 
738 1 9.02495 8.37936 17.4795 -8.47641 -0.296859 -0.801746 0.151898 
666 1 8.63748 1.29516 17.52 -7.1554 1.24757 -3.72279 -1.36042 
1193 1 0.676916 11.8663 31.2865 -8.60303 1.11045 0.604606 0.442064 
797 1 1.03432 15.0957 20.1417 -7.38579 -0.28067 0.553675 -0.44419 
1013 1 1.09771 15.3228 25.5428 -8.16291 -0.804765 0.136369 -0.00754652 
1229 1 0.810082 15.7406 30.6669 -7.34409 0.264773 -2.42041 0.951678 
840 1 5.1889 19.0581 17.298 -7.98461 -0.505919 2.08991 2.46581 
970 1 -0.121827 9.97805 23.6851 -8.2026 -1.44947 1.87246 0.127398 