LAMMPS (2 Aug 2023 - Update 3)
OMP_NUM_THREADS environment is not set. Defaulting to 1 thread. (src/comm.cpp:98)
  using 1 OpenMP thread(s) per MPI task
# Compute elastic constant tensor for a crystal
#
# Written by Aidan Thompson (Sandia, athomps@sandia.gov)
#
#  This script uses the following three include files.
#
#   init.mod      (must be modified for different crystal structures)
# 	       	  Define units, deformation parameters and initial
#		  configuration of the atoms and simulation cell.
#
#
#   potential.mod    (must be modified for different pair styles)
# 		     Define pair style and other attributes
#		     not stored in restart file
#
#
#   displace.mod    (displace.mod should not need to be modified)
# 		    Perform positive and negative box displacements
# 		    in direction ${dir} and size ${up}.
# 		    It uses the resultant changes
#		    in stress to compute one
# 		    row of the elastic stiffness tensor
#
#		    Inputs variables:
#		    	   dir = the Voigt deformation component
#		    		    (1,2,3,4,5,6)
#		    Global constants:
#       	    	   up = the deformation magnitude (strain units)
#       		   cfac = conversion from LAMMPS pressure units to
#               	   output units for elastic constants
#
#
#  To run this on a different system, it should only be necessary to
#  modify the files init.mod and potential.mod. In order to calculate
#  the elastic constants correctly, care must be taken to specify
#  the correct units in init.mod (units, cfac and cunits). It is also
#  important to verify that the minimization of energy w.r.t atom
#  positions in the deformed cell is fully converged.
#  One indication of this is that the elastic constants are insensitive
#  to the choice of the variable ${up} in init.mod. Another is to check
#  the final max and two-norm forces reported in the log file. If you know
#  that minimization is not required, you can set maxiter = 0.0 in
#  init.mod.
#

include init.mod
# NOTE: This script can be modified for different atomic structures,
# units, etc. See in.elastic for more info.
#

# Define the finite deformation size. Try several values of this
# variable to verify that results do not depend on it.
variable up equal 1.0e-6

# Define the amount of random jiggle for atoms
# This prevents atoms from staying on saddle points
variable atomjiggle equal 1.0e-5

# Uncomment one of these blocks, depending on what units
# you are using in LAMMPS and for output

# metal units, elastic constants in eV/A^3
#units		metal
#variable cfac equal 6.2414e-7
#variable cunits string eV/A^3

# metal units, elastic constants in GPa
units		metal
variable cfac equal 1.0e-4
variable cunits string GPa

# real units, elastic constants in GPa
#units		real
#variable cfac equal 1.01325e-4
#variable cunits string GPa

# Define minimization parameters
variable etol equal 0.0
variable ftol equal 1.0e-10
variable maxiter equal 100
variable maxeval equal 1000
variable dmax equal 1.0e-2

# generate the box and atom positions using a diamond lattice

dimension    3
boundary     p p p
read_data    ./../cif_data/data.in
Reading data file ...
  orthogonal box = (0 0 0) to (3.825472 3.825472 3.825472)
  1 by 2 by 2 MPI processor grid
  reading atoms ...
  4 atoms
  read_data CPU = 0.002 seconds
replicate    2 3 4
Replication is creating a 2x3x4 = 24 times larger system...
  orthogonal box = (0 0 0) to (7.650944 11.476416 15.301888)
  1 by 2 by 2 MPI processor grid
  96 atoms
  replicate CPU = 0.000 seconds
change_box   all triclinic
Changing box ...
  triclinic box = (0 0 0) to (7.650944 11.476416 15.301888) with tilt (0 0 0)

# Need to set mass to something, just to satisfy LAMMPS
mass 1 1.0e-20

include potential.mod
# NOTE: This script can be modified for different pair styles
# See in.elastic for more info.

# Choose potential
pair_style meam
pair_coeff * * ./../library.meam XX ./../XX.meam XX

# Setup neighbor style
neighbor 1.0 nsq
neigh_modify once no every 1 delay 0 check yes

# Setup minimization style
min_style	     cg
min_modify	     dmax ${dmax} line quadratic
min_modify	     dmax 0.01 line quadratic

# Setup output
thermo		1
thermo_style custom step temp pe press pxx pyy pzz pxy pxz pyz lx ly lz vol
thermo_modify norm no

# Compute initial state
fix 3 all box/relax  aniso 0.0
minimize ${etol} ${ftol} ${maxiter} ${maxeval}
minimize 0 ${ftol} ${maxiter} ${maxeval}
minimize 0 1e-10 ${maxiter} ${maxeval}
minimize 0 1e-10 100 ${maxeval}
minimize 0 1e-10 100 1000
Neighbor list info ...
  update: every = 1 steps, delay = 0 steps, check = yes
  max neighbors/atom: 2000, page size: 100000
  master list distance cutoff = 5.5
  ghost atom cutoff = 5.5
  2 neighbor lists, perpetual/occasional/extra = 2 0 0
  (1) pair meam, perpetual
      attributes: full, newton on
      pair build: full/nsq
      stencil: none
      bin: none
  (2) pair meam, perpetual, half/full from (1)
      attributes: half, newton on
      pair build: halffull/newton
      stencil: none
      bin: none
WARNING: Energy due to 3 extra global DOFs will be included in minimizer energies
 (src/min.cpp:228)
Per MPI rank memory allocation (min/avg/max) = 9.761 | 9.768 | 9.778 Mbytes
   Step          Temp          PotEng         Press           Pxx            Pyy            Pzz            Pxy            Pxz            Pyz             Lx             Ly             Lz           Volume    
         0   0             -637.9143      -41191.748     -41191.748     -41191.748     -41191.748     -8.1360743e-12  6.3149896e-11  1.2444634e-11  7.650944       11.476416      15.301888      1343.5886    
         1   0             -637.92455     -40335.758     -40335.758     -40335.758     -40335.758      8.7812251e-12  9.0052022e-12  3.2842502e-11  7.6501789      11.475268      15.300358      1343.1856    
         2   0             -637.93459     -39478.368     -39478.368     -39478.368     -39478.368     -2.9337572e-11 -4.7953845e-11  3.7621249e-11  7.6494138      11.474121      15.298828      1342.7827    
         3   0             -637.94441     -38619.579     -38619.579     -38619.579     -38619.579     -2.1679557e-11  1.6961145e-11 -6.6519489e-11  7.6486487      11.472973      15.297297      1342.3798    
         4   0             -637.95401     -37759.388     -37759.388     -37759.388     -37759.388      3.1879589e-12 -9.3181746e-11 -6.0707311e-11  7.6478836      11.471825      15.295767      1341.977     
         5   0             -637.96339     -36897.796     -36897.796     -36897.796     -36897.796      6.426309e-11   8.3398168e-11 -3.6064073e-11  7.6471185      11.470678      15.294237      1341.5743    
         6   0             -637.97256     -36034.802     -36034.802     -36034.802     -36034.802      8.0075566e-11  4.5756766e-11  2.9708741e-11  7.6463534      11.46953       15.292707      1341.1716    
         7   0             -637.9815      -35170.404     -35170.404     -35170.404     -35170.404      3.8190064e-11  1.2868808e-11  4.9352544e-11  7.6455883      11.468383      15.291177      1340.7691    
         8   0             -637.99023     -34304.602     -34304.602     -34304.602     -34304.602     -1.2328317e-12  1.4863292e-11  9.9530973e-11  7.6448232      11.467235      15.289646      1340.3666    
         9   0             -637.99874     -33437.392     -33437.392     -33437.392     -33437.392     -3.9141848e-11 -4.3674032e-11 -3.770038e-11   7.6440582      11.466087      15.288116      1339.9642    
        10   0             -638.00702     -32568.762     -32568.762     -32568.762     -32568.762     -3.9795822e-11 -8.0734912e-11 -4.9131443e-11  7.6432931      11.46494       15.286586      1339.5619    
        11   0             -638.01509     -31698.707     -31698.707     -31698.707     -31698.707      3.5239722e-11  9.2979298e-11  7.703999e-12   7.642528       11.463792      15.285056      1339.1597    
        12   0             -638.02294     -30827.228     -30827.228     -30827.228     -30827.228      1.6675471e-12  6.9091084e-12 -4.464347e-11   7.6417629      11.462644      15.283526      1338.7575    
        13   0             -638.03056     -29954.323     -29954.323     -29954.323     -29954.323     -1.7558077e-11 -3.9872216e-13  3.0037069e-11  7.6409978      11.461497      15.281996      1338.3555    
        14   0             -638.03797     -29079.991     -29079.991     -29079.991     -29079.991      6.9437651e-12  3.7225249e-12 -8.5618072e-11  7.6402327      11.460349      15.280465      1337.9535    
        15   0             -638.04516     -28204.232     -28204.232     -28204.232     -28204.232     -1.005665e-10  -5.4524779e-11 -7.1813123e-11  7.6394676      11.459201      15.278935      1337.5516    
        16   0             -638.05212     -27327.045     -27327.045     -27327.045     -27327.045      7.8012926e-11  1.2278413e-10 -3.5119189e-11  7.6387025      11.458054      15.277405      1337.1497    
        17   0             -638.05886     -26448.429     -26448.429     -26448.429     -26448.429      4.1394343e-11  3.765802e-11   2.7944114e-11  7.6379374      11.456906      15.275875      1336.748     
        18   0             -638.06538     -25568.383     -25568.383     -25568.383     -25568.383      1.196185e-11  -2.1563367e-11  5.1113167e-11  7.6371723      11.455758      15.274345      1336.3463    
        19   0             -638.07168     -24686.907     -24686.907     -24686.907     -24686.907      3.7755679e-12 -2.5564266e-11  6.7638787e-11  7.6364072      11.454611      15.272814      1335.9447    
        20   0             -638.07776     -23803.999     -23803.999     -23803.999     -23803.999      6.0770954e-12  3.1964939e-11 -6.6327249e-11  7.6356421      11.453463      15.271284      1335.5432    
        21   0             -638.08361     -22919.659     -22919.659     -22919.659     -22919.659      3.2763625e-11  2.6645458e-13 -2.3714458e-11  7.634877       11.452316      15.269754      1335.1418    
        22   0             -638.08924     -22033.886     -22033.886     -22033.886     -22033.886     -8.482572e-12   1.3193468e-11  2.1322776e-12  7.6341119      11.451168      15.268224      1334.7405    
        23   0             -638.09465     -21146.679     -21146.679     -21146.679     -21146.679     -8.3151161e-11 -5.5189275e-11  2.6128256e-11  7.6333468      11.45002       15.266694      1334.3392    
        24   0             -638.09983     -20258.037     -20258.037     -20258.037     -20258.037      4.5597698e-11  1.2001277e-11  3.0403234e-11  7.6325817      11.448873      15.265163      1333.938     
        25   0             -638.10479     -19367.96      -19367.96      -19367.96      -19367.96      -2.1397582e-12 -9.4705216e-12  8.2166779e-11  7.6318166      11.447725      15.263633      1333.5369    
        26   0             -638.10953     -18476.446     -18476.446     -18476.446     -18476.446     -3.9386363e-11 -5.2170251e-11 -6.351161e-11   7.6310515      11.446577      15.262103      1333.1359    
        27   0             -638.11404     -17583.494     -17583.494     -17583.494     -17583.494      4.4603457e-11  9.2092846e-12 -1.6016147e-11  7.6302865      11.44543       15.260573      1332.7349    
        28   0             -638.11833     -16689.092     -16689.092     -16689.092     -16689.092     -8.1180957e-12 -3.7382254e-12  8.5445152e-12  7.6295214      11.444282      15.259043      1332.3341    
        29   0             -638.12239     -15793.234     -15793.234     -15793.234     -15793.234      7.0509226e-11  3.6992858e-11  3.4188345e-11  7.6287563      11.443134      15.257513      1331.9333    
        30   0             -638.12623     -14895.918     -14895.918     -14895.918     -14895.918      2.6608876e-11  1.4694725e-12  7.8015633e-11  7.6279912      11.441987      15.255982      1331.5326    
        31   0             -638.12984     -13997.143     -13997.143     -13997.143     -13997.143     -5.2143192e-11 -6.6012537e-11 -6.6279794e-11  7.6272261      11.440839      15.254452      1331.132     
        32   0             -638.13323     -13096.909     -13096.909     -13096.909     -13096.909      9.8008066e-12  3.4620229e-11 -6.5497731e-11  7.626461       11.439691      15.252922      1330.7314    
        33   0             -638.13639     -12195.215     -12195.215     -12195.215     -12195.215     -5.4317833e-11 -2.7811488e-11 -2.460247e-11   7.6256959      11.438544      15.251392      1330.331     
        34   0             -638.13932     -11292.06      -11292.06      -11292.06      -11292.06       2.164392e-11   9.175204e-11   6.4467177e-11  7.6249308      11.437396      15.249862      1329.9306    
        35   0             -638.14203     -10387.444     -10387.444     -10387.444     -10387.444     -2.7053229e-11 -7.4922176e-12  7.3851859e-11  7.6241657      11.436249      15.248331      1329.5303    
        36   0             -638.14451     -9481.3647     -9481.3647     -9481.3647     -9481.3647      8.7871629e-12  3.9747476e-11  1.0144305e-10  7.6234006      11.435101      15.246801      1329.1301    
        37   0             -638.14677     -8573.8221     -8573.8221     -8573.8221     -8573.8221     -4.5062059e-11 -3.587721e-11  -1.1780577e-10  7.6226355      11.433953      15.245271      1328.7299    
        38   0             -638.14879     -7664.8152     -7664.8152     -7664.8152     -7664.8152      1.1012429e-11  2.5576907e-11  3.4816732e-12  7.6218704      11.432806      15.243741      1328.3299    
        39   0             -638.15059     -6754.3431     -6754.3431     -6754.3431     -6754.3431      1.8263496e-11 -2.4111151e-12 -1.6342003e-11  7.6211053      11.431658      15.242211      1327.9299    
        40   0             -638.15217     -5842.4051     -5842.4051     -5842.4051     -5842.4051      3.6625519e-11  2.6128282e-11  8.0662697e-11  7.6203402      11.43051       15.24068       1327.53      
        41   0             -638.15351     -4929.0003     -4929.0003     -4929.0003     -4929.0003     -4.1761771e-11 -1.6083787e-12  6.5139337e-11  7.6195751      11.429363      15.23915       1327.1302    
        42   0             -638.15463     -4014.1277     -4014.1277     -4014.1277     -4014.1277      4.8203472e-11  2.8155108e-11 -1.1047528e-10  7.61881        11.428215      15.23762       1326.7304    
        43   0             -638.15551     -3097.7867     -3097.7867     -3097.7867     -3097.7867      9.8890597e-12  1.7300492e-11 -4.5598196e-11  7.6180449      11.427067      15.23609       1326.3308    
        44   0             -638.15617     -2179.9763     -2179.9763     -2179.9763     -2179.9763     -8.1936763e-11 -4.7892534e-11  3.4343106e-11  7.6172798      11.42592       15.23456       1325.9312    
        45   0             -638.1566      -1260.6956     -1260.6956     -1260.6956     -1260.6956     -2.7782255e-11 -4.9114707e-11  3.5158615e-11  7.6165148      11.424772      15.23303       1325.5317    
        46   0             -638.1568      -339.93621     -339.93621     -339.93621     -339.93621     -7.673601e-11  -5.8928566e-11  5.2619585e-11  7.6157497      11.423624      15.231499      1325.1323    
        47   0             -638.15682     -0.13031952    -0.13031952    -0.13031952    -0.13031953    -2.05808e-12   -4.8463727e-11  4.7523987e-11  7.6154676      11.423201      15.230935      1324.9851    
        48   0             -638.15682     -7.9078898e-05 -7.9082145e-05 -7.9080028e-05 -7.9074521e-05  8.5414942e-11  3.8395087e-11 -2.2822255e-11  7.6154675      11.423201      15.230935      1324.985     
        49   0             -638.15682     -1.0291502e-10  3.1184788e-09  1.3571262e-09 -4.7843501e-09 -1.1581542e-11  2.0540029e-11 -8.001214e-11   7.6154675      11.423201      15.230935      1324.985     
Loop time of 0.0189956 on 4 procs for 49 steps with 96 atoms

89.8% CPU use with 4 MPI tasks x 1 OpenMP threads

Minimization stats:
  Stopping criterion = force tolerance
  Energy initial, next-to-last, final = 
     -637.914299842151  -638.156815380048  -638.156815380049
  Force two-norm initial, final = 59.831077 4.9415469e-12
  Force max component initial, final = 34.543488 3.9750446e-12
  Final line search alpha, max atom move = 1 3.9750446e-12
  Iterations, force evaluations = 49 52

MPI task timing breakdown:
Section |  min time  |  avg time  |  max time  |%varavg| %total
---------------------------------------------------------------
Pair    | 0.011514   | 0.012661   | 0.014276   |   0.9 | 66.65
Neigh   | 0          | 0          | 0          |   0.0 |  0.00
Comm    | 0.00042552 | 0.0020358  | 0.0031735  |   2.2 | 10.72
Output  | 0.00042839 | 0.0012241  | 0.0035575  |   3.9 |  6.44
Modify  | 0          | 0          | 0          |   0.0 |  0.00
Other   |            | 0.003075   |            |       | 16.19

Nlocal:             24 ave          40 max          12 min
Histogram: 1 0 1 0 1 0 0 0 0 1
Nghost:            300 ave         312 max         284 min
Histogram: 1 0 0 0 0 1 0 1 0 1
Neighs:            648 ave        1080 max         324 min
Histogram: 1 0 1 0 1 0 0 0 0 1
FullNghs:         1296 ave        2160 max         648 min
Histogram: 1 0 1 0 1 0 0 0 0 1

Total # of neighbors = 5184
Ave neighs/atom = 54
Neighbor list builds = 0
Dangerous builds = 0

variable tmp equal pxx
variable pxx0 equal ${tmp}
variable pxx0 equal 3.11847877308817e-09
variable tmp equal pyy
variable pyy0 equal ${tmp}
variable pyy0 equal 1.35712623547797e-09
variable tmp equal pzz
variable pzz0 equal ${tmp}
variable pzz0 equal -4.78435005630234e-09
variable tmp equal pyz
variable pyz0 equal ${tmp}
variable pyz0 equal -8.00121396699084e-11
variable tmp equal pxz
variable pxz0 equal ${tmp}
variable pxz0 equal 2.05400291434496e-11
variable tmp equal pxy
variable pxy0 equal ${tmp}
variable pxy0 equal -1.158154192442e-11

variable tmp equal lx
variable lx0 equal ${tmp}
variable lx0 equal 7.61546750401014
variable tmp equal ly
variable ly0 equal ${tmp}
variable ly0 equal 11.4232012560152
variable tmp equal lz
variable lz0 equal ${tmp}
variable lz0 equal 15.2309350080203

# These formulas define the derivatives w.r.t. strain components
# Constants uses $, variables use v_
variable d1 equal -(v_pxx1-${pxx0})/(v_delta/v_len0)*${cfac}
variable d1 equal -(v_pxx1-3.11847877308817e-09)/(v_delta/v_len0)*${cfac}
variable d1 equal -(v_pxx1-3.11847877308817e-09)/(v_delta/v_len0)*0.0001
variable d2 equal -(v_pyy1-${pyy0})/(v_delta/v_len0)*${cfac}
variable d2 equal -(v_pyy1-1.35712623547797e-09)/(v_delta/v_len0)*${cfac}
variable d2 equal -(v_pyy1-1.35712623547797e-09)/(v_delta/v_len0)*0.0001
variable d3 equal -(v_pzz1-${pzz0})/(v_delta/v_len0)*${cfac}
variable d3 equal -(v_pzz1--4.78435005630234e-09)/(v_delta/v_len0)*${cfac}
variable d3 equal -(v_pzz1--4.78435005630234e-09)/(v_delta/v_len0)*0.0001
variable d4 equal -(v_pyz1-${pyz0})/(v_delta/v_len0)*${cfac}
variable d4 equal -(v_pyz1--8.00121396699084e-11)/(v_delta/v_len0)*${cfac}
variable d4 equal -(v_pyz1--8.00121396699084e-11)/(v_delta/v_len0)*0.0001
variable d5 equal -(v_pxz1-${pxz0})/(v_delta/v_len0)*${cfac}
variable d5 equal -(v_pxz1-2.05400291434496e-11)/(v_delta/v_len0)*${cfac}
variable d5 equal -(v_pxz1-2.05400291434496e-11)/(v_delta/v_len0)*0.0001
variable d6 equal -(v_pxy1-${pxy0})/(v_delta/v_len0)*${cfac}
variable d6 equal -(v_pxy1--1.158154192442e-11)/(v_delta/v_len0)*${cfac}
variable d6 equal -(v_pxy1--1.158154192442e-11)/(v_delta/v_len0)*0.0001

displace_atoms all random ${atomjiggle} ${atomjiggle} ${atomjiggle} 87287 units box
displace_atoms all random 1e-05 ${atomjiggle} ${atomjiggle} 87287 units box
displace_atoms all random 1e-05 1e-05 ${atomjiggle} 87287 units box
displace_atoms all random 1e-05 1e-05 1e-05 87287 units box
Displacing atoms ...

# Write restart
unfix 3
write_restart restart.equil
System init for write_restart ...

# uxx Perturbation

variable dir equal 1
include displace.mod
# NOTE: This script should not need to be
# modified. See in.elastic for more info.
#
# Find which reference length to use

if "${dir} == 1" then    "variable len0 equal ${lx0}"
variable len0 equal ${lx0}
variable len0 equal 7.61546750401014
if "${dir} == 2" then    "variable len0 equal ${ly0}"
if "${dir} == 3" then    "variable len0 equal ${lz0}"
if "${dir} == 4" then    "variable len0 equal ${lz0}"
if "${dir} == 5" then    "variable len0 equal ${lz0}"
if "${dir} == 6" then    "variable len0 equal ${ly0}"

# Reset box and simulation parameters

clear
OMP_NUM_THREADS environment is not set. Defaulting to 1 thread. (src/comm.cpp:98)
  using 1 OpenMP thread(s) per MPI task
box tilt large

The 'box' command has been removed and will be ignored

read_restart restart.equil
Reading restart file ...
  restart file = 2 Aug 2023, LAMMPS = 2 Aug 2023
  restoring atom style atomic from restart
  triclinic box = (0.017738248 0.026607372 0.035476496) to (7.6332058 11.449809 15.266412) with tilt (0 0 0)
  1 by 2 by 2 MPI processor grid
  pair style meam stores no restart info
  96 atoms
  read_restart CPU = 0.003 seconds
include potential.mod
# NOTE: This script can be modified for different pair styles
# See in.elastic for more info.

# Choose potential
pair_style meam
pair_coeff * * ./../library.meam XX ./../XX.meam XX

# Setup neighbor style
neighbor 1.0 nsq
neigh_modify once no every 1 delay 0 check yes

# Setup minimization style
min_style	     cg
min_modify	     dmax ${dmax} line quadratic
min_modify	     dmax 0.01 line quadratic

# Setup output
thermo		1
thermo_style custom step temp pe press pxx pyy pzz pxy pxz pyz lx ly lz vol
thermo_modify norm no

# Negative deformation

variable delta equal -${up}*${len0}
variable delta equal -1e-06*${len0}
variable delta equal -1e-06*7.61546750401014
variable deltaxy equal -${up}*xy
variable deltaxy equal -1e-06*xy
variable deltaxz equal -${up}*xz
variable deltaxz equal -1e-06*xz
variable deltayz equal -${up}*yz
variable deltayz equal -1e-06*yz
if "${dir} == 1" then    "change_box all x delta 0 ${delta} xy delta ${deltaxy} xz delta ${deltaxz} remap units box"
change_box all x delta 0 ${delta} xy delta ${deltaxy} xz delta ${deltaxz} remap units box
change_box all x delta 0 -7.61546750401014e-06 xy delta ${deltaxy} xz delta ${deltaxz} remap units box
change_box all x delta 0 -7.61546750401014e-06 xy delta -0 xz delta ${deltaxz} remap units box
change_box all x delta 0 -7.61546750401014e-06 xy delta -0 xz delta -0 remap units box
Changing box ...
  triclinic box = (0.017738248 0.026607372 0.035476496) to (7.6331981 11.449809 15.266412) with tilt (0 0 0)
  triclinic box = (0.017738248 0.026607372 0.035476496) to (7.6331981 11.449809 15.266412) with tilt (0 0 0)
  triclinic box = (0.017738248 0.026607372 0.035476496) to (7.6331981 11.449809 15.266412) with tilt (0 0 0)
if "${dir} == 2" then    "change_box all y delta 0 ${delta} yz delta ${deltayz} remap units box"
if "${dir} == 3" then    "change_box all z delta 0 ${delta} remap units box"
if "${dir} == 4" then    "change_box all yz delta ${delta} remap units box"
if "${dir} == 5" then    "change_box all xz delta ${delta} remap units box"
if "${dir} == 6" then    "change_box all xy delta ${delta} remap units box"

# Relax atoms positions

minimize ${etol} ${ftol} ${maxiter} ${maxeval}
minimize 0 ${ftol} ${maxiter} ${maxeval}
minimize 0 1e-10 ${maxiter} ${maxeval}
minimize 0 1e-10 100 ${maxeval}
minimize 0 1e-10 100 1000
Neighbor list info ...
  update: every = 1 steps, delay = 0 steps, check = yes
  max neighbors/atom: 2000, page size: 100000
  master list distance cutoff = 5.5
  ghost atom cutoff = 5.5
  2 neighbor lists, perpetual/occasional/extra = 2 0 0
  (1) pair meam, perpetual
      attributes: full, newton on
      pair build: full/nsq
      stencil: none
      bin: none
  (2) pair meam, perpetual, half/full from (1)
      attributes: half, newton on
      pair build: halffull/newton
      stencil: none
      bin: none
Per MPI rank memory allocation (min/avg/max) = 9.764 | 9.765 | 9.767 Mbytes
   Step          Temp          PotEng         Press           Pxx            Pyy            Pzz            Pxy            Pxz            Pyz             Lx             Ly             Lz           Volume    
        49   0             -638.15682      3.059487       14.303885     -2.562881      -2.5625432     -1.4662182e-05  1.0900266e-05  7.4573814e-06  7.6154599      11.423201      15.230935      1324.9837    
        50   0             -638.15682      3.0593214      14.303714     -2.5628777     -2.5628721     -8.2138906e-06 -7.764393e-06   5.8177535e-06  7.6154599      11.423201      15.230935      1324.9837    
        51   0             -638.15682      3.0592904      14.303905     -2.5629629     -2.563071      -1.3210362e-05  5.1977964e-06  4.5701128e-05  7.6154599      11.423201      15.230935      1324.9837    
        52   0             -638.15682      3.0617108      14.425995     -2.6571676     -2.5836947     -0.0033832454   0.0036364104   0.032813689    7.6154599      11.423201      15.230935      1324.9837    
        53   0             -638.16793      7.4770895      338.32811     -257.82748     -58.069363     -8.5064469      9.5155068      88.79423       7.6154599      11.423201      15.230935      1324.9837    
        54   0             -638.1996       20.759463      1278.5016     -998.29887     -217.92431     -33.886805      37.701822      347.09881      7.6154599      11.423201      15.230935      1324.9837    
        55   0             -638.24939      44.060564      2802.9975     -2204.9486     -465.86719     -77.454058      85.257887      770.35469      7.6154599      11.423201      15.230935      1324.9837    
        56   0             -638.31349      78.834278      4852.9781     -3846.3854     -770.08986     -141.1744       153.11028      1351.1941      7.6154599      11.423201      15.230935      1324.9837    
        57   0             -638.38747      125.73038      7349.9252     -5884.8612     -1087.8729     -227.59966      242.55123      2082.0866      7.6154599      11.423201      15.230935      1324.9837    
        58   0             -638.46966      177.78413      10233.359     -8310.4241     -1389.583      -340.45024      356.23651      2969.6856      7.6154599      11.423201      15.230935      1324.9837    
        59   0             -638.58328      166.42696      13650.548     -11329.934     -1821.3329     -486.31601      501.72559      4114.1332      7.6154599      11.423201      15.230935      1324.9837    
        60   0             -638.83768     -283.29613      17776.404     -15352.692     -3273.6006     -612.41658      643.22532      5663.4515      7.6154599      11.423201      15.230935      1324.9837    
        61   0             -639.08298     -901.47707      20743.084     -18788.149     -4659.3665     -613.12909      679.74967      6804.9219      7.6154599      11.423201      15.230935      1324.9837    
        62   0             -639.33915     -1579.9958      24214.061     -23219.727     -5734.3209     -599.59011      707.15118      8169.5914      7.6154599      11.423201      15.230935      1324.9837    
        63   0             -639.61881     -2382.0586      28302.139     -28687.609     -6760.7063     -562.13297      698.36425      9790.9057      7.6154599      11.423201      15.230935      1324.9837    
        64   0             -639.90428     -3299.1188      32693.105     -34564.724     -8025.737      -482.70567      600.55991      11466.638      7.6154599      11.423201      15.230935      1324.9837    
        65   0             -640.19232     -4335.0166      37253.63      -40478.236     -9780.4439     -346.271        363.95502      13037.189      7.6154599      11.423201      15.230935      1324.9837    
        66   0             -640.49431     -5518.9769      41976.162     -46425.755     -12107.338     -136.16744     -54.982828      14428.937      7.6154599      11.423201      15.230935      1324.9837    
        67   0             -640.82117     -6870.4834      46653.001     -52390.282     -14874.169      167.95183     -687.43966      15570.13       7.6154599      11.423201      15.230935      1324.9837    
        68   0             -641.18223     -8402.3448      50796.096     -58235.108     -17768.023      592.35256     -1544.4585      16391.416      7.6154599      11.423201      15.230935      1324.9837    
        69   0             -641.57017     -10062.474      53553.045     -63460.763     -20279.704      1148.9969     -2573.2603      16814.644      7.6154599      11.423201      15.230935      1324.9837    
        70   0             -641.94851     -11685          54205.884     -67352.327     -21908.557      1793.291      -3615.7837      16832.339      7.6154599      11.423201      15.230935      1324.9837    
        71   0             -642.31907     -13282.911      52775.76      -69909.532     -22714.961      2516.5227     -4622.1009      16541.777      7.6154599      11.423201      15.230935      1324.9837    
        72   0             -642.6835      -14877.544      49384.03      -71237.465     -22779.197      3308.3875     -5560.5555      16015.993      7.6154599      11.423201      15.230935      1324.9837    
        73   0             -643.044       -16497.268      44147.483     -71437.174     -22202.112      4160.2885     -6411.1966      15306.023      7.6154599      11.423201      15.230935      1324.9837    
        74   0             -643.40242     -18173.82       37144.083     -70617.915     -21047.628      5062.8446     -7153.662       14455.668      7.6154599      11.423201      15.230935      1324.9837    
        75   0             -643.72839     -19781.335      29248.722     -69050.718     -19542.007      5920.5855     -7701.7545      13602.209      7.6154599      11.423201      15.230935      1324.9837    
        76   0             -644.01048     -21262.392      21285.132     -66834.2       -18238.11       6677.2268     -8055.5984      12819.881      7.6154599      11.423201      15.230935      1324.9837    
        77   0             -644.25867     -22661.405      13446.762     -64048.568     -17382.408      7340.9265     -8263.8489      12095.563      7.6154599      11.423201      15.230935      1324.9837    
        78   0             -644.48021     -24020.617      5797.534      -60832.933     -17026.453      7923.1943     -8354.0332      11424.67       7.6154599      11.423201      15.230935      1324.9837    
        79   0             -644.68045     -25383.997     -1193.1315     -57628.519     -17330.34       8446.4092     -8336.5759      10783.002      7.6154599      11.423201      15.230935      1324.9837    
        80   0             -644.86871     -26837.277     -7419.5525     -54433.968     -18658.31       8909.0285     -8235.1661      10163.786      7.6154599      11.423201      15.230935      1324.9837    
        81   0             -645.06304     -28586.965     -13312.612     -51379.823     -21068.46       9267.5029     -8022.1397      9607.9104      7.6154599      11.423201      15.230935      1324.9837    
        82   0             -645.28365     -30820.141     -17396.776     -50708.478     -24355.17       9411.1831     -7661.2621      9177.1454      7.6154599      11.423201      15.230935      1324.9837    
        83   0             -645.50726     -33152.543     -20336.403     -51695.254     -27425.972      9244.0621     -7206.7751      8599.4163      7.6154599      11.423201      15.230935      1324.9837    
        84   0             -645.74882     -35602.801     -22205.229     -55146.168     -29457.007      8908.4967     -6590.0698      7741.6493      7.6154599      11.423201      15.230935      1324.9837    
        85   0             -646.01298     -38189.018     -23892.461     -59839.176     -30835.418      8404.0696     -5839.903       6820.999       7.6154599      11.423201      15.230935      1324.9837    
        86   0             -646.30323     -40963.808     -25982.567     -65180.948     -31727.91       7751.1145     -5011.9904      5839.7772      7.6154599      11.423201      15.230935      1324.9837    
        87   0             -646.60481     -43810.92      -28251.488     -70858.404     -32322.867      7023.793      -4193.0283      4895.4319      7.6154599      11.423201      15.230935      1324.9837    
        88   0             -646.90904     -46671.121     -30470.419     -76791.236     -32751.706      6294.4656     -3434.6214      4077.9333      7.6154599      11.423201      15.230935      1324.9837    
        89   0             -647.21544     -49556.575     -32627.926     -83001.909     -33039.891      5605.7011     -2755.9032      3453.4903      7.6154599      11.423201      15.230935      1324.9837    
        90   0             -647.52316     -52466.028     -34767.174     -89163.963     -33466.948      4972.5241     -2168.8404      3011.5275      7.6154599      11.423201      15.230935      1324.9837    
        91   0             -647.83134     -55388.236     -36879.126     -95317.524     -33968.058      4404.064      -1676.725       2701.4832      7.6154599      11.423201      15.230935      1324.9837    
        92   0             -648.13936     -58316.876     -38937.491     -101456.14     -34557.003      3896.718      -1278.2625      2504.6527      7.6154599      11.423201      15.230935      1324.9837    
        93   0             -648.44668     -61246.211     -40914.43      -107661.43     -35162.774      3448.0706     -967.96628      2403.4393      7.6154599      11.423201      15.230935      1324.9837    
        94   0             -648.7524      -64172.043     -42791.874     -114230.32     -35493.933      3065.9705     -734.73819      2325.5834      7.6154599      11.423201      15.230935      1324.9837    
        95   0             -649.05562     -67093.219     -44541.971     -120654.54     -36083.148      2729.6981     -567.89703      2275.2351      7.6154599      11.423201      15.230935      1324.9837    
        96   0             -649.35613     -69997.443     -46143.414     -126945.22     -36903.695      2430.0053     -457.58947      2288.6686      7.6154599      11.423201      15.230935      1324.9837    
        97   0             -649.65377     -72877.376     -47590.671     -133183.2      -37858.253      2159.8549     -394.43628      2370.3727      7.6154599      11.423201      15.230935      1324.9837    
        98   0             -649.94835     -75728.411     -48882.75      -139389.06     -38913.423      1911.7616     -369.23221      2511.1137      7.6154599      11.423201      15.230935      1324.9837    
        99   0             -650.23972     -78546.564     -50020.506     -145568.7      -40050.488      1679.2952     -373.01397      2699.6949      7.6154599      11.423201      15.230935      1324.9837    
       100   0             -650.52777     -81328.076     -51088.846     -151728.31     -41167.07       1436.5645     -397.05971      2924.7402      7.6154599      11.423201      15.230935      1324.9837    
       101   0             -650.81428     -84090.025     -52025.801     -158009.02     -42235.256      1144.7286     -433.29059      3199.8441      7.6154599      11.423201      15.230935      1324.9837    
       102   0             -651.09667     -86818.929     -52134.935     -164966.1      -43355.748      783.72842     -476.09565      3692.1816      7.6154599      11.423201      15.230935      1324.9837    
       103   0             -651.37081     -89498.728     -52509.096     -171577.36     -44409.73       333.12175     -521.5938       4329.366       7.6154599      11.423201      15.230935      1324.9837    
       104   0             -651.6425      -92181.828     -52693.748     -178221.46     -45630.271     -178.11336     -562.50718      5027.9087      7.6154599      11.423201      15.230935      1324.9837    
       105   0             -651.90539     -94808.344     -52858.223     -184837        -46729.807     -755.49695     -595.21558      5745.8703      7.6154599      11.423201      15.230935      1324.9837    
       106   0             -652.15718     -97369.514     -53096.268     -191411.03     -47601.243     -1469.0979     -617.76947      6463.6872      7.6154599      11.423201      15.230935      1324.9837    
       107   0             -652.39501     -99844.663     -52696.362     -198051.03     -48786.602     -2265.8072     -630.40697      7107.6574      7.6154599      11.423201      15.230935      1324.9837    
       108   0             -652.61217     -102195.03     -50861.369     -205228.39     -50495.349     -3041.6771     -635.45241      7382.5614      7.6154599      11.423201      15.230935      1324.9837    
       109   0             -652.80656     -104406.27     -49448.892     -211475.14     -52294.784     -3774.5743     -632.12635      7328.4302      7.6154599      11.423201      15.230935      1324.9837    
       110   0             -652.977       -106424.84     -47682.133     -217349.12     -54243.256     -4473.7276     -639.90793      7232.1609      7.6154599      11.423201      15.230935      1324.9837    
       111   0             -653.12643     -108257.84     -45573.487     -222842.69     -56357.35      -5129.5912     -653.97029      6996.5771      7.6154599      11.423201      15.230935      1324.9837    
       112   0             -653.25813     -109893.15     -43349.836     -227763.36     -58566.251     -5810.9152     -674.28307      6622.667       7.6154599      11.423201      15.230935      1324.9837    
       113   0             -653.37988     -111320.4      -39533.253     -232117.4      -62310.547     -6426.0192     -718.32661      5997.3207      7.6154599      11.423201      15.230935      1324.9837    
       114   0             -653.47338     -112239.29     -37230.116     -234851.96     -64635.804     -6826.0569     -771.96745      5239.8311      7.6154599      11.423201      15.230935      1324.9837    
       115   0             -653.55074     -112886.49     -31279.056     -238166.95     -69213.451     -7005.1884     -801.95205      3987.9048      7.6154599      11.423201      15.230935      1324.9837    
       116   0             -653.62588     -113418.14     -31152.578     -239092.1      -70009.727     -7112.5113     -863.7279       2895.4544      7.6154599      11.423201      15.230935      1324.9837    
       117   0             -653.71365     -113961.82     -25634.829     -242199.56     -74051.064     -7092.4783     -880.32357      1594.1979      7.6154599      11.423201      15.230935      1324.9837    
       118   0             -653.80453     -114428.22     -25309.713     -242326.64     -75648.293     -7080.3927     -898.77881      596.28443      7.6154599      11.423201      15.230935      1324.9837    
       119   0             -653.90629     -114915.57     -21632.665     -244793.97     -78320.059     -6963.5459     -862.62693     -452.80317      7.6154599      11.423201      15.230935      1324.9837    
       120   0             -654.01362     -115372.04     -21163.343     -244597.48     -80355.293     -6843.107      -813.43239     -1217.1143      7.6154599      11.423201      15.230935      1324.9837    
       121   0             -654.13048     -115866.56     -18336.555     -246958.65     -82304.463     -6639.7546     -719.08894     -1896.3411      7.6154599      11.423201      15.230935      1324.9837    
       122   0             -654.2467      -116319.27     -17832.615     -247034.27     -84090.911     -6420.9743     -636.73572     -2239.1636      7.6154599      11.423201      15.230935      1324.9837    
       123   0             -654.36437     -116775.85     -16267.665     -248673.29     -85386.595     -6167.0636     -552.14246     -2339.1574      7.6154599      11.423201      15.230935      1324.9837    
       124   0             -654.4832      -117216.13     -15328.334     -249371.92     -86948.131     -5910.1084     -483.2024      -2239.3505      7.6154599      11.423201      15.230935      1324.9837    
       125   0             -654.60317     -117644.73     -14439.754     -250287.54     -88206.894     -5634.72       -420.28352     -2047.7426      7.6154599      11.423201      15.230935      1324.9837    
       126   0             -654.72407     -118059.65     -13724.228     -251030.82     -89423.892     -5343.9347     -364.09131     -1818.8778      7.6154599      11.423201      15.230935      1324.9837    
       127   0             -654.84621     -118463.71     -13151.296     -251744.57     -90495.25      -5038.0503     -310.04114     -1589.099       7.6154599      11.423201      15.230935      1324.9837    
       128   0             -654.96976     -118857.61     -12712.372     -252466.95     -91393.524     -4724.7221     -259.3306      -1413.1646      7.6154599      11.423201      15.230935      1324.9837    
       129   0             -655.09509     -119242.47     -12435.592     -253275.39     -92016.418     -4409.0346     -214.47735     -1360.9027      7.6154599      11.423201      15.230935      1324.9837    
       130   0             -655.22243     -119619.02     -12352.946     -253982.19     -92521.938     -4078.6005     -173.44307     -1427.9752      7.6154599      11.423201      15.230935      1324.9837    
       131   0             -655.35174     -119987.09     -12531.553     -254587.21     -92842.504     -3748.0618     -133.44839     -1610.7489      7.6154599      11.423201      15.230935      1324.9837    
       132   0             -655.4822      -120347.38     -12886.782     -255099.48     -93055.879     -3419.9958     -94.536562     -1911.3285      7.6154599      11.423201      15.230935      1324.9837    
       133   0             -655.6135      -120700.29     -13315.995     -255502.82     -93282.048     -3091.9544     -61.874899     -2338.6672      7.6154599      11.423201      15.230935      1324.9837    
       134   0             -655.74595     -121046.54     -13869.006     -255793.69     -93476.914     -2774.1247     -40.112757     -2911.884       7.6154599      11.423201      15.230935      1324.9837    
       135   0             -655.87969     -121387.24     -14563.942     -255970.56     -93627.217     -2474.4602     -33.073303     -3644.1251      7.6154599      11.423201      15.230935      1324.9837    
       136   0             -656.01479     -121723.67     -15400.92      -256032.21     -93737.871     -2198.9841     -44.302715     -4539.5379      7.6154599      11.423201      15.230935      1324.9837    
       137   0             -656.15165     -122057.41     -16352.734     -256345.37     -93474.136     -1984.1509     -56.094115     -5419.6513      7.6154599      11.423201      15.230935      1324.9837    
       138   0             -656.2884      -122384.9      -17243.974     -256870.11     -93040.612     -1800.7614     -64.329811     -6109.7899      7.6154599      11.423201      15.230935      1324.9837    
       139   0             -656.42133     -122699.96     -18046.472     -257333.03     -92720.392     -1614.792      -77.590016     -6607.2111      7.6154599      11.423201      15.230935      1324.9837    
       140   0             -656.552       -123007.28     -18808.737     -257726.37     -92486.738     -1426.4475     -97.938205     -6947.2625      7.6154599      11.423201      15.230935      1324.9837    
       141   0             -656.68092     -123310.13     -19545.345     -258034.34     -92350.722     -1234.337      -126.86867     -7133.9781      7.6154599      11.423201      15.230935      1324.9837    
       142   0             -656.80802     -123610.58     -20261.197     -258245.53     -92325.008     -1037.1956     -165.43606     -7156.8684      7.6154599      11.423201      15.230935      1324.9837    
       143   0             -656.93386     -123909.65     -20637.93      -258698.2      -92392.832     -833.0955      -213.5496      -7144.6549      7.6154599      11.423201      15.230935      1324.9837    
       144   0             -657.06217     -124194.19     -21004.427     -259191.35     -92386.781     -623.90527     -270.30332     -7133.5954      7.6154599      11.423201      15.230935      1324.9837    
       145   0             -657.19318     -124470.47     -21424.187     -259675.64     -92311.578     -411.9639      -334.56196     -7091.0654      7.6154599      11.423201      15.230935      1324.9837    
       146   0             -657.32659     -124745.02     -21906.062     -260153.12     -92175.872     -199.32572     -404.67128     -6989.5909      7.6154599      11.423201      15.230935      1324.9837    
       147   0             -657.46239     -125021.57     -22460.378     -260776.93     -91827.393      1.6600908     -477.72624     -6866.4017      7.6154599      11.423201      15.230935      1324.9837    
       148   0             -657.60106     -125304.82     -23081.249     -261497.39     -91335.829      192.97166     -552.7573      -6745.1252      7.6154599      11.423201      15.230935      1324.9837    
       149   0             -657.74292     -125596.57     -23779.529     -262217.39     -90792.802      377.87538     -629.23527     -6604.8711      7.6154599      11.423201      15.230935      1324.9837    
Loop time of 0.0239521 on 4 procs for 100 steps with 96 atoms

94.4% CPU use with 4 MPI tasks x 1 OpenMP threads

Minimization stats:
  Stopping criterion = max iterations
  Energy initial, next-to-last, final = 
     -638.156815283033  -657.601056897503  -657.742920399007
  Force two-norm initial, final = 0.0022665966 3.4345132
  Force max component initial, final = 0.0003262742 0.82222208
  Final line search alpha, max atom move = 0.012177917 0.010012952
  Iterations, force evaluations = 100 102

MPI task timing breakdown:
Section |  min time  |  avg time  |  max time  |%varavg| %total
---------------------------------------------------------------
Pair    | 0.014611   | 0.014836   | 0.015179   |   0.2 | 61.94
Neigh   | 0          | 0          | 0          |   0.0 |  0.00
Comm    | 0.00082459 | 0.0011481  | 0.0013653  |   0.6 |  4.79
Output  | 0.0007473  | 0.0023775  | 0.0072267  |   5.7 |  9.93
Modify  | 0          | 0          | 0          |   0.0 |  0.00
Other   |            | 0.00559    |            |       | 23.34

Nlocal:             24 ave          26 max          23 min
Histogram: 2 0 0 1 0 0 0 0 0 1
Nghost:            300 ave         301 max         298 min
Histogram: 1 0 0 0 0 0 1 0 0 2
Neighs:            648 ave         707 max         611 min
Histogram: 1 1 0 1 0 0 0 0 0 1
FullNghs:         1296 ave        1404 max        1242 min
Histogram: 2 0 0 1 0 0 0 0 0 1

Total # of neighbors = 5184
Ave neighs/atom = 54
Neighbor list builds = 0
Dangerous builds = 0

# Obtain new stress tensor

variable tmp equal pxx
variable pxx1 equal ${tmp}
variable pxx1 equal -23779.5293521743
variable tmp equal pyy
variable pyy1 equal ${tmp}
variable pyy1 equal -262217.392167183
variable tmp equal pzz
variable pzz1 equal ${tmp}
variable pzz1 equal -90792.8020213227
variable tmp equal pxy
variable pxy1 equal ${tmp}
variable pxy1 equal 377.87537883615
variable tmp equal pxz
variable pxz1 equal ${tmp}
variable pxz1 equal -629.235265659253
variable tmp equal pyz
variable pyz1 equal ${tmp}
variable pyz1 equal -6604.87113974518

# Compute elastic constant from pressure tensor

variable C1neg equal ${d1}
variable C1neg equal -2377952.93521774
variable C2neg equal ${d2}
variable C2neg equal -26221739.2167184
variable C3neg equal ${d3}
variable C3neg equal -9079280.20213179
variable C4neg equal ${d4}
variable C4neg equal -660487.11397451
variable C5neg equal ${d5}
variable C5neg equal -62923.5265659274
variable C6neg equal ${d6}
variable C6neg equal 37787.5378836162

# Reset box and simulation parameters

clear
OMP_NUM_THREADS environment is not set. Defaulting to 1 thread. (src/comm.cpp:98)
  using 1 OpenMP thread(s) per MPI task
box tilt large

The 'box' command has been removed and will be ignored

read_restart restart.equil
Reading restart file ...
  restart file = 2 Aug 2023, LAMMPS = 2 Aug 2023
  restoring atom style atomic from restart
  triclinic box = (0.017738248 0.026607372 0.035476496) to (7.6332058 11.449809 15.266412) with tilt (0 0 0)
  1 by 2 by 2 MPI processor grid
  pair style meam stores no restart info
  96 atoms
  read_restart CPU = 0.003 seconds
include potential.mod
# NOTE: This script can be modified for different pair styles
# See in.elastic for more info.

# Choose potential
pair_style meam
pair_coeff * * ./../library.meam XX ./../XX.meam XX

# Setup neighbor style
neighbor 1.0 nsq
neigh_modify once no every 1 delay 0 check yes

# Setup minimization style
min_style	     cg
min_modify	     dmax ${dmax} line quadratic
min_modify	     dmax 0.01 line quadratic

# Setup output
thermo		1
thermo_style custom step temp pe press pxx pyy pzz pxy pxz pyz lx ly lz vol
thermo_modify norm no

# Positive deformation

variable delta equal ${up}*${len0}
variable delta equal 1e-06*${len0}
variable delta equal 1e-06*7.61546750401014
variable deltaxy equal ${up}*xy
variable deltaxy equal 1e-06*xy
variable deltaxz equal ${up}*xz
variable deltaxz equal 1e-06*xz
variable deltayz equal ${up}*yz
variable deltayz equal 1e-06*yz
if "${dir} == 1" then    "change_box all x delta 0 ${delta} xy delta ${deltaxy} xz delta ${deltaxz} remap units box"
change_box all x delta 0 ${delta} xy delta ${deltaxy} xz delta ${deltaxz} remap units box
change_box all x delta 0 7.61546750401014e-06 xy delta ${deltaxy} xz delta ${deltaxz} remap units box
change_box all x delta 0 7.61546750401014e-06 xy delta 0 xz delta ${deltaxz} remap units box
change_box all x delta 0 7.61546750401014e-06 xy delta 0 xz delta 0 remap units box
Changing box ...
  triclinic box = (0.017738248 0.026607372 0.035476496) to (7.6332134 11.449809 15.266412) with tilt (0 0 0)
  triclinic box = (0.017738248 0.026607372 0.035476496) to (7.6332134 11.449809 15.266412) with tilt (0 0 0)
  triclinic box = (0.017738248 0.026607372 0.035476496) to (7.6332134 11.449809 15.266412) with tilt (0 0 0)
if "${dir} == 2" then    "change_box all y delta 0 ${delta} yz delta ${deltayz} remap units box"
if "${dir} == 3" then    "change_box all z delta 0 ${delta} remap units box"
if "${dir} == 4" then    "change_box all yz delta ${delta} remap units box"
if "${dir} == 5" then    "change_box all xz delta ${delta} remap units box"
if "${dir} == 6" then    "change_box all xy delta ${delta} remap units box"

# Relax atoms positions

minimize ${etol} ${ftol} ${maxiter} ${maxeval}
minimize 0 ${ftol} ${maxiter} ${maxeval}
minimize 0 1e-10 ${maxiter} ${maxeval}
minimize 0 1e-10 100 ${maxeval}
minimize 0 1e-10 100 1000
Neighbor list info ...
  update: every = 1 steps, delay = 0 steps, check = yes
  max neighbors/atom: 2000, page size: 100000
  master list distance cutoff = 5.5
  ghost atom cutoff = 5.5
  2 neighbor lists, perpetual/occasional/extra = 2 0 0
  (1) pair meam, perpetual
      attributes: full, newton on
      pair build: full/nsq
      stencil: none
      bin: none
  (2) pair meam, perpetual, half/full from (1)
      attributes: half, newton on
      pair build: halffull/newton
      stencil: none
      bin: none
Per MPI rank memory allocation (min/avg/max) = 9.764 | 9.765 | 9.767 Mbytes
   Step          Temp          PotEng         Press           Pxx            Pyy            Pzz            Pxy            Pxz            Pyz             Lx             Ly             Lz           Volume    
        49   0             -638.15682     -3.0590361     -14.302949      2.5627515      2.5630893     -1.4662165e-05  1.0900193e-05  7.4562099e-06  7.6154751      11.423201      15.230935      1324.9863    
        50   0             -638.15682     -3.0592017     -14.30312       2.5627548      2.5627604     -8.2127113e-06 -7.7648352e-06  5.8170436e-06  7.6154751      11.423201      15.230935      1324.9863    
        51   0             -638.15682     -3.0592327     -14.302929      2.5626696      2.5625615     -1.3209059e-05  5.199004e-06   4.5710614e-05  7.6154751      11.423201      15.230935      1324.9863    
        52   0             -638.15682     -3.0568116     -14.180743      2.4683993      2.541909      -0.0033827508   0.0036362787   0.032827147    7.6154751      11.423201      15.230935      1324.9863    
        53   0             -638.16794      1.3564487      309.84869     -252.77879     -53.000554     -8.5011396      9.5107405      88.795051      7.6154751      11.423201      15.230935      1324.9863    
        54   0             -638.19961      14.632876      1250.3858     -993.46954     -213.0176      -33.866124      37.683098      347.10077      7.6154751      11.423201      15.230935      1324.9863    
        55   0             -638.2494       37.924126      2775.4694     -2200.4767     -461.22035     -77.408667      85.216388      770.35816      7.6154751      11.423201      15.230935      1324.9863    
        56   0             -638.31351      72.684138      4826.2432     -3842.4017     -765.78917     -141.09603      153.0377       1351.1994      7.6154751      11.423201      15.230935      1324.9863    
        57   0             -638.38749      119.56255      7324.1673     -5881.4887     -1083.991      -227.48126      242.43978      2082.0941      7.6154751      11.423201      15.230935      1324.9863    
        58   0             -638.46968      171.5933       10208.755     -8307.7893     -1386.1855     -340.28496      356.078        2969.6965      7.6154751      11.423201      15.230935      1324.9863    
        59   0             -638.58332      160.1975       13627.267     -11328.147     -1818.5277     -486.08617      501.49964      4114.1172      7.6154751      11.423201      15.230935      1324.9863    
        60   0             -638.83774     -289.62542      17755.019     -15352.198     -3271.6977     -612.09617      642.89371      5663.4586      7.6154751      11.423201      15.230935      1324.9863    
        61   0             -639.08306     -907.8822       20723.202     -18788.7       -4658.1487     -612.73859      679.30631      6804.9125      7.6154751      11.423201      15.230935      1324.9863    
        62   0             -639.33924     -1586.4925      24196.197     -23221.702     -5733.9729     -599.11958      706.54854      8169.5393      7.6154751      11.423201      15.230935      1324.9863    
        63   0             -639.61892     -2388.6662      28286.975     -28691.494     -6761.4795     -561.57152      697.54047      9790.773       7.6154751      11.423201      15.230935      1324.9863    
        64   0             -639.90441     -3305.8521      32681.197     -34570.941     -8027.8127     -482.05384      599.46797      11466.401      7.6154751      11.423201      15.230935      1324.9863    
        65   0             -640.19247     -4341.8759      37245.384     -40487.072     -9783.9394     -345.53781      362.56873      13036.816      7.6154751      11.423201      15.230935      1324.9863    
        66   0             -640.49449     -5525.9539      41971.965     -46437.466     -12112.36      -135.36626     -56.670087      14428.389      7.6154751      11.423201      15.230935      1324.9863    
        67   0             -640.82136     -6877.5582      46653.171     -52405.051     -14880.795      168.80243     -689.40375      15569.366      7.6154751      11.423201      15.230935      1324.9863    
        68   0             -641.18243     -8409.4847      50800.789     -58252.982     -17776.261      593.22696     -1546.6328      16390.393      7.6154751      11.423201      15.230935      1324.9863    
        69   0             -641.57036     -10069.553      53561.881     -63481.261     -20289.279      1149.8339     -2575.4759      16813.325      7.6154751      11.423201      15.230935      1324.9863    
        70   0             -641.94866     -11691.902      54218.151     -67374.776     -21919.081      1794.0167     -3617.8475      16830.79       7.6154751      11.423201      15.230935      1324.9863    
        71   0             -642.31918     -13289.647      52790.859     -69933.233     -22726.567      2517.106      -4623.9114      16540.119      7.6154751      11.423201      15.230935      1324.9863    
        72   0             -642.68356     -14884.101      49401.271     -71262.225     -22791.348      3308.7887     -5562.0007      16014.335      7.6154751      11.423201      15.230935      1324.9863    
        73   0             -643.04401     -16503.636      44166.121     -71462.378     -22214.652      4160.4754     -6412.1798      15304.493      7.6154751      11.423201      15.230935      1324.9863    
        74   0             -643.40238     -18180.001      37163.316     -70643.623     -21059.695      5062.7901     -7154.0815      14454.466      7.6154751      11.423201      15.230935      1324.9863    
        75   0             -643.72833     -19787.497      29267.081     -69076.314     -19553.259      5920.3633     -7701.6324      13601.409      7.6154751      11.423201      15.230935      1324.9863    
        76   0             -644.0104      -21268.487      21302.413     -66858.436     -18249.438      6676.821      -8054.9674      12819.517      7.6154751      11.423201      15.230935      1324.9863    
        77   0             -644.25857     -22667.4        13463.06      -64071.996     -17393.265      7340.3427     -8262.7568      12095.646      7.6154751      11.423201      15.230935      1324.9863    
        78   0             -644.48009     -24026.478      5813.0208     -60854.927     -17037.527      7922.4975     -8352.597       11425.129      7.6154751      11.423201      15.230935      1324.9863    
        79   0             -644.68031     -25389.635     -1178.3881     -57649.358     -17341.158      8445.5901     -8334.908       10783.795      7.6154751      11.423201      15.230935      1324.9863    
        80   0             -644.86856     -26842.618     -7405.221      -54453.758     -18668.875      8908.1091     -8233.4225      10164.738      7.6154751      11.423201      15.230935      1324.9863    
        81   0             -645.06285     -28591.692     -13300.878     -51397.558     -21076.639      9266.5103     -8020.4067      9608.914       7.6154751      11.423201      15.230935      1324.9863    
        82   0             -645.28348     -30825.084     -17387.304     -50725.026     -24362.923      9410.4931     -7659.5654      9178.1268      7.6154751      11.423201      15.230935      1324.9863    
        83   0             -645.5071      -33157.744     -20326.895     -51711.424     -27434.913      9243.3768     -7205.2476      8600.8844      7.6154751      11.423201      15.230935      1324.9863    
        84   0             -645.74865     -35608.208     -22198.711     -55157.771     -29468.143      8907.7076     -6588.7592      7743.3405      7.6154751      11.423201      15.230935      1324.9863    
        85   0             -646.01272     -38193.944     -23883.777     -59850.803     -30847.252      8403.5873     -5838.84        6822.9817      7.6154751      11.423201      15.230935      1324.9863    
        86   0             -646.30286     -40967.99      -25971.037     -65192.273     -31740.661      7751.0316     -5011.225       5841.9958      7.6154751      11.423201      15.230935      1324.9863    
        87   0             -646.60445     -43815.369     -28239.02      -70870.218     -32336.868      7023.7077     -4192.2141      4897.1759      7.6154751      11.423201      15.230935      1324.9863    
        88   0             -646.90866     -46675.631     -30457.381     -76800.991     -32768.522      6294.1359     -3433.7136      4078.4222      7.6154751      11.423201      15.230935      1324.9863    
        89   0             -647.21506     -49560.986     -32615.43      -83014.1       -33053.427      5605.2082     -2754.8879      3452.5207      7.6154751      11.423201      15.230935      1324.9863    
        90   0             -647.52276     -52470.333     -34753.679     -89177.286     -33480.033      4971.7146     -2167.757       3009.8865      7.6154751      11.423201      15.230935      1324.9863    
        91   0             -647.83093     -55392.405     -36864.651     -95331.867     -33980.697      4402.9699     -1675.5811      2699.662       7.6154751      11.423201      15.230935      1324.9863    
        92   0             -648.13894     -58320.898     -38922.171     -101471.89     -34568.63       3895.4388     -1277.0623      2502.6934      7.6154751      11.423201      15.230935      1324.9863    
        93   0             -648.44625     -61250.094     -40898.349     -107676.54     -35175.389      3446.5794     -966.72976      2401.5598      7.6154751      11.423201      15.230935      1324.9863    
        94   0             -648.75198     -64175.776     -42775.066     -114244.34     -35507.925      3064.26       -733.49879      2324.1675      7.6154751      11.423201      15.230935      1324.9863    
        95   0             -649.05521     -67096.817     -44524.595     -120671.3      -36094.555      2727.929      -566.66381      2273.9029      7.6154751      11.423201      15.230935      1324.9863    
        96   0             -649.35574     -70000.984     -46125.434     -126962.81     -36914.706      2428.1786     -456.36146      2287.1638      7.6154751      11.423201      15.230935      1324.9863    
        97   0             -649.65341     -72880.879     -47571.978     -133201.03     -37869.625      2157.9964     -393.21187      2368.7183      7.6154751      11.423201      15.230935      1324.9863    
        98   0             -649.94802     -75731.884     -48863.229     -139406.83     -38925.594      1909.8895     -368.01495      2509.3641      7.6154751      11.423201      15.230935      1324.9863    
        99   0             -650.23943     -78550.013     -50000.06      -145586.19     -40063.792      1677.4171     -371.81188      2697.8975      7.6154751      11.423201      15.230935      1324.9863    
       100   0             -650.52751     -81331.506     -51068.937     -151745.47     -41180.112      1434.3064     -395.87822      2922.9332      7.6154751      11.423201      15.230935      1324.9863    
       101   0             -650.81406     -84093.511     -52000.533     -158030.65     -42249.35       1141.8279     -432.14306      3199.274       7.6154751      11.423201      15.230935      1324.9863    
       102   0             -651.09646     -86822.452     -52098.921     -164994        -43374.436      780.75982     -475.05003      3694.8647      7.6154751      11.423201      15.230935      1324.9863    
       103   0             -651.3706      -89502.255     -52481.244     -171597.9      -44427.624      330.00464     -520.68489      4333.3212      7.6154751      11.423201      15.230935      1324.9863    
       104   0             -651.64232     -92185.687     -52665.841     -178241.25     -45649.971     -181.13695     -561.69971      5031.7568      7.6154751      11.423201      15.230935      1324.9863    
       105   0             -651.9052      -94811.902     -52831.912     -184854.9      -46748.894     -758.31233     -594.53935      5749.3073      7.6154751      11.423201      15.230935      1324.9863    
       106   0             -652.15696     -97372.747     -53070.172     -191426.5      -47621.568     -1471.4391     -617.25648      6466.7485      7.6154751      11.423201      15.230935      1324.9863    
       107   0             -652.39476     -99847.533     -52652.01      -198080.86     -48809.73      -2267.271      -630.07394      7105.5075      7.6154751      11.423201      15.230935      1324.9863    
       108   0             -652.61182     -102197.49     -50829.484     -205246.21     -50516.763     -3042.1828     -635.10529      7375.2738      7.6154751      11.423201      15.230935      1324.9863    
       109   0             -652.80613     -104407.76     -49423.873     -211486.67     -52312.726     -3774.4653     -632.00403      7321.7837      7.6154751      11.423201      15.230935      1324.9863    
       110   0             -652.97653     -106425.61     -47663.058     -217356.72     -54257.052     -4473.0575     -639.97792      7226.3685      7.6154751      11.423201      15.230935      1324.9863    
       111   0             -653.12593     -108258.09     -45559.388     -222845.15     -56369.725     -5128.2957     -654.21737      6992.0975      7.6154751      11.423201      15.230935      1324.9863    
       112   0             -653.25762     -109893.09     -43342.633     -227764.76     -58571.884     -5808.7553     -674.62658      6619.6334      7.6154751      11.423201      15.230935      1324.9863    
       113   0             -653.37929     -111319.94     -39538.376     -232111.77     -62309.69      -6423.8087     -718.63507      5996.7947      7.6154751      11.423201      15.230935      1324.9863    
       114   0             -653.47287     -112240.54     -37235.867     -234855.97     -64629.773     -6824.2204     -772.41104      5241.8448      7.6154751      11.423201      15.230935      1324.9863    
       115   0             -653.55031     -112888.98     -31287.734     -238155.78     -69223.437     -7004.9749     -802.46051      3991.8954      7.6154751      11.423201      15.230935      1324.9863    
       116   0             -653.62534     -113420.25     -31154.008     -239109.91     -69996.838     -7111.4111     -864.23944      2898.5787      7.6154751      11.423201      15.230935      1324.9863    
       117   0             -653.71299     -113963.6      -25638.119     -242187.29     -74065.392     -7091.6757     -881.19717      1600.1078      7.6154751      11.423201      15.230935      1324.9863    
       118   0             -653.80382     -114430.29     -25317.451     -242338.46     -75634.972     -7079.8401     -899.90617      601.47018      7.6154751      11.423201      15.230935      1324.9863    
       119   0             -653.90554     -114917.65     -21633.656     -244783.47     -78335.816     -6962.6489     -864.33338     -447.38871      7.6154751      11.423201      15.230935      1324.9863    
       120   0             -654.01288     -115374.63     -21156.525     -244618.02     -80349.355     -6842.0459     -815.31236     -1213.3565      7.6154751      11.423201      15.230935      1324.9863    
       121   0             -654.12961     -115868.49     -18345.934     -246931.44     -82328.089     -6638.9713     -721.66835     -1892.9476      7.6154751      11.423201      15.230935      1324.9863    
       122   0             -654.24587     -116321.84     -17811.111     -247060.98     -84093.432     -6419.3273     -639.19154     -2237.3144      7.6154751      11.423201      15.230935      1324.9863    
       123   0             -654.36354     -116778.18     -16270.715     -248653.75     -85410.067     -6165.7333     -555.01467     -2337.2886      7.6154751      11.423201      15.230935      1324.9863    
       124   0             -654.4823      -117218.57     -15313.552     -249378.3      -86963.854     -5908.6164     -486.06        -2237.3495      7.6154751      11.423201      15.230935      1324.9863    
       125   0             -654.60198     -117646.24     -14430.664     -250279.57     -88228.486     -5634.1268     -423.51607     -2045.6226      7.6154751      11.423201      15.230935      1324.9863    
       126   0             -654.72264     -118060.54     -13712.765     -251026.2      -89442.643     -5344.0893     -367.49343     -1816.9731      7.6154751      11.423201      15.230935      1324.9863    
       127   0             -654.84459     -118464.14     -13139.703     -251736.61     -90516.111     -5039.0008     -313.61162     -1587.1913      7.6154751      11.423201      15.230935      1324.9863    
       128   0             -654.96799     -118857.79     -12699.666     -252460.13     -91413.587     -4726.5225     -263.00218     -1411.3209      7.6154751      11.423201      15.230935      1324.9863    
       129   0             -655.09321     -119242.52     -12422.428     -253268.28     -92036.844     -4411.5545     -218.1845      -1358.7614      7.6154751      11.423201      15.230935      1324.9863    
       130   0             -655.22047     -119619.02     -12338.925     -253975.68     -92542.444     -4081.783      -177.10038     -1425.0877      7.6154751      11.423201      15.230935      1324.9863    
       131   0             -655.34971     -119987.05     -12516.156     -254581.72     -92863.283     -3751.7821     -136.97481     -1606.5959      7.6154751      11.423201      15.230935      1324.9863    
       132   0             -655.48011     -120347.35     -12871.929     -255095.68     -93074.457     -3424.2887     -97.784712     -1905.4497      7.6154751      11.423201      15.230935      1324.9863    
       133   0             -655.61135     -120700.28     -13300.61      -255501.24     -93298.972     -3096.6346     -64.70975      -2330.3784      7.6154751      11.423201      15.230935      1324.9863    
       134   0             -655.74374     -121046.54     -13852.554     -255794.87     -93492.188     -2779.0164     -42.421315     -2900.5619      7.6154751      11.423201      15.230935      1324.9863    
       135   0             -655.87742     -121387.24     -14546.171     -255975.02     -93640.519     -2479.3918     -34.755285     -3629.2556      7.6154751      11.423201      15.230935      1324.9863    
       136   0             -656.01246     -121723.64     -15381.78      -256040.4      -93748.737     -2203.7912     -45.279166     -4520.7883      7.6154751      11.423201      15.230935      1324.9863    
       137   0             -656.14922     -122057.33     -16333.644     -256341.77     -93496.586     -1987.4051     -57.200124     -5404.3334      7.6154751      11.423201      15.230935      1324.9863    
       138   0             -656.28608     -122385.15     -17230.073     -256869.01     -93056.361     -1804.3785     -65.186464     -6099.8795      7.6154751      11.423201      15.230935      1324.9863    
       139   0             -656.41904     -122700.41     -18035.611     -257334.23     -92731.396     -1618.6614     -78.193156     -6601.3011      7.6154751      11.423201      15.230935      1324.9863    
       140   0             -656.54975     -123007.88     -18800.334     -257730.59     -92492.712     -1430.5158     -98.272968     -6945.0382      7.6154751      11.423201      15.230935      1324.9863    
       141   0             -656.67869     -123310.86     -19539.157     -258041.93     -92351.489     -1238.5615     -126.9371      -7135.5598      7.6154751      11.423201      15.230935      1324.9863    
       142   0             -656.80582     -123611.42     -20257.058     -258256.77     -92320.444     -1041.5254     -165.23747     -7162.4913      7.6154751      11.423201      15.230935      1324.9863    
       143   0             -656.93168     -123910.63     -20640.687     -258706.16     -92385.049     -837.49903     -213.1195      -7151.4243      7.6154751      11.423201      15.230935      1324.9863    
       144   0             -657.05995     -124195.59     -21007.665     -259201.82     -92377.287     -628.25498     -269.65694     -7141.4382      7.6154751      11.423201      15.230935      1324.9863    
       145   0             -657.19093     -124472.13     -21427.724     -259688.53     -92300.145     -416.16581     -333.71954     -7100.7214      7.6154751      11.423201      15.230935      1324.9863    
       146   0             -657.32433     -124746.85     -21909.831     -260168.22     -92162.493     -203.29861     -403.6533      -7001.4466      7.6154751      11.423201      15.230935      1324.9863    
       147   0             -657.46009     -125023.51     -22464.813     -260771.26     -91834.453     -0.50651157    -476.6983      -6872.6796      7.6154751      11.423201      15.230935      1324.9863    
       148   0             -657.59869     -125306.47     -23088.84      -261492.48     -91338.078      191.21461     -551.51867     -6746.208       7.6154751      11.423201      15.230935      1324.9863    
       149   0             -657.74049     -125598.06     -23789.72      -262212.67     -90791.779      376.6701      -627.77354     -6602.8241      7.6154751      11.423201      15.230935      1324.9863    
Loop time of 0.0242119 on 4 procs for 100 steps with 96 atoms

75.2% CPU use with 4 MPI tasks x 1 OpenMP threads

Minimization stats:
  Stopping criterion = max iterations
  Energy initial, next-to-last, final = 
     -638.156815283034  -657.598693070637  -657.740486534432
  Force two-norm initial, final = 0.0022665792 3.4336767
  Force max component initial, final = 0.00032625832 0.82221286
  Final line search alpha, max atom move = 0.012177844 0.01001278
  Iterations, force evaluations = 100 102

MPI task timing breakdown:
Section |  min time  |  avg time  |  max time  |%varavg| %total
---------------------------------------------------------------
Pair    | 0.01483    | 0.015119   | 0.015549   |   0.2 | 62.45
Neigh   | 0          | 0          | 0          |   0.0 |  0.00
Comm    | 0.00077304 | 0.0011741  | 0.0014441  |   0.8 |  4.85
Output  | 0.00075339 | 0.0023569  | 0.0071359  |   5.7 |  9.73
Modify  | 0          | 0          | 0          |   0.0 |  0.00
Other   |            | 0.005562   |            |       | 22.97

Nlocal:             24 ave          26 max          23 min
Histogram: 2 0 0 1 0 0 0 0 0 1
Nghost:            300 ave         301 max         298 min
Histogram: 1 0 0 0 0 0 1 0 0 2
Neighs:            648 ave         707 max         611 min
Histogram: 1 1 0 1 0 0 0 0 0 1
FullNghs:         1296 ave        1404 max        1242 min
Histogram: 2 0 0 1 0 0 0 0 0 1

Total # of neighbors = 5184
Ave neighs/atom = 54
Neighbor list builds = 0
Dangerous builds = 0

# Obtain new stress tensor

variable tmp equal pe
variable e1 equal ${tmp}
variable e1 equal -657.740486534432
variable tmp equal press
variable p1 equal ${tmp}
variable p1 equal -125598.055356934
variable tmp equal pxx
variable pxx1 equal ${tmp}
variable pxx1 equal -23789.7204835297
variable tmp equal pyy
variable pyy1 equal ${tmp}
variable pyy1 equal -262212.666596278
variable tmp equal pzz
variable pzz1 equal ${tmp}
variable pzz1 equal -90791.7789909938
variable tmp equal pxy
variable pxy1 equal ${tmp}
variable pxy1 equal 376.670101977156
variable tmp equal pxz
variable pxz1 equal ${tmp}
variable pxz1 equal -627.773535929986
variable tmp equal pyz
variable pyz1 equal ${tmp}
variable pyz1 equal -6602.82407128255

# Compute elastic constant from pressure tensor

variable C1pos equal ${d1}
variable C1pos equal 2378972.04835328
variable C2pos equal ${d2}
variable C2pos equal 26221266.6596279
variable C3pos equal ${d3}
variable C3pos equal 9079177.8990989
variable C4pos equal ${d4}
variable C4pos equal 660282.407128247
variable C5pos equal ${d5}
variable C5pos equal 62777.3535930007
variable C6pos equal ${d6}
variable C6pos equal -37667.0101977168

# Combine positive and negative

variable C1${dir} equal 0.5*(${C1neg}+${C1pos})
variable C11 equal 0.5*(${C1neg}+${C1pos})
variable C11 equal 0.5*(-2377952.93521774+${C1pos})
variable C11 equal 0.5*(-2377952.93521774+2378972.04835328)
variable C2${dir} equal 0.5*(${C2neg}+${C2pos})
variable C21 equal 0.5*(${C2neg}+${C2pos})
variable C21 equal 0.5*(-26221739.2167184+${C2pos})
variable C21 equal 0.5*(-26221739.2167184+26221266.6596279)
variable C3${dir} equal 0.5*(${C3neg}+${C3pos})
variable C31 equal 0.5*(${C3neg}+${C3pos})
variable C31 equal 0.5*(-9079280.20213179+${C3pos})
variable C31 equal 0.5*(-9079280.20213179+9079177.8990989)
variable C4${dir} equal 0.5*(${C4neg}+${C4pos})
variable C41 equal 0.5*(${C4neg}+${C4pos})
variable C41 equal 0.5*(-660487.11397451+${C4pos})
variable C41 equal 0.5*(-660487.11397451+660282.407128247)
variable C5${dir} equal 0.5*(${C5neg}+${C5pos})
variable C51 equal 0.5*(${C5neg}+${C5pos})
variable C51 equal 0.5*(-62923.5265659274+${C5pos})
variable C51 equal 0.5*(-62923.5265659274+62777.3535930007)
variable C6${dir} equal 0.5*(${C6neg}+${C6pos})
variable C61 equal 0.5*(${C6neg}+${C6pos})
variable C61 equal 0.5*(37787.5378836162+${C6pos})
variable C61 equal 0.5*(37787.5378836162+-37667.0101977168)

# Delete dir to make sure it is not reused

variable dir delete

# uyy Perturbation

variable dir equal 2
include displace.mod
# NOTE: This script should not need to be
# modified. See in.elastic for more info.
#
# Find which reference length to use

if "${dir} == 1" then    "variable len0 equal ${lx0}"
if "${dir} == 2" then    "variable len0 equal ${ly0}"
variable len0 equal ${ly0}
variable len0 equal 11.4232012560152
if "${dir} == 3" then    "variable len0 equal ${lz0}"
if "${dir} == 4" then    "variable len0 equal ${lz0}"
if "${dir} == 5" then    "variable len0 equal ${lz0}"
if "${dir} == 6" then    "variable len0 equal ${ly0}"

# Reset box and simulation parameters

clear
OMP_NUM_THREADS environment is not set. Defaulting to 1 thread. (src/comm.cpp:98)
  using 1 OpenMP thread(s) per MPI task
box tilt large

The 'box' command has been removed and will be ignored

read_restart restart.equil
Reading restart file ...
  restart file = 2 Aug 2023, LAMMPS = 2 Aug 2023
  restoring atom style atomic from restart
  triclinic box = (0.017738248 0.026607372 0.035476496) to (7.6332058 11.449809 15.266412) with tilt (0 0 0)
  1 by 2 by 2 MPI processor grid
  pair style meam stores no restart info
  96 atoms
  read_restart CPU = 0.002 seconds
include potential.mod
# NOTE: This script can be modified for different pair styles
# See in.elastic for more info.

# Choose potential
pair_style meam
pair_coeff * * ./../library.meam XX ./../XX.meam XX

# Setup neighbor style
neighbor 1.0 nsq
neigh_modify once no every 1 delay 0 check yes

# Setup minimization style
min_style	     cg
min_modify	     dmax ${dmax} line quadratic
min_modify	     dmax 0.01 line quadratic

# Setup output
thermo		1
thermo_style custom step temp pe press pxx pyy pzz pxy pxz pyz lx ly lz vol
thermo_modify norm no

# Negative deformation

variable delta equal -${up}*${len0}
variable delta equal -1e-06*${len0}
variable delta equal -1e-06*11.4232012560152
variable deltaxy equal -${up}*xy
variable deltaxy equal -1e-06*xy
variable deltaxz equal -${up}*xz
variable deltaxz equal -1e-06*xz
variable deltayz equal -${up}*yz
variable deltayz equal -1e-06*yz
if "${dir} == 1" then    "change_box all x delta 0 ${delta} xy delta ${deltaxy} xz delta ${deltaxz} remap units box"
if "${dir} == 2" then    "change_box all y delta 0 ${delta} yz delta ${deltayz} remap units box"
change_box all y delta 0 ${delta} yz delta ${deltayz} remap units box
change_box all y delta 0 -1.14232012560152e-05 yz delta ${deltayz} remap units box
change_box all y delta 0 -1.14232012560152e-05 yz delta -0 remap units box
Changing box ...
  triclinic box = (0.017738248 0.026607372 0.035476496) to (7.6332058 11.449797 15.266412) with tilt (0 0 0)
  triclinic box = (0.017738248 0.026607372 0.035476496) to (7.6332058 11.449797 15.266412) with tilt (0 0 0)
if "${dir} == 3" then    "change_box all z delta 0 ${delta} remap units box"
if "${dir} == 4" then    "change_box all yz delta ${delta} remap units box"
if "${dir} == 5" then    "change_box all xz delta ${delta} remap units box"
if "${dir} == 6" then    "change_box all xy delta ${delta} remap units box"

# Relax atoms positions

minimize ${etol} ${ftol} ${maxiter} ${maxeval}
minimize 0 ${ftol} ${maxiter} ${maxeval}
minimize 0 1e-10 ${maxiter} ${maxeval}
minimize 0 1e-10 100 ${maxeval}
minimize 0 1e-10 100 1000
Neighbor list info ...
  update: every = 1 steps, delay = 0 steps, check = yes
  max neighbors/atom: 2000, page size: 100000
  master list distance cutoff = 5.5
  ghost atom cutoff = 5.5
  2 neighbor lists, perpetual/occasional/extra = 2 0 0
  (1) pair meam, perpetual
      attributes: full, newton on
      pair build: full/nsq
      stencil: none
      bin: none
  (2) pair meam, perpetual, half/full from (1)
      attributes: half, newton on
      pair build: halffull/newton
      stencil: none
      bin: none
Per MPI rank memory allocation (min/avg/max) = 9.764 | 9.765 | 9.767 Mbytes
[...]
       110   0             -652.97679     -106425.58     -47672.092     -217353.97     -54250.667     -4473.8084     -639.93329      7229.1666      7.6154675      11.423201      15.230935      1324.985     
       111   0             -653.1262      -108258.28     -45565.946     -222844.91     -56363.972     -5129.3461     -654.0835       6994.1899      7.6154675      11.423201      15.230935      1324.985     
       112   0             -653.25789     -109893.38     -43345.7       -227764.78     -58569.677     -5810.241      -674.44672      6620.993       7.6154675      11.423201      15.230935      1324.985     
       113   0             -653.37959     -111320.39     -39534.966     -232115.47     -62310.729     -6425.2774     -718.47816      5996.8312      7.6154675      11.423201      15.230935      1324.985     
       114   0             -653.47313     -112240.06     -37232.681     -234853.68     -64633.819     -6825.4861     -772.18574      5240.6518      7.6154675      11.423201      15.230935      1324.985     
       115   0             -653.55053     -112887.86     -31282         -238163.22     -69218.347     -7005.367      -802.19613      3989.5209      7.6154675      11.423201      15.230935      1324.985     
       116   0             -653.62562     -113419.28     -31153.17      -239099.14     -70005.518     -7112.2677     -863.98666      2896.8882      7.6154675      11.423201      15.230935      1324.985     
       117   0             -653.71333     -113962.82     -25636.035     -242195.57     -74056.867     -7092.3618     -880.74924      1596.786       7.6154675      11.423201      15.230935      1324.985     
       118   0             -653.80418     -114429.31     -25312.771     -242331.1      -75644.072     -7080.368      -899.34882      598.72576      7.6154675      11.423201      15.230935      1324.985     
       119   0             -653.90592     -114916.69     -21632.885     -244790.58     -78326.616     -6963.3575     -863.46515     -450.36715      7.6154675      11.423201      15.230935      1324.985     
       120   0             -654.01325     -115373.37     -21159.41      -244605.94     -80354.751     -6842.8118     -814.39371     -1215.3142      7.6154675      11.423201      15.230935      1324.985     
       121   0             -654.13005     -115867.57     -18341.052     -246946.86     -82314.795     -6639.6013     -720.37406     -1894.7313      7.6154675      11.423201      15.230935      1324.985     
       122   0             -654.24628     -116320.55     -17821.575     -247046.57     -84093.497     -6420.3944     -638.0029      -2238.2161      7.6154675      11.423201      15.230935      1324.985     
       123   0             -654.36395     -116777        -16268.97      -248663.86     -85398.173     -6166.6464     -553.61211     -2338.2002      7.6154675      11.423201      15.230935      1324.985     
       124   0             -654.48279     -117217.53     -15320.379     -249375.21     -86956.989     -5909.4793     -484.64576     -2238.2751      7.6154675      11.423201      15.230935      1324.985     
       125   0             -654.60262     -117645.67     -14434.613     -250283.92     -88218.488     -5634.5142     -421.91346     -2046.5708      7.6154675      11.423201      15.230935      1324.985     
       126   0             -654.72341     -118060.28     -13717.954     -251028.77     -89434.124     -5344.0846     -365.80754     -1817.7784      7.6154675      11.423201      15.230935      1324.985     
       127   0             -654.84545     -118464.12     -13144.993     -251740.86     -90506.494     -5038.5819     -311.83976     -1587.9829      7.6154675      11.423201      15.230935      1324.985     
       128   0             -654.96893     -118857.89     -12705.57      -252463.94     -91404.175     -4725.6794     -261.18129     -1412.1379      7.6154675      11.423201      15.230935      1324.985     
       129   0             -655.0942      -119242.68     -12428.681     -253272.2      -92027.157     -4410.3398     -216.34449     -1359.7893      7.6154675      11.423201      15.230935      1324.985     
       130   0             -655.22151     -119619.2      -12345.683     -253979.25     -92532.67      -4080.2301     -175.28272     -1426.5419      7.6154675      11.423201      15.230935      1324.985     
       131   0             -655.35079     -119987.25     -12523.805     -254584.76     -92853.185     -3749.9683     -135.2159      -1608.7389      7.6154675      11.423201      15.230935      1324.985     
       132   0             -655.48121     -120347.54     -12879.334     -255097.83     -93065.45      -3422.1874     -96.15954      -1908.5047      7.6154675      11.423201      15.230935      1324.985     
       133   0             -655.61248     -120700.45     -13308.342     -255502.25     -93290.752     -3094.3433     -63.287912     -2334.6949      7.6154675      11.423201      15.230935      1324.985     
       134   0             -655.7449      -121046.7      -13860.895     -255794.48     -93484.735     -2776.6269     -41.260793     -2906.4572      7.6154675      11.423201      15.230935      1324.985     
       135   0             -655.87861     -121387.4      -14555.249     -255972.96     -93633.99      -2476.9925     -33.907988     -3636.9887      7.6154675      11.423201      15.230935      1324.985     
       136   0             -656.01368     -121723.82     -15391.625     -256036.46     -93743.364     -2201.4634     -44.786638     -4530.5318      7.6154675      11.423201      15.230935      1324.985     
       137   0             -656.1505      -122057.54     -16343.524     -256343.94     -93485.15      -1985.8856     -56.633852     -5412.3149      7.6154675      11.423201      15.230935      1324.985     
       138   0             -656.2873      -122385.18     -17237.331     -256869.93     -93048.287     -1802.6781     -64.743258     -6105.0843      7.6154675      11.423201      15.230935      1324.985     
       139   0             -656.42024     -122700.34     -18041.358     -257334        -92725.671     -1616.8352     -77.876111     -6604.4569      7.6154675      11.423201      15.230935      1324.985     
       140   0             -656.55093     -123007.73     -18804.871     -257728.85     -92489.484     -1428.5889     -98.090689     -6946.3077      7.6154675      11.423201      15.230935      1324.985     
       141   0             -656.67986     -123310.65     -19542.606     -258038.49     -92350.853     -1236.5533     -126.88933     -7134.8791      7.6154675      11.423201      15.230935      1324.985     
       142   0             -656.80697     -123611.16     -20259.502     -258251.5      -92322.47      -1039.4597     -165.3252      -7159.7355      7.6154675      11.423201      15.230935      1324.985     
       143   0             -656.93283     -123910.3      -20639.545     -258702.71     -92388.641     -835.38962     -213.32451     -7148.1195      7.6154675      11.423201      15.230935      1324.985     
       144   0             -657.06112     -124195.04     -21006.321     -259197.15     -92381.646     -626.16622     -269.97174     -7137.6237      7.6154675      11.423201      15.230935      1324.985     
       145   0             -657.19212     -124471.45     -21426.275     -259682.68     -92305.395     -414.14463     -334.1335      -7096.0056      7.6154675      11.423201      15.230935      1324.985     
       146   0             -657.32552     -124746.09     -21908.318     -260161.3      -92168.639     -201.38546     -404.15536     -6995.622       7.6154675      11.423201      15.230935      1324.985     
       147   0             -657.4613      -125022.69     -22463.043     -260774.55     -91830.487      0.52122692    -477.2056      -6869.5564      7.6154675      11.423201      15.230935      1324.985     
       148   0             -657.59994     -125305.8      -23085.589     -261495.4      -91336.409      192.04384     -552.12914     -6745.5923      7.6154675      11.423201      15.230935      1324.985     
       149   0             -657.74177     -125597.47     -23785.275     -262215.49     -90791.65       377.23003     -628.49266     -6603.6974      7.6154675      11.423201      15.230935      1324.985     
Loop time of 0.0237828 on 4 procs for 100 steps with 96 atoms

80.9% CPU use with 4 MPI tasks x 1 OpenMP threads

Minimization stats:
  Stopping criterion = max iterations
  Energy initial, next-to-last, final = 
     -638.156815288077   -657.59993788186  -657.741767423536
  Force two-norm initial, final = 0.0022665879 3.4341408
  Force max component initial, final = 0.00032626668 0.82223329
  Final line search alpha, max atom move = 0.012177646 0.010012866
  Iterations, force evaluations = 100 102

MPI task timing breakdown:
Section |  min time  |  avg time  |  max time  |%varavg| %total
---------------------------------------------------------------
Pair    | 0.014871   | 0.015236   | 0.015672   |   0.2 | 64.06
Neigh   | 0          | 0          | 0          |   0.0 |  0.00
Comm    | 0.00091291 | 0.0013404  | 0.0017014  |   0.8 |  5.64
Output  | 0.00079262 | 0.0022309  | 0.0065262  |   5.3 |  9.38
Modify  | 0          | 0          | 0          |   0.0 |  0.00
Other   |            | 0.004975   |            |       | 20.92

Nlocal:             24 ave          26 max          23 min
Histogram: 2 0 0 1 0 0 0 0 0 1
Nghost:            300 ave         301 max         298 min
Histogram: 1 0 0 0 0 0 1 0 0 2
Neighs:            648 ave         707 max         611 min
Histogram: 1 1 0 1 0 0 0 0 0 1
FullNghs:         1296 ave        1404 max        1242 min
Histogram: 2 0 0 1 0 0 0 0 0 1

Total # of neighbors = 5184
Ave neighs/atom = 54
Neighbor list builds = 0
Dangerous builds = 0

# Obtain new stress tensor

variable tmp equal pe
variable e1 equal ${tmp}
variable e1 equal -657.741767423536
variable tmp equal press
variable p1 equal ${tmp}
variable p1 equal -125597.472287773
variable tmp equal pxx
variable pxx1 equal ${tmp}
variable pxx1 equal -23785.2750803712
variable tmp equal pyy
variable pyy1 equal ${tmp}
variable pyy1 equal -262215.491446889
variable tmp equal pzz
variable pzz1 equal ${tmp}
variable pzz1 equal -90791.6503360603
variable tmp equal pxy
variable pxy1 equal ${tmp}
variable pxy1 equal 377.230025825031
variable tmp equal pxz
variable pxz1 equal ${tmp}
variable pxz1 equal -628.492657546059
variable tmp equal pyz
variable pyz1 equal ${tmp}
variable pyz1 equal -6603.69744839276

# Compute elastic constant from pressure tensor

variable C1pos equal ${d1}
variable C1pos equal 2378527.50803743
variable C2pos equal ${d2}
variable C2pos equal 26221549.144689
variable C3pos equal ${d3}
variable C3pos equal 9079165.03360555
variable C4pos equal ${d4}
variable C4pos equal 660369.744839268
variable C5pos equal ${d5}
variable C5pos equal 62849.265754608
variable C6pos equal ${d6}
variable C6pos equal -37723.0025825043

# Combine positive and negative

variable C1${dir} equal 0.5*(${C1neg}+${C1pos})
variable C16 equal 0.5*(${C1neg}+${C1pos})
variable C16 equal 0.5*(-2378469.72794234+${C1pos})
variable C16 equal 0.5*(-2378469.72794234+2378527.50803743)
variable C2${dir} equal 0.5*(${C2neg}+${C2pos})
variable C26 equal 0.5*(${C2neg}+${C2pos})
variable C26 equal 0.5*(-26221523.2049341+${C2pos})
variable C26 equal 0.5*(-26221523.2049341+26221549.144689)
variable C3${dir} equal 0.5*(${C3neg}+${C3pos})
variable C36 equal 0.5*(${C3neg}+${C3pos})
variable C36 equal 0.5*(-9079235.77498496+${C3pos})
variable C36 equal 0.5*(-9079235.77498496+9079165.03360555)
variable C4${dir} equal 0.5*(${C4neg}+${C4pos})
variable C46 equal 0.5*(${C4neg}+${C4pos})
variable C46 equal 0.5*(-660381.338848999+${C4pos})
variable C46 equal 0.5*(-660381.338848999+660369.744839268)
variable C5${dir} equal 0.5*(${C5neg}+${C5pos})
variable C56 equal 0.5*(${C5neg}+${C5pos})
variable C56 equal 0.5*(-62858.0035847856+${C5pos})
variable C56 equal 0.5*(-62858.0035847856+62849.265754608)
variable C6${dir} equal 0.5*(${C6neg}+${C6pos})
variable C66 equal 0.5*(${C6neg}+${C6pos})
variable C66 equal 0.5*(37749.0837666321+${C6pos})
variable C66 equal 0.5*(37749.0837666321+-37723.0025825043)

# Delete dir to make sure it is not reused

variable dir delete

# Output final values

variable C11all equal ${C11}
variable C11all equal 509.556567769963
variable C22all equal ${C22}
variable C22all equal 331.852930851281
variable C33all equal ${C33}
variable C33all equal 340.572479929775

variable C12all equal 0.5*(${C12}+${C21})
variable C12all equal 0.5*(-9.51873752987012+${C21})
variable C12all equal 0.5*(-9.51873752987012+-236.278545251116)
variable C13all equal 0.5*(${C13}+${C31})
variable C13all equal 0.5*(293.114084365079+${C31})
variable C13all equal 0.5*(293.114084365079+-51.1515164449811)
variable C23all equal 0.5*(${C23}+${C32})
variable C23all equal 0.5*(371.021247500554+${C32})
variable C23all equal 0.5*(371.021247500554+441.48996246513)

variable C44all equal ${C44}
variable C44all equal -86.4509146515047
variable C55all equal ${C55}
variable C55all equal 41.4709043132498
variable C66all equal ${C66}
variable C66all equal 13.0405920639023

variable C14all equal 0.5*(${C14}+${C41})
variable C14all equal 0.5*(-54.866592005128+${C41})
variable C14all equal 0.5*(-54.866592005128+-102.353423131513)
variable C15all equal 0.5*(${C15}+${C51})
variable C15all equal 0.5*(-33.7117674301844+${C51})
variable C15all equal 0.5*(-33.7117674301844+-73.0864864633513)
variable C16all equal 0.5*(${C16}+${C61})
variable C16all equal 0.5*(28.8900475448463+${C61})
variable C16all equal 0.5*(28.8900475448463+60.2638429496983)

variable C24all equal 0.5*(${C24}+${C42})
variable C24all equal 0.5*(-63.0967678502202+${C42})
variable C24all equal 0.5*(-63.0967678502202+44.7936661145068)
variable C25all equal 0.5*(${C25}+${C52})
variable C25all equal 0.5*(25.3113018013537+${C52})
variable C25all equal 0.5*(25.3113018013537+-24.7798116146005)
variable C26all equal 0.5*(${C26}+${C62})
variable C26all equal 0.5*(12.9698774497956+${C62})
variable C26all equal 0.5*(12.9698774497956+20.7597196401985)

variable C34all equal 0.5*(${C34}+${C43})
variable C34all equal 0.5*(26.4448166750371+${C43})
variable C34all equal 0.5*(26.4448166750371+62.675481979968)
variable C35all equal 0.5*(${C35}+${C53})
variable C35all equal 0.5*(79.7659898856655+${C53})
variable C35all equal 0.5*(79.7659898856655+98.8558456618994)
variable C36all equal 0.5*(${C36}+${C63})
variable C36all equal 0.5*(-35.3706897050142+${C63})
variable C36all equal 0.5*(-35.3706897050142+-77.9814430984989)

variable C45all equal 0.5*(${C45}+${C54})
variable C45all equal 0.5*(20.7179418909946+${C54})
variable C45all equal 0.5*(20.7179418909946+3.11196806075168)
variable C46all equal 0.5*(${C46}+${C64})
variable C46all equal 0.5*(-5.79700486548245+${C64})
variable C46all equal 0.5*(-5.79700486548245+0.63706693244967)
variable C56all equal 0.5*(${C56}+${C65})
variable C56all equal 0.5*(-4.36891508879853+${C65})
variable C56all equal 0.5*(-4.36891508879853+15.7269861402492)

# Average moduli for cubic crystals

variable C11cubic equal (${C11all}+${C22all}+${C33all})/3.0
variable C11cubic equal (509.556567769963+${C22all}+${C33all})/3.0
variable C11cubic equal (509.556567769963+331.852930851281+${C33all})/3.0
variable C11cubic equal (509.556567769963+331.852930851281+340.572479929775)/3.0
variable C12cubic equal (${C12all}+${C13all}+${C23all})/3.0
variable C12cubic equal (-122.898641390493+${C13all}+${C23all})/3.0
variable C12cubic equal (-122.898641390493+120.981283960049+${C23all})/3.0
variable C12cubic equal (-122.898641390493+120.981283960049+406.255604982842)/3.0
variable C44cubic equal (${C44all}+${C55all}+${C66all})/3.0
variable C44cubic equal (-86.4509146515047+${C55all}+${C66all})/3.0
variable C44cubic equal (-86.4509146515047+41.4709043132498+${C66all})/3.0
variable C44cubic equal (-86.4509146515047+41.4709043132498+13.0405920639023)/3.0

variable bulkmodulus equal (${C11cubic}+2*${C12cubic})/3.0
variable bulkmodulus equal (393.99399285034+2*${C12cubic})/3.0
variable bulkmodulus equal (393.99399285034+2*134.779415850799)/3.0
variable shearmodulus1 equal ${C44cubic}
variable shearmodulus1 equal -10.6464727581175
variable shearmodulus2 equal (${C11cubic}-${C12cubic})/2.0
variable shearmodulus2 equal (393.99399285034-${C12cubic})/2.0
variable shearmodulus2 equal (393.99399285034-134.779415850799)/2.0
variable poissonratio equal 1.0/(1.0+${C11cubic}/${C12cubic})
variable poissonratio equal 1.0/(1.0+393.99399285034/${C12cubic})
variable poissonratio equal 1.0/(1.0+393.99399285034/134.779415850799)

# For Stillinger-Weber silicon, the analytical results
# are known to be (E. R. Cowley, 1988):
#               C11 = 151.4 GPa
#               C12 = 76.4 GPa
#               C44 = 56.4 GPa

print "========================================="
=========================================
print "Components of the Elastic Constant Tensor"
Components of the Elastic Constant Tensor
print "========================================="
=========================================

print "Elastic Constant C11all = ${C11all} ${cunits}"
Elastic Constant C11all = 509.556567769963 GPa
print "Elastic Constant C22all = ${C22all} ${cunits}"
Elastic Constant C22all = 331.852930851281 GPa
print "Elastic Constant C33all = ${C33all} ${cunits}"
Elastic Constant C33all = 340.572479929775 GPa

print "Elastic Constant C12all = ${C12all} ${cunits}"
Elastic Constant C12all = -122.898641390493 GPa
print "Elastic Constant C13all = ${C13all} ${cunits}"
Elastic Constant C13all = 120.981283960049 GPa
print "Elastic Constant C23all = ${C23all} ${cunits}"
Elastic Constant C23all = 406.255604982842 GPa

print "Elastic Constant C44all = ${C44all} ${cunits}"
Elastic Constant C44all = -86.4509146515047 GPa
print "Elastic Constant C55all = ${C55all} ${cunits}"
Elastic Constant C55all = 41.4709043132498 GPa
print "Elastic Constant C66all = ${C66all} ${cunits}"
Elastic Constant C66all = 13.0405920639023 GPa

print "Elastic Constant C14all = ${C14all} ${cunits}"
Elastic Constant C14all = -78.6100075683205 GPa
print "Elastic Constant C15all = ${C15all} ${cunits}"
Elastic Constant C15all = -53.3991269467679 GPa
print "Elastic Constant C16all = ${C16all} ${cunits}"
Elastic Constant C16all = 44.5769452472723 GPa

print "Elastic Constant C24all = ${C24all} ${cunits}"
Elastic Constant C24all = -9.1515508678567 GPa
print "Elastic Constant C25all = ${C25all} ${cunits}"
Elastic Constant C25all = 0.2657450933766 GPa
print "Elastic Constant C26all = ${C26all} ${cunits}"
Elastic Constant C26all = 16.8647985449971 GPa

print "Elastic Constant C34all = ${C34all} ${cunits}"
Elastic Constant C34all = 44.5601493275026 GPa
print "Elastic Constant C35all = ${C35all} ${cunits}"
Elastic Constant C35all = 89.3109177737824 GPa
print "Elastic Constant C36all = ${C36all} ${cunits}"
Elastic Constant C36all = -56.6760664017566 GPa

print "Elastic Constant C45all = ${C45all} ${cunits}"
Elastic Constant C45all = 11.9149549758731 GPa
print "Elastic Constant C46all = ${C46all} ${cunits}"
Elastic Constant C46all = -2.57996896651639 GPa
print "Elastic Constant C56all = ${C56all} ${cunits}"
Elastic Constant C56all = 5.67903552572534 GPa

print "========================================="
=========================================
print "Average properties for a cubic crystal"
Average properties for a cubic crystal
print "========================================="
=========================================

print "Bulk Modulus = ${bulkmodulus} ${cunits}"
Bulk Modulus = 221.184274850646 GPa
print "Shear Modulus 1 = ${shearmodulus1} ${cunits}"
Shear Modulus 1 = -10.6464727581175 GPa
print "Shear Modulus 2 = ${shearmodulus2} ${cunits}"
Shear Modulus 2 = 129.607288499771 GPa
print "Poisson Ratio = ${poissonratio}"
Poisson Ratio = 0.254890684049084
Total wall time: 0:00:00
