LAMMPS data file via write_data, version 22 Dec 2022, timestep = 925

9 atoms
2 atom types

0.34008605200685565 4.687695997993144 xlo xhi
0.2945231605112761 4.059663819488694 ylo yhi
0.37330715916167845 5.145610840838327 zlo zhi
-2.1738049729931253 0 0 xy xz yz

Masses

1 28.085
2 15.999

Atoms # atomic

6 2 0.6533941821821725 1.812494103310893 1.5884725934012929 0 0 0
9 2 1.5511025700683279 1.234445587325935 4.12430665983859 0 0 0
5 2 -0.650668892361141 2.7081091193504157 3.4620470759598585 0 0 0
2 1 0.19967013920378546 3.952193414378422 3.333975252782967 0 -1 0
8 2 2.9300000367778316 0.6629912653212919 1.9792239270857692 0 0 0
3 1 3.5560746479554326 2.0358785649928293 2.1062301309947675 -1 0 0
7 2 2.761504720003663 2.9308165325058946 1.2038766195836579 0 0 0
1 1 1.5607708078903626 2.450758132295832 0.39599541624165424 0 0 0
4 2 1.367951121307086 3.68872502000588 4.254851483273736 0 0 0

Velocities

6 0 0 0
9 0 0 0
5 0 0 0
2 0 0 0
8 0 0 0
3 0 0 0
7 0 0 0
1 0 0 0
4 0 0 0
