LAMMPS data file via write_data, version 22 Dec 2022, timestep = 501

9 atoms
2 atom types

1.1751018818427177 3.8526801681572835 xlo xhi
1.0176680817127095 3.336518898287299 ylo yhi
1.2898910221328348 4.229026977867172 zlo zhi
-1.3387891431572796 0 0 xy xz yz

Masses

1 28.085
2 15.999

Atoms # atomic

6 2 1.6675545254137187 1.5415833261841692 2.12103951499106 0 0 0
3 1 0.57685388650431 2.0538640051739407 2.2696030073724542 0 0 0
9 2 1.3825994711977825 1.7061022034451554 3.3978784850068315 0 0 0
2 1 2.371597872520786 1.017668081715129 3.249314992625596 0 0 0
7 2 0.32876538225401786 2.812603653822099 1.438454514521005 1 0 0
4 2 3.1527299352392903 1.1821869589742346 4.080463485479642 0 1 0
8 2 1.813940792078543 3.172000021022024 2.4181664997628842 0 -1 0
1 1 1.9156430296557656 2.300322974820822 1.2898910221347673 0 0 0
5 2 2.721388614349333 2.648084776555203 3.1007515002385655 -1 0 0

Velocities

6 0 0 0
3 0 0 0
9 0 0 0
2 0 0 0
7 0 0 0
4 0 0 0
8 0 0 0
1 0 0 0
5 0 0 0
