LAMMPS (22 Dec 2022)
  using 1 OpenMP thread(s) per MPI task
Loaded 1 plugins from C:\Program Files\LAMMPS 64-bit 23Jun2022\plugins
Loaded 0 plugins from C:\Program Files\LAMMPS 64-bit 23Jun2022-MPI\plugins
Loaded 1 plugins from C:\Program Files\LAMMPS 64-bit 22Dec2022-MSMPI\plugins
Loaded 1 plugins from C:\Program Files\LAMMPS 64-bit 28Mar2023-MPI\plugins
# Compute elastic constant tensor for a crystal
#
# Written by Aidan Thompson (Sandia, athomps@sandia.gov)
#
#  This script uses the following three include files.
#
#   init.mod      (must be modified for different crystal structures)
# 	       	  Define units, deformation parameters and initial
#		  configuration of the atoms and simulation cell.
#
#
#   potential.mod    (must be modified for different pair styles)
# 		     Define pair style and other attributes
#		     not stored in restart file
#
#
#   displace.mod    (displace.mod should not need to be modified)
# 		    Perform positive and negative box displacements
# 		    in direction ${dir} and size ${up}.
# 		    It uses the resultant changes
#		    in stress to compute one
# 		    row of the elastic stiffness tensor
#
#		    Inputs variables:
#		    	   dir = the Voigt deformation component
#		    		    (1,2,3,4,5,6)
#		    Global constants:
#       	    	   up = the deformation magnitude (strain units)
#       		   cfac = conversion from LAMMPS pressure units to
#               	   output units for elastic constants
#
#
#  To run this on a different system, it should only be necessary to
#  modify the files init.mod and potential.mod. In order to calculate
#  the elastic constants correctly, care must be taken to specify
#  the correct units in init.mod (units, cfac and cunits). It is also
#  important to verify that the minimization of energy w.r.t atom
#  positions in the deformed cell is fully converged.
#  One indication of this is that the elastic constants are insensitive
#  to the choice of the variable ${up} in init.mod. Another is to check
#  the final max and two-norm forces reported in the log file. If you know
#  that minimization is not required, you can set maxiter = 0.0 in
#  init.mod.
#

include init.mod
# NOTE: This script can be modified for different atomic structures,
# units, etc. See in.elastic for more info.
#

# Define the finite deformation size. Try several values of this
# variable to verify that results do not depend on it.
variable up equal 1.0e-6

# Define the amount of random jiggle for atoms
# This prevents atoms from staying on saddle points
variable atomjiggle equal 1.0e-5

# Uncomment one of these blocks, depending on what units
# you are using in LAMMPS and for output

# metal units, elastic constants in eV/A^3
#units		metal
#variable cfac equal 6.2414e-7
#variable cunits string eV/A^3

# metal units, elastic constants in GPa
units		metal
variable cfac equal 1.0e-4
variable cunits string GPa

# real units, elastic constants in GPa
#units		real
#variable cfac equal 1.01325e-4
#variable cunits string GPa

# Define minimization parameters
variable etol equal 0.0
variable ftol equal 1.0e-10
variable maxiter equal 100
variable maxeval equal 1000
variable dmax equal 1.0e-2

# generate the box and atom positions using a diamond lattice

dimension    3
boundary     p p p
read_data    data.in
Reading data file ...
  triclinic box = (1.1751019 1.0176681 1.289891) to (3.8526802 3.3365189 4.229027) with tilt (-1.3387891 0 0)
WARNING: Triclinic box skew is large. LAMMPS will run inefficiently. (src/domain.cpp:220)
  1 by 2 by 2 MPI processor grid
  reading atoms ...
  9 atoms
  reading velocities ...
  9 velocities
  read_data CPU = 0.001 seconds
replicate    2 3 4
Replication is creating a 2x3x4 = 24 times larger system...
  triclinic box = (1.1751019 1.0176681 1.289891) to (6.5302585 7.9742205 13.046435) with tilt (-4.0163674 0 0)
WARNING: Triclinic box skew is large. LAMMPS will run inefficiently. (src/domain.cpp:220)
  1 by 2 by 2 MPI processor grid
  216 atoms
  replicate CPU = 0.000 seconds
change_box   all triclinic
Changing box ...
WARNING: Triclinic box skew is large. LAMMPS will run inefficiently. (src/domain.cpp:220)
  triclinic box = (1.1751019 1.0176681 1.289891) to (6.5302585 7.9742205 13.046435) with tilt (-4.0163674 0 0)

# Need to set mass to something, just to satisfy LAMMPS
mass 1 1.0e-20

include potential.mod
# NOTE: This script can be modified for different pair styles
# See in.elastic for more info.

# Choose potential
#-----------------------
#pair_style	sw
#pair_coeff * * Si.sw Si
#-----------------------
#pair_style morse	2.83994742	# D0[eV] a[1/A] r0[A] rc[A], 1NN for BCC
#pair_coeff 1 1	2.1173	1.0202	2.4595	2.6497	#	Fe-Fe
#-----------------------
#pair_style smatb # R0(A)   p       q     A(eV)   xi(eV)  Rcs(A)   Rc(A), 4NN: Rcs=4NN, Rc=(4NN+5NN)/2
#pair_coeff 1 1	2.4802	7.0149	2.3779	0.3144	3.0551	4.033	4.176	#	Co	Co
#-----------------------
#pair_style eam/alloy
#pair_coeff * * AlCrFeCoNi_Zhou04.eam.alloy Fe
#-----------------------
pair_style meam
#pair_coeff * * ./../../library.meam Si O Au ./../../SiOAu.meam Si
#pair_coeff * * ./../../library.meam Si O Au ./../../SiOAu.meam Au
pair_coeff * * ./../../library.meam Si O Au ./../../SiOAu.meam Si O
#-----------------------

# Setup neighbor style
neighbor 1.0 nsq
neigh_modify once no every 1 delay 0 check yes

# Setup minimization style
min_style	     cg
min_modify	     dmax ${dmax} line quadratic
min_modify	     dmax 0.01 line quadratic

# Setup output
thermo		1
thermo_style custom step temp pe press pxx pyy pzz pxy pxz pyz lx ly lz vol
thermo_modify norm no

# Compute initial state
fix 3 all box/relax  aniso 0.0
minimize ${etol} ${ftol} ${maxiter} ${maxeval}
minimize 0 ${ftol} ${maxiter} ${maxeval}
minimize 0 1e-10 ${maxiter} ${maxeval}
minimize 0 1e-10 100 ${maxeval}
minimize 0 1e-10 100 1000
Neighbor list info ...
  update: every = 1 steps, delay = 0 steps, check = yes
  max neighbors/atom: 2000, page size: 100000
  master list distance cutoff = 5.5
  ghost atom cutoff = 5.5
  2 neighbor lists, perpetual/occasional/extra = 2 0 0
  (1) pair meam, perpetual
      attributes: full, newton on
      pair build: full/nsq
      stencil: none
      bin: none
  (2) pair meam, perpetual, half/full from (1)
      attributes: half, newton on
      pair build: halffull/newton
      stencil: none
      bin: none
Per MPI rank memory allocation (min/avg/max) = 10.52 | 10.53 | 10.54 Mbytes
   Step          Temp          PotEng         Press           Pxx            Pyy            Pzz            Pxy            Pxz            Pyz             Lx             Ly             Lz           Volume    
         0   0             -6448.873       0.0080582334  -11554818      -11554818       23109636       0.0017140422  -0.0051370661   0.0057219333   5.3551566      6.9565524      11.756544      437.97155    
         1   0             -6449.8187     -10979.179     -11521008      -11521008       23009079       0.0017187101  -0.0051345925   0.0057175383   5.3548888      6.9562046      11.757719      437.97155    
         2   0             -6450.7612     -21919.972     -11487184      -11487184       22908608       0.001723405   -0.0051320781   0.0057125241   5.3546206      6.9558562      11.758895      437.97147    
         3   0             -6451.7005     -32822.347     -11453345      -11453345       22808223       0.0017280685  -0.0051298392   0.0057080475   5.354352       6.9555073      11.760071      437.97132    
         4   0             -6452.6366     -43686.283     -11419492      -11419492       22707925       0.0017326359  -0.0051270504   0.0057031663   5.354083       6.9551578      11.761246      437.97108    
         5   0             -6453.5694     -54511.758     -11385624      -11385624       22607714       0.0017372709  -0.0051249164   0.0056983273   5.3538135      6.9548078      11.762422      437.97078    
         6   0             -6454.4991     -65298.749     -11351743      -11351743       22507590       0.0017418938  -0.0051223324   0.0056936678   5.3535436      6.9544572      11.763598      437.97039    
         7   0             -6455.4255     -76047.235     -11317848      -11317848       22407555       0.0017462816  -0.0051197061   0.0056892238   5.3532733      6.954106       11.764773      437.96993    
         8   0             -6456.3487     -86757.193     -11283940      -11283940       22307609       0.0017506447  -0.0051170308   0.005684496    5.3530025      6.9537543      11.765949      437.96938    
         9   0             -6457.2688     -97428.6       -11250019      -11250019       22207751       0.0017550415  -0.0051146359   0.0056801434   5.3527313      6.953402       11.767125      437.96876    
        10   0             -6458.1856     -108061.43     -11216084      -11216084       22107984       0.0017592348  -0.0051121421   0.0056753415   5.3524597      6.9530491      11.7683        437.96806    
        11   0             -6459.0992     -118655.67     -11182137      -11182137       22008306       0.0017635399  -0.0051098538   0.005670521    5.3521876      6.9526956      11.769476      437.96728    
        12   0             -6460.0096     -129211.29     -11148177      -11148177       21908719       0.0017677206  -0.00510741     0.0056655659   5.351915       6.9523416      11.770652      437.96643    
        13   0             -6460.9168     -139728.29     -11114204      -11114204       21809223       0.0017719423  -0.0051047792   0.0056601669   5.3516421      6.951987       11.771827      437.96549    
        14   0             -6461.8208     -150206.63     -11080219      -11080219       21709819       0.0017761886  -0.0051024604   0.0056547048   5.3513686      6.9516317      11.773003      437.96447    
        15   0             -6462.7217     -160646.28     -11046222      -11046222       21610506       0.001780218   -0.0050997965   0.0056499912   5.3510947      6.951276       11.774179      437.96337    
        16   0             -6463.6193     -171047.23     -11012214      -11012214       21511286       0.0017843003  -0.0050975112   0.0056443548   5.3508204      6.9509196      11.775354      437.96219    
        17   0             -6464.5138     -181409.45     -10978193      -10978193       21412158       0.0017882639  -0.0050949474   0.0056392992   5.3505456      6.9505626      11.77653       437.96093    
        18   0             -6465.4051     -191732.91     -10944161      -10944161       21313124       0.0017925191  -0.0050926523   0.0056337398   5.3502703      6.950205       11.777706      437.95958    
        19   0             -6466.2932     -202017.58     -10910118      -10910118       21214183       0.0017964535  -0.0050893051   0.0056291321   5.3499946      6.9498468      11.778881      437.95815    
        20   0             -6467.1781     -212263.46     -10876064      -10876064       21115337       0.0018002702  -0.0050861501   0.0056240476   5.3497184      6.949488       11.780057      437.95664    
        21   0             -6468.0598     -222470.51     -10841998      -10841998       21016585       0.0018042086  -0.005083447    0.0056188451   5.3494417      6.9491286      11.781233      437.95505    
        22   0             -6468.9384     -232638.71     -10807922      -10807922       20917927       0.0018079279  -0.0050814651   0.0056130922   5.3491646      6.9487686      11.782408      437.95337    
        23   0             -6469.8138     -242768.04     -10773835      -10773834       20819365       0.001811606   -0.0050786724   0.0056080749   5.348887       6.948408       11.783584      437.95161    
        24   0             -6470.686      -252858.46     -10739737      -10739737       20720898       0.0018153476  -0.0050754797   0.0056031742   5.3486089      6.9480467      11.78476       437.94976    
        25   0             -6471.5551     -262909.91     -10705629      -10705629       20622527       0.0018190456  -0.0050728685   0.0055981672   5.3483303      6.9476849      11.785935      437.94783    
        26   0             -6472.421      -272922.38     -10671510      -10671510       20524253       0.0018224603  -0.0050702251   0.0055931796   5.3480513      6.9473224      11.787111      437.94581    
        27   0             -6473.2837     -282895.87     -10637381      -10637381       20426075       0.0018259876  -0.0050678155   0.0055889293   5.3477717      6.9469592      11.788286      437.94371    
        28   0             -6474.1433     -292830.35     -10603243      -10603243       20327994       0.0018294838  -0.0050648979   0.005584326    5.3474917      6.9465955      11.789462      437.94152    
        29   0             -6474.9998     -302725.81     -10569094      -10569094       20230011       0.0018331176  -0.0050621376   0.0055788604   5.3472112      6.9462311      11.790638      437.93924    
        30   0             -6475.853      -312582.21     -10534936      -10534936       20132125       0.0018366961  -0.0050596311   0.0055740193   5.3469302      6.9458661      11.791813      437.93688    
        31   0             -6476.7032     -322399.53     -10500768      -10500768       20034337       0.0018398441  -0.0050565733   0.0055681789   5.3466487      6.9455004      11.792989      437.93442    
        32   0             -6477.5502     -332177.75     -10466590      -10466590       19936647       0.001843163   -0.0050537395   0.0055631644   5.3463667      6.945134       11.794165      437.93188    
        33   0             -6478.394      -341916.86     -10432403      -10432403       19839056       0.0018463701  -0.0050509914   0.0055576631   5.3460842      6.9447671      11.79534       437.92925    
        34   0             -6479.2347     -351616.81     -10398207      -10398207       19741563       0.0018496583  -0.0050478584   0.0055529444   5.3458012      6.9443994      11.796516      437.92653    
        35   0             -6480.0723     -361277.59     -10364001      -10364001       19644170       0.001853045   -0.0050453486   0.0055477218   5.3455176      6.9440311      11.797692      437.92372    
        36   0             -6480.9067     -370899.16     -10329787      -10329787       19546876       0.0018563199  -0.0050426436   0.0055426675   5.3452336      6.9436621      11.798867      437.92082    
        37   0             -6481.738      -380481.49     -10295563      -10295563       19449682       0.0018592583  -0.0050401142   0.0055368253   5.3449491      6.9432925      11.800043      437.91783    
        38   0             -6482.5662     -390024.56     -10261331      -10261331       19352588       0.0018623676  -0.0050371      0.0055319849   5.344664       6.9429222      11.801219      437.91474    
        39   0             -6483.3912     -399528.34     -10227090      -10227090       19255594       0.0018653401  -0.0050340569   0.0055267604   5.3443784      6.9425512      11.802394      437.91156    
        40   0             -6484.2132     -408992.79     -10192840      -10192840       19158701       0.0018681966  -0.005030885    0.0055219842   5.3440923      6.9421795      11.80357       437.9083     
        41   0             -6485.032      -418417.89     -10158581      -10158581       19061909       0.0018712549  -0.0050279621   0.0055166243   5.3438057      6.9418072      11.804746      437.90493    
        42   0             -6485.8477     -427803.6      -10124314      -10124314       18965217       0.0018742063  -0.005025155    0.005511572    5.3435185      6.9414341      11.805921      437.90148    
        43   0             -6486.6602     -437149.89     -10090039      -10090039       18868628       0.0018770126  -0.0050231376   0.0055064563   5.3432308      6.9410604      11.807097      437.89793    
        44   0             -6487.4697     -446456.74     -10055755      -10055755       18772139       0.0018797294  -0.0050206055   0.0055014657   5.3429426      6.940686       11.808273      437.89428    
        45   0             -6488.2761     -455724.1      -10021462      -10021462       18675753       0.0018825017  -0.0050181543   0.0054964238   5.3426538      6.9403108      11.809448      437.89054    
        46   0             -6489.0793     -464951.95     -9987162       -9987162        18579468       0.0018853883  -0.0050151151   0.0054907009   5.3423644      6.939935       11.810624      437.8867     
        47   0             -6489.8795     -474140.26     -9952853.3     -9952853.3      18483286       0.0018879419  -0.005012087    0.0054852694   5.3420746      6.9395584      11.8118        437.88276    
        48   0             -6490.6765     -483288.98     -9918536.5     -9918536.4      18387206       0.0018905275  -0.0050087887   0.0054798985   5.3417841      6.9391811      11.812975      437.87873    
        49   0             -6491.4705     -492398.09     -9884211.5     -9884211.5      18291229       0.001892943   -0.0050056129   0.0054746743   5.3414932      6.9388031      11.814151      437.8746     
        50   0             -6492.2614     -501467.55     -9849878.5     -9849878.5      18195354       0.0018956086  -0.005003014    0.0054693036   5.3412016      6.9384244      11.815327      437.87037    
        51   0             -6493.0492     -510497.33     -9815537.6     -9815537.6      18099583       0.0018980126  -0.0049997089   0.0054640314   5.3409095      6.938045       11.816502      437.86605    
        52   0             -6493.8339     -519487.38     -9781188.6     -9781188.6      18003915       0.0019004121  -0.0049969357   0.0054588876   5.3406168      6.9376648      11.817678      437.86162    
        53   0             -6494.6155     -528437.68     -9746831.7     -9746831.7      17908350       0.0019028612  -0.0049939057   0.0054539188   5.3403236      6.9372838      11.818854      437.85709    
        54   0             -6495.394      -537348.19     -9712466.9     -9712466.9      17812889       0.0019049546  -0.0049908768   0.0054486933   5.3400298      6.9369022      11.820029      437.85246    
        55   0             -6496.1695     -546218.87     -9678094.2     -9678094.2      17717532       0.0019072949  -0.0049880287   0.005443236    5.3397354      6.9365197      11.821205      437.84773    
        56   0             -6496.9419     -555049.67     -9643713.7     -9643713.7      17622278       0.0019095374  -0.0049851833   0.0054378268   5.3394404      6.9361365      11.82238       437.8429     
        57   0             -6497.7112     -563840.57     -9609325.3     -9609325.3      17527129       0.0019117047  -0.0049817733   0.0054334393   5.3391448      6.9357526      11.823556      437.83796    
        58   0             -6498.4775     -572591.52     -9574929.1     -9574929.1      17432084       0.001913796   -0.0049789185   0.0054286752   5.3388487      6.9353679      11.824732      437.83292    
        59   0             -6499.2407     -581302.49     -9540525       -9540525        17337143       0.0019159136  -0.0049761797   0.0054237193   5.3385519      6.9349824      11.825907      437.82777    
        60   0             -6500.0008     -589973.42     -9506113.1     -9506113.1      17242306       0.0019178919  -0.0049729877   0.0054181596   5.3382546      6.9345961      11.827083      437.82252    
        61   0             -6500.7579     -598604.29     -9471693.4     -9471693.4      17147574       0.001919939   -0.0049701313   0.0054128191   5.3379566      6.934209       11.828259      437.81716    
        62   0             -6501.5119     -607195.05     -9437265.9     -9437265.9      17052947       0.0019217752  -0.0049671979   0.0054079034   5.337658       6.9338212      11.829434      437.8117     
        63   0             -6502.2629     -615745.65     -9402830.4     -9402830.4      16958424       0.001923552   -0.0049645302   0.0054032547   5.3373589      6.9334326      11.83061       437.80613    
        64   0             -6503.0109     -624256.05     -9368387.1     -9368387.1      16864006       0.0019253893  -0.0049611697   0.0053978679   5.3370591      6.9330431      11.831786      437.80045    
        65   0             -6503.7558     -632726.21     -9333935.9     -9333935.9      16769693       0.0019269491  -0.0049582879   0.0053927489   5.3367587      6.9326529      11.832961      437.79466    
        66   0             -6504.4976     -641156.09     -9299476.8     -9299476.8      16675485       0.0019286851  -0.0049554456   0.0053880564   5.3364576      6.9322618      11.834137      437.78877    
        67   0             -6505.2365     -649545.63     -9265009.8     -9265009.8      16581383       0.0019302668  -0.0049520636   0.0053832279   5.336156       6.9318699      11.835313      437.78276    
        68   0             -6505.9723     -657894.79     -9230534.7     -9230534.7      16487385       0.0019318674  -0.0049490739   0.0053783656   5.3358537      6.9314772      11.836488      437.77664    
        69   0             -6506.705      -666203.56     -9196051.6     -9196051.6      16393493       0.001933352   -0.0049457957   0.00537349     5.3355507      6.9310837      11.837664      437.77041    
        70   0             -6507.4348     -674471.92     -9161560.5     -9161560.5      16299705       0.0019348255  -0.0049426253   0.0053685091   5.3352471      6.9306893      11.83884       437.76407    
        71   0             -6508.1615     -682699.79     -9127061.2     -9127061.2      16206023       0.0019363611  -0.0049393295   0.0053637841   5.3349429      6.9302941      11.840015      437.75761    
        72   0             -6508.8852     -690887.12     -9092553.8     -9092553.8      16112446       0.001937442   -0.004935975    0.0053584026   5.334638       6.929898       11.841191      437.75104    
        73   0             -6509.6059     -699033.86     -9058038.1     -9058038.1      16018975       0.0019385518  -0.0049325885   0.0053537866   5.3343325      6.9295011      11.842367      437.74435    
        74   0             -6510.3236     -707139.96     -9023514.1     -9023514.1      15925608       0.0019397329  -0.0049295976   0.00534847     5.3340262      6.9291033      11.843542      437.73755    
        75   0             -6511.0383     -715205.37     -8988981.7     -8988981.7      15832347       0.0019409154  -0.0049265113   0.0053436602   5.3337194      6.9287047      11.844718      437.73063    
        76   0             -6511.75       -723230.04     -8954440.8     -8954440.8      15739191       0.0019422008  -0.0049236319   0.005338947    5.3334118      6.9283052      11.845894      437.72359    
        77   0             -6512.4587     -731213.89     -8919891.4     -8919891.4      15646141       0.0019433211  -0.004920559    0.0053345268   5.3331036      6.9279048      11.847069      437.71643    
        78   0             -6513.1644     -739156.89     -8885333.3     -8885333.3      15553196       0.0019442614  -0.004917578    0.0053296322   5.3327947      6.9275035      11.848245      437.70916    
        79   0             -6513.8671     -747058.98     -8850766.5     -8850766.5      15460356       0.0019452731  -0.0049139425   0.0053241343   5.332485       6.9271013      11.849421      437.70176    
        80   0             -6514.5668     -754920.08     -8816190.8     -8816190.8      15367621       0.0019461121  -0.0049102399   0.0053188487   5.3321747      6.9266982      11.850596      437.69424    
        81   0             -6515.2636     -762740.16     -8781606.2     -8781606.2      15274992       0.0019468611  -0.0049062972   0.0053138823   5.3318637      6.9262941      11.851772      437.6866     
        82   0             -6515.9573     -770519.13     -8747012.6     -8747012.6      15182468       0.0019479252  -0.0049030017   0.0053091291   5.331552       6.9258892      11.852947      437.67884    
        83   0             -6516.6481     -778256.95     -8712409.7     -8712409.7      15090049       0.0019485504  -0.0048991597   0.005304031    5.3312396      6.9254834      11.854123      437.67095    
        84   0             -6517.3359     -785953.55     -8677797.6     -8677797.6      14997735       0.0019493069  -0.0048959882   0.0052988418   5.3309264      6.9250766      11.855299      437.66294    
        85   0             -6518.0208     -793608.86     -8643176       -8643176        14905525       0.0019501006  -0.0048927814   0.0052940489   5.3306125      6.9246688      11.856474      437.6548     
        86   0             -6518.7026     -801222.82     -8608544.8     -8608544.8      14813421       0.0019506236  -0.0048892188   0.0052890342   5.3302979      6.9242601      11.85765       437.64653    
        87   0             -6519.3816     -808795.36     -8573904       -8573904        14721422       0.0019510531  -0.0048858265   0.0052840264   5.3299826      6.9238505      11.858826      437.63814    
        88   0             -6520.0575     -816326.42     -8539253.6     -8539253.6      14629528       0.0019513575  -0.0048820875   0.0052797957   5.3296665      6.9234399      11.860001      437.62961    
        89   0             -6520.7305     -823815.92     -8504593.4     -8504593.4      14537739       0.0019518614  -0.0048785363   0.0052743877   5.3293497      6.9230283      11.861177      437.62096    
        90   0             -6521.4006     -831263.78     -8469923.5     -8469923.5      14446056       0.0019522036  -0.004874919    0.005269491    5.3290321      6.9226157      11.862353      437.61217    
        91   0             -6522.0677     -838669.95     -8435243.9     -8435243.9      14354478       0.0019524515  -0.0048713489   0.0052650185   5.3287137      6.9222022      11.863528      437.60325    
        92   0             -6522.7319     -846034.35     -8400554.4     -8400554.4      14263006       0.0019528141  -0.0048682179   0.0052600239   5.3283946      6.9217876      11.864704      437.5942     
        93   0             -6523.3932     -853356.89     -8365855.1     -8365855.1      14171639       0.001952746   -0.0048645397   0.0052552146   5.3280747      6.921372       11.86588       437.58501    
        94   0             -6524.0515     -860637.51     -8331145.8     -8331145.8      14080379       0.0019529533  -0.0048604682   0.0052496413   5.327754       6.9209554      11.867055      437.57569    
        95   0             -6524.7069     -867876.12     -8296426.5     -8296426.5      13989225       0.0019529231  -0.0048565139   0.005244223    5.3274325      6.9205378      11.868231      437.56623    
        96   0             -6525.3593     -875072.65     -8261697.1     -8261697.1      13898176       0.001952742   -0.0048525325   0.0052392635   5.3271102      6.9201192      11.869407      437.55663    
        97   0             -6526.0089     -882227.01     -8226957.5     -8226957.5      13807234       0.0019526222  -0.0048482795   0.0052343118   5.3267871      6.9196995      11.870582      437.54689    
        98   0             -6526.6555     -889339.12     -8192207.7     -8192207.7      13716398       0.0019525023  -0.0048444291   0.0052289877   5.3264632      6.9192787      11.871758      437.53701    
        99   0             -6527.2992     -896408.9      -8157447.6     -8157447.6      13625668       0.0019522315  -0.0048402879   0.0052237321   5.3261385      6.9188569      11.872934      437.52699    
       100   0             -6527.94       -903436.24     -8122676.9     -8122676.9      13535045       0.0019520312  -0.004836253    0.0052177681   5.325813       6.918434       11.874109      437.51682    
Loop time of 0.099951 on 4 procs for 100 steps with 216 atoms

70.3% CPU use with 4 MPI tasks x 1 OpenMP threads

Minimization stats:
  Stopping criterion = max iterations
  Energy initial, next-to-last, final = 
     -6448.87298120385  -6527.29922824348  -6527.94004599021
  Force two-norm initial, final = 7737.0299 4838.4915
  Force max component initial, final = 6317.2584 3659.5083
  Final line search alpha, max atom move = 2.7141014e-08 9.9322765e-05
  Iterations, force evaluations = 100 100

MPI task timing breakdown:
Section |  min time  |  avg time  |  max time  |%varavg| %total
---------------------------------------------------------------
Pair    | 0.087842   | 0.088964   | 0.090006   |   0.3 | 89.01
Neigh   | 0          | 0          | 0          |   0.0 |  0.00
Comm    | 0.004307   | 0.0053452  | 0.006469   |   1.4 |  5.35
Output  | 0.001051   | 0.0011222  | 0.001327   |   0.4 |  1.12
Modify  | 0          | 0          | 0          |   0.0 |  0.00
Other   |            | 0.00452    |            |       |  4.52

Nlocal:             54 ave          56 max          52 min
Histogram: 2 0 0 0 0 0 0 0 0 2
Nghost:         2102.5 ave        2108 max        2097 min
Histogram: 2 0 0 0 0 0 0 0 0 2
Neighs:           9576 ave        9960 max        9192 min
Histogram: 2 0 0 0 0 0 0 0 0 2
FullNghs:        19152 ave       19864 max       18440 min
Histogram: 2 0 0 0 0 0 0 0 0 2

Total # of neighbors = 76608
Ave neighs/atom = 354.66667
Neighbor list builds = 0
Dangerous builds = 0

variable tmp equal pxx
variable pxx0 equal ${tmp}
variable pxx0 equal -8122676.93214747
variable tmp equal pyy
variable pyy0 equal ${tmp}
variable pyy0 equal -8122676.9316383
variable tmp equal pzz
variable pzz0 equal ${tmp}
variable pzz0 equal 13535045.1334952
variable tmp equal pyz
variable pyz0 equal ${tmp}
variable pyz0 equal 0.00521776814303524
variable tmp equal pxz
variable pxz0 equal ${tmp}
variable pxz0 equal -0.00483625296956647
variable tmp equal pxy
variable pxy0 equal ${tmp}
variable pxy0 equal 0.00195203119726817

variable tmp equal lx
variable lx0 equal ${tmp}
variable lx0 equal 5.32581299122426
variable tmp equal ly
variable ly0 equal ${tmp}
variable ly0 equal 6.91843401932663
variable tmp equal lz
variable lz0 equal ${tmp}
variable lz0 equal 11.8741092611667

# These formulas define the derivatives w.r.t. strain components
# Constants uses $, variables use v_
variable d1 equal -(v_pxx1-${pxx0})/(v_delta/v_len0)*${cfac}
variable d1 equal -(v_pxx1--8122676.93214747)/(v_delta/v_len0)*${cfac}
variable d1 equal -(v_pxx1--8122676.93214747)/(v_delta/v_len0)*0.0001
variable d2 equal -(v_pyy1-${pyy0})/(v_delta/v_len0)*${cfac}
variable d2 equal -(v_pyy1--8122676.9316383)/(v_delta/v_len0)*${cfac}
variable d2 equal -(v_pyy1--8122676.9316383)/(v_delta/v_len0)*0.0001
variable d3 equal -(v_pzz1-${pzz0})/(v_delta/v_len0)*${cfac}
variable d3 equal -(v_pzz1-13535045.1334952)/(v_delta/v_len0)*${cfac}
variable d3 equal -(v_pzz1-13535045.1334952)/(v_delta/v_len0)*0.0001
variable d4 equal -(v_pyz1-${pyz0})/(v_delta/v_len0)*${cfac}
variable d4 equal -(v_pyz1-0.00521776814303524)/(v_delta/v_len0)*${cfac}
variable d4 equal -(v_pyz1-0.00521776814303524)/(v_delta/v_len0)*0.0001
variable d5 equal -(v_pxz1-${pxz0})/(v_delta/v_len0)*${cfac}
variable d5 equal -(v_pxz1--0.00483625296956647)/(v_delta/v_len0)*${cfac}
variable d5 equal -(v_pxz1--0.00483625296956647)/(v_delta/v_len0)*0.0001
variable d6 equal -(v_pxy1-${pxy0})/(v_delta/v_len0)*${cfac}
variable d6 equal -(v_pxy1-0.00195203119726817)/(v_delta/v_len0)*${cfac}
variable d6 equal -(v_pxy1-0.00195203119726817)/(v_delta/v_len0)*0.0001

displace_atoms all random ${atomjiggle} ${atomjiggle} ${atomjiggle} 87287 units box
displace_atoms all random 1e-05 ${atomjiggle} ${atomjiggle} 87287 units box
displace_atoms all random 1e-05 1e-05 ${atomjiggle} 87287 units box
displace_atoms all random 1e-05 1e-05 1e-05 87287 units box
Displacing atoms ...

# Write restart
unfix 3
write_restart restart.equil
System init for write_restart ...

# uxx Perturbation

variable dir equal 1
include displace.mod
# NOTE: This script should not need to be
# modified. See in.elastic for more info.
#
# Find which reference length to use

if "${dir} == 1" then    "variable len0 equal ${lx0}"
variable len0 equal ${lx0}
variable len0 equal 5.32581299122426
if "${dir} == 2" then    "variable len0 equal ${ly0}"
if "${dir} == 3" then    "variable len0 equal ${lz0}"
if "${dir} == 4" then    "variable len0 equal ${lz0}"
if "${dir} == 5" then    "variable len0 equal ${lz0}"
if "${dir} == 6" then    "variable len0 equal ${ly0}"

# Reset box and simulation parameters

clear
  using 1 OpenMP thread(s) per MPI task
Loaded 1 plugins from C:\Program Files\LAMMPS 64-bit 23Jun2022\plugins
Loaded 0 plugins from C:\Program Files\LAMMPS 64-bit 23Jun2022-MPI\plugins
Loaded 1 plugins from C:\Program Files\LAMMPS 64-bit 22Dec2022-MSMPI\plugins
Loaded 1 plugins from C:\Program Files\LAMMPS 64-bit 28Mar2023-MPI\plugins
box tilt large

The 'box' command has been removed and will be ignored

read_restart restart.equil
Reading restart file ...
  restart file = 22 Dec 2022, LAMMPS = 22 Dec 2022
  restoring atom style atomic from restart
  triclinic box = (1.1897737 1.0367273 1.2311083) to (6.5155867 7.9551613 13.105218) with tilt (-3.9943597 0 0)
WARNING: Triclinic box skew is large. LAMMPS will run inefficiently. (src/domain.cpp:220)
  1 by 2 by 2 MPI processor grid
  pair style meam stores no restart info
  216 atoms
  read_restart CPU = 0.000 seconds
include potential.mod
# NOTE: This script can be modified for different pair styles
# See in.elastic for more info.

# Choose potential
#-----------------------
#pair_style	sw
#pair_coeff * * Si.sw Si
#-----------------------
#pair_style morse	2.83994742	# D0[eV] a[1/A] r0[A] rc[A], 1NN for BCC
#pair_coeff 1 1	2.1173	1.0202	2.4595	2.6497	#	Fe-Fe
#-----------------------
#pair_style smatb # R0(A)   p       q     A(eV)   xi(eV)  Rcs(A)   Rc(A), 4NN: Rcs=4NN, Rc=(4NN+5NN)/2
#pair_coeff 1 1	2.4802	7.0149	2.3779	0.3144	3.0551	4.033	4.176	#	Co	Co
#-----------------------
#pair_style eam/alloy
#pair_coeff * * AlCrFeCoNi_Zhou04.eam.alloy Fe
#-----------------------
pair_style meam
#pair_coeff * * ./../../library.meam Si O Au ./../../SiOAu.meam Si
#pair_coeff * * ./../../library.meam Si O Au ./../../SiOAu.meam Au
pair_coeff * * ./../../library.meam Si O Au ./../../SiOAu.meam Si O
#-----------------------

# Setup neighbor style
neighbor 1.0 nsq
neigh_modify once no every 1 delay 0 check yes

# Setup minimization style
min_style	     cg
min_modify	     dmax ${dmax} line quadratic
min_modify	     dmax 0.01 line quadratic

# Setup output
thermo		1
thermo_style custom step temp pe press pxx pyy pzz pxy pxz pyz lx ly lz vol
thermo_modify norm no

# Negative deformation

variable delta equal -${up}*${len0}
variable delta equal -1e-06*${len0}
variable delta equal -1e-06*5.32581299122426
variable deltaxy equal -${up}*xy
variable deltaxy equal -1e-06*xy
variable deltaxz equal -${up}*xz
variable deltaxz equal -1e-06*xz
variable deltayz equal -${up}*yz
variable deltayz equal -1e-06*yz
if "${dir} == 1" then    "change_box all x delta 0 ${delta} xy delta ${deltaxy} xz delta ${deltaxz} remap units box"
change_box all x delta 0 ${delta} xy delta ${deltaxy} xz delta ${deltaxz} remap units box
change_box all x delta 0 -5.32581299122426e-06 xy delta ${deltaxy} xz delta ${deltaxz} remap units box
change_box all x delta 0 -5.32581299122426e-06 xy delta 3.99435974342101e-06 xz delta ${deltaxz} remap units box
change_box all x delta 0 -5.32581299122426e-06 xy delta 3.99435974342101e-06 xz delta -0 remap units box
Changing box ...
WARNING: Triclinic box skew is large. LAMMPS will run inefficiently. (src/domain.cpp:220)
  triclinic box = (1.1897737 1.0367273 1.2311083) to (6.5155813 7.9551613 13.105218) with tilt (-3.9943597 0 0)
WARNING: Triclinic box skew is large. LAMMPS will run inefficiently. (src/domain.cpp:220)
  triclinic box = (1.1897737 1.0367273 1.2311083) to (6.5155813 7.9551613 13.105218) with tilt (-3.9943557 0 0)
WARNING: Triclinic box skew is large. LAMMPS will run inefficiently. (src/domain.cpp:220)
  triclinic box = (1.1897737 1.0367273 1.2311083) to (6.5155813 7.9551613 13.105218) with tilt (-3.9943557 0 0)
if "${dir} == 2" then    "change_box all y delta 0 ${delta} yz delta ${deltayz} remap units box"
if "${dir} == 3" then    "change_box all z delta 0 ${delta} remap units box"
if "${dir} == 4" then    "change_box all yz delta ${delta} remap units box"
if "${dir} == 5" then    "change_box all xz delta ${delta} remap units box"
if "${dir} == 6" then    "change_box all xy delta ${delta} remap units box"

# Relax atoms positions

minimize ${etol} ${ftol} ${maxiter} ${maxeval}
minimize 0 ${ftol} ${maxiter} ${maxeval}
minimize 0 1e-10 ${maxiter} ${maxeval}
minimize 0 1e-10 100 ${maxeval}
minimize 0 1e-10 100 1000
Neighbor list info ...
  update: every = 1 steps, delay = 0 steps, check = yes
  max neighbors/atom: 2000, page size: 100000
  master list distance cutoff = 5.5
  ghost atom cutoff = 5.5
  2 neighbor lists, perpetual/occasional/extra = 2 0 0
  (1) pair meam, perpetual
      attributes: full, newton on
      pair build: full/nsq
      stencil: none
      bin: none
  (2) pair meam, perpetual, half/full from (1)
      attributes: half, newton on
      pair build: halffull/newton
      stencil: none
      bin: none
Per MPI rank memory allocation (min/avg/max) = 10.5 | 10.51 | 10.52 Mbytes
   Step          Temp          PotEng         Press           Pxx            Pyy            Pzz            Pxy            Pxz            Pyz             Lx             Ly             Lz           Volume    
       100   0             -6527.9446     -903289.04     -8121720.6     -8123663        13535516       581.1698       277.54436     -1765.9394      5.3258077      6.918434       11.874109      437.51639    
       101   0             -6531.5088     -930266.62     -8563989.9     -8565438.9      14338629       372.84519     -104.77325      163.72999      5.3258077      6.918434       11.874109      437.51639    
       102   0             -6533.7074     -954353.36     -8881482.2     -8882841.5      14901264       272.3491      -69.960914     -443.16196      5.3258077      6.918434       11.874109      437.51639    
       103   0             -6535.2861     -975399.24     -9135922.4     -9137212.8      15346937       213.82386     -93.475061     -403.96616      5.3258077      6.918434       11.874109      437.51639    
       104   0             -6536.4996     -994004.62     -9349999       -9351249.4      15719235       174.02047     -101.88819     -394.60236      5.3258077      6.918434       11.874109      437.51639    
       105   0             -6537.4712     -1010657.5     -9535339.4     -9536563.5      16039931       145.02142     -104.91124     -383.43299      5.3258077      6.918434       11.874109      437.51639    
       106   0             -6538.2451     -1025630.2     -9724400       -9722319.1      16369828      -2384.7481      436.71111     -16.063014      5.3258077      6.918434       11.874109      437.51639    
       107   0             -6538.4149     -1037345.1     -9927198.8     -9932773.8      16747937       2922.9587     -715.42668     -830.09763      5.3258077      6.918434       11.874109      437.51639    
       108   0             -6538.8855     -1076283       -10315724      -10323894       17410770       4578.2929     -876.91551     -865.86102      5.3258077      6.918434       11.874109      437.51639    
       109   0             -6539.2592     -1077006.2     -10230951      -10231910       17231842      -557.65815      275.72422     -35.298429      5.3258077      6.918434       11.874109      437.51639    
       110   0             -6539.3243     -1038987.7     -10261846      -10267109       17411992       2327.0738     -900.2651      -959.9033       5.3258077      6.918434       11.874109      437.51639    
       111   0             -6539.3325     -1045562.3     -10307321      -10280275       17450909      -18901.644      5311.0346      3746.7811      5.3258077      6.918434       11.874109      437.51639    
       112   0             -6539.3486     -1059206.3     -10308231      -10292523       17423135      -11269.847      5328.8402      3734.2396      5.3258077      6.918434       11.874109      437.51639    
       113   0             -6539.3519     -1057909.9     -10287644      -10287092       17401006      -1348.3224      2050.1304      1229.6362      5.3258077      6.918434       11.874109      437.51639    
       114   0             -6539.3529     -1054432.3     -10272958      -10279633       17389294       3337.5429     -1561.8876     -1531.6551      5.3258077      6.918434       11.874109      437.51639    
       115   0             -6539.3537     -1050911.2     -10275739      -10276878       17399884      -325.59242     -2049.3332     -1894.1158      5.3258077      6.918434       11.874109      437.51639    
       116   0             -6539.3539     -1050778.4     -10274417      -10276641       17398723       377.24205      841.33893      337.45692      5.3258077      6.918434       11.874109      437.51639    
       117   0             -6539.3539     -1050913.5     -10272311      -10273410       17392980      -366.45645      1093.2157      532.55892      5.3258077      6.918434       11.874109      437.51639    
       118   0             -6539.3541     -1051700.8     -10269570      -10271218       17385686      -18.769358     -1000.2796     -1071.0858      5.3258077      6.918434       11.874109      437.51639    
       119   0             -6539.3541     -1051793.6     -10268725      -10270430       17383774       13.957687     -110.28959     -384.33425      5.3258077      6.918434       11.874109      437.51639    
       120   0             -6539.3541     -1051812.1     -10268420      -10270119       17383102       8.2486239      292.87137     -73.532082      5.3258077      6.918434       11.874109      437.51639    
       121   0             -6539.3541     -1051763.9     -10268592      -10270269       17383570      -4.3945874      19.526458     -284.86263      5.3258077      6.918434       11.874109      437.51639    
       122   0             -6539.3541     -1051744.7     -10268556      -10270237       17383559      -0.96500632     10.061815     -292.5777       5.3258077      6.918434       11.874109      437.51639    
       123   0             -6539.3541     -1051514.2     -10268919      -10270597       17384973       4.9952448     -69.894023     -359.67966      5.3258077      6.918434       11.874109      437.51639    
       124   0             -6539.3541     -1051533       -10269183      -10270847       17385431       0.41215217    -10.095953     -314.00874      5.3258077      6.918434       11.874109      437.51639    
       125   0             -6539.3541     -1051601.4     -10269431      -10271089       17385716      -0.61617903     93.20164      -235.43641      5.3258077      6.918434       11.874109      437.51639    
       126   0             -6539.3541     -1051623.8     -10269297      -10270965       17385391       3.0790629      49.490322     -269.42301      5.3258077      6.918434       11.874109      437.51639    
       127   0             -6539.3541     -1051647.9     -10269289      -10270956       17385301       1.6930257     -6.9912498     -312.61492      5.3258077      6.918434       11.874109      437.51639    
       128   0             -6539.3541     -1051665.3     -10269432      -10271091       17385527      -3.4322987     -24.737517     -325.4515       5.3258077      6.918434       11.874109      437.51639    
       129   0             -6539.3541     -1051663.3     -10269329      -10270998       17385336       1.2440631     -3.0644793     -308.70091      5.3258077      6.918434       11.874109      437.51639    
       130   0             -6539.3541     -1051666.1     -10269399      -10271062       17385464      -1.8058996     -0.65697776    -306.40166      5.3258077      6.918434       11.874109      437.51639    
       131   0             -6539.3541     -1051665       -10269328      -10270998       17385332       1.1673607     -0.64547421    -306.40576      5.3258077      6.918434       11.874109      437.51639    
       132   0             -6539.3541     -1051667.1     -10269376      -10271041       17385416      -1.390217       0.066820234   -305.51862      5.3258077      6.918434       11.874109      437.51639    
       133   0             -6539.3541     -1051666.5     -10269326      -10270997       17385323       0.93582278    -0.39366747    -305.92326      5.3258077      6.918434       11.874109      437.51639    
       134   0             -6539.3541     -1051668.2     -10269358      -10271024       17385377      -1.1027193      0.10917813    -305.27922      5.3258077      6.918434       11.874109      437.51639    
       135   0             -6539.3541     -1051667.9     -10269323      -10270994       17385313       0.70026665    -0.2746457     -305.63232      5.3258077      6.918434       11.874109      437.51639    
       136   0             -6539.3541     -1051669.2     -10269342      -10271010       17385345      -0.86052902     0.10170663    -305.15118      5.3258077      6.918434       11.874109      437.51639    
       137   0             -6539.3541     -1051669.2     -10269319      -10270990       17385301       0.50114874    -0.19401417    -305.43081      5.3258077      6.918434       11.874109      437.51639    
       138   0             -6539.3541     -1051670.2     -10269330      -10270998       17385317      -0.58008158     0.064464011   -305.10107      5.3258077      6.918434       11.874109      437.51639    
       139   0             -6539.3541     -1051670.3     -10269317      -10270987       17385293       0.22897578    -0.1119727     -305.26711      5.3258077      6.918434       11.874109      437.51639    
       140   0             -6539.3541     -1051671       -10269307      -10270979       17385273       0.48382105    -0.15435522    -305.25534      5.3258077      6.918434       11.874109      437.51639    
       141   0             -6539.3541     -1051673.1     -10269308      -10270978       17385267      -0.51038802     0.098515041   -304.87354      5.3258077      6.918434       11.874109      437.51639    
       142   0             -6539.3541     -1051673.2     -10269300      -10270971       17385251       0.18743095    -0.059791956   -305.0452       5.3258077      6.918434       11.874109      437.51639    
       143   0             -6539.3541     -1051673.4     -10269297      -10270969       17385246       0.27567066    -0.079666093   -305.06625      5.3258077      6.918434       11.874109      437.51639    
       144   0             -6539.3541     -1051674.1     -10269300      -10270971       17385249      -0.23621582     0.037156833   -304.93775      5.3258077      6.918434       11.874109      437.51639    
       145   0             -6539.3541     -1051674.3     -10269294      -10270965       17385236       0.33042878    -0.090428025   -305.07727      5.3258077      6.918434       11.874109      437.51639    
       146   0             -6539.3541     -1051674.7     -10269299      -10270969       17385243      -0.29340688     0.051942367   -304.92349      5.3258077      6.918434       11.874109      437.51639    
       147   0             -6539.3541     -1051674.9     -10269292      -10270964       17385231       0.40184593    -0.10491089    -305.09553      5.3258077      6.918434       11.874109      437.51639    
       148   0             -6539.3541     -1051675.3     -10269298      -10270968       17385240      -0.41656448     0.081558705   -304.89441      5.3258077      6.918434       11.874109      437.51639    
       149   0             -6539.3541     -1051675.3     -10269294      -10270965       17385233       0.064127047   -0.027110401   -305.01321      5.3258077      6.918434       11.874109      437.51639    
       150   0             -6539.3541     -1051676.9     -10269286      -10270957       17385212       0.37252845    -0.091751696   -305.10126      5.3258077      6.918434       11.874109      437.51639    
       151   0             -6539.3541     -1051678.2     -10269290      -10270960       17385215      -0.27587472     0.059155948   -304.94198      5.3258077      6.918434       11.874109      437.51639    
       152   0             -6539.3541     -1051678.1     -10269285      -10270956       17385207       0.31431535    -0.074648473   -305.09595      5.3258077      6.918434       11.874109      437.51639    
       153   0             -6539.3541     -1051678.3     -10269290      -10270960       17385215      -0.24485318     0.052305245   -304.95493      5.3258077      6.918434       11.874109      437.51639    
       154   0             -6539.3541     -1051678.2     -10269286      -10270958       17385209       0.26533257    -0.063381159   -305.08746      5.3258077      6.918434       11.874109      437.51639    
       155   0             -6539.3541     -1051678.4     -10269290      -10270960       17385215      -0.20955339     0.044447732   -304.96765      5.3258077      6.918434       11.874109      437.51639    
       156   0             -6539.3541     -1051678.3     -10269287      -10270959       17385211       0.21667926    -0.052184506   -305.07821      5.3258077      6.918434       11.874109      437.51639    
       157   0             -6539.3541     -1051678.4     -10269290      -10270961       17385215      -0.16963058     0.035549667   -304.98078      5.3258077      6.918434       11.874109      437.51639    
       158   0             -6539.3541     -1051678.4     -10269288      -10270959       17385212       0.16684509    -0.040712748   -305.06803      5.3258077      6.918434       11.874109      437.51639    
       159   0             -6539.3541     -1051678.5     -10269290      -10270961       17385215      -0.12551623     0.025705936   -304.99442      5.3258077      6.918434       11.874109      437.51639    
       160   0             -6539.3541     -1051678.5     -10269289      -10270960       17385214       0.11641676    -0.029104504   -305.05723      5.3258077      6.918434       11.874109      437.51639    
       161   0             -6539.3541     -1051678.5     -10269290      -10270961       17385215      -0.080350269    0.0156221     -305.00787      5.3258077      6.918434       11.874109      437.51639    
       162   0             -6539.3541     -1051678.5     -10269289      -10270961       17385215       0.069814923   -0.018369258   -305.04703      5.3258077      6.918434       11.874109      437.51639    
       163   0             -6539.3541     -1051678.5     -10269290      -10270961       17385216      -0.041143484    0.00688329    -305.01944      5.3258077      6.918434       11.874109      437.51639    
       164   0             -6539.3541     -1051678.6     -10269290      -10270961       17385215       0.035021026   -0.010322196   -305.03956      5.3258077      6.918434       11.874109      437.51639    
       165   0             -6539.3541     -1051678.6     -10269290      -10270961       17385216      -0.016493352    0.0014392048  -305.02704      5.3258077      6.918434       11.874109      437.51639    
       166   0             -6539.3541     -1051678.6     -10269290      -10270961       17385216      -0.022585279    0.0028664328  -305.02586      5.3258077      6.918434       11.874109      437.51639    
       167   0             -6539.3541     -1051678.6     -10269290      -10270961       17385216       0.023191071   -0.0073925497  -305.03857      5.3258077      6.918434       11.874109      437.51639    
       168   0             -6539.3541     -1051678.7     -10269291      -10270962       17385216       0.04183386    -0.011400587   -305.04506      5.3258077      6.918434       11.874109      437.51639    
       169   0             -6539.3541     -1051678.8     -10269292      -10270962       17385218      -0.030817669    0.0055326446  -305.02988      5.3258077      6.918434       11.874109      437.51639    
       170   0             -6539.3541     -1051678.9     -10269292      -10270963       17385218      -0.048120784    0.0097638393  -305.02765      5.3258077      6.918434       11.874109      437.51639    
       171   0             -6539.3541     -1051679       -10269292      -10270963       17385219       0.039631141   -0.0097191034  -305.05279      5.3258077      6.918434       11.874109      437.51639    
       172   0             -6539.3541     -1051679       -10269292      -10270963       17385219      -0.023427448    0.0046236837  -305.0367       5.3258077      6.918434       11.874109      437.51639    
       173   0             -6539.3541     -1051679       -10269292      -10270963       17385219       0.015652522   -0.0042114579  -305.04666      5.3258077      6.918434       11.874109      437.51639    
       174   0             -6539.3541     -1051679       -10269292      -10270963       17385219      -0.0066176809   0.0008698569  -305.041        5.3258077      6.918434       11.874109      437.51639    
       175   0             -6539.3541     -1051679       -10269292      -10270963       17385219      -0.015519776    0.0029637116  -305.03877      5.3258077      6.918434       11.874109      437.51639    
       176   0             -6539.3541     -1051679       -10269292      -10270963       17385218       0.013735561   -0.0035419271  -305.04635      5.3258077      6.918434       11.874109      437.51639    
       177   0             -6539.3541     -1051679.1     -10269292      -10270963       17385218       0.035024175   -0.0080524086  -305.05221      5.3258077      6.918434       11.874109      437.51639    
       178   0             -6539.3541     -1051679.2     -10269292      -10270963       17385217      -0.026887707    0.0065713971  -305.03749      5.3258077      6.918434       11.874109      437.51639    
       179   0             -6539.3541     -1051679.2     -10269292      -10270963       17385217      -0.035268452    0.0086549487  -305.03578      5.3258077      6.918434       11.874109      437.51639    
       180   0             -6539.3541     -1051679.2     -10269292      -10270963       17385217       0.024926832   -0.0049029155  -305.05181      5.3258077      6.918434       11.874109      437.51639    
       181   0             -6539.3541     -1051679.2     -10269292      -10270963       17385217      -0.014883709    0.0040784224  -305.0419       5.3258077      6.918434       11.874109      437.51639    
       182   0             -6539.3541     -1051679.2     -10269292      -10270963       17385217       0.0077980469  -0.0011131354  -305.04787      5.3258077      6.918434       11.874109      437.51639    
       183   0             -6539.3541     -1051679.2     -10269292      -10270963       17385217      -0.0027911124   0.0012536497  -305.04531      5.3258077      6.918434       11.874109      437.51639    
       184   0             -6539.3541     -1051679.2     -10269292      -10270963       17385218      -0.0061610273   0.0019190823  -305.04481      5.3258077      6.918434       11.874109      437.51639    
       185   0             -6539.3541     -1051679.2     -10269292      -10270963       17385218       0.0026043659  -0.00018541849 -305.04741      5.3258077      6.918434       11.874109      437.51639    
       186   0             -6539.3541     -1051679       -10269293      -10270964       17385220       0.0267968     -0.0070216461  -305.05698      5.3258077      6.918434       11.874109      437.51639    
       187   0             -6539.3541     -1051678.7     -10269294      -10270965       17385224      -0.011303108   -0.00026099537 -305.05111      5.3258077      6.918434       11.874109      437.51639    
       188   0             -6539.3541     -1051678.6     -10269295      -10270966       17385225      -0.016523683    0.00018958667 -305.05033      5.3258077      6.918434       11.874109      437.51639    
       189   0             -6539.3541     -1051678.6     -10269295      -10270966       17385225       0.0069897806  -0.0048805292  -305.05447      5.3258077      6.918434       11.874109      437.51639    
       190   0             -6539.3541     -1051678.6     -10269295      -10270966       17385224      -0.0011800941  -0.0028153788  -305.05098      5.3258077      6.918434       11.874109      437.51639    
       191   0             -6539.3541     -1051679       -10269291      -10270962       17385216      -0.0070907546   0.0028198734  -305.0215       5.3258077      6.918434       11.874109      437.51639    
       192   0             -6539.3541     -1051679.1     -10269291      -10270962       17385215       0.0044917967   0.00069198711 -305.02202      5.3258077      6.918434       11.874109      437.51639    
       193   0             -6539.3541     -1051679.2     -10269291      -10270962       17385216       0.013015643   -0.0040253583  -305.06186      5.3258077      6.918434       11.874109      437.51639    
       194   0             -6539.3541     -1051679.2     -10269291      -10270962       17385216      -0.0043381255  -0.00047022064 -305.06243      5.3258077      6.918434       11.874109      437.51639    
       195   0             -6539.3541     -1051679.2     -10269293      -10270964       17385219      -0.0069949005   0.001429288   -305.04416      5.3258077      6.918434       11.874109      437.51639    
       196   0             -6539.3541     -1051679.2     -10269293      -10270964       17385220       0.0020661707  -5.078259e-05  -305.04129      5.3258077      6.918434       11.874109      437.51639    
       197   0             -6539.3541     -1051679.1     -10269293      -10270964       17385220      -0.010761638    0.0050579677  -305.04709      5.3258077      6.918434       11.874109      437.51639    
       198   0             -6539.3541     -1051679       -10269293      -10270964       17385221       0.00055659976  0.0038384994  -305.05124      5.3258077      6.918434       11.874109      437.51639    
       199   0             -6539.3541     -1051679       -10269293      -10270964       17385220       0.0065885394  -0.0019301231  -305.0201       5.3258077      6.918434       11.874109      437.51639    
       200   0             -6539.3541     -1051679.1     -10269292      -10270963       17385218      -0.0019311668  -0.0068066689  -304.9864       5.3258077      6.918434       11.874109      437.51639    
Loop time of 0.311073 on 4 procs for 100 steps with 216 atoms

54.0% CPU use with 4 MPI tasks x 1 OpenMP threads

Minimization stats:
  Stopping criterion = max iterations
  Energy initial, next-to-last, final = 
     -6527.94457034239  -6539.35409158311  -6539.35409158311
  Force two-norm initial, final = 264.97221 0.00010719176
  Force max component initial, final = 26.872816 1.3952627e-05
  Final line search alpha, max atom move = 1 1.3952627e-05
  Iterations, force evaluations = 100 307

MPI task timing breakdown:
Section |  min time  |  avg time  |  max time  |%varavg| %total
---------------------------------------------------------------
Pair    | 0.28447    | 0.28931    | 0.29278    |   0.6 | 93.00
Neigh   | 0          | 0          | 0          |   0.0 |  0.00
Comm    | 0.014846   | 0.018278   | 0.023173   |   2.5 |  5.88
Output  | 0.001235   | 0.0013012  | 0.001483   |   0.3 |  0.42
Modify  | 0          | 0          | 0          |   0.0 |  0.00
Other   |            | 0.002187   |            |       |  0.70

Nlocal:             54 ave          56 max          52 min
Histogram: 1 0 0 0 0 2 0 0 0 1
Nghost:         2102.5 ave        2108 max        2099 min
Histogram: 2 0 0 0 0 1 0 0 0 1
Neighs:           9576 ave        9921 max        9208 min
Histogram: 1 0 0 0 0 2 0 0 0 1
FullNghs:        19152 ave       19864 max       18440 min
Histogram: 1 0 0 0 0 2 0 0 0 1

Total # of neighbors = 76608
Ave neighs/atom = 354.66667
Neighbor list builds = 0
Dangerous builds = 0

# Obtain new stress tensor

variable tmp equal pxx
variable pxx1 equal ${tmp}
variable pxx1 equal -10269292.3494641
variable tmp equal pyy
variable pyy1 equal ${tmp}
variable pyy1 equal -10270963.3377529
variable tmp equal pzz
variable pzz1 equal ${tmp}
variable pzz1 equal 17385218.3486691
variable tmp equal pxy
variable pxy1 equal ${tmp}
variable pxy1 equal -0.00193116682520843
variable tmp equal pxz
variable pxz1 equal ${tmp}
variable pxz1 equal -0.00680666894061584
variable tmp equal pyz
variable pyz1 equal ${tmp}
variable pyz1 equal -304.986397158926

# Compute elastic constant from pressure tensor

variable C1neg equal ${d1}
variable C1neg equal -214661541.731663
variable C2neg equal ${d2}
variable C2neg equal -214828640.61146
variable C3neg equal ${d3}
variable C3neg equal 385017321.51739
variable C4neg equal ${d4}
variable C4neg equal -30499.1614927069
variable C5neg equal ${d5}
variable C5neg equal -0.197041597104937
variable C6neg equal ${d6}
variable C6neg equal -0.38831980224766

# Reset box and simulation parameters

clear
  using 1 OpenMP thread(s) per MPI task
Loaded 1 plugins from C:\Program Files\LAMMPS 64-bit 23Jun2022\plugins
Loaded 0 plugins from C:\Program Files\LAMMPS 64-bit 23Jun2022-MPI\plugins
Loaded 1 plugins from C:\Program Files\LAMMPS 64-bit 22Dec2022-MSMPI\plugins
Loaded 1 plugins from C:\Program Files\LAMMPS 64-bit 28Mar2023-MPI\plugins
box tilt large

The 'box' command has been removed and will be ignored

read_restart restart.equil
Reading restart file ...
  restart file = 22 Dec 2022, LAMMPS = 22 Dec 2022
  restoring atom style atomic from restart
  triclinic box = (1.1897737 1.0367273 1.2311083) to (6.5155867 7.9551613 13.105218) with tilt (-3.9943597 0 0)
WARNING: Triclinic box skew is large. LAMMPS will run inefficiently. (src/domain.cpp:220)
  1 by 2 by 2 MPI processor grid
  pair style meam stores no restart info
  216 atoms
  read_restart CPU = 0.000 seconds
include potential.mod
# NOTE: This script can be modified for different pair styles
# See in.elastic for more info.

# Choose potential
#-----------------------
#pair_style	sw
#pair_coeff * * Si.sw Si
#-----------------------
#pair_style morse	2.83994742	# D0[eV] a[1/A] r0[A] rc[A], 1NN for BCC
#pair_coeff 1 1	2.1173	1.0202	2.4595	2.6497	#	Fe-Fe
#-----------------------
#pair_style smatb # R0(A)   p       q     A(eV)   xi(eV)  Rcs(A)   Rc(A), 4NN: Rcs=4NN, Rc=(4NN+5NN)/2
#pair_coeff 1 1	2.4802	7.0149	2.3779	0.3144	3.0551	4.033	4.176	#	Co	Co
#-----------------------
#pair_style eam/alloy
#pair_coeff * * AlCrFeCoNi_Zhou04.eam.alloy Fe
#-----------------------
pair_style meam
#pair_coeff * * ./../../library.meam Si O Au ./../../SiOAu.meam Si
#pair_coeff * * ./../../library.meam Si O Au ./../../SiOAu.meam Au
pair_coeff * * ./../../library.meam Si O Au ./../../SiOAu.meam Si O
#-----------------------

# Setup neighbor style
neighbor 1.0 nsq
neigh_modify once no every 1 delay 0 check yes

# Setup minimization style
min_style	     cg
min_modify	     dmax ${dmax} line quadratic
min_modify	     dmax 0.01 line quadratic

# Setup output
thermo		1
thermo_style custom step temp pe press pxx pyy pzz pxy pxz pyz lx ly lz vol
thermo_modify norm no

# Positive deformation

variable delta equal ${up}*${len0}
variable delta equal 1e-06*${len0}
variable delta equal 1e-06*5.32581299122426
variable deltaxy equal ${up}*xy
variable deltaxy equal 1e-06*xy
variable deltaxz equal ${up}*xz
variable deltaxz equal 1e-06*xz
variable deltayz equal ${up}*yz
variable deltayz equal 1e-06*yz
if "${dir} == 1" then    "change_box all x delta 0 ${delta} xy delta ${deltaxy} xz delta ${deltaxz} remap units box"
change_box all x delta 0 ${delta} xy delta ${deltaxy} xz delta ${deltaxz} remap units box
change_box all x delta 0 5.32581299122426e-06 xy delta ${deltaxy} xz delta ${deltaxz} remap units box
change_box all x delta 0 5.32581299122426e-06 xy delta -3.99435974342101e-06 xz delta ${deltaxz} remap units box
change_box all x delta 0 5.32581299122426e-06 xy delta -3.99435974342101e-06 xz delta 0 remap units box
Changing box ...
WARNING: Triclinic box skew is large. LAMMPS will run inefficiently. (src/domain.cpp:220)
  triclinic box = (1.1897737 1.0367273 1.2311083) to (6.515592 7.9551613 13.105218) with tilt (-3.9943597 0 0)
WARNING: Triclinic box skew is large. LAMMPS will run inefficiently. (src/domain.cpp:220)
  triclinic box = (1.1897737 1.0367273 1.2311083) to (6.515592 7.9551613 13.105218) with tilt (-3.9943637 0 0)
WARNING: Triclinic box skew is large. LAMMPS will run inefficiently. (src/domain.cpp:220)
  triclinic box = (1.1897737 1.0367273 1.2311083) to (6.515592 7.9551613 13.105218) with tilt (-3.9943637 0 0)
if "${dir} == 2" then    "change_box all y delta 0 ${delta} yz delta ${deltayz} remap units box"
if "${dir} == 3" then    "change_box all z delta 0 ${delta} remap units box"
if "${dir} == 4" then    "change_box all yz delta ${delta} remap units box"
if "${dir} == 5" then    "change_box all xz delta ${delta} remap units box"
if "${dir} == 6" then    "change_box all xy delta ${delta} remap units box"

# Relax atoms positions

minimize ${etol} ${ftol} ${maxiter} ${maxeval}
minimize 0 ${ftol} ${maxiter} ${maxeval}
minimize 0 1e-10 ${maxiter} ${maxeval}
minimize 0 1e-10 100 ${maxeval}
minimize 0 1e-10 100 1000
Neighbor list info ...
  update: every = 1 steps, delay = 0 steps, check = yes
  max neighbors/atom: 2000, page size: 100000
  master list distance cutoff = 5.5
  ghost atom cutoff = 5.5
  2 neighbor lists, perpetual/occasional/extra = 2 0 0
  (1) pair meam, perpetual
      attributes: full, newton on
      pair build: full/nsq
      stencil: none
      bin: none
  (2) pair meam, perpetual, half/full from (1)
      attributes: half, newton on
      pair build: halffull/newton
      stencil: none
      bin: none
Per MPI rank memory allocation (min/avg/max) = 10.5 | 10.51 | 10.52 Mbytes
   Step          Temp          PotEng         Press           Pxx            Pyy            Pzz            Pxy            Pxz            Pyz             Lx             Ly             Lz           Volume    
       100   0             -6527.9401     -903334.67     -8123468       -8122410.2      13535874       581.16629      277.54419     -1467.3347      5.3258183      6.918434       11.874109      437.51726    
       101   0             -6531.504      -930305.55     -8565603.2     -8564286.8      14338973       372.83405     -104.81331      401.2538       5.3258183      6.918434       11.874109      437.51726    
       102   0             -6533.7024     -954388.36     -8883020.2     -8881730.7      14901586       272.33902     -69.973155     -174.88211      5.3258183      6.918434       11.874109      437.51726    
       103   0             -6535.2808     -975431.38     -9137406.7     -9136125.3      15347238       213.81513     -93.483217     -133.32379      5.3258183      6.918434       11.874109      437.51726    
       104   0             -6536.4941     -994034.5      -9351442.2     -9350176.1      15719515       174.0128      -101.89272     -121.8913       5.3258183      6.918434       11.874109      437.51726    
       105   0             -6537.4656     -1010685.5     -9536749.7     -9535499.1      16040192       145.0146      -104.91335     -109.59926      5.3258183      6.918434       11.874109      437.51726    
       106   0             -6538.2395     -1025657.1     -9732494.4     -9714453        16369976      -2384.7796      436.71272      1718.0888      5.3258183      6.918434       11.874109      437.51726    
       107   0             -6538.4093     -1037378.1     -9922027.6     -9938556.4      16748450       2923.1871     -715.48657     -2007.0259      5.3258183      6.918434       11.874109      437.51726    
       108   0             -6538.8767     -1076168.8     -10304943      -10333223       17409659       4594.0142     -881.36349     -2471.448       5.3258183      6.918434       11.874109      437.51726    
       109   0             -6539.2534     -1076981.9     -10233328      -10228431       17230813      -562.15293      276.62585      1298.7018      5.3258183      6.918434       11.874109      437.51726    
       110   0             -6539.3188     -1039049.1     -10258356      -10271819       17413028       2341.4929     -904.14022     -2513.7663      5.3258183      6.918434       11.874109      437.51726    
       111   0             -6539.3269     -1045554.5     -10355119      -10232051       17450506      -18877.628      5297.6335      17329.906      5.3258183      6.918434       11.874109      437.51726    
       112   0             -6539.3431     -1059245.2     -10336729      -10263401       17422394      -11097.367      5292.8411      17157.489      5.3258183      6.918434       11.874109      437.51726    
       113   0             -6539.3464     -1057785.4     -10286771      -10284887       17398303       0.54393607     1607.1676      5351.6431      5.3258183      6.918434       11.874109      437.51726    
       114   0             -6539.3479     -1051410.1     -10275879      -10274049       17395698      -3.2614179     -2990.1768     -9221.1669      5.3258183      6.918434       11.874109      437.51726    
       115   0             -6539.3482     -1050321.1     -10277854      -10275506       17402397      -87.134895     -1691.1424     -5088.3363      5.3258183      6.918434       11.874109      437.51726    
       116   0             -6539.3483     -1050107.9     -10274122      -10272859       17396658       72.772916      1200.4102      4096.5248      5.3258183      6.918434       11.874109      437.51726    
       117   0             -6539.3484     -1051213.6     -10272131      -10270310       17388801      -31.648939      1125.1952      3887.4947      5.3258183      6.918434       11.874109      437.51726    
       118   0             -6539.3484     -1052035.4     -10270107      -10268721       17382721       25.900647     -195.19754     -286.67807      5.3258183      6.918434       11.874109      437.51726    
       119   0             -6539.3484     -1052153       -10269800      -10268356       17381697       16.237741     -381.88804     -877.37217      5.3258183      6.918434       11.874109      437.51726    
       120   0             -6539.3485     -1052085.1     -10269928      -10268213       17381886      -22.932239     -206.53907     -323.46984      5.3258183      6.918434       11.874109      437.51726    
       121   0             -6539.3485     -1051710.5     -10270060      -10268480       17383409       12.037353      424.97056      1661.8328      5.3258183      6.918434       11.874109      437.51726    
       122   0             -6539.3485     -1051478.6     -10270418      -10268944       17384926       34.648327     -87.944372      18.907537      5.3258183      6.918434       11.874109      437.51726    
       123   0             -6539.3485     -1051498       -10270685      -10268831       17385023      -21.485682     -98.321742     -11.532103      5.3258183      6.918434       11.874109      437.51726    
       124   0             -6539.3485     -1051655.6     -10271061      -10269358       17385452      -3.0803548      50.175778      461.36122      5.3258183      6.918434       11.874109      437.51726    
       125   0             -6539.3485     -1051733.7     -10271251      -10269624       17385674       6.5478483      22.780685      375.12962      5.3258183      6.918434       11.874109      437.51726    
       126   0             -6539.3485     -1051730.7     -10271243      -10269426       17385477      -20.821319     -6.0617004      285.36442      5.3258183      6.918434       11.874109      437.51726    
       127   0             -6539.3485     -1051725.8     -10271233      -10269621       17385677       9.2067765     -6.2480179      283.06794      5.3258183      6.918434       11.874109      437.51726    
       128   0             -6539.3485     -1051714.9     -10271214      -10269645       17385714       15.554328     -0.70900237     300.45174      5.3258183      6.918434       11.874109      437.51726    
       129   0             -6539.3485     -1051702.6     -10271187      -10269446       17385525      -9.3002573      6.3770618      324.71831      5.3258183      6.918434       11.874109      437.51726    
       130   0             -6539.3485     -1051688.8     -10271136      -10269356       17385426      -15.01739       4.7697706      320.60887      5.3258183      6.918434       11.874109      437.51726    
       131   0             -6539.3485     -1051684.8     -10271112      -10269510       17385568       10.495795     -4.0869735      291.67229      5.3258183      6.918434       11.874109      437.51726    
       132   0             -6539.3485     -1051685.9     -10271109      -10269522       17385574       12.34693      -5.009462       289.22788      5.3258183      6.918434       11.874109      437.51726    
       133   0             -6539.3485     -1051689.4     -10271099      -10269391       17385421      -5.5367875      0.74364658     308.77843      5.3258183      6.918434       11.874109      437.51726    
       134   0             -6539.3485     -1051698       -10271090      -10269360       17385357      -8.9563278      3.5982784      318.15388      5.3258183      6.918434       11.874109      437.51726    
       135   0             -6539.3485     -1051708.1     -10271102      -10269465       17385443       4.4891256      0.86327982     308.59888      5.3258183      6.918434       11.874109      437.51726    
       136   0             -6539.3485     -1051712       -10271112      -10269476       17385452       4.6812275      0.045867555    305.85791      5.3258183      6.918434       11.874109      437.51726    
       137   0             -6539.3485     -1051711.8     -10271111      -10269404       17385380      -5.5606463      0.99733237     309.25028      5.3258183      6.918434       11.874109      437.51726    
       138   0             -6539.3485     -1051712.1     -10271111      -10269449       17385424       1.1007344     -0.43615875     304.21814      5.3258183      6.918434       11.874109      437.51726    
       139   0             -6539.3485     -1051710.4     -10271119      -10269470       17385457       3.1856694     -0.53357739     303.29816      5.3258183      6.918434       11.874109      437.51726    
       140   0             -6539.3485     -1051707.3     -10271120      -10269415       17385414      -4.6448277      1.4976524      309.64627      5.3258183      6.918434       11.874109      437.51726    
       141   0             -6539.3485     -1051708.5     -10271122      -10269460       17385456       1.5336156     -0.031768924    304.496        5.3258183      6.918434       11.874109      437.51726    
       142   0             -6539.3485     -1051710.8     -10271129      -10269467       17385464       1.4134501     -0.45684764     303.45982      5.3258183      6.918434       11.874109      437.51726    
       143   0             -6539.3485     -1051712.6     -10271123      -10269419       17385405      -5.0447927      0.70250673     307.88614      5.3258183      6.918434       11.874109      437.51726    
       144   0             -6539.3485     -1051713       -10271128      -10269461       17385450       0.26000914    -0.38578919     304.05859      5.3258183      6.918434       11.874109      437.51726    
       145   0             -6539.3485     -1051711.2     -10271131      -10269462       17385460       0.4172863      0.16250226     305.48336      5.3258183      6.918434       11.874109      437.51726    
       146   0             -6539.3485     -1051709.4     -10271117      -10269442       17385431      -0.20938557     0.48470963     306.372        5.3258183      6.918434       11.874109      437.51726    
       147   0             -6539.3485     -1051710.1     -10271126      -10269458       17385454       0.612418       0.18763191     305.42779      5.3258183      6.918434       11.874109      437.51726    
       148   0             -6539.3485     -1051712       -10271130      -10269457       17385451      -0.51748243    -0.21680564     304.53905      5.3258183      6.918434       11.874109      437.51726    
       149   0             -6539.3485     -1051712.7     -10271124      -10269453       17385440      -0.21374919    -0.29442001     304.35574      5.3258183      6.918434       11.874109      437.51726    
       150   0             -6539.3485     -1051714.9     -10271129      -10269457       17385442      -0.4634516      0.057596773    305.55243      5.3258183      6.918434       11.874109      437.51726    
       151   0             -6539.3485     -1051714.6     -10271140      -10269463       17385459      -1.0921036      0.035019491    305.33669      5.3258183      6.918434       11.874109      437.51726    
       152   0             -6539.3485     -1051713       -10271128      -10269459       17385448       0.44891031    -0.36463758     303.73029      5.3258183      6.918434       11.874109      437.51726    
       153   0             -6539.3485     -1051710.9     -10271122      -10269456       17385445       1.0079499      0.24547507     305.51919      5.3258183      6.918434       11.874109      437.51726    
       154   0             -6539.3485     -1051710.7     -10271130      -10269460       17385457       0.28768895     0.48636608     306.35773      5.3258183      6.918434       11.874109      437.51726    
       155   0             -6539.3485     -1051711.1     -10271128      -10269458       17385452       0.21752179    -0.057797423    304.79886      5.3258183      6.918434       11.874109      437.51726    
       156   0             -6539.3485     -1051712.2     -10271131      -10269456       17385450      -0.65803352    -0.18831308     304.57113      5.3258183      6.918434       11.874109      437.51726    
       157   0             -6539.3485     -1051713.1     -10271131      -10269458       17385450      -0.49284657    -0.2936661      304.30234      5.3258183      6.918434       11.874109      437.51726    
       158   0             -6539.3485     -1051713.2     -10271126      -10269458       17385444       0.37439729     0.14232472     305.49456      5.3258183      6.918434       11.874109      437.51726    
       159   0             -6539.3485     -1051712.9     -10271131      -10269458       17385450      -0.26329565     0.35276372     306.1114       5.3258183      6.918434       11.874109      437.51726    
       160   0             -6539.3485     -1051711.9     -10271127      -10269458       17385449       0.46048908    -0.092760824    304.60738      5.3258183      6.918434       11.874109      437.51726    
       161   0             -6539.3485     -1051711.5     -10271127      -10269456       17385449       0.0060821593   0.028141016    305.06894      5.3258183      6.918434       11.874109      437.51726    
       162   0             -6539.3485     -1051711       -10271128      -10269456       17385451      -0.12393065     0.11040467     305.42638      5.3258183      6.918434       11.874109      437.51726    
       163   0             -6539.3485     -1051711.2     -10271125      -10269457       17385449       0.46143887    -0.29998275     304.13885      5.3258183      6.918434       11.874109      437.51726    
       164   0             -6539.3485     -1051711.8     -10271131      -10269455       17385450      -0.81589644    -0.21903151     304.49988      5.3258183      6.918434       11.874109      437.51726    
[...]
       162   0             -6539.3513     -1051694       -10270216      -10270205       17385338      -841.55471      307.83899      2.4805063      5.325813       6.918434       11.874109      437.51682    
       163   0             -6539.3513     -1051695.1     -10270209      -10270211       17385335      -834.45334      303.93921     -1.0137802      5.325813       6.918434       11.874109      437.51682    
       164   0             -6539.3513     -1051695.6     -10270210      -10270210       17385333      -835.56337      304.61112     -0.40807716     5.325813       6.918434       11.874109      437.51682    
       165   0             -6539.3513     -1051695.7     -10270211      -10270211       17385335      -835.56311      305.04562     -0.016632071    5.325813       6.918434       11.874109      437.51682    
       166   0             -6539.3513     -1051695.9     -10270209      -10270213       17385334      -833.7031       309.54384      4.0573807      5.325813       6.918434       11.874109      437.51682    
       167   0             -6539.3513     -1051695.7     -10270213      -10270206       17385332      -839.32299      306.47847      1.345342       5.325813       6.918434       11.874109      437.51682    
       168   0             -6539.3513     -1051695.6     -10270210      -10270211       17385334      -835.25157      301.96542     -2.675926       5.325813       6.918434       11.874109      437.51682    
       169   0             -6539.3513     -1051695.4     -10270210      -10270211       17385335      -835.03833      305.5697       0.54219809     5.325813       6.918434       11.874109      437.51682    
       170   0             -6539.3513     -1051695.4     -10270210      -10270210       17385334      -835.81747      305.44855      0.41933715     5.325813       6.918434       11.874109      437.51682    
       171   0             -6539.3513     -1051695.3     -10270210      -10270210       17385334      -835.34356      303.13271     -1.7579177      5.325813       6.918434       11.874109      437.51682    
       172   0             -6539.3513     -1051695.3     -10270211      -10270209       17385334      -836.09856      305.087       -0.15566672     5.325813       6.918434       11.874109      437.51682    
       173   0             -6539.3513     -1051695.3     -10270210      -10270209       17385333      -835.60217      305.50698      0.20177892     5.325813       6.918434       11.874109      437.51682    
       174   0             -6539.3513     -1051695.5     -10270210      -10270210       17385333      -835.49285      304.79967     -0.34932491     5.325813       6.918434       11.874109      437.51682    
       175   0             -6539.3513     -1051695.5     -10270211      -10270209       17385334      -836.29175      305.03655     -0.071927668    5.325813       6.918434       11.874109      437.51682    
       176   0             -6539.3513     -1051695.5     -10270210      -10270210       17385334      -835.23602      304.9855      -0.041567343    5.325813       6.918434       11.874109      437.51682    
       177   0             -6539.3513     -1051695.5     -10270210      -10270210       17385334      -835.3918       305.23092      0.2475096      5.325813       6.918434       11.874109      437.51682    
       178   0             -6539.3513     -1051695.4     -10270210      -10270211       17385334      -835.36696      304.9262      -0.03719064     5.325813       6.918434       11.874109      437.51682    
       179   0             -6539.3513     -1051695.4     -10270210      -10270210       17385334      -835.44773      304.84653     -0.13022782     5.325813       6.918434       11.874109      437.51682    
       180   0             -6539.3513     -1051695.4     -10270210      -10270210       17385334      -835.55588      305.31841      0.25345671     5.325813       6.918434       11.874109      437.51682    
       181   0             -6539.3513     -1051695.4     -10270210      -10270210       17385334      -835.34147      305.06858      0.0044895845   5.325813       6.918434       11.874109      437.51682    
       182   0             -6539.3513     -1051695.4     -10270210      -10270210       17385334      -835.54941      304.96288     -0.099924088    5.325813       6.918434       11.874109      437.51682    
       183   0             -6539.3513     -1051695.4     -10270210      -10270210       17385334      -835.59481      305.15104      0.08316751     5.325813       6.918434       11.874109      437.51682    
       184   0             -6539.3513     -1051695.4     -10270210      -10270210       17385334      -835.44029      305.08486      0.029362736    5.325813       6.918434       11.874109      437.51682    
       185   0             -6539.3513     -1051695.4     -10270210      -10270210       17385334      -835.51762      305.00235     -0.038688608    5.325813       6.918434       11.874109      437.51682    
       186   0             -6539.3513     -1051695.4     -10270210      -10270210       17385334      -835.43587      305.04859      0.01108588     5.325813       6.918434       11.874109      437.51682    
       187   0             -6539.3513     -1051695.4     -10270210      -10270210       17385334      -835.50518      305.08617      0.047294663    5.325813       6.918434       11.874109      437.51682    
       188   0             -6539.3513     -1051695.4     -10270210      -10270210       17385334      -835.50082      305.0454       0.010034922    5.325813       6.918434       11.874109      437.51682    
       189   0             -6539.3513     -1051695.4     -10270210      -10270210       17385334      -835.44175      305.03547     -0.0019126167   5.325813       6.918434       11.874109      437.51682    
       190   0             -6539.3513     -1051695.4     -10270210      -10270210       17385334      -835.51057      305.05473      0.012516593    5.325813       6.918434       11.874109      437.51682    
       191   0             -6539.3513     -1051695.4     -10270210      -10270210       17385334      -835.50459      305.049       -3.6208892e-05  5.325813       6.918434       11.874109      437.51682    
       192   0             -6539.3513     -1051695.4     -10270210      -10270210       17385334      -835.49582      305.03765     -0.010940592    5.325813       6.918434       11.874109      437.51682    
       193   0             -6539.3513     -1051695.4     -10270210      -10270210       17385334      -835.50899      305.02943     -0.018345696    5.325813       6.918434       11.874109      437.51682    
       194   0             -6539.3513     -1051695.4     -10270210      -10270210       17385334      -835.47479      305.05283      0.0056403136   5.325813       6.918434       11.874109      437.51682    
       195   0             -6539.3513     -1051695.4     -10270210      -10270210       17385334      -835.52899      305.05835      0.012045102    5.325813       6.918434       11.874109      437.51682    
       196   0             -6539.3513     -1051695.4     -10270210      -10270210       17385334      -835.49257      305.0312      -0.01055653     5.325813       6.918434       11.874109      437.51682    
       197   0             -6539.3513     -1051695.4     -10270210      -10270210       17385334      -835.493        305.04952      0.0054479036   5.325813       6.918434       11.874109      437.51682    
       198   0             -6539.3513     -1051695.4     -10270210      -10270210       17385334      -835.50053      305.05032      0.005615384    5.325813       6.918434       11.874109      437.51682    
       199   0             -6539.3513     -1051695.4     -10270210      -10270210       17385334      -835.49675      305.03818     -0.0069596142   5.325813       6.918434       11.874109      437.51682    
       200   0             -6539.3513     -1051695.4     -10270210      -10270210       17385334      -835.50639      305.05443      0.0065538273   5.325813       6.918434       11.874109      437.51682    
Loop time of 0.285161 on 4 procs for 100 steps with 216 atoms

63.0% CPU use with 4 MPI tasks x 1 OpenMP threads

Minimization stats:
  Stopping criterion = max iterations
  Energy initial, next-to-last, final = 
     -6527.94235242799  -6539.35128704086  -6539.35128704085
  Force two-norm initial, final = 264.96376 6.2950424e-06
  Force max component initial, final = 26.872566 7.9972759e-07
  Final line search alpha, max atom move = 1 7.9972759e-07
  Iterations, force evaluations = 100 281

MPI task timing breakdown:
Section |  min time  |  avg time  |  max time  |%varavg| %total
---------------------------------------------------------------
Pair    | 0.2618     | 0.26551    | 0.26803    |   0.5 | 93.11
Neigh   | 0          | 0          | 0          |   0.0 |  0.00
Comm    | 0.013751   | 0.016372   | 0.020124   |   2.1 |  5.74
Output  | 0.001136   | 0.0011975  | 0.001353   |   0.3 |  0.42
Modify  | 0          | 0          | 0          |   0.0 |  0.00
Other   |            | 0.002079   |            |       |  0.73

Nlocal:             54 ave          56 max          52 min
Histogram: 1 0 0 0 0 2 0 0 0 1
Nghost:         2102.5 ave        2108 max        2099 min
Histogram: 2 0 0 0 0 1 0 0 0 1
Neighs:           9576 ave        9921 max        9208 min
Histogram: 1 0 0 0 0 2 0 0 0 1
FullNghs:        19152 ave       19864 max       18440 min
Histogram: 1 0 0 0 0 2 0 0 0 1

Total # of neighbors = 76608
Ave neighs/atom = 354.66667
Neighbor list builds = 0
Dangerous builds = 0

# Obtain new stress tensor

variable tmp equal pe
variable e1 equal ${tmp}
variable e1 equal -6539.35128704085
variable tmp equal press
variable p1 equal ${tmp}
variable p1 equal -1051695.42188392
variable tmp equal pxx
variable pxx1 equal ${tmp}
variable pxx1 equal -10270210.1744549
variable tmp equal pyy
variable pyy1 equal ${tmp}
variable pyy1 equal -10270210.1606631
variable tmp equal pzz
variable pzz1 equal ${tmp}
variable pzz1 equal 17385334.0694662
variable tmp equal pxy
variable pxy1 equal ${tmp}
variable pxy1 equal -835.506389170214
variable tmp equal pxz
variable pxz1 equal ${tmp}
variable pxz1 equal 305.054427221097
variable tmp equal pyz
variable pyz1 equal ${tmp}
variable pyz1 equal 0.00655382728470553

# Compute elastic constant from pressure tensor

variable C1pos equal ${d1}
variable C1pos equal 214753324.230743
variable C2pos equal ${d2}
variable C2pos equal 214753322.90248
variable C3pos equal ${d3}
variable C3pos equal -385028893.5971
variable C4pos equal ${d4}
variable C4pos equal -0.133605914167029
variable C5pos equal ${d5}
variable C5pos equal -30505.9263474067
variable C6pos equal ${d6}
variable C6pos equal 83550.8341201411

# Combine positive and negative

variable C1${dir} equal 0.5*(${C1neg}+${C1pos})
variable C16 equal 0.5*(${C1neg}+${C1pos})
variable C16 equal 0.5*(-214753321.181943+${C1pos})
variable C16 equal 0.5*(-214753321.181943+214753324.230743)
variable C2${dir} equal 0.5*(${C2neg}+${C2pos})
variable C26 equal 0.5*(${C2neg}+${C2pos})
variable C26 equal 0.5*(-214753322.13796+${C2pos})
variable C26 equal 0.5*(-214753322.13796+214753322.90248)
variable C3${dir} equal 0.5*(${C3neg}+${C3pos})
variable C36 equal 0.5*(${C3neg}+${C3pos})
variable C36 equal 0.5*(385028890.3902+${C3pos})
variable C36 equal 0.5*(385028890.3902+-385028893.5971)
variable C4${dir} equal 0.5*(${C4neg}+${C4pos})
variable C46 equal 0.5*(${C4neg}+${C4pos})
variable C46 equal 0.5*(1.86181221467012+${C4pos})
variable C46 equal 0.5*(1.86181221467012+-0.133605914167029)
variable C5${dir} equal 0.5*(${C5neg}+${C5pos})
variable C56 equal 0.5*(${C5neg}+${C5pos})
variable C56 equal 0.5*(-30504.20644662+${C5pos})
variable C56 equal 0.5*(-30504.20644662+-30505.9263474067)
variable C6${dir} equal 0.5*(${C6neg}+${C6pos})
variable C66 equal 0.5*(${C6neg}+${C6pos})
variable C66 equal 0.5*(83549.6357802244+${C6pos})
variable C66 equal 0.5*(83549.6357802244+83550.8341201411)

# Delete dir to make sure it is not reused

variable dir delete

# Output final values

variable C11all equal ${C11}
variable C11all equal 91785.2165150046
variable C22all equal ${C22}
variable C22all equal 91791.7706200033
variable C33all equal ${C33}
variable C33all equal 57543.7884500027

variable C12all equal 0.5*(${C12}+${C21})
variable C12all equal 0.5*(-75311.6351650059+${C21})
variable C12all equal 0.5*(-75311.6351650059+-75313.5831400007)
variable C13all equal 0.5*(${C13}+${C31})
variable C13all equal 0.5*(-14348.276940003+${C31})
variable C13all equal 0.5*(-14348.276940003+-11577.0763449967)
variable C23all equal 0.5*(${C23}+${C32})
variable C23all equal 0.5*(-14348.5531949997+${C32})
variable C23all equal 0.5*(-14348.5531949997+-11583.6727399826)

variable C44all equal ${C44}
variable C44all equal 59026.0120105024
variable C55all equal ${C55}
variable C55all equal 59029.3188397358
variable C66all equal ${C66}
variable C66all equal 83550.2349501828

variable C14all equal 0.5*(${C14}+${C41})
variable C14all equal 0.5*(-30504.2791849971+${C41})
variable C14all equal 0.5*(-30504.2791849971+-30501.5716850633)
variable C15all equal 0.5*(${C15}+${C51})
variable C15all equal 0.5*(-0.426304996013641+${C51})
variable C15all equal 0.5*(-0.426304996013641+-0.368229927585543)
variable C16all equal 0.5*(${C16}+${C61})
variable C16all equal 0.5*(1.52439999580383+${C61})
variable C16all equal 0.5*(1.52439999580383+-0.104873547079107)

variable C24all equal 0.5*(${C24}+${C42})
variable C24all equal 0.5*(30503.7023400068+${C42})
variable C24all equal 0.5*(30503.7023400068+30506.5292105975)
variable C25all equal 0.5*(${C25}+${C52})
variable C25all equal 0.5*(-0.132849991321564+${C52})
variable C25all equal 0.5*(-0.132849991321564+-0.829073892167684)
variable C26all equal 0.5*(${C26}+${C62})
variable C26all equal 0.5*(0.382260009646416+${C62})
variable C26all equal 0.5*(0.382260009646416+-1.75654353989619)

variable C34all equal 0.5*(${C34}+${C43})
variable C34all equal 0.5*(-0.0145750045776367+${C43})
variable C34all equal 0.5*(-0.0145750045776367+-1.67879931189831)
variable C35all equal 0.5*(${C35}+${C53})
variable C35all equal 0.5*(0.42620000243187+${C53})
variable C35all equal 0.5*(0.42620000243187+-0.9198097355099)
variable C36all equal 0.5*(${C36}+${C63})
variable C36all equal 0.5*(-1.6034500002861+${C63})
variable C36all equal 0.5*(-1.6034500002861+0.0463313727144745)

variable C45all equal 0.5*(${C45}+${C54})
variable C45all equal 0.5*(2.33395305153554+${C54})
variable C45all equal 0.5*(2.33395305153554+-1.18606488848602)
variable C46all equal 0.5*(${C46}+${C64})
variable C46all equal 0.5*(0.864103150251545+${C64})
variable C46all equal 0.5*(0.864103150251545+0.105842669291202)
variable C56all equal 0.5*(${C56}+${C65})
variable C56all equal 0.5*(-30505.0663970134+${C65})
variable C56all equal 0.5*(-30505.0663970134+-30504.599126167)

# Average moduli for cubic crystals

variable C11cubic equal (${C11all}+${C22all}+${C33all})/3.0
variable C11cubic equal (91785.2165150046+${C22all}+${C33all})/3.0
variable C11cubic equal (91785.2165150046+91791.7706200033+${C33all})/3.0
variable C11cubic equal (91785.2165150046+91791.7706200033+57543.7884500027)/3.0
variable C12cubic equal (${C12all}+${C13all}+${C23all})/3.0
variable C12cubic equal (-75312.6091525033+${C13all}+${C23all})/3.0
variable C12cubic equal (-75312.6091525033+-12962.6766424998+${C23all})/3.0
variable C12cubic equal (-75312.6091525033+-12962.6766424998+-12966.1129674911)/3.0
variable C44cubic equal (${C44all}+${C55all}+${C66all})/3.0
variable C44cubic equal (59026.0120105024+${C55all}+${C66all})/3.0
variable C44cubic equal (59026.0120105024+59029.3188397358+${C66all})/3.0
variable C44cubic equal (59026.0120105024+59029.3188397358+83550.2349501828)/3.0

variable bulkmodulus equal (${C11cubic}+2*${C12cubic})/3.0
variable bulkmodulus equal (80373.5918616702+2*${C12cubic})/3.0
variable bulkmodulus equal (80373.5918616702+2*-33747.1329208314)/3.0
variable shearmodulus1 equal ${C44cubic}
variable shearmodulus1 equal 67201.855266807
variable shearmodulus2 equal (${C11cubic}-${C12cubic})/2.0
variable shearmodulus2 equal (80373.5918616702-${C12cubic})/2.0
variable shearmodulus2 equal (80373.5918616702--33747.1329208314)/2.0
variable poissonratio equal 1.0/(1.0+${C11cubic}/${C12cubic})
variable poissonratio equal 1.0/(1.0+80373.5918616702/${C12cubic})
variable poissonratio equal 1.0/(1.0+80373.5918616702/-33747.1329208314)

# For Stillinger-Weber silicon, the analytical results
# are known to be (E. R. Cowley, 1988):
#               C11 = 151.4 GPa
#               C12 = 76.4 GPa
#               C44 = 56.4 GPa

print "========================================="
=========================================
print "Components of the Elastic Constant Tensor"
Components of the Elastic Constant Tensor
print "========================================="
=========================================

print "Elastic Constant C11all = ${C11all} ${cunits}"
Elastic Constant C11all = 91785.2165150046 GPa
print "Elastic Constant C22all = ${C22all} ${cunits}"
Elastic Constant C22all = 91791.7706200033 GPa
print "Elastic Constant C33all = ${C33all} ${cunits}"
Elastic Constant C33all = 57543.7884500027 GPa

print "Elastic Constant C12all = ${C12all} ${cunits}"
Elastic Constant C12all = -75312.6091525033 GPa
print "Elastic Constant C13all = ${C13all} ${cunits}"
Elastic Constant C13all = -12962.6766424998 GPa
print "Elastic Constant C23all = ${C23all} ${cunits}"
Elastic Constant C23all = -12966.1129674911 GPa

print "Elastic Constant C44all = ${C44all} ${cunits}"
Elastic Constant C44all = 59026.0120105024 GPa
print "Elastic Constant C55all = ${C55all} ${cunits}"
Elastic Constant C55all = 59029.3188397358 GPa
print "Elastic Constant C66all = ${C66all} ${cunits}"
Elastic Constant C66all = 83550.2349501828 GPa

print "Elastic Constant C14all = ${C14all} ${cunits}"
Elastic Constant C14all = -30502.9254350302 GPa
print "Elastic Constant C15all = ${C15all} ${cunits}"
Elastic Constant C15all = -0.397267461799592 GPa
print "Elastic Constant C16all = ${C16all} ${cunits}"
Elastic Constant C16all = 0.709763224362362 GPa

print "Elastic Constant C24all = ${C24all} ${cunits}"
Elastic Constant C24all = 30505.1157753021 GPa
print "Elastic Constant C25all = ${C25all} ${cunits}"
Elastic Constant C25all = -0.480961941744624 GPa
print "Elastic Constant C26all = ${C26all} ${cunits}"
Elastic Constant C26all = -0.687141765124887 GPa

print "Elastic Constant C34all = ${C34all} ${cunits}"
Elastic Constant C34all = -0.846687158237973 GPa
print "Elastic Constant C35all = ${C35all} ${cunits}"
Elastic Constant C35all = -0.246804866539015 GPa
print "Elastic Constant C36all = ${C36all} ${cunits}"
Elastic Constant C36all = -0.778559313785813 GPa

print "Elastic Constant C45all = ${C45all} ${cunits}"
Elastic Constant C45all = 0.57394408152476 GPa
print "Elastic Constant C46all = ${C46all} ${cunits}"
Elastic Constant C46all = 0.484972909771374 GPa
print "Elastic Constant C56all = ${C56all} ${cunits}"
Elastic Constant C56all = -30504.8327615902 GPa

print "========================================="
=========================================
print "Average properties for a cubic crystal"
Average properties for a cubic crystal
print "========================================="
=========================================

print "Bulk Modulus = ${bulkmodulus} ${cunits}"
Bulk Modulus = 4293.1086733358 GPa
print "Shear Modulus 1 = ${shearmodulus1} ${cunits}"
Shear Modulus 1 = 67201.855266807 GPa
print "Shear Modulus 2 = ${shearmodulus2} ${cunits}"
Shear Modulus 2 = 57060.3623912508 GPa
print "Poisson Ratio = ${poissonratio}"
Poisson Ratio = -0.723776449840441
Total wall time: 0:00:03
