# LAMMPS data file for ZrW2O8

 76 atoms
 32 bonds
 0 angles
 0 dihedrals
 0 impropers

 4 atom types
 1 bond types types

 0.006043176 9.190743176 xlo xhi
 -0.014840677 9.169859323 ylo yhi
 -0.009210697 9.175489303 zlo zhi

Masses

 1  15.800000 # O
 2   0.200000 # Os1
 3  91.220000 # Zr1
 4 183.850000 # W1

Atoms # full

 1 1 1 0.848200 2.799476680 2.929472000 4.926090260 0 0 0 # O
 2 1 1 0.848200 1.807118040 1.723811180 8.763698580 0 0 0 # O
 3 1 1 0.848200 1.777823320 6.225128000 0.348790260 0 0 0 # O
 4 1 1 0.848200 2.770181960 7.430788820 4.186398580 0 0 0 # O
 5 1 1 0.848200 6.355123320 7.506772000 8.805809740 0 0 0 # O
 6 1 1 0.848200 7.347481960 6.301111180 4.968201420 0 0 0 # O
 7 1 1 0.848200 7.376776680 1.647828000 4.228509740 0 0 0 # O
 8 1 1 0.848200 6.384418040 2.853488820 0.390901420 0 0 0 # O
 9 1 1 0.848200 4.926090260 2.799476680 2.929472000 0 0 0 # O
 10 1 1 0.848200 8.763698580 1.807118040 1.723811180 0 0 0 # O
 11 1 1 0.848200 0.348790260 1.777823320 6.225128000 0 0 0 # O
 12 1 1 0.848200 4.186398580 2.770181960 7.430788820 0 0 0 # O
 13 1 1 0.848200 8.805809740 6.355123320 7.506772000 0 0 0 # O
 14 1 1 0.848200 4.968201420 7.347481960 6.301111180 0 0 0 # O
 15 1 1 0.848200 4.228509740 7.376776680 1.647828000 0 0 0 # O
 16 1 1 0.848200 0.390901420 6.384418040 2.853488820 0 0 0 # O
 17 1 1 0.848200 2.929472000 4.926090260 2.799476680 0 0 0 # O
 18 1 1 0.848200 1.723811180 8.763698580 1.807118040 0 0 0 # O
 19 1 1 0.848200 6.225128000 0.348790260 1.777823320 0 0 0 # O
 20 1 1 0.848200 7.430788820 4.186398580 2.770181960 0 0 0 # O
 21 1 1 0.848200 7.506772000 8.805809740 6.355123320 0 0 0 # O
 22 1 1 0.848200 6.301111180 4.968201420 7.347481960 0 0 0 # O
 23 1 1 0.848200 1.647828000 4.228509740 7.376776680 0 0 0 # O
 24 1 1 0.848200 2.853488820 0.390901420 6.384418040 0 0 0 # O
 25 1 1 0.848200 2.209920440 2.209920440 2.209920440 0 0 0 # O
 26 1 1 0.848200 9.001718180 9.001718180 9.001718180 0 0 0 # O
 27 1 1 0.848200 2.367379560 6.944679560 6.787220440 0 0 0 # O
 28 1 1 0.848200 4.730181820 0.152881820 4.424418180 0 0 0 # O
 29 1 1 0.848200 6.944679560 6.787220440 2.367379560 0 0 0 # O
 30 1 1 0.848200 0.152881820 4.424418180 4.730181820 0 0 0 # O
 31 1 1 0.848200 6.787220440 2.367379560 6.944679560 0 0 0 # O
 32 1 1 0.848200 4.424418180 4.730181820 0.152881820 0 0 0 # O
 33 1 2 -2.848200 2.849572974 2.929969141 4.939958605 0 0 0 # Os1
 34 1 2 -2.848200 1.857214334 1.724308321 8.777566925 0 0 0 # Os1
 35 1 2 -2.848200 1.827919614 6.225625141 0.362658605 0 0 0 # Os1
 36 1 2 -2.848200 2.820278254 7.431285961 4.200266925 0 0 0 # Os1
 37 1 2 -2.848200 6.405219614 7.507269141 8.819678085 0 0 0 # Os1
 38 1 2 -2.848200 7.397578254 6.301608321 4.982069765 0 0 0 # Os1
 39 1 2 -2.848200 7.426872974 1.648325141 4.242378085 0 0 0 # Os1
 40 1 2 -2.848200 6.434514334 2.853985961 0.404769765 0 0 0 # Os1
 41 1 2 -2.848200 4.976186554 2.799973821 2.943340345 0 0 0 # Os1
 42 1 2 -2.848200 8.813794874 1.807615181 1.737679525 0 0 0 # Os1
 43 1 2 -2.848200 0.398886554 1.778320461 6.238996345 0 0 0 # Os1
 44 1 2 -2.848200 4.236494874 2.770679101 7.444657165 0 0 0 # Os1
 45 1 2 -2.848200 8.855906034 6.355620461 7.520640345 0 0 0 # Os1
 46 1 2 -2.848200 5.018297714 7.347979101 6.314979525 0 0 0 # Os1
 47 1 2 -2.848200 4.278606034 7.377273821 1.661696345 0 0 0 # Os1
 48 1 2 -2.848200 0.440997714 6.384915181 2.867357165 0 0 0 # Os1
 49 1 2 -2.848200 2.979568294 4.926587401 2.813345025 0 0 0 # Os1
 50 1 2 -2.848200 1.773907474 8.764195721 1.820986385 0 0 0 # Os1
 51 1 2 -2.848200 6.275224294 0.349287401 1.791691665 0 0 0 # Os1
 52 1 2 -2.848200 7.480885114 4.186895721 2.784050305 0 0 0 # Os1
 53 1 2 -2.848200 7.556868294 8.806306881 6.368991665 0 0 0 # Os1
 54 1 2 -2.848200 6.351207474 4.968698561 7.361350305 0 0 0 # Os1
 55 1 2 -2.848200 1.697924294 4.229006881 7.390645025 0 0 0 # Os1
 56 1 2 -2.848200 2.903585114 0.391398561 6.398286385 0 0 0 # Os1
 57 1 2 -2.848200 2.260016734 2.210417581 2.223788785 0 0 0 # Os1
 58 1 2 -2.848200 9.051814474 9.002215321 9.015586525 0 0 0 # Os1
 59 1 2 -2.848200 2.417475854 6.945176701 6.801088785 0 0 0 # Os1
 60 1 2 -2.848200 4.780278114 0.153378961 4.438286525 0 0 0 # Os1
 61 1 2 -2.848200 6.994775854 6.787717581 2.381247905 0 0 0 # Os1
 62 1 2 -2.848200 0.202978114 4.424915321 4.744050165 0 0 0 # Os1
 63 1 2 -2.848200 6.837316734 2.367876701 6.958547905 0 0 0 # Os1
 64 1 2 -2.848200 4.474514474 4.730678961 0.166750165 0 0 0 # Os1
 65 1 3 4.000000 6.879681900 6.879681900 6.879681900 0 0 0 # Zr1
 66 1 4 6.000000 3.212349140 3.212349140 3.212349140 0 0 0 # W1
 67 1 4 6.000000 0.835814980 0.835814980 0.835814980 0 0 0 # W1
 68 1 3 4.000000 6.852218100 2.274918100 2.302381900 0 0 0 # Zr1
 69 1 4 6.000000 1.364950860 5.942250860 7.789649140 0 0 0 # W1
 70 1 4 6.000000 3.741485020 8.318785020 5.413114980 0 0 0 # W1
 71 1 3 4.000000 2.274918100 2.302381900 6.852218100 0 0 0 # Zr1
 72 1 4 6.000000 5.942250860 7.789649140 1.364950860 0 0 0 # W1
 73 1 4 6.000000 8.318785020 5.413114980 3.741485020 0 0 0 # W1
 74 1 3 4.000000 2.302381900 6.852218100 2.274918100 0 0 0 # Zr1
 75 1 4 6.000000 7.789649140 1.364950860 5.942250860 0 0 0 # W1
 76 1 4 6.000000 5.413114980 3.741485020 8.318785020 0 0 0 # W1

Bonds

 1 1 1 33
 2 1 2 34
 3 1 3 35
 4 1 4 36
 5 1 5 37
 6 1 6 38
 7 1 7 39
 8 1 8 40
 9 1 9 41
 10 1 10 42
 11 1 11 43
 12 1 12 44
 13 1 13 45
 14 1 14 46
 15 1 15 47
 16 1 16 48
 17 1 17 49
 18 1 18 50
 19 1 19 51
 20 1 20 52
 21 1 21 53
 22 1 22 54
 23 1 23 55
 24 1 24 56
 25 1 25 57
 26 1 26 58
 27 1 27 59
 28 1 28 60
 29 1 29 61
 30 1 30 62
 31 1 31 63
 32 1 32 64
