LAMMPS data file via write_data, version 22 Dec 2022, timestep = 5

2 atoms
2 atom types

9.939980782652231e-05 2.8439006001921734 xlo xhi
9.939980782652231e-05 2.8439006001921734 ylo yhi
9.939980782652231e-05 2.8439006001921734 zlo zhi

Masses

1 55.845
2 4.0026

Atoms # atomic

1 1 9.939980782668089e-05 9.939980782668265e-05 9.939980782672198e-05 0 0 0
2 2 1.4219999999999995 1.4219999999999995 1.4219999999999995 0 0 0

Velocities

1 0 0 0
2 0 0 0
