LAMMPS (22 Dec 2022)
  using 1 OpenMP thread(s) per MPI task
Loaded 1 plugins from C:\Program Files\LAMMPS 64-bit 23Jun2022\plugins
Loaded 0 plugins from C:\Program Files\LAMMPS 64-bit 23Jun2022-MPI\plugins
Loaded 1 plugins from C:\Program Files\LAMMPS 64-bit 22Dec2022-MSMPI\plugins
Loaded 1 plugins from C:\Program Files\LAMMPS 64-bit 28Mar2023-MPI\plugins
# Compute elastic constant tensor for a crystal
#
# Written by Aidan Thompson (Sandia, athomps@sandia.gov)
#
#  This script uses the following three include files.
#
#   init.mod      (must be modified for different crystal structures)
# 	       	  Define units, deformation parameters and initial
#		  configuration of the atoms and simulation cell.
#
#
#   potential.mod    (must be modified for different pair styles)
# 		     Define pair style and other attributes
#		     not stored in restart file
#
#
#   displace.mod    (displace.mod should not need to be modified)
# 		    Perform positive and negative box displacements
# 		    in direction ${dir} and size ${up}.
# 		    It uses the resultant changes
#		    in stress to compute one
# 		    row of the elastic stiffness tensor
#
#		    Inputs variables:
#		    	   dir = the Voigt deformation component
#		    		    (1,2,3,4,5,6)
#		    Global constants:
#       	    	   up = the deformation magnitude (strain units)
#       		   cfac = conversion from LAMMPS pressure units to
#               	   output units for elastic constants
#
#
#  To run this on a different system, it should only be necessary to
#  modify the files init.mod and potential.mod. In order to calculate
#  the elastic constants correctly, care must be taken to specify
#  the correct units in init.mod (units, cfac and cunits). It is also
#  important to verify that the minimization of energy w.r.t atom
#  positions in the deformed cell is fully converged.
#  One indication of this is that the elastic constants are insensitive
#  to the choice of the variable ${up} in init.mod. Another is to check
#  the final max and two-norm forces reported in the log file. If you know
#  that minimization is not required, you can set maxiter = 0.0 in
#  init.mod.
#

include init.mod
# NOTE: This script can be modified for different atomic structures,
# units, etc. See in.elastic for more info.
#

# Define the finite deformation size. Try several values of this
# variable to verify that results do not depend on it.
variable up equal 1.0e-6

# Define the amount of random jiggle for atoms
# This prevents atoms from staying on saddle points
variable atomjiggle equal 1.0e-5

# Uncomment one of these blocks, depending on what units
# you are using in LAMMPS and for output

# metal units, elastic constants in eV/A^3
#units		metal
#variable cfac equal 6.2414e-7
#variable cunits string eV/A^3

# metal units, elastic constants in GPa
units		metal
variable cfac equal 1.0e-4
variable cunits string GPa

# real units, elastic constants in GPa
#units		real
#variable cfac equal 1.01325e-4
#variable cunits string GPa

# Define minimization parameters
variable etol equal 0.0
variable ftol equal 1.0e-10
variable maxiter equal 1000
variable maxeval equal 100000
variable dmax equal 1.0e-2

# generate the box and atom positions using a diamond lattice

dimension    3
boundary     p p p
read_data    data.in
Reading data file ...
  orthogonal box = (9.9399808e-05 9.9399808e-05 9.9399808e-05) to (2.8439006 2.8439006 2.8439006)
  2 by 1 by 2 MPI processor grid
  reading atoms ...
  2 atoms
  reading velocities ...
  2 velocities
  read_data CPU = 0.001 seconds
#replicate    2 3 4
replicate    2 3 4
Replication is creating a 2x3x4 = 24 times larger system...
  orthogonal box = (9.9399808e-05 9.9399808e-05 9.9399808e-05) to (5.6877018 8.531503 11.375304)
  1 by 2 by 2 MPI processor grid
  48 atoms
  replicate CPU = 0.000 seconds
change_box   all triclinic
Changing box ...
  triclinic box = (9.9399808e-05 9.9399808e-05 9.9399808e-05) to (5.6877018 8.531503 11.375304) with tilt (0 0 0)

# Need to set mass to something, just to satisfy LAMMPS
mass 1 1.0e-20

include potential.mod
# NOTE: This script can be modified for different pair styles
# See in.elastic for more info.

# Choose potential
#-----------------------
#pair_style	sw
#pair_coeff * * Si.sw Si
#-----------------------
#pair_style morse	2.83994742	# D0[eV] a[1/A] r0[A] rc[A], 1NN for BCC
#pair_coeff 1 1	2.1173	1.0202	2.4595	2.6497	#	Fe-Fe
#-----------------------
#pair_style smatb # R0(A)   p       q     A(eV)   xi(eV)  Rcs(A)   Rc(A), 4NN: Rcs=4NN, Rc=(4NN+5NN)/2
#pair_coeff 1 1	2.4802	7.0149	2.3779	0.3144	3.0551	4.033	4.176	#	Co	Co
#-----------------------
#pair_style eam/alloy
#pair_coeff * * AlCrFeCoNi_Zhou04.eam.alloy Fe
#-----------------------
pair_style meam
pair_coeff * * ./../../library.meam Fe He ./../../FeHe.meam Fe He
#-----------------------

# Setup neighbor style
neighbor 1.0 nsq
neigh_modify once no every 1 delay 0 check yes

# Setup minimization style
min_style	     cg
min_modify	     dmax ${dmax} line quadratic
min_modify	     dmax 0.01 line quadratic

# Setup output
thermo		1
thermo_style custom step temp pe press pxx pyy pzz pxy pxz pyz lx ly lz vol
thermo_modify norm no

# Compute initial state
fix 3 all box/relax  aniso 0.0
minimize ${etol} ${ftol} ${maxiter} ${maxeval}
minimize 0 ${ftol} ${maxiter} ${maxeval}
minimize 0 1e-10 ${maxiter} ${maxeval}
minimize 0 1e-10 1000 ${maxeval}
minimize 0 1e-10 1000 100000
Neighbor list info ...
  update: every = 1 steps, delay = 0 steps, check = yes
  max neighbors/atom: 2000, page size: 100000
  master list distance cutoff = 5
  ghost atom cutoff = 5
  2 neighbor lists, perpetual/occasional/extra = 2 0 0
  (1) pair meam, perpetual
      attributes: full, newton on
      pair build: full/nsq
      stencil: none
      bin: none
  (2) pair meam, perpetual, half/full from (1)
      attributes: half, newton on
      pair build: halffull/newton
      stencil: none
      bin: none
Per MPI rank memory allocation (min/avg/max) = 9.778 | 9.781 | 9.783 Mbytes
   Step          Temp          PotEng         Press           Pxx            Pyy            Pzz            Pxy            Pxz            Pyz             Lx             Ly             Lz           Volume    
         0   0             -158.8698       4.9779909e-10  1.2080326e-09 -2.3283566e-10  5.1820034e-10  2.8036958e-11  1.1794858e-10  7.4926355e-11  5.6876024      8.5314036      11.375205      551.9617     
         1   0             -158.8698       6.6011749e-10  1.3603167e-09 -1.1633726e-10  7.3637299e-10  9.6679167e-13  1.4791913e-10  1.6757722e-11  5.6876024      8.5314036      11.375205      551.9617     
Loop time of 0.00053525 on 4 procs for 1 steps with 48 atoms

0.0% CPU use with 4 MPI tasks x 1 OpenMP threads

Minimization stats:
  Stopping criterion = force tolerance
  Energy initial, next-to-last, final = 
     -158.869797795081  -158.869797795081  -158.869797795081
  Force two-norm initial, final = 4.9705554e-13 5.661343e-13
  Force max component initial, final = 4.161762e-13 4.6863922e-13
  Final line search alpha, max atom move = 1 4.6863922e-13
  Iterations, force evaluations = 1 2

MPI task timing breakdown:
Section |  min time  |  avg time  |  max time  |%varavg| %total
---------------------------------------------------------------
Pair    | 0.00033    | 0.00036525 | 0.0004     |   0.0 | 68.24
Neigh   | 0          | 0          | 0          |   0.0 |  0.00
Comm    | 3.8e-05    | 7.4e-05    | 0.00011    |   0.0 | 13.83
Output  | 0          | 0          | 0          |   0.0 |  0.00
Modify  | 0          | 0          | 0          |   0.0 |  0.00
Other   |            | 9.6e-05    |            |       | 17.94

Nlocal:             12 ave          16 max           8 min
Histogram: 2 0 0 0 0 0 0 0 0 2
Nghost:            293 ave         297 max         289 min
Histogram: 2 0 0 0 0 0 0 0 0 2
Neighs:            348 ave         464 max         232 min
Histogram: 2 0 0 0 0 0 0 0 0 2
FullNghs:          696 ave         928 max         464 min
Histogram: 2 0 0 0 0 0 0 0 0 2

Total # of neighbors = 2784
Ave neighs/atom = 58
Neighbor list builds = 0
Dangerous builds = 0

variable tmp equal pxx
variable pxx0 equal ${tmp}
variable pxx0 equal 1.36031674763004e-09
variable tmp equal pyy
variable pyy0 equal ${tmp}
variable pyy0 equal -1.16337264508744e-10
variable tmp equal pzz
variable pzz0 equal ${tmp}
variable pzz0 equal 7.3637299003457e-10
variable tmp equal pyz
variable pyz0 equal ${tmp}
variable pyz0 equal 1.67577223115088e-11
variable tmp equal pxz
variable pxz0 equal ${tmp}
variable pxz0 equal 1.47919125788126e-10
variable tmp equal pxy
variable pxy0 equal ${tmp}
variable pxy0 equal 9.66791671817816e-13

variable tmp equal lx
variable lx0 equal ${tmp}
variable lx0 equal 5.68760240076869
variable tmp equal ly
variable ly0 equal ${tmp}
variable ly0 equal 8.53140360115304
variable tmp equal lz
variable lz0 equal ${tmp}
variable lz0 equal 11.3752048015374

# These formulas define the derivatives w.r.t. strain components
# Constants uses $, variables use v_
variable d1 equal -(v_pxx1-${pxx0})/(v_delta/v_len0)*${cfac}
variable d1 equal -(v_pxx1-1.36031674763004e-09)/(v_delta/v_len0)*${cfac}
variable d1 equal -(v_pxx1-1.36031674763004e-09)/(v_delta/v_len0)*0.0001
variable d2 equal -(v_pyy1-${pyy0})/(v_delta/v_len0)*${cfac}
variable d2 equal -(v_pyy1--1.16337264508744e-10)/(v_delta/v_len0)*${cfac}
variable d2 equal -(v_pyy1--1.16337264508744e-10)/(v_delta/v_len0)*0.0001
variable d3 equal -(v_pzz1-${pzz0})/(v_delta/v_len0)*${cfac}
variable d3 equal -(v_pzz1-7.3637299003457e-10)/(v_delta/v_len0)*${cfac}
variable d3 equal -(v_pzz1-7.3637299003457e-10)/(v_delta/v_len0)*0.0001
variable d4 equal -(v_pyz1-${pyz0})/(v_delta/v_len0)*${cfac}
variable d4 equal -(v_pyz1-1.67577223115088e-11)/(v_delta/v_len0)*${cfac}
variable d4 equal -(v_pyz1-1.67577223115088e-11)/(v_delta/v_len0)*0.0001
variable d5 equal -(v_pxz1-${pxz0})/(v_delta/v_len0)*${cfac}
variable d5 equal -(v_pxz1-1.47919125788126e-10)/(v_delta/v_len0)*${cfac}
variable d5 equal -(v_pxz1-1.47919125788126e-10)/(v_delta/v_len0)*0.0001
variable d6 equal -(v_pxy1-${pxy0})/(v_delta/v_len0)*${cfac}
variable d6 equal -(v_pxy1-9.66791671817816e-13)/(v_delta/v_len0)*${cfac}
variable d6 equal -(v_pxy1-9.66791671817816e-13)/(v_delta/v_len0)*0.0001

displace_atoms all random ${atomjiggle} ${atomjiggle} ${atomjiggle} 87287 units box
displace_atoms all random 1e-05 ${atomjiggle} ${atomjiggle} 87287 units box
displace_atoms all random 1e-05 1e-05 ${atomjiggle} 87287 units box
displace_atoms all random 1e-05 1e-05 1e-05 87287 units box
Displacing atoms ...

# Write restart
unfix 3
write_restart restart.equil
System init for write_restart ...

# uxx Perturbation

variable dir equal 1
include displace.mod
# NOTE: This script should not need to be
# modified. See in.elastic for more info.
#
# Find which reference length to use

if "${dir} == 1" then    "variable len0 equal ${lx0}"
variable len0 equal ${lx0}
variable len0 equal 5.68760240076869
if "${dir} == 2" then    "variable len0 equal ${ly0}"
if "${dir} == 3" then    "variable len0 equal ${lz0}"
if "${dir} == 4" then    "variable len0 equal ${lz0}"
if "${dir} == 5" then    "variable len0 equal ${lz0}"
if "${dir} == 6" then    "variable len0 equal ${ly0}"

# Reset box and simulation parameters

clear
  using 1 OpenMP thread(s) per MPI task
Loaded 1 plugins from C:\Program Files\LAMMPS 64-bit 23Jun2022\plugins
Loaded 0 plugins from C:\Program Files\LAMMPS 64-bit 23Jun2022-MPI\plugins
Loaded 1 plugins from C:\Program Files\LAMMPS 64-bit 22Dec2022-MSMPI\plugins
Loaded 1 plugins from C:\Program Files\LAMMPS 64-bit 28Mar2023-MPI\plugins
box tilt large

The 'box' command has been removed and will be ignored

read_restart restart.equil
Reading restart file ...
  restart file = 22 Dec 2022, LAMMPS = 22 Dec 2022
  restoring atom style atomic from restart
  triclinic box = (9.9399808e-05 9.9399808e-05 9.9399808e-05) to (5.6877018 8.531503 11.375304) with tilt (0 0 0)
  1 by 2 by 2 MPI processor grid
  pair style meam stores no restart info
  48 atoms
  read_restart CPU = 0.000 seconds
include potential.mod
# NOTE: This script can be modified for different pair styles
# See in.elastic for more info.

# Choose potential
#-----------------------
#pair_style	sw
#pair_coeff * * Si.sw Si
#-----------------------
#pair_style morse	2.83994742	# D0[eV] a[1/A] r0[A] rc[A], 1NN for BCC
#pair_coeff 1 1	2.1173	1.0202	2.4595	2.6497	#	Fe-Fe
#-----------------------
#pair_style smatb # R0(A)   p       q     A(eV)   xi(eV)  Rcs(A)   Rc(A), 4NN: Rcs=4NN, Rc=(4NN+5NN)/2
#pair_coeff 1 1	2.4802	7.0149	2.3779	0.3144	3.0551	4.033	4.176	#	Co	Co
#-----------------------
#pair_style eam/alloy
#pair_coeff * * AlCrFeCoNi_Zhou04.eam.alloy Fe
#-----------------------
pair_style meam
pair_coeff * * ./../../library.meam Fe He ./../../FeHe.meam Fe He
#-----------------------

# Setup neighbor style
neighbor 1.0 nsq
neigh_modify once no every 1 delay 0 check yes

# Setup minimization style
min_style	     cg
min_modify	     dmax ${dmax} line quadratic
min_modify	     dmax 0.01 line quadratic

# Setup output
thermo		1
thermo_style custom step temp pe press pxx pyy pzz pxy pxz pyz lx ly lz vol
thermo_modify norm no

# Negative deformation

variable delta equal -${up}*${len0}
variable delta equal -1e-06*${len0}
variable delta equal -1e-06*5.68760240076869
variable deltaxy equal -${up}*xy
variable deltaxy equal -1e-06*xy
variable deltaxz equal -${up}*xz
variable deltaxz equal -1e-06*xz
variable deltayz equal -${up}*yz
variable deltayz equal -1e-06*yz
if "${dir} == 1" then    "change_box all x delta 0 ${delta} xy delta ${deltaxy} xz delta ${deltaxz} remap units box"
change_box all x delta 0 ${delta} xy delta ${deltaxy} xz delta ${deltaxz} remap units box
change_box all x delta 0 -5.68760240076869e-06 xy delta ${deltaxy} xz delta ${deltaxz} remap units box
change_box all x delta 0 -5.68760240076869e-06 xy delta -0 xz delta ${deltaxz} remap units box
change_box all x delta 0 -5.68760240076869e-06 xy delta -0 xz delta -0 remap units box
Changing box ...
  triclinic box = (9.9399808e-05 9.9399808e-05 9.9399808e-05) to (5.6876961 8.531503 11.375304) with tilt (0 0 0)
  triclinic box = (9.9399808e-05 9.9399808e-05 9.9399808e-05) to (5.6876961 8.531503 11.375304) with tilt (0 0 0)
  triclinic box = (9.9399808e-05 9.9399808e-05 9.9399808e-05) to (5.6876961 8.531503 11.375304) with tilt (0 0 0)
if "${dir} == 2" then    "change_box all y delta 0 ${delta} yz delta ${deltayz} remap units box"
if "${dir} == 3" then    "change_box all z delta 0 ${delta} remap units box"
if "${dir} == 4" then    "change_box all yz delta ${delta} remap units box"
if "${dir} == 5" then    "change_box all xz delta ${delta} remap units box"
if "${dir} == 6" then    "change_box all xy delta ${delta} remap units box"

# Relax atoms positions

minimize ${etol} ${ftol} ${maxiter} ${maxeval}
minimize 0 ${ftol} ${maxiter} ${maxeval}
minimize 0 1e-10 ${maxiter} ${maxeval}
minimize 0 1e-10 1000 ${maxeval}
minimize 0 1e-10 1000 100000
Neighbor list info ...
  update: every = 1 steps, delay = 0 steps, check = yes
  max neighbors/atom: 2000, page size: 100000
  master list distance cutoff = 5
  ghost atom cutoff = 5
  2 neighbor lists, perpetual/occasional/extra = 2 0 0
  (1) pair meam, perpetual
      attributes: full, newton on
      pair build: full/nsq
      stencil: none
      bin: none
  (2) pair meam, perpetual, half/full from (1)
      attributes: half, newton on
      pair build: halffull/newton
      stencil: none
      bin: none
Per MPI rank memory allocation (min/avg/max) = 9.77 | 9.772 | 9.774 Mbytes
   Step          Temp          PotEng         Press           Pxx            Pyy            Pzz            Pxy            Pxz            Pyz             Lx             Ly             Lz           Volume    
         1   0             -158.8698       0.66026832     19.65865      -8.8387726     -8.839072       8.4262741e-06  3.7724775e-05  2.2459668e-05  5.6875967      8.5314036      11.375205      551.96115    
         2   0             -158.8698       0.65952725     19.658906     -8.8395269     -8.8407976      0.0001755425  -3.0555466e-05  4.8258566e-05  5.6875967      8.5314036      11.375205      551.96115    
         3   0             -158.87003     -2.5873718      17.659656     -8.9594045     -16.462367      0.33542782     0.51697802     0.33095823     5.6875967      8.5314036      11.375205      551.96115    
         4   0             -158.88468     -203.71217     -108.34186     -18.040577     -484.75406      22.18664       32.494306      21.270371      5.6875967      8.5314036      11.375205      551.96115    
         5   0             -158.92188     -714.81634     -420.039       -50.032971     -1674.377       82.533684      111.38645      74.73718       5.6875967      8.5314036      11.375205      551.96115    
         6   0             -158.981       -1527.9107     -901.9499      -126.19236     -3555.5898      186.49959      231.69274      158.42857      5.6875967      8.5314036      11.375205      551.96115    
         7   0             -159.06121     -2631.3382     -1540.7011     -280.34855     -6072.9651      337.59301      386.1703       267.7166       5.6875967      8.5314036      11.375205      551.96115    
         8   0             -159.16242     -4020.5859     -2338.9408     -565.1779      -9157.6389      537.73747      567.4124       397.00787      5.6875967      8.5314036      11.375205      551.96115    
         9   0             -159.29035     -5759.6947     -3396.018      -1100.6882     -12782.378      789.18716      776.2262       545.02592      5.6875967      8.5314036      11.375205      551.96115    
        10   0             -159.48741     -8354.641      -5399.0831     -2394.8461     -17269.994      1103.208       1073.2477      740.82568      5.6875967      8.5314036      11.375205      551.96115    
        11   0             -159.92208     -13871.373     -11088.11      -6447.7833     -24078.227      1490.9837      1784.0268      1106.5578      5.6875967      8.5314036      11.375205      551.96115    
        12   0             -160.42016     -20192.959     -18028.75      -12200.434     -30349.691      1767.7216      2765.5897      1467.6779      5.6875967      8.5314036      11.375205      551.96115    
        13   0             -160.99981     -27595.184     -25947.451     -20065.727     -36772.375      1998.9239      4010.7743      1804.6656      5.6875967      8.5314036      11.375205      551.96115    
        14   0             -161.68235     -36302.852     -35088.451     -30468.94      -43351.165      2157.6156      5447.1406      2098.9635      5.6875967      8.5314036      11.375205      551.96115    
        15   0             -162.46287     -46185.466     -45544.624     -43288.763     -49723.012      2188.5737      6919.9295      2329.592       5.6875967      8.5314036      11.375205      551.96115    
        16   0             -163.30199     -56670.027     -56937.345     -57610.087     -55462.651      2039.6643      8209.1125      2470.7262      5.6875967      8.5314036      11.375205      551.96115    
        17   0             -164.11865     -66686.218     -68173.559     -71793.096     -60092.001      1784.3646      9089.5031      2499.3495      5.6875967      8.5314036      11.375205      551.96115    
        18   0             -164.89823     -76015.404     -78830.012     -85474.21      -63741.99       1227.4423      9464.4813      2385.1948      5.6875967      8.5314036      11.375205      551.96115    
        19   0             -165.62904     -84491.346     -88370.334     -98694.968     -66408.735      906.97514      9233.5344      2285.9135      5.6875967      8.5314036      11.375205      551.96115    
        20   0             -166.30336     -91998.453     -96332.203     -110821.75     -68841.403      633.91368      8537.3733      2219.9928      5.6875967      8.5314036      11.375205      551.96115    
        21   0             -166.92078     -98529.081     -103370.85     -121649.86     -70566.535      882.44236      7724.4593      2286.7425      5.6875967      8.5314036      11.375205      551.96115    
        22   0             -167.50825     -104361.17     -109770.33     -130234.84     -73078.336      1112.1993      7395.1109      2580.0363      5.6875967      8.5314036      11.375205      551.96115    
        23   0             -168.06753     -109478.87     -113222.21     -137672.23     -77542.174      1261.8654      7273.1136      3179.1708      5.6875967      8.5314036      11.375205      551.96115    
        24   0             -168.60482     -113932.91     -113757.68     -143713.98     -84327.069      1573.0485      7506.9345      3419.9912      5.6875967      8.5314036      11.375205      551.96115    
        25   0             -169.12643     -117747.99     -113892.78     -148663.35     -90687.839      1871.0907      7089.9159      3548.4894      5.6875967      8.5314036      11.375205      551.96115    
        26   0             -169.63871     -120962.8      -112743.99     -154191        -95953.408      2058.899       5905.6156      2476.4571      5.6875967      8.5314036      11.375205      551.96115    
        27   0             -170.15328     -123650.98     -112794        -158541.91     -99617.033      2898.9612      4889.0936      1300.3201      5.6875967      8.5314036      11.375205      551.96115    
        28   0             -170.66473     -125815.21     -112357.35     -160732.09     -104356.18      3550.5648      3960.6267      1036.1587      5.6875967      8.5314036      11.375205      551.96115    
        29   0             -171.13895     -127463.57     -112738.24     -160582.11     -109070.36      3805.7768      3622.8563      1453.4162      5.6875967      8.5314036      11.375205      551.96115    
        30   0             -171.60517     -128837.61     -114351.46     -159318.87     -112842.49      3680.7225      3865.1581      1966.3163      5.6875967      8.5314036      11.375205      551.96115    
        31   0             -172.07878     -130077.92     -116200.94     -157953.28     -116079.54      3361.6761      4224.5326      2172.7604      5.6875967      8.5314036      11.375205      551.96115    
        32   0             -172.56825     -131278.09     -118581.54     -156439.2      -118813.54      3127.8021      4598.821       2380.1092      5.6875967      8.5314036      11.375205      551.96115    
        33   0             -173.08031     -132522.63     -120747.19     -155749.79     -121070.91      2837.0708      4885.3005      2837.5685      5.6875967      8.5314036      11.375205      551.96115    
        34   0             -173.61865     -133877.13     -123165.9      -155522.86     -122942.64      2616.4001      5217.7814      3288.9887      5.6875967      8.5314036      11.375205      551.96115    
        35   0             -174.18375     -135384.31     -125796.87     -155427.27     -124928.8       2415.177       5705.9544      3618.7371      5.6875967      8.5314036      11.375205      551.96115    
        36   0             -174.77445     -137069.42     -128789.3      -155732.7      -126686.26      2177.4519      6230.0408      3694.0333      5.6875967      8.5314036      11.375205      551.96115    
        37   0             -175.38843     -138929.51     -131894.91     -156496.99     -128396.63      2147.6753      7042.0791      3529.1156      5.6875967      8.5314036      11.375205      551.96115    
        38   0             -176.02258     -140940.7      -134488.34     -157987.85     -130345.91      2181.6287      8103.5616      2981.4168      5.6875967      8.5314036      11.375205      551.96115    
        39   0             -176.67546     -143073.22     -136826.95     -159891.92     -132500.78      2387.6001      9398.6158      2153.3833      5.6875967      8.5314036      11.375205      551.96115    
        40   0             -177.34649     -145285.18     -139258.5      -161902        -134695.05      2813.8571      10936.829      1160.3529      5.6875967      8.5314036      11.375205      551.96115    
        41   0             -178.03696     -147539.63     -141796.82     -164017.74     -136804.32      3516.4888      12599.628      112.67732      5.6875967      8.5314036      11.375205      551.96115    
        42   0             -178.75174     -149855.78     -144420.01     -165945.76     -139201.56      4369.4212      14007.861     -520.16966      5.6875967      8.5314036      11.375205      551.96115    
        43   0             -179.49894     -152258.58     -147074.23     -167926.43     -141775.08      5404.4104      15449.248     -1074.0032      5.6875967      8.5314036      11.375205      551.96115    
        44   0             -180.2838      -154732.1      -149835.06     -169898.64     -144462.6       6578.819       16943.364     -1451.9129      5.6875967      8.5314036      11.375205      551.96115    
        45   0             -181.1109      -157256.86     -152554.2      -172025.99     -147190.41      7834.6905      18525.517     -1672.9078      5.6875967      8.5314036      11.375205      551.96115    
        46   0             -181.98395     -159832.26     -155278.52     -174283.04     -149935.22      8925.0554      20245.406     -1536.3506      5.6875967      8.5314036      11.375205      551.96115    
        47   0             -182.90457     -162451.54     -158058.62     -176591.81     -152704.18      9905.3311      22182.7       -1167.3549      5.6875967      8.5314036      11.375205      551.96115    
        48   0             -183.84752     -165071.41     -160795.81     -179091.57     -155326.84      10601.86       24301.924     -472.29402      5.6875967      8.5314036      11.375205      551.96115    
        49   0             -184.79574     -167623.67     -163449.3      -181587.84     -157833.86      11120.499      26664.306      274.94506      5.6875967      8.5314036      11.375205      551.96115    
        50   0             -185.75184     -170089.87     -166025.15     -184046.13     -160198.33      11488.612      29209.474      1019.1558      5.6875967      8.5314036      11.375205      551.96115    
        51   0             -186.72179     -172468.14     -168520.67     -186491.98     -162391.77      11758.332      31906.511      1746.648       5.6875967      8.5314036      11.375205      551.96115    
        52   0             -187.71425     -174750.36     -170927.29     -188947.67     -164376.12      11943.985      34753.131      2443.8885      5.6875967      8.5314036      11.375205      551.96115    
        53   0             -188.74089     -176961.04     -173217.9      -191469.36     -166195.87      12046.224      37700.054      3058.4161      5.6875967      8.5314036      11.375205      551.96115    
        54   0             -189.81641     -179130.17     -175408.64     -194066.81     -167915.05      12128.394      40752.043      3691.3265      5.6875967      8.5314036      11.375205      551.96115    
        55   0             -190.95745     -181254.54     -177471.28     -196757.61     -169534.73      12183.018      43955.645      4413.9971      5.6875967      8.5314036      11.375205      551.96115    
        56   0             -192.11755     -183232.53     -179249.66     -199405.34     -171042.61      12203.705      47145.567      5199.3284      5.6875967      8.5314036      11.375205      551.96115    
        57   0             -193.28777     -185073.17     -180739.94     -201932.88     -172546.7       12185.355      50245.598      6052.171       5.6875967      8.5314036      11.375205      551.96115    
        58   0             -194.47006     -186817.83     -182183.45     -204261.44     -174008.6       12305.177      52823.876      6762.141       5.6875967      8.5314036      11.375205      551.96115    
        59   0             -195.67221     -188542.62     -183583.82     -206371.45     -175672.6       12215.546      55220.911      7348.6334      5.6875967      8.5314036      11.375205      551.96115    
        60   0             -196.90829     -190285.15     -185047.45     -208174.51     -177633.5       11744.936      57569.534      7637.8949      5.6875967      8.5314036      11.375205      551.96115    
        61   0             -198.20072     -192041.24     -186463.6      -209774.53     -179885.58      11016.7        59797.524      7480.0997      5.6875967      8.5314036      11.375205      551.96115    
        62   0             -199.58014     -193831.32     -187768.46     -211297.96     -182427.54      10062.915      61645.033      6690.2838      5.6875967      8.5314036      11.375205      551.96115    
        63   0             -201.08408     -195687.42     -188974.48     -212898.04     -185189.75      8983.408       63302.863      5417.0896      5.6875967      8.5314036      11.375205      551.96115    
        64   0             -202.75799     -197621.15     -189778.01     -215569.51     -187515.94      8581.265       65219.748      4742.7144      5.6875967      8.5314036      11.375205      551.96115    
        65   0             -204.52744     -199601.42     -190403.08     -219392.44     -189008.73      8756.8058      67282.434      4840.8823      5.6875967      8.5314036      11.375205      551.96115    
        66   0             -206.35528     -201489.46     -190934.77     -223676.39     -189857.23      9226.0303      69183.767      5054.1244      5.6875967      8.5314036      11.375205      551.96115    
        67   0             -208.26926     -203191.98     -192120.97     -227694.62     -189760.35      9116.6614      71242.441      5238.9773      5.6875967      8.5314036      11.375205      551.96115    
        68   0             -210.22422     -204588.28     -193656.48     -231283.44     -188824.91      9076.0506      73134.434      5581.6967      5.6875967      8.5314036      11.375205      551.96115    
        69   0             -212.20831     -205580.58     -195155.52     -234210.64     -187375.6       9517.1931      74590.442      6258.7686      5.6875967      8.5314036      11.375205      551.96115    
        70   0             -214.22272     -206188.33     -196431.06     -235007.33     -187126.6       10206.178      75730.911      6301.1913      5.6875967      8.5314036      11.375205      551.96115    
        71   0             -216.2749      -206502.32     -197279.57     -233883.49     -188343.89      10973.682      76727.242      6078.5615      5.6875967      8.5314036      11.375205      551.96115    
        72   0             -218.3612      -206507.68     -198158.98     -232456.51     -188907.56      12706.905      77707.772      6690.5631      5.6875967      8.5314036      11.375205      551.96115    
        73   0             -220.43953     -206258.48     -198977.45     -231149.52     -188648.46      14858.537      78780.25       7731.8282      5.6875967      8.5314036      11.375205      551.96115    
        74   0             -222.51653     -205797.13     -199090.03     -230044.39     -188256.97      16471.703      79774.358      8492.7919      5.6875967      8.5314036      11.375205      551.96115    
        75   0             -224.61653     -205218.8      -198047.98     -229706.59     -187901.83      17144.303      80675.091      8714.9672      5.6875967      8.5314036      11.375205      551.96115    
        76   0             -226.76568     -204538.33     -196889.1      -229240.71     -187485.18      17900.447      81606.89       8956.0218      5.6875967      8.5314036      11.375205      551.96115    
        77   0             -228.96538     -203761.73     -195594.51     -228686.28     -187004.42      18621.966      82599.938      9151.2011      5.6875967      8.5314036      11.375205      551.96115    
        78   0             -231.21692     -202918.9      -194163.52     -228188.53     -186404.66      19295.402      83743.032      9135.6653      5.6875967      8.5314036      11.375205      551.96115    
        79   0             -233.52192     -202018.49     -192621.07     -227768.94     -185665.48      20000.017      85056.941      8893.6372      5.6875967      8.5314036      11.375205      551.96115    
        80   0             -235.88172     -201057.79     -191033.65     -227274.23     -184865.5       20791.526      86470.92       8573.4515      5.6875967      8.5314036      11.375205      551.96115    
        81   0             -238.29753     -200037.13     -189490.54     -226624.68     -183996.17      21575.851      88038.328      8160.9777      5.6875967      8.5314036      11.375205      551.96115    
        82   0             -240.77078     -198955.34     -187914.95     -225886.46     -183064.62      22518.809      89708.996      7693.9452      5.6875967      8.5314036      11.375205      551.96115    
        83   0             -243.30251     -197807.39     -186298.06     -225048.25     -182075.86      23625.732      91489.276      7188.7871      5.6875967      8.5314036      11.375205      551.96115    
        84   0             -245.89418     -196603.35     -184953.76     -224047.25     -180809.04      24725.348      93003.388      6795.8839      5.6875967      8.5314036      11.375205      551.96115    
        85   0             -248.54833     -195357.85     -183860.6      -222900.54     -179312.39      25712.407      94189.215      6530.7446      5.6875967      8.5314036      11.375205      551.96115    
        86   0             -251.26696     -194070.81     -182804.21     -221633.17     -177775.05      26714.499      95360.737      6358.1372      5.6875967      8.5314036      11.375205      551.96115    
        87   0             -254.05125     -192735.47     -181718.14     -220110.06     -176378.21      27728.694      96684.599      6310.5928      5.6875967      8.5314036      11.375205      551.96115    
        88   0             -256.90203     -191340.23     -180557.48     -218389.98     -175073.23      28747.836      98087.383      6385.9413      5.6875967      8.5314036      11.375205      551.96115    
        89   0             -259.82046     -189879.44     -179319.18     -216563.28     -173755.88      29760.457      99409.886      6560.3401      5.6875967      8.5314036      11.375205      551.96115    
        90   0             -262.80827     -188335.64     -178066.55     -214622.26     -172318.11      30700.389      100447.43      6788.8772      5.6875967      8.5314036      11.375205      551.96115    
        91   0             -265.86793     -186684.38     -176869.09     -212570.38     -170613.66      31523.823      100971.66      7025.6934      5.6875967      8.5314036      11.375205      551.96115    
        92   0             -269.00274     -184895.79     -175764.9      -210416.05     -168506.43      32170.632      100794.04      7228.984       5.6875967      8.5314036      11.375205      551.96115    
        93   0             -272.21641     -182932.12     -174480.34     -208179.33     -166136.71      32479.191      100090.53      7453.3109      5.6875967      8.5314036      11.375205      551.96115    
        94   0             -275.51019     -180850.61     -172683.28     -205927.88     -163940.68      32102.045      99102.376      7924.4526      5.6875967      8.5314036      11.375205      551.96115    
        95   0             -278.88356     -178678.94     -170607.95     -203704.88     -161723.98      31300.041      97829.421      8462.2489      5.6875967      8.5314036      11.375205      551.96115    
        96   0             -282.33698     -176408.01     -168217.79     -201514.94     -159491.31      30018.351      96270.758      9074.5915      5.6875967      8.5314036      11.375205      551.96115    
        97   0             -285.87071     -174029.72     -165491.11     -199349.4      -157248.65      28219.902      94442.79       9773.4335      5.6875967      8.5314036      11.375205      551.96115    
        98   0             -289.48494     -171537.59     -162416.69     -197185.64     -155010.45      25888.974      92388.018      10574.187      5.6875967      8.5314036      11.375205      551.96115    
        99   0             -293.17975     -168927.21     -158995.98     -194988        -152797.66      23034.439      90169.813      11491.271      5.6875967      8.5314036      11.375205      551.96115    
       100   0             -296.9556      -166199.22     -155816.57     -192093.34     -150687.75      20830.431      88291.344      12405.878      5.6875967      8.5314036      11.375205      551.96115    
       101   0             -300.79748     -163386.76     -153168.94     -188257.02     -148734.32      19848.351      87019.963      13214.572      5.6875967      8.5314036      11.375205      551.96115    
       102   0             -304.67297     -160515.5      -150309.82     -184343.19     -146893.5       18646.12       85916.2        14205.864      5.6875967      8.5314036      11.375205      551.96115    
       103   0             -308.57103     -157590.92     -147239.61     -180318.1      -145215.04      17170.517      85042.959      15278.949      5.6875967      8.5314036      11.375205      551.96115    
       104   0             -312.47607     -154623.03     -143960.68     -176211.89     -143696.51      15418.76       84448.512      16429.535      5.6875967      8.5314036      11.375205      551.96115    
       105   0             -316.36369     -151627.93     -140516.3      -172077.84     -142289.66      13387.428      84088.884      17627.934      5.6875967      8.5314036      11.375205      551.96115    
       106   0             -320.18804     -148640.64     -136937.03     -168341.72     -140643.19      11313.554      83979.224      18918.31       5.6875967      8.5314036      11.375205      551.96115    
       107   0             -320.91602     -148066.28     -136251.62     -167718.06     -140229.18      10918.732      83980.79       19091.977      5.6875967      8.5314036      11.375205      551.96115    
       108   0             -324.95174     -147228.73     -155577.25     -188333.85     -97775.094      37089.333      135299.16     -34485.752      5.6875967      8.5314036      11.375205      551.96115    
       109   0             -330.82269     -111097.15     -129405.34     -155657.75     -48228.347      7807.205       99186.16       5850.8626      5.6875967      8.5314036      11.375205      551.96115    
       110   0             -336.75715     -144609.82     -134905.08     -162827.13     -136097.26      16331.346      79911.683      23999.835      5.6875967      8.5314036      11.375205      551.96115    
       111   0             -336.79487     -135621.71     -122796.68     -149328.47     -134740         3540.8659      83937.67       19751.854      5.6875967      8.5314036      11.375205      551.96115    
       112   0             -336.81799     -136734.44     -124291.84     -150994.17     -134917.31      5119.5929      83423.097      20293.47       5.6875967      8.5314036      11.375205      551.96115    
       113   0             -336.84932     -139796.07     -128405.8      -155577.13     -135405.27      9463.4068      82007.078      21783.799      5.6875967      8.5314036      11.375205      551.96115    
       114   0             -336.85039     -140266.84     -129038.39     -156281.91     -135480.23      10131.422      81789.228      22013.06       5.6875967      8.5314036      11.375205      551.96115    
       115   0             -337.3501      -123031.81     -104751.13     -133457.66     -130886.63     -13331.786      91881.045      12215.873      5.6875967      8.5314036      11.375205      551.96115    
       116   0             -340.86462     -119016.7      -96710.184     -138283.98     -122055.92     -14214.857      101596.24      4370.5721      5.6875967      8.5314036      11.375205      551.96115    
       117   0             -341.9628      -135109.23     -121102.13     -150548.18     -133677.36      3103.1489      84686.02       16420.479      5.6875967      8.5314036      11.375205      551.96115    
       118   0             -341.97498     -136707.43     -123523.4      -151711.11     -134887.78      4782.0679      82973.831      17605.614      5.6875967      8.5314036      11.375205      551.96115    
       119   0             -341.97658     -137332.75     -124470.75     -152165.95     -135361.54      5438.8636      82303.651      18069.506      5.6875967      8.5314036      11.375205      551.96115    
       120   0             -342.06238     -141311.86     -130459.35     -154907.9      -138568.34      9500.514       77873.696      21102.514      5.6875967      8.5314036      11.375205      551.96115    
       121   0             -344.13117     -108949.8      -103397.81     -149146.25     -74305.335      203.20458      115609.69      14414.835      5.6875967      8.5314036      11.375205      551.96115    
       122   0             -347.36802     -138238.06     -119328.21     -154121.43     -141264.55      47.111727      81186.354      17270.99       5.6875967      8.5314036      11.375205      551.96115    
       123   0             -347.69092     -151864.86     -119433.78     -157133.66     -179027.14     -3097.3816      74587.645      4557.9708      5.6875967      8.5314036      11.375205      551.96115    
       124   0             -348.37112     -125977.38     -116907.65     -150727.91     -110296.58      929.37585      87771.556      25548.054      5.6875967      8.5314036      11.375205      551.96115    
       125   0             -348.54728     -133858.27     -117675.52     -152676.74     -131222.56     -296.13113      83759.477      19158.588      5.6875967      8.5314036      11.375205      551.96115    
       126   0             -348.54788     -134051.15     -117694.19     -152724.26     -131735        -326.29832      83661.113      19002.031      5.6875967      8.5314036      11.375205      551.96115    
       127   0             -348.54851     -134255.91     -117713.91     -152774.56     -132279.26     -358.45815      83556.57       18835.692      5.6875967      8.5314036      11.375205      551.96115    
       128   0             -348.55955     -136035.32     -117872.98     -153197.77     -137035.21     -643.86726      82649.599      17383.027      5.6875967      8.5314036      11.375205      551.96115    
       129   0             -352.19859     -119299.18     -111019.51     -143705.69     -103172.33     -3783.698       70188.143      17105.683      5.6875967      8.5314036      11.375205      551.96115    
       130   0             -353.04907     -134541.28     -121481.67     -143283.25     -138858.93     -4865.4861      89558.15       18119.757      5.6875967      8.5314036      11.375205      551.96115    
       131   0             -353.15632     -138660.3      -125839.66     -143183.71     -146957.54     -5774.8299      95580.886      19073.577      5.6875967      8.5314036      11.375205      551.96115    
       132   0             -353.60889     -146364.9      -139894.45     -143246.72     -155953.51     -10424.058      108091.17      22662.605      5.6875967      8.5314036      11.375205      551.96115    
       133   0             -355.228       -150303.87     -162408.78     -145256.78     -143246.05     -22419.827      109811.65      25792.669      5.6875967      8.5314036      11.375205      551.96115    
       134   0             -357.83122     -117566.51     -93919.149     -136899.49     -121880.9       197.08809      73556.626      15344.83       5.6875967      8.5314036      11.375205      551.96115    
       135   0             -358.38642     -118971.61     -97098.312     -136806.93     -123009.58     -1029.1235      76246.438      16217.981      5.6875967      8.5314036      11.375205      551.96115    
       136   0             -358.50937     -125093.79     -112011.49     -139126.34     -124143.55     -6914.8478      80354.661      17836.139      5.6875967      8.5314036      11.375205      551.96115    
       137   0             -358.51129     -125578.91     -113193.57     -139309.96     -124233.2      -7381.5334      80680.219      17964.312      5.6875967      8.5314036      11.375205      551.96115    
       138   0             -358.51174     -125713.76     -113522.3      -139360.95     -124258.04     -7511.3942      80770.725      17999.928      5.6875967      8.5314036      11.375205      551.96115    
       139   0             -358.51235     -125900.22     -113977.02     -139431.36     -124292.27     -7691.1068      80895.882      18049.152      5.6875967      8.5314036      11.375205      551.96115    
       140   0             -358.52031     -127163.92     -117072.01     -139900.75     -124519.01     -8913.9687      81746.324      18380.865      5.6875967      8.5314036      11.375205      551.96115    
       141   0             -358.59451     -122058.2      -104622.17     -138078.62     -123473.83     -4306.0104      78264.318      17060.294      5.6875967      8.5314036      11.375205      551.96115    
       142   0             -361.87362     -133282.37     -132297.66     -143793.24     -123756.21     -2034.5772      86674.122      13341.283      5.6875967      8.5314036      11.375205      551.96115    
       143   0             -362.30026     -134078.22     -133348.29     -145221.75     -123664.61      267.93044      87207.517      12243.519      5.6875967      8.5314036      11.375205      551.96115    
       144   0             -362.69054     -119766.62     -101508.69     -138605.2      -119185.97     -14149.413      75417.008      17514.271      5.6875967      8.5314036      11.375205      551.96115    
       145   0             -362.72056     -121684.31     -105726.65     -139555.81     -119770.46     -12147.366      76986.9        16769.505      5.6875967      8.5314036      11.375205      551.96115    
       146   0             -362.73186     -123406.24     -109514.31     -140409.23     -120295.19     -10349.659      78396.709      16100.599      5.6875967      8.5314036      11.375205      551.96115    
       147   0             -362.732       -123445.19     -109600.04     -140428.52     -120307.02     -10308.974      78428.612      16085.436      5.6875967      8.5314036      11.375205      551.96115    
       148   0             -362.73215     -123488.02     -109694.33     -140449.72     -120320.02     -10264.229      78463.699      16068.755      5.6875967      8.5314036      11.375205      551.96115    
       149   0             -362.73238     -123551.31     -109833.66     -140481.04     -120339.22     -10198.109      78515.548      16044.095      5.6875967      8.5314036      11.375205      551.96115    
       150   0             -362.73292     -123696.47     -110153.35     -140552.85     -120383.2      -10046.41       78634.51       15987.474      5.6875967      8.5314036      11.375205      551.96115    
       151   0             -362.74043     -124897.54     -112805.84     -141143.41     -120743.38     -8789.4743      79622.283      15514.386      5.6875967      8.5314036      11.375205      551.96115    
       152   0             -362.79466     -118245.04     -98302.886     -137872.66     -118559.58     -15608.72       74116.163      18039.346      5.6875967      8.5314036      11.375205      551.96115    
       153   0             -362.81489     -114654.15     -90559.42      -136210.24     -117192.77     -19117.127      70990.237      19384.063      5.6875967      8.5314036      11.375205      551.96115    
       154   0             -363.69249     -133087.76     -131919.02     -143700.15     -123644.11     -981.36133      88151.194      11409.862      5.6875967      8.5314036      11.375205      551.96115    
       155   0             -369.40682     -167258.14     -136564.97     -162984.71     -202224.75     -12764.986      109398.6       51354.943      5.6875967      8.5314036      11.375205      551.96115    
       156   0             -374.77916     -131853.38     -130071.71     -141755.7      -123732.72     -3004.4944      88742.515      11162.263      5.6875967      8.5314036      11.375205      551.96115    
       157   0             -374.80669     -111580.26     -87338.053     -135692.39     -111710.35     -18696.476      66867.94       18703.703      5.6875967      8.5314036      11.375205      551.96115    
       158   0             -375.04919     -121074.71     -107361.66     -138529.82     -117332.64     -11343.374      77116.73       15164.325      5.6875967      8.5314036      11.375205      551.96115    
       159   0             -375.04922     -121085.05     -107382.78     -138532.99     -117339.39     -11335.706      77127.684      15160.985      5.6875967      8.5314036      11.375205      551.96115    
       160   0             -375.04924     -121088.81     -107390.46     -138534.14     -117341.84     -11332.918      77131.669      15159.771      5.6875967      8.5314036      11.375205      551.96115    
       161   0             -375.04924     -121090.24     -107393.38     -138534.58     -117342.77     -11331.859      77133.182      15159.309      5.6875967      8.5314036      11.375205      551.96115    
       162   0             -375.04924     -121090.79     -107394.5      -138534.75     -117343.13     -11331.45       77133.765      15159.131      5.6875967      8.5314036      11.375205      551.96115    
       163   0             -375.04924     -121091.01     -107394.94     -138534.81     -117343.27     -11331.291      77133.992      15159.062      5.6875967      8.5314036      11.375205      551.96115    
       164   0             -375.04924     -121091.09     -107395.11     -138534.84     -117343.32     -11331.23       77134.08       15159.035      5.6875967      8.5314036      11.375205      551.96115    
       165   0             -375.04924     -121091.12     -107395.18     -138534.85     -117343.35     -11331.206      77134.115      15159.025      5.6875967      8.5314036      11.375205      551.96115    
       166   0             -375.04924     -121091.14     -107395.2      -138534.85     -117343.35     -11331.196      77134.128      15159.021      5.6875967      8.5314036      11.375205      551.96115    
       167   0             -375.04924     -121091.14     -107395.21     -138534.85     -117343.36     -11331.193      77134.133      15159.019      5.6875967      8.5314036      11.375205      551.96115    
       168   0             -375.04924     -121091.14     -107395.22     -138534.85     -117343.36     -11331.191      77134.135      15159.019      5.6875967      8.5314036      11.375205      551.96115    
       169   0             -375.04924     -121091.14     -107395.22     -138534.85     -117343.36     -11331.191      77134.136      15159.018      5.6875967      8.5314036      11.375205      551.96115    
       170   0             -375.04924     -121091.14     -107395.22     -138534.85     -117343.36     -11331.19       77134.136      15159.018      5.6875967      8.5314036      11.375205      551.96115    
       171   0             -375.04924     -121091.14     -107395.22     -138534.85     -117343.36     -11331.19       77134.136      15159.018      5.6875967      8.5314036      11.375205      551.96115    
       172   0             -375.04924     -121091.14     -107395.22     -138534.85     -117343.36     -11331.19       77134.136      15159.018      5.6875967      8.5314036      11.375205      551.96115    
       173   0             -375.04924     -121091.14     -107395.22     -138534.85     -117343.36     -11331.19       77134.136      15159.018      5.6875967      8.5314036      11.375205      551.96115    
       174   0             -375.04924     -121091.14     -107395.22     -138534.85     -117343.36     -11331.19       77134.136      15159.018      5.6875967      8.5314036      11.375205      551.96115    
       175   0             -375.04924     -121091.14     -107395.22     -138534.85     -117343.36     -11331.19       77134.136      15159.018      5.6875967      8.5314036      11.375205      551.96115    
       176   0             -375.04924     -121091.14     -107395.22     -138534.85     -117343.36     -11331.19       77134.136      15159.018      5.6875967      8.5314036      11.375205      551.96115    
       177   0             -375.04924     -121091.14     -107395.22     -138534.85     -117343.36     -11331.19       77134.136      15159.018      5.6875967      8.5314036      11.375205      551.96115    
       178   0             -375.04924     -121091.14     -107395.22     -138534.85     -117343.36     -11331.19       77134.136      15159.018      5.6875967      8.5314036      11.375205      551.96115    
       179   0             -375.04924     -121091.14     -107395.22     -138534.85     -117343.36     -11331.19       77134.136      15159.018      5.6875967      8.5314036      11.375205      551.96115    
       180   0             -375.04924     -121091.14     -107395.22     -138534.85     -117343.36     -11331.19       77134.136      15159.018      5.6875967      8.5314036      11.375205      551.96115    
       181   0             -375.04924     -121091.14     -107395.22     -138534.85     -117343.36     -11331.19       77134.136      15159.018      5.6875967      8.5314036      11.375205      551.96115    
       182   0             -375.04924     -121091.14     -107395.22     -138534.85     -117343.36     -11331.19       77134.136      15159.018      5.6875967      8.5314036      11.375205      551.96115    
       183   0             -375.04924     -121091.14     -107395.22     -138534.85     -117343.36     -11331.19       77134.136      15159.018      5.6875967      8.5314036      11.375205      551.96115    
       184   0             -375.04924     -121091.14     -107395.22     -138534.85     -117343.36     -11331.19       77134.136      15159.018      5.6875967      8.5314036      11.375205      551.96115    
       185   0             -375.04924     -121091.14     -107395.22     -138534.85     -117343.36     -11331.19       77134.136      15159.018      5.6875967      8.5314036      11.375205      551.96115    
       186   0             -375.04924     -121091.14     -107395.22     -138534.85     -117343.36     -11331.19       77134.136      15159.018      5.6875967      8.5314036      11.375205      551.96115    
       187   0             -375.04924     -121091.14     -107395.22     -138534.85     -117343.36     -11331.19       77134.136      15159.018      5.6875967      8.5314036      11.375205      551.96115    
       188   0             -375.04924     -121091.14     -107395.22     -138534.85     -117343.36     -11331.19       77134.136      15159.018      5.6875967      8.5314036      11.375205      551.96115    
       189   0             -375.04924     -121091.14     -107395.22     -138534.85     -117343.36     -11331.19       77134.136      15159.018      5.6875967      8.5314036      11.375205      551.96115    
       190   0             -375.04924     -121091.14     -107395.22     -138534.85     -117343.36     -11331.19       77134.136      15159.018      5.6875967      8.5314036      11.375205      551.96115    
       191   0             -375.04924     -121091.14     -107395.22     -138534.85     -117343.36     -11331.19       77134.136      15159.018      5.6875967      8.5314036      11.375205      551.96115    
       192   0             -375.04924     -121091.14     -107395.22     -138534.85     -117343.36     -11331.19       77134.136      15159.018      5.6875967      8.5314036      11.375205      551.96115    
       193   0             -375.04924     -121091.14     -107395.22     -138534.85     -117343.36     -11331.19       77134.136      15159.018      5.6875967      8.5314036      11.375205      551.96115    
       194   0             -375.04924     -121091.14     -107395.22     -138534.85     -117343.36     -11331.19       77134.136      15159.018      5.6875967      8.5314036      11.375205      551.96115    
       195   0             -375.04924     -121091.14     -107395.22     -138534.85     -117343.36     -11331.19       77134.136      15159.018      5.6875967      8.5314036      11.375205      551.96115    
       196   0             -375.04924     -121091.14     -107395.22     -138534.85     -117343.36     -11331.19       77134.136      15159.018      5.6875967      8.5314036      11.375205      551.96115    
       197   0             -375.04924     -121091.14     -107395.22     -138534.85     -117343.36     -11331.19       77134.136      15159.018      5.6875967      8.5314036      11.375205      551.96115    
       198   0             -375.04924     -121091.14     -107395.22     -138534.85     -117343.36     -11331.19       77134.136      15159.018      5.6875967      8.5314036      11.375205      551.96115    
       199   0             -375.04924     -121091.14     -107395.22     -138534.85     -117343.36     -11331.19       77134.136      15159.018      5.6875967      8.5314036      11.375205      551.96115    
       200   0             -375.04924     -121091.14     -107395.22     -138534.85     -117343.36     -11331.19       77134.136      15159.018      5.6875967      8.5314036      11.375205      551.96115    
       201   0             -375.04924     -121091.14     -107395.22     -138534.85     -117343.36     -11331.19       77134.136      15159.018      5.6875967      8.5314036      11.375205      551.96115    
       202   0             -375.04924     -121091.14     -107395.22     -138534.85     -117343.36     -11331.19       77134.136      15159.018      5.6875967      8.5314036      11.375205      551.96115    
       203   0             -375.04924     -121091.14     -107395.22     -138534.85     -117343.36     -11331.19       77134.136      15159.018      5.6875967      8.5314036      11.375205      551.96115    
       204   0             -375.04924     -121091.14     -107395.22     -138534.85     -117343.36     -11331.19       77134.136      15159.018      5.6875967      8.5314036      11.375205      551.96115    
       205   0             -375.04924     -121091.14     -107395.22     -138534.85     -117343.36     -11331.19       77134.136      15159.018      5.6875967      8.5314036      11.375205      551.96115    
       206   0             -375.04924     -121091.14     -107395.22     -138534.85     -117343.36     -11331.19       77134.136      15159.018      5.6875967      8.5314036      11.375205      551.96115    
       207   0             -375.04924     -121091.14     -107395.22     -138534.85     -117343.36     -11331.19       77134.136      15159.018      5.6875967      8.5314036      11.375205      551.96115    
       208   0             -375.04924     -121091.14     -107395.22     -138534.85     -117343.36     -11331.19       77134.136      15159.018      5.6875967      8.5314036      11.375205      551.96115    
       209   0             -375.04924     -121091.14     -107395.22     -138534.85     -117343.36     -11331.19       77134.136      15159.018      5.6875967      8.5314036      11.375205      551.96115    
       210   0             -375.04924     -121091.14     -107395.22     -138534.85     -117343.36     -11331.19       77134.136      15159.018      5.6875967      8.5314036      11.375205      551.96115    
       211   0             -375.04924     -121091.14     -107395.22     -138534.85     -117343.36     -11331.19       77134.136      15159.018      5.6875967      8.5314036      11.375205      551.96115    
       212   0             -375.04924     -121091.14     -107395.22     -138534.85     -117343.36     -11331.19       77134.136      15159.018      5.6875967      8.5314036      11.375205      551.96115    
       213   0             -375.04924     -121091.14     -107395.22     -138534.85     -117343.36     -11331.19       77134.136      15159.018      5.6875967      8.5314036      11.375205      551.96115    
       214   0             -375.04924     -121091.14     -107395.22     -138534.85     -117343.36     -11331.19       77134.136      15159.018      5.6875967      8.5314036      11.375205      551.96115    
       215   0             -375.04924     -121091.14     -107395.22     -138534.85     -117343.36     -11331.19       77134.136      15159.018      5.6875967      8.5314036      11.375205      551.96115    
       216   0             -375.04924     -121091.14     -107395.22     -138534.85     -117343.36     -11331.19       77134.136      15159.018      5.6875967      8.5314036      11.375205      551.96115    
       217   0             -375.04924     -121091.14     -107395.22     -138534.85     -117343.36     -11331.19       77134.136      15159.018      5.6875967      8.5314036      11.375205      551.96115    
       218   0             -375.04924     -121091.14     -107395.22     -138534.85     -117343.36     -11331.19       77134.136      15159.018      5.6875967      8.5314036      11.375205      551.96115    
       219   0             -375.04924     -121091.14     -107395.22     -138534.85     -117343.36     -11331.19       77134.136      15159.018      5.6875967      8.5314036      11.375205      551.96115    
       220   0             -375.04924     -121091.14     -107395.22     -138534.85     -117343.36     -11331.19       77134.136      15159.018      5.6875967      8.5314036      11.375205      551.96115    
       221   0             -375.04924     -121091.14     -107395.22     -138534.85     -117343.36     -11331.19       77134.136      15159.018      5.6875967      8.5314036      11.375205      551.96115    
       222   0             -375.04924     -121091.14     -107395.22     -138534.85     -117343.36     -11331.19       77134.136      15159.018      5.6875967      8.5314036      11.375205      551.96115    
       223   0             -375.04924     -121091.14     -107395.22     -138534.85     -117343.36     -11331.19       77134.136      15159.018      5.6875967      8.5314036      11.375205      551.96115    
       224   0             -375.04924     -121091.14     -107395.22     -138534.85     -117343.36     -11331.19       77134.136      15159.018      5.6875967      8.5314036      11.375205      551.96115    
       225   0             -375.04924     -121091.14     -107395.22     -138534.85     -117343.36     -11331.19       77134.136      15159.018      5.6875967      8.5314036      11.375205      551.96115    
       226   0             -375.04924     -121091.14     -107395.22     -138534.85     -117343.36     -11331.19       77134.136      15159.018      5.6875967      8.5314036      11.375205      551.96115    
       227   0             -375.04924     -121091.14     -107395.22     -138534.85     -117343.36     -11331.19       77134.136      15159.018      5.6875967      8.5314036      11.375205      551.96115    
       228   0             -375.04924     -121091.14     -107395.22     -138534.85     -117343.36     -11331.19       77134.136      15159.018      5.6875967      8.5314036      11.375205      551.96115    
       229   0             -375.04924     -121091.14     -107395.22     -138534.85     -117343.36     -11331.19       77134.136      15159.018      5.6875967      8.5314036      11.375205      551.96115    
       230   0             -375.04924     -121091.14     -107395.22     -138534.85     -117343.36     -11331.19       77134.136      15159.018      5.6875967      8.5314036      11.375205      551.96115    
       231   0             -375.04924     -121091.14     -107395.22     -138534.85     -117343.36     -11331.19       77134.136      15159.018      5.6875967      8.5314036      11.375205      551.96115    
       232   0             -375.04924     -121091.14     -107395.22     -138534.85     -117343.36     -11331.19       77134.136      15159.018      5.6875967      8.5314036      11.375205      551.96115    
       233   0             -375.04924     -121091.14     -107395.22     -138534.85     -117343.36     -11331.19       77134.136      15159.018      5.6875967      8.5314036      11.375205      551.96115    
       234   0             -375.04924     -121091.14     -107395.22     -138534.85     -117343.36     -11331.19       77134.136      15159.018      5.6875967      8.5314036      11.375205      551.96115    
       235   0             -375.04924     -121091.14     -107395.22     -138534.85     -117343.36     -11331.19       77134.136      15159.018      5.6875967      8.5314036      11.375205      551.96115    
       236   0             -375.04924     -121091.14     -107395.22     -138534.85     -117343.36     -11331.19       77134.136      15159.018      5.6875967      8.5314036      11.375205      551.96115    
       237   0             -375.04924     -121091.14     -107395.22     -138534.85     -117343.36     -11331.19       77134.136      15159.018      5.6875967      8.5314036      11.375205      551.96115    
       238   0             -375.04924     -121091.14     -107395.22     -138534.85     -117343.36     -11331.19       77134.136      15159.018      5.6875967      8.5314036      11.375205      551.96115    
       239   0             -375.04924     -121091.14     -107395.22     -138534.85     -117343.36     -11331.19       77134.136      15159.018      5.6875967      8.5314036      11.375205      551.96115    
       240   0             -375.04924     -121091.14     -107395.22     -138534.85     -117343.36     -11331.19       77134.136      15159.018      5.6875967      8.5314036      11.375205      551.96115    
       241   0             -375.04924     -121091.14     -107395.22     -138534.85     -117343.36     -11331.19       77134.136      15159.018      5.6875967      8.5314036      11.375205      551.96115    
       242   0             -375.04924     -121091.14     -107395.22     -138534.85     -117343.36     -11331.19       77134.136      15159.018      5.6875967      8.5314036      11.375205      551.96115    
       243   0             -375.04924     -121091.14     -107395.22     -138534.85     -117343.36     -11331.19       77134.136      15159.018      5.6875967      8.5314036      11.375205      551.96115    
       244   0             -375.04924     -121091.14     -107395.22     -138534.85     -117343.36     -11331.19       77134.136      15159.018      5.6875967      8.5314036      11.375205      551.96115    
       245   0             -375.04924     -121091.14     -107395.22     -138534.85     -117343.36     -11331.19       77134.136      15159.018      5.6875967      8.5314036      11.375205      551.96115    
       246   0             -375.04924     -121091.14     -107395.22     -138534.85     -117343.36     -11331.19       77134.136      15159.018      5.6875967      8.5314036      11.375205      551.96115    
       247   0             -375.04924     -121091.14     -107395.22     -138534.85     -117343.36     -11331.19       77134.136      15159.018      5.6875967      8.5314036      11.375205      551.96115    
       248   0             -375.04924     -121091.14     -107395.22     -138534.85     -117343.36     -11331.19       77134.136      15159.018      5.6875967      8.5314036      11.375205      551.96115    
       249   0             -375.04924     -121091.14     -107395.22     -138534.85     -117343.36     -11331.19       77134.136      15159.018      5.6875967      8.5314036      11.375205      551.96115    
       250   0             -375.04924     -121091.14     -107395.22     -138534.85     -117343.36     -11331.19       77134.136      15159.018      5.6875967      8.5314036      11.375205      551.96115    
       251   0             -375.04924     -121091.14     -107395.22     -138534.85     -117343.36     -11331.19       77134.136      15159.018      5.6875967      8.5314036      11.375205      551.96115    
       252   0             -375.04924     -121091.14     -107395.22     -138534.85     -117343.36     -11331.19       77134.136      15159.018      5.6875967      8.5314036      11.375205      551.96115    
       253   0             -375.04924     -121091.14     -107395.22     -138534.85     -117343.36     -11331.19       77134.136      15159.018      5.6875967      8.5314036      11.375205      551.96115    
       254   0             -375.04924     -121091.14     -107395.22     -138534.85     -117343.36     -11331.19       77134.136      15159.018      5.6875967      8.5314036      11.375205      551.96115    
       255   0             -375.04924     -121091.14     -107395.22     -138534.85     -117343.36     -11331.19       77134.136      15159.018      5.6875967      8.5314036      11.375205      551.96115    
       256   0             -375.04924     -121091.14     -107395.22     -138534.85     -117343.36     -11331.19       77134.136      15159.018      5.6875967      8.5314036      11.375205      551.96115    
       257   0             -375.04924     -121091.14     -107395.22     -138534.85     -117343.36     -11331.19       77134.136      15159.018      5.6875967      8.5314036      11.375205      551.96115    
       258   0             -375.04924     -121091.14     -107395.22     -138534.85     -117343.36     -11331.19       77134.136      15159.018      5.6875967      8.5314036      11.375205      551.96115    
       259   0             -375.04924     -121091.14     -107395.22     -138534.85     -117343.36     -11331.19       77134.136      15159.018      5.6875967      8.5314036      11.375205      551.96115    
       260   0             -375.04924     -121091.14     -107395.22     -138534.85     -117343.36     -11331.19       77134.136      15159.018      5.6875967      8.5314036      11.375205      551.96115    
       261   0             -375.04924     -121091.14     -107395.22     -138534.85     -117343.36     -11331.19       77134.136      15159.018      5.6875967      8.5314036      11.375205      551.96115    
       262   0             -375.04924     -121091.14     -107395.22     -138534.85     -117343.36     -11331.19       77134.136      15159.018      5.6875967      8.5314036      11.375205      551.96115    
       263   0             -375.04924     -121091.14     -107395.22     -138534.85     -117343.36     -11331.19       77134.136      15159.018      5.6875967      8.5314036      11.375205      551.96115    
       264   0             -375.04924     -121091.14     -107395.22     -138534.85     -117343.36     -11331.19       77134.136      15159.018      5.6875967      8.5314036      11.375205      551.96115    
       265   0             -375.04924     -121091.14     -107395.22     -138534.85     -117343.36     -11331.19       77134.136      15159.018      5.6875967      8.5314036      11.375205      551.96115    
       266   0             -375.04924     -121091.14     -107395.22     -138534.85     -117343.36     -11331.19       77134.136      15159.018      5.6875967      8.5314036      11.375205      551.96115    
       267   0             -375.04924     -121091.14     -107395.22     -138534.85     -117343.36     -11331.19       77134.136      15159.018      5.6875967      8.5314036      11.375205      551.96115    
       268   0             -375.04924     -121091.14     -107395.22     -138534.85     -117343.36     -11331.19       77134.136      15159.018      5.6875967      8.5314036      11.375205      551.96115    
       269   0             -375.04924     -121091.14     -107395.22     -138534.85     -117343.36     -11331.19       77134.136      15159.018      5.6875967      8.5314036      11.375205      551.96115    
       270   0             -375.04924     -121091.14     -107395.22     -138534.85     -117343.36     -11331.19       77134.136      15159.018      5.6875967      8.5314036      11.375205      551.96115    
       271   0             -375.04924     -121091.14     -107395.22     -138534.85     -117343.36     -11331.19       77134.136      15159.018      5.6875967      8.5314036      11.375205      551.96115    
       272   0             -375.04924     -121091.14     -107395.22     -138534.85     -117343.36     -11331.19       77134.136      15159.018      5.6875967      8.5314036      11.375205      551.96115    
       273   0             -375.04924     -121091.14     -107395.22     -138534.85     -117343.36     -11331.19       77134.136      15159.018      5.6875967      8.5314036      11.375205      551.96115    
       274   0             -375.04924     -121091.14     -107395.22     -138534.85     -117343.36     -11331.19       77134.136      15159.018      5.6875967      8.5314036      11.375205      551.96115    
       275   0             -375.04924     -121091.14     -107395.22     -138534.85     -117343.36     -11331.19       77134.136      15159.018      5.6875967      8.5314036      11.375205      551.96115    
       276   0             -375.04924     -121091.14     -107395.22     -138534.85     -117343.36     -11331.19       77134.136      15159.018      5.6875967      8.5314036      11.375205      551.96115    
       277   0             -375.04924     -121091.14     -107395.22     -138534.85     -117343.36     -11331.19       77134.136      15159.018      5.6875967      8.5314036      11.375205      551.96115    
       278   0             -375.04924     -121091.14     -107395.22     -138534.85     -117343.36     -11331.19       77134.136      15159.018      5.6875967      8.5314036      11.375205      551.96115    
       279   0             -375.04924     -121091.14     -107395.22     -138534.85     -117343.36     -11331.19       77134.136      15159.018      5.6875967      8.5314036      11.375205      551.96115    
       280   0             -375.04924     -121091.14     -107395.22     -138534.85     -117343.36     -11331.19       77134.136      15159.018      5.6875967      8.5314036      11.375205      551.96115    
       281   0             -375.04924     -121091.14     -107395.22     -138534.85     -117343.36     -11331.19       77134.136      15159.018      5.6875967      8.5314036      11.375205      551.96115    
       282   0             -375.04924     -121091.14     -107395.22     -138534.85     -117343.36     -11331.19       77134.136      15159.018      5.6875967      8.5314036      11.375205      551.96115    
       283   0             -375.04924     -121091.14     -107395.22     -138534.85     -117343.36     -11331.19       77134.136      15159.018      5.6875967      8.5314036      11.375205      551.96115    
       284   0             -375.04924     -121091.14     -107395.22     -138534.85     -117343.36     -11331.19       77134.136      15159.018      5.6875967      8.5314036      11.375205      551.96115    
       285   0             -375.04924     -121091.14     -107395.22     -138534.85     -117343.36     -11331.19       77134.136      15159.018      5.6875967      8.5314036      11.375205      551.96115    
       286   0             -375.04924     -121091.14     -107395.22     -138534.85     -117343.36     -11331.19       77134.136      15159.018      5.6875967      8.5314036      11.375205      551.96115    
       287   0             -375.04924     -121091.14     -107395.22     -138534.85     -117343.36     -11331.19       77134.136      15159.018      5.6875967      8.5314036      11.375205      551.96115    
       288   0             -375.04924     -121091.14     -107395.22     -138534.85     -117343.36     -11331.19       77134.136      15159.018      5.6875967      8.5314036      11.375205      551.96115    
       289   0             -375.04924     -121091.14     -107395.22     -138534.85     -117343.36     -11331.19       77134.136      15159.018      5.6875967      8.5314036      11.375205      551.96115    
       290   0             -375.04924     -121091.14     -107395.22     -138534.85     -117343.36     -11331.19       77134.136      15159.018      5.6875967      8.5314036      11.375205      551.96115    
       291   0             -375.04924     -121091.14     -107395.22     -138534.85     -117343.36     -11331.19       77134.136      15159.018      5.6875967      8.5314036      11.375205      551.96115    
       292   0             -375.04924     -121091.14     -107395.22     -138534.85     -117343.36     -11331.19       77134.136      15159.018      5.6875967      8.5314036      11.375205      551.96115    
       293   0             -375.04924     -121091.14     -107395.22     -138534.85     -117343.36     -11331.19       77134.136      15159.018      5.6875967      8.5314036      11.375205      551.96115    
       294   0             -375.04924     -121091.14     -107395.22     -138534.85     -117343.36     -11331.19       77134.136      15159.018      5.6875967      8.5314036      11.375205      551.96115    
       295   0             -375.04924     -121091.14     -107395.22     -138534.85     -117343.36     -11331.19       77134.136      15159.018      5.6875967      8.5314036      11.375205      551.96115    
       296   0             -375.04924     -121091.14     -107395.22     -138534.85     -117343.36     -11331.19       77134.136      15159.018      5.6875967      8.5314036      11.375205      551.96115    
       297   0             -375.04924     -121091.14     -107395.22     -138534.85     -117343.36     -11331.19       77134.136      15159.018      5.6875967      8.5314036      11.375205      551.96115    
       298   0             -375.04924     -121091.14     -107395.22     -138534.85     -117343.36     -11331.19       77134.136      15159.018      5.6875967      8.5314036      11.375205      551.96115    
       299   0             -375.04924     -121091.14     -107395.22     -138534.85     -117343.36     -11331.19       77134.136      15159.018      5.6875967      8.5314036      11.375205      551.96115    
       300   0             -375.04924     -121091.14     -107395.22     -138534.85     -117343.36     -11331.19       77134.136      15159.018      5.6875967      8.5314036      11.375205      551.96115    
       301   0             -375.04924     -121091.14     -107395.22     -138534.85     -117343.36     -11331.19       77134.136      15159.018      5.6875967      8.5314036      11.375205      551.96115    
       302   0             -375.04924     -121091.14     -107395.22     -138534.85     -117343.36     -11331.19       77134.136      15159.018      5.6875967      8.5314036      11.375205      551.96115    
       303   0             -375.04924     -121091.14     -107395.22     -138534.85     -117343.36     -11331.19       77134.136      15159.018      5.6875967      8.5314036      11.375205      551.96115    
       304   0             -375.04924     -121091.14     -107395.22     -138534.85     -117343.36     -11331.19       77134.136      15159.018      5.6875967      8.5314036      11.375205      551.96115    
       305   0             -375.04924     -121091.14     -107395.22     -138534.85     -117343.36     -11331.19       77134.136      15159.018      5.6875967      8.5314036      11.375205      551.96115    
       306   0             -375.04924     -121091.14     -107395.22     -138534.85     -117343.36     -11331.19       77134.136      15159.018      5.6875967      8.5314036      11.375205      551.96115    
[...]
       189   0             -396.35466     -86837.94      -89676.121     -118934.3      -51903.397     -11845.05       132609.4      -56394.124      5.6876024      8.5314036      11.375205      551.9617     
       190   0             -403.42473     -59238.88      -80003.553     -101402.19      3689.103      -24151.752      129130.55     -52090.191      5.6876024      8.5314036      11.375205      551.9617     
       191   0             -404.90534     -48942.315     -80416.816     -94634.834      28224.706     -26331.669      113670.85     -21269.3        5.6876024      8.5314036      11.375205      551.9617     
       192   0             -407.12849     -92183.443     -92970.399     -119254        -64325.928     -11760.729      87615.269      17024.949      5.6876024      8.5314036      11.375205      551.9617     
       193   0             -407.13133     -93021.922     -93015.459     -119835.52     -66214.789     -11609.301      87662.702      17270.53       5.6876024      8.5314036      11.375205      551.9617     
       194   0             -407.13157     -93116.798     -93020.506     -119901.31     -66428.574     -11592.112      87668.186      17298.016      5.6876024      8.5314036      11.375205      551.9617     
       195   0             -407.1317      -93166.819     -93023.159     -119936        -66541.295     -11583.043      87671.084      17312.494      5.6876024      8.5314036      11.375205      551.9617     
       196   0             -407.13178     -93201.888     -93025.015     -119960.32     -66620.325     -11576.681      87673.12       17322.64       5.6876024      8.5314036      11.375205      551.9617     
       197   0             -407.13185     -93231.233     -93026.565     -119980.68     -66686.458     -11571.356      87674.825      17331.127      5.6876024      8.5314036      11.375205      551.9617     
       198   0             -407.13192     -93259.467     -93028.054     -120000.26     -66750.09      -11566.231      87676.467      17339.29       5.6876024      8.5314036      11.375205      551.9617     
       199   0             -407.13199     -93290.394     -93029.682     -120021.71     -66819.793     -11560.615      87678.268      17348.229      5.6876024      8.5314036      11.375205      551.9617     
       200   0             -407.13209     -93329.318     -93031.727     -120048.7      -66907.526     -11553.543      87680.537      17359.477      5.6876024      8.5314036      11.375205      551.9617     
       201   0             -407.13222     -93387.556     -93034.776     -120089.09     -67038.8       -11542.954      87683.939      17376.299      5.6876024      8.5314036      11.375205      551.9617     
       202   0             -407.13249     -93500.721     -93040.663     -120167.58     -67293.922     -11522.351      87690.57       17408.966      5.6876024      8.5314036      11.375205      551.9617     
       203   0             -407.13343     -93884.862     -93060.219     -120433.97     -68160.401     -11452.105      87713.288      17519.671      5.6876024      8.5314036      11.375205      551.9617     
       204   0             -407.14268     -90326.764     -92828.77      -118008.52     -60143.003     -12067.829      87529.99       16517.885      5.6876024      8.5314036      11.375205      551.9617     
       205   0             -407.15116     -89535.326     -92760.094     -117497.98     -58347.898     -12193.274      87498.449      16320.379      5.6876024      8.5314036      11.375205      551.9617     
       206   0             -407.18411     -93086.295     -92938.526     -119911.21     -66409.147     -11543.56       87692.326      17337.979      5.6876024      8.5314036      11.375205      551.9617     
       207   0             -407.18419     -93118.22      -92940.256     -119932.71     -66481.697     -11537.734      87694.454      17345.609      5.6876024      8.5314036      11.375205      551.9617     
       208   0             -407.18424     -93140.434     -92941.458     -119947.67     -66532.179     -11533.679      87695.936      17350.916      5.6876024      8.5314036      11.375205      551.9617     
       209   0             -407.18429     -93157.707     -92942.392     -119959.3      -66571.433     -11530.525      87697.089      17355.042      5.6876024      8.5314036      11.375205      551.9617     
       210   0             -407.18432     -93172.3       -92943.181     -119969.12     -66604.598     -11527.861      87698.064      17358.527      5.6876024      8.5314036      11.375205      551.9617     
       211   0             -407.18435     -93185.5       -92943.894     -119978.01     -66634.597     -11525.45       87698.946      17361.679      5.6876024      8.5314036      11.375205      551.9617     
       212   0             -407.18438     -93198.185     -92944.578     -119986.55     -66663.426     -11523.132      87699.794      17364.708      5.6876024      8.5314036      11.375205      551.9617     
       213   0             -407.18441     -93211.095     -92945.274     -119995.24     -66692.768     -11520.774      87700.657      17367.79       5.6876024      8.5314036      11.375205      551.9617     
       214   0             -407.18445     -93225.014     -92946.024     -120004.62     -66724.402     -11518.23       87701.588      17371.112      5.6876024      8.5314036      11.375205      551.9617     
       215   0             -407.18449     -93240.971     -92946.882     -120015.36     -66760.671     -11515.314      87702.656      17374.921      5.6876024      8.5314036      11.375205      551.9617     
       216   0             -407.18453     -93260.591     -92947.937     -120028.57     -66805.265     -11511.727      87703.97       17379.603      5.6876024      8.5314036      11.375205      551.9617     
       217   0             -407.1846      -93286.864     -92949.348     -120046.26     -66864.982     -11506.923      87705.73       17385.871      5.6876024      8.5314036      11.375205      551.9617     
       218   0             -407.18469     -93326.294     -92951.46      -120072.81     -66954.609     -11499.709      87708.375      17395.276      5.6876024      8.5314036      11.375205      551.9617     
       219   0             -407.18486     -93396.591     -92955.211     -120120.15     -67114.414     -11486.838      87713.099      17412.036      5.6876024      8.5314036      11.375205      551.9617     
       220   0             -407.18527     -93569.099     -92964.33      -120236.31     -67506.657     -11455.19       87724.734      17453.128      5.6876024      8.5314036      11.375205      551.9617     
       221   0             -407.18742     -94152.86      -92993.172     -120629.35     -68836.058     -11346.674      87764.957      17591.818      5.6876024      8.5314036      11.375205      551.9617     
       222   0             -407.19188     -91411.455     -92823.669     -118800.43     -62610.263     -11832.781      87591.571      16952.146      5.6876024      8.5314036      11.375205      551.9617     
       223   0             -407.19259     -89927.226     -92721.589     -117829.79     -59230.3       -12088.918      87504.574      16620.122      5.6876024      8.5314036      11.375205      551.9617     
       224   0             -407.2635      -93837.217     -92860.502     -120439.02     -68212.129     -11326.505      87766.565      17599.571      5.6876024      8.5314036      11.375205      551.9617     
       225   0             -407.29018     -91533.627     -92683.108     -118980.2      -62937.571     -11672.758      88112.122      15819.004      5.6876024      8.5314036      11.375205      551.9617     
       226   0             -408.78967     -83947.317     -84023.836     -118194.3      -49623.82      -10130.864      85984.009      25368.106      5.6876024      8.5314036      11.375205      551.9617     
       227   0             -408.78967     -83947.317     -84023.836     -118194.3      -49623.82      -10130.864      85984.009      25368.106      5.6876024      8.5314036      11.375205      551.9617     
Loop time of 0.103117 on 4 procs for 226 steps with 48 atoms

45.5% CPU use with 4 MPI tasks x 1 OpenMP threads

Minimization stats:
  Stopping criterion = linesearch alpha is zero
  Energy initial, next-to-last, final = 
     -158.869797799827  -408.789668683471  -408.789668683471
  Force two-norm initial, final = 0.0014034403 1626.8598
  Force max component initial, final = 0.00030800362 884.06139
  Final line search alpha, max atom move = 9.4752998e-16 8.3767467e-13
  Iterations, force evaluations = 226 1231

MPI task timing breakdown:
Section |  min time  |  avg time  |  max time  |%varavg| %total
---------------------------------------------------------------
Pair    | 0.084557   | 0.085461   | 0.086146   |   0.2 | 82.88
Neigh   | 2.3e-05    | 2.425e-05  | 2.7e-05    |   0.0 |  0.02
Comm    | 0.010449   | 0.011094   | 0.012104   |   0.6 | 10.76
Output  | 0.002096   | 0.0022228  | 0.002557   |   0.4 |  2.16
Modify  | 0          | 0          | 0          |   0.0 |  0.00
Other   |            | 0.004315   |            |       |  4.18

Nlocal:             12 ave          13 max          11 min
Histogram: 1 0 0 0 0 2 0 0 0 1
Nghost:            293 ave         294 max         292 min
Histogram: 1 0 0 0 0 2 0 0 0 1
Neighs:         268.25 ave         297 max         250 min
Histogram: 2 0 0 0 1 0 0 0 0 1
FullNghs:        536.5 ave         580 max         492 min
Histogram: 1 0 0 0 0 2 0 0 0 1

Total # of neighbors = 2146
Ave neighs/atom = 44.708333
Neighbor list builds = 2
Dangerous builds = 0

# Obtain new stress tensor

variable tmp equal pe
variable e1 equal ${tmp}
variable e1 equal -408.789668683471
variable tmp equal press
variable p1 equal ${tmp}
variable p1 equal -83947.3169935324
variable tmp equal pxx
variable pxx1 equal ${tmp}
variable pxx1 equal -84023.8359004322
variable tmp equal pyy
variable pyy1 equal ${tmp}
variable pyy1 equal -118194.295440552
variable tmp equal pzz
variable pzz1 equal ${tmp}
variable pzz1 equal -49623.8196396124
variable tmp equal pxy
variable pxy1 equal ${tmp}
variable pxy1 equal -10130.8644641261
variable tmp equal pxz
variable pxz1 equal ${tmp}
variable pxz1 equal 85984.0088076182
variable tmp equal pyz
variable pyz1 equal ${tmp}
variable pyz1 equal 25368.1062621703

# Compute elastic constant from pressure tensor

variable C1pos equal ${d1}
variable C1pos equal 8402383.59004335
variable C2pos equal ${d2}
variable C2pos equal 11819429.5440552
variable C3pos equal ${d3}
variable C3pos equal 4962381.96396131
variable C4pos equal ${d4}
variable C4pos equal -2536810.62621703
variable C5pos equal ${d5}
variable C5pos equal -8598400.88076181
variable C6pos equal ${d6}
variable C6pos equal 1013086.44641261

# Combine positive and negative

variable C1${dir} equal 0.5*(${C1neg}+${C1pos})
variable C16 equal 0.5*(${C1neg}+${C1pos})
variable C16 equal 0.5*(-10601936.871746+${C1pos})
variable C16 equal 0.5*(-10601936.871746+8402383.59004335)
variable C2${dir} equal 0.5*(${C2neg}+${C2pos})
variable C26 equal 0.5*(${C2neg}+${C2pos})
variable C26 equal 0.5*(-10833556.906429+${C2pos})
variable C26 equal 0.5*(-10833556.906429+11819429.5440552)
variable C3${dir} equal 0.5*(${C3neg}+${C3pos})
variable C36 equal 0.5*(${C3neg}+${C3pos})
variable C36 equal 0.5*(-12482843.5661961+${C3pos})
variable C36 equal 0.5*(-12482843.5661961+4962381.96396131)
variable C4${dir} equal 0.5*(${C4neg}+${C4pos})
variable C46 equal 0.5*(${C4neg}+${C4pos})
variable C46 equal 0.5*(4197322.78878759+${C4pos})
variable C46 equal 0.5*(4197322.78878759+-2536810.62621703)
variable C5${dir} equal 0.5*(${C5neg}+${C5pos})
variable C56 equal 0.5*(${C5neg}+${C5pos})
variable C56 equal 0.5*(6986879.02936743+${C5pos})
variable C56 equal 0.5*(6986879.02936743+-8598400.88076181)
variable C6${dir} equal 0.5*(${C6neg}+${C6pos})
variable C66 equal 0.5*(${C6neg}+${C6pos})
variable C66 equal 0.5*(-2822703.70685241+${C6pos})
variable C66 equal 0.5*(-2822703.70685241+1013086.44641261)

# Delete dir to make sure it is not reused

variable dir delete

# Output final values

variable C11all equal ${C11}
variable C11all equal -172924.69319645
variable C22all equal ${C22}
variable C22all equal 183643.447299999
variable C33all equal ${C33}
variable C33all equal 418797.31686625

variable C12all equal 0.5*(${C12}+${C21})
variable C12all equal 0.5*(230269.387527349+${C21})
variable C12all equal 0.5*(230269.387527349+-566720.108297249)
variable C13all equal 0.5*(${C13}+${C31})
variable C13all equal 0.5*(179959.48468095+${C31})
variable C13all equal 0.5*(179959.48468095+-866352.98405575)
variable C23all equal 0.5*(${C23}+${C32})
variable C23all equal 0.5*(724857.37861725+${C32})
variable C23all equal 0.5*(724857.37861725+1132071.62105065)

variable C44all equal ${C44}
variable C44all equal 123156.81237136
variable C55all equal ${C55}
variable C55all equal 470238.31716217
variable C66all equal ${C66}
variable C66all equal -904808.6302199

variable C14all equal 0.5*(${C14}+${C41})
variable C14all equal 0.5*(-862781.5083986+${C41})
variable C14all equal 0.5*(-862781.5083986+349057.116559876)
variable C15all equal 0.5*(${C15}+${C51})
variable C15all equal 0.5*(-958417.342073185+${C51})
variable C15all equal 0.5*(-958417.342073185+263670.01304472)
variable C16all equal 0.5*(${C16}+${C61})
variable C16all equal 0.5*(-1099776.64085133+${C61})
variable C16all equal 0.5*(-1099776.64085133+682973.213673225)

variable C24all equal 0.5*(${C24}+${C42})
variable C24all equal 0.5*(-893729.9585786+${C42})
variable C24all equal 0.5*(-893729.9585786+463236.588904945)
variable C25all equal 0.5*(${C25}+${C52})
variable C25all equal 0.5*(-130473.74756635+${C52})
variable C25all equal 0.5*(-130473.74756635+-149489.275696705)
variable C26all equal 0.5*(${C26}+${C62})
variable C26all equal 0.5*(492936.3188131+${C62})
variable C26all equal 0.5*(492936.3188131+263215.825998799)

variable C34all equal 0.5*(${C34}+${C43})
variable C34all equal 0.5*(-566725.04914145+${C43})
variable C34all equal 0.5*(-566725.04914145+-353787.57174132)
variable C35all equal 0.5*(${C35}+${C53})
variable C35all equal 0.5*(-1430215.42182934+${C53})
variable C35all equal 0.5*(-1430215.42182934+12379.0631688749)
variable C36all equal 0.5*(${C36}+${C63})
variable C36all equal 0.5*(-3760230.8011174+${C63})
variable C36all equal 0.5*(-3760230.8011174+-750536.711764087)

variable C45all equal 0.5*(${C45}+${C54})
variable C45all equal 0.5*(328946.115520791+${C54})
variable C45all equal 0.5*(328946.115520791+237208.30874766)
variable C46all equal 0.5*(${C46}+${C64})
variable C46all equal 0.5*(830256.08128528+${C64})
variable C46all equal 0.5*(830256.08128528+727787.740515111)
variable C56all equal 0.5*(${C56}+${C65})
variable C56all equal 0.5*(-805760.92569719+${C65})
variable C56all equal 0.5*(-805760.92569719+831670.817226039)

# Average moduli for cubic crystals

variable C11cubic equal (${C11all}+${C22all}+${C33all})/3.0
variable C11cubic equal (-172924.69319645+${C22all}+${C33all})/3.0
variable C11cubic equal (-172924.69319645+183643.447299999+${C33all})/3.0
variable C11cubic equal (-172924.69319645+183643.447299999+418797.31686625)/3.0
variable C12cubic equal (${C12all}+${C13all}+${C23all})/3.0
variable C12cubic equal (-168225.36038495+${C13all}+${C23all})/3.0
variable C12cubic equal (-168225.36038495+-343196.7496874+${C23all})/3.0
variable C12cubic equal (-168225.36038495+-343196.7496874+928464.49983395)/3.0
variable C44cubic equal (${C44all}+${C55all}+${C66all})/3.0
variable C44cubic equal (123156.81237136+${C55all}+${C66all})/3.0
variable C44cubic equal (123156.81237136+470238.31716217+${C66all})/3.0
variable C44cubic equal (123156.81237136+470238.31716217+-904808.6302199)/3.0

variable bulkmodulus equal (${C11cubic}+2*${C12cubic})/3.0
variable bulkmodulus equal (143172.0236566+2*${C12cubic})/3.0
variable bulkmodulus equal (143172.0236566+2*139014.129920533)/3.0
variable shearmodulus1 equal ${C44cubic}
variable shearmodulus1 equal -103804.50022879
variable shearmodulus2 equal (${C11cubic}-${C12cubic})/2.0
variable shearmodulus2 equal (143172.0236566-${C12cubic})/2.0
variable shearmodulus2 equal (143172.0236566-139014.129920533)/2.0
variable poissonratio equal 1.0/(1.0+${C11cubic}/${C12cubic})
variable poissonratio equal 1.0/(1.0+143172.0236566/${C12cubic})
variable poissonratio equal 1.0/(1.0+143172.0236566/139014.129920533)

# For Stillinger-Weber silicon, the analytical results
# are known to be (E. R. Cowley, 1988):
#               C11 = 151.4 GPa
#               C12 = 76.4 GPa
#               C44 = 56.4 GPa

print "========================================="
=========================================
print "Components of the Elastic Constant Tensor"
Components of the Elastic Constant Tensor
print "========================================="
=========================================

print "Elastic Constant C11all = ${C11all} ${cunits}"
Elastic Constant C11all = -172924.69319645 GPa
print "Elastic Constant C22all = ${C22all} ${cunits}"
Elastic Constant C22all = 183643.447299999 GPa
print "Elastic Constant C33all = ${C33all} ${cunits}"
Elastic Constant C33all = 418797.31686625 GPa

print "Elastic Constant C12all = ${C12all} ${cunits}"
Elastic Constant C12all = -168225.36038495 GPa
print "Elastic Constant C13all = ${C13all} ${cunits}"
Elastic Constant C13all = -343196.7496874 GPa
print "Elastic Constant C23all = ${C23all} ${cunits}"
Elastic Constant C23all = 928464.49983395 GPa

print "Elastic Constant C44all = ${C44all} ${cunits}"
Elastic Constant C44all = 123156.81237136 GPa
print "Elastic Constant C55all = ${C55all} ${cunits}"
Elastic Constant C55all = 470238.31716217 GPa
print "Elastic Constant C66all = ${C66all} ${cunits}"
Elastic Constant C66all = -904808.6302199 GPa

print "Elastic Constant C14all = ${C14all} ${cunits}"
Elastic Constant C14all = -256862.195919362 GPa
print "Elastic Constant C15all = ${C15all} ${cunits}"
Elastic Constant C15all = -347373.664514233 GPa
print "Elastic Constant C16all = ${C16all} ${cunits}"
Elastic Constant C16all = -208401.713589052 GPa

print "Elastic Constant C24all = ${C24all} ${cunits}"
Elastic Constant C24all = -215246.684836827 GPa
print "Elastic Constant C25all = ${C25all} ${cunits}"
Elastic Constant C25all = -139981.511631528 GPa
print "Elastic Constant C26all = ${C26all} ${cunits}"
Elastic Constant C26all = 378076.072405949 GPa

print "Elastic Constant C34all = ${C34all} ${cunits}"
Elastic Constant C34all = -460256.310441385 GPa
print "Elastic Constant C35all = ${C35all} ${cunits}"
Elastic Constant C35all = -708918.179330233 GPa
print "Elastic Constant C36all = ${C36all} ${cunits}"
Elastic Constant C36all = -2255383.75644074 GPa

print "Elastic Constant C45all = ${C45all} ${cunits}"
Elastic Constant C45all = 283077.212134225 GPa
print "Elastic Constant C46all = ${C46all} ${cunits}"
Elastic Constant C46all = 779021.910900195 GPa
print "Elastic Constant C56all = ${C56all} ${cunits}"
Elastic Constant C56all = 12954.9457644245 GPa

print "========================================="
=========================================
print "Average properties for a cubic crystal"
Average properties for a cubic crystal
print "========================================="
=========================================

print "Bulk Modulus = ${bulkmodulus} ${cunits}"
Bulk Modulus = 140400.094499222 GPa
print "Shear Modulus 1 = ${shearmodulus1} ${cunits}"
Shear Modulus 1 = -103804.50022879 GPa
print "Shear Modulus 2 = ${shearmodulus2} ${cunits}"
Shear Modulus 2 = 2078.9468680335 GPa
print "Poisson Ratio = ${poissonratio}"
Poisson Ratio = 0.492632711273464
Total wall time: 0:00:04
