LAMMPS data file via write_data, version 22 Dec 2022, timestep = 0

37280 atoms
1 atom types
27960 bonds
1 bond types
18640 angles
1 angle types
9320 dihedrals
1 dihedral types

0 999.57 xlo xhi
0 99.03999999999999 ylo yhi
-10 10 zlo zhi

Masses

1 12.01

Pair Coeffs # lj/cut

1 0.0861 3.4

Bond Coeffs # morse

1 114.46 2.1867 1.418

Angle Coeffs # cosine/squared

1 67.185 120

Dihedral Coeffs # harmonic

1 3.001 -1 2

Atoms # molecular

1 1 1 0 0 0 0 0 0
2 1 1 1.43 0 0 0 0 0
933 234 1 0 2.476 0 0 0 0
934 234 1 1.43 2.476 0 0 0 0
1865 467 1 0 4.952 0 0 0 0
1866 467 1 1.43 4.952 0 0 0 0
2797 700 1 0 7.428 0 0 0 0
2798 700 1 1.43 7.428 0 0 0 0
3729 933 1 0 9.904 0 0 0 0
3730 933 1 1.43 9.904 0 0 0 0
4661 1166 1 0 12.379999999999999 0 0 0 0
4662 1166 1 1.43 12.379999999999999 0 0 0 0
5593 1399 1 0 14.856 0 0 0 0
5594 1399 1 1.43 14.856 0 0 0 0
6525 1632 1 0 17.332 0 0 0 0
6526 1632 1 1.43 17.332 0 0 0 0
7457 1865 1 0 19.808 0 0 0 0
7458 1865 1 1.43 19.808 0 0 0 0
8389 2098 1 0 22.284 0 0 0 0
8390 2098 1 1.43 22.284 0 0 0 0
9321 2331 1 0 24.759999999999998 0 0 0 0
9322 2331 1 1.43 24.759999999999998 0 0 0 0
10253 2564 1 0 27.236 0 0 0 0
10254 2564 1 1.43 27.236 0 0 0 0
11185 2797 1 0 29.712 0 0 0 0
11186 2797 1 1.43 29.712 0 0 0 0
12117 3030 1 0 32.188 0 0 0 0
12118 3030 1 1.43 32.188 0 0 0 0
13049 3263 1 0 34.664 0 0 0 0
13050 3263 1 1.43 34.664 0 0 0 0
13981 3496 1 0 37.14 0 0 0 0
13982 3496 1 1.43 37.14 0 0 0 0
14913 3729 1 0 39.616 0 0 0 0
14914 3729 1 1.43 39.616 0 0 0 0
15845 3962 1 0 42.092 0 0 0 0
15846 3962 1 1.43 42.092 0 0 0 0
16777 4195 1 0 44.568 0 0 0 0
16778 4195 1 1.43 44.568 0 0 0 0
17709 4428 1 0 47.044 0 0 0 0
17710 4428 1 1.43 47.044 0 0 0 0
18641 4661 1 0 49.519999999999996 0 0 0 0
18642 4661 1 1.43 49.519999999999996 0 0 0 0
19573 4894 1 0 51.996 0 0 0 0
19574 4894 1 1.43 51.996 0 0 0 0
20505 5127 1 0 54.472 0 0 0 0
20506 5127 1 1.43 54.472 0 0 0 0
21437 5360 1 0 56.948 0 0 0 0
21438 5360 1 1.43 56.948 0 0 0 0
22369 5593 1 0 59.424 0 0 0 0
22370 5593 1 1.43 59.424 0 0 0 0
23301 5826 1 0 61.9 0 0 0 0
23302 5826 1 1.43 61.9 0 0 0 0
24233 6059 1 0 64.376 0 0 0 0
24234 6059 1 1.43 64.376 0 0 0 0
25165 6292 1 0 66.852 0 0 0 0
25166 6292 1 1.43 66.852 0 0 0 0
26097 6525 1 0 69.328 0 0 0 0
26098 6525 1 1.43 69.328 0 0 0 0
27029 6758 1 0 71.804 0 0 0 0
27030 6758 1 1.43 71.804 0 0 0 0
27961 6991 1 0 74.28 0 0 0 0
27962 6991 1 1.43 74.28 0 0 0 0
28893 7224 1 0 76.756 0 0 0 0
28894 7224 1 1.43 76.756 0 0 0 0
29825 7457 1 0 79.232 0 0 0 0
29826 7457 1 1.43 79.232 0 0 0 0
30757 7690 1 0 81.708 0 0 0 0
30758 7690 1 1.43 81.708 0 0 0 0
31689 7923 1 0 84.184 0 0 0 0
31690 7923 1 1.43 84.184 0 0 0 0
32621 8156 1 0 86.66 0 0 0 0
32622 8156 1 1.43 86.66 0 0 0 0
33553 8389 1 0 89.136 0 0 0 0
33554 8389 1 1.43 89.136 0 0 0 0
34485 8622 1 0 91.612 0 0 0 0
34486 8622 1 1.43 91.612 0 0 0 0
35417 8855 1 0 94.088 0 0 0 0
35418 8855 1 1.43 94.088 0 0 0 0
36349 9088 1 0 96.564 0 0 0 0
36350 9088 1 1.43 96.564 0 0 0 0
5 2 1 4.29 0 0 0 0 0
6 2 1 5.72 0 0 0 0 0
937 235 1 4.29 2.476 0 0 0 0
938 235 1 5.72 2.476 0 0 0 0
1869 468 1 4.29 4.952 0 0 0 0
1870 468 1 5.72 4.952 0 0 0 0
2801 701 1 4.29 7.428 0 0 0 0
2802 701 1 5.72 7.428 0 0 0 0
3733 934 1 4.29 9.904 0 0 0 0
3734 934 1 5.72 9.904 0 0 0 0
4665 1167 1 4.29 12.379999999999999 0 0 0 0
4666 1167 1 5.72 12.379999999999999 0 0 0 0
5597 1400 1 4.29 14.856 0 0 0 0
5598 1400 1 5.72 14.856 0 0 0 0
6529 1633 1 4.29 17.332 0 0 0 0
6530 1633 1 5.72 17.332 0 0 0 0
7461 1866 1 4.29 19.808 0 0 0 0
7462 1866 1 5.72 19.808 0 0 0 0
8393 2099 1 4.29 22.284 0 0 0 0
8394 2099 1 5.72 22.284 0 0 0 0
9325 2332 1 4.29 24.759999999999998 0 0 0 0
9326 2332 1 5.72 24.759999999999998 0 0 0 0
10257 2565 1 4.29 27.236 0 0 0 0
10258 2565 1 5.72 27.236 0 0 0 0
11189 2798 1 4.29 29.712 0 0 0 0
11190 2798 1 5.72 29.712 0 0 0 0
12121 3031 1 4.29 32.188 0 0 0 0
12122 3031 1 5.72 32.188 0 0 0 0
13053 3264 1 4.29 34.664 0 0 0 0
13054 3264 1 5.72 34.664 0 0 0 0
13985 3497 1 4.29 37.14 0 0 0 0
13986 3497 1 5.72 37.14 0 0 0 0
14917 3730 1 4.29 39.616 0 0 0 0
14918 3730 1 5.72 39.616 0 0 0 0
15849 3963 1 4.29 42.092 0 0 0 0
15850 3963 1 5.72 42.092 0 0 0 0
16781 4196 1 4.29 44.568 0 0 0 0
16782 4196 1 5.72 44.568 0 0 0 0
17713 4429 1 4.29 47.044 0 0 0 0
17714 4429 1 5.72 47.044 0 0 0 0
18645 4662 1 4.29 49.519999999999996 0 0 0 0
18646 4662 1 5.72 49.519999999999996 0 0 0 0
19577 4895 1 4.29 51.996 0 0 0 0
19578 4895 1 5.72 51.996 0 0 0 0
20509 5128 1 4.29 54.472 0 0 0 0
20510 5128 1 5.72 54.472 0 0 0 0
21441 5361 1 4.29 56.948 0 0 0 0
21442 5361 1 5.72 56.948 0 0 0 0
22373 5594 1 4.29 59.424 0 0 0 0
22374 5594 1 5.72 59.424 0 0 0 0
23305 5827 1 4.29 61.9 0 0 0 0
23306 5827 1 5.72 61.9 0 0 0 0
24237 6060 1 4.29 64.376 0 0 0 0
24238 6060 1 5.72 64.376 0 0 0 0
25169 6293 1 4.29 66.852 0 0 0 0
25170 6293 1 5.72 66.852 0 0 0 0
26101 6526 1 4.29 69.328 0 0 0 0
26102 6526 1 5.72 69.328 0 0 0 0
27033 6759 1 4.29 71.804 0 0 0 0
27034 6759 1 5.72 71.804 0 0 0 0
27965 6992 1 4.29 74.28 0 0 0 0
27966 6992 1 5.72 74.28 0 0 0 0
28897 7225 1 4.29 76.756 0 0 0 0
28898 7225 1 5.72 76.756 0 0 0 0
29829 7458 1 4.29 79.232 0 0 0 0
29830 7458 1 5.72 79.232 0 0 0 0
30761 7691 1 4.29 81.708 0 0 0 0
30762 7691 1 5.72 81.708 0 0 0 0
31693 7924 1 4.29 84.184 0 0 0 0
31694 7924 1 5.72 84.184 0 0 0 0
32625 8157 1 4.29 86.66 0 0 0 0
32626 8157 1 5.72 86.66 0 0 0 0
33557 8390 1 4.29 89.136 0 0 0 0
33558 8390 1 5.72 89.136 0 0 0 0
34489 8623 1 4.29 91.612 0 0 0 0
34490 8623 1 5.72 91.612 0 0 0 0
35421 8856 1 4.29 94.088 0 0 0 0
35422 8856 1 5.72 94.088 0 0 0 0
36353 9089 1 4.29 96.564 0 0 0 0
36354 9089 1 5.72 96.564 0 0 0 0
9 3 1 8.58 0 0 0 0 0
10 3 1 10.01 0 0 0 0 0
941 236 1 8.58 2.476 0 0 0 0
942 236 1 10.01 2.476 0 0 0 0
1873 469 1 8.58 4.952 0 0 0 0
1874 469 1 10.01 4.952 0 0 0 0
2805 702 1 8.58 7.428 0 0 0 0
2806 702 1 10.01 7.428 0 0 0 0
3737 935 1 8.58 9.904 0 0 0 0
3738 935 1 10.01 9.904 0 0 0 0
4669 1168 1 8.58 12.379999999999999 0 0 0 0
4670 1168 1 10.01 12.379999999999999 0 0 0 0
5601 1401 1 8.58 14.856 0 0 0 0
5602 1401 1 10.01 14.856 0 0 0 0
6533 1634 1 8.58 17.332 0 0 0 0
6534 1634 1 10.01 17.332 0 0 0 0
7465 1867 1 8.58 19.808 0 0 0 0
7466 1867 1 10.01 19.808 0 0 0 0
8397 2100 1 8.58 22.284 0 0 0 0
8398 2100 1 10.01 22.284 0 0 0 0
9329 2333 1 8.58 24.759999999999998 0 0 0 0
9330 2333 1 10.01 24.759999999999998 0 0 0 0
10261 2566 1 8.58 27.236 0 0 0 0
10262 2566 1 10.01 27.236 0 0 0 0
11193 2799 1 8.58 29.712 0 0 0 0
11194 2799 1 10.01 29.712 0 0 0 0
12125 3032 1 8.58 32.188 0 0 0 0
12126 3032 1 10.01 32.188 0 0 0 0
13057 3265 1 8.58 34.664 0 0 0 0
13058 3265 1 10.01 34.664 0 0 0 0
13989 3498 1 8.58 37.14 0 0 0 0
13990 3498 1 10.01 37.14 0 0 0 0
14921 3731 1 8.58 39.616 0 0 0 0
14922 3731 1 10.01 39.616 0 0 0 0
15853 3964 1 8.58 42.092 0 0 0 0
15854 3964 1 10.01 42.092 0 0 0 0
16785 4197 1 8.58 44.568 0 0 0 0
16786 4197 1 10.01 44.568 0 0 0 0
17717 4430 1 8.58 47.044 0 0 0 0
17718 4430 1 10.01 47.044 0 0 0 0
18649 4663 1 8.58 49.519999999999996 0 0 0 0
18650 4663 1 10.01 49.519999999999996 0 0 0 0
19581 4896 1 8.58 51.996 0 0 0 0
19582 4896 1 10.01 51.996 0 0 0 0
20513 5129 1 8.58 54.472 0 0 0 0
20514 5129 1 10.01 54.472 0 0 0 0
21445 5362 1 8.58 56.948 0 0 0 0
21446 5362 1 10.01 56.948 0 0 0 0
22377 5595 1 8.58 59.424 0 0 0 0
22378 5595 1 10.01 59.424 0 0 0 0
23309 5828 1 8.58 61.9 0 0 0 0
23310 5828 1 10.01 61.9 0 0 0 0
24241 6061 1 8.58 64.376 0 0 0 0
24242 6061 1 10.01 64.376 0 0 0 0
25173 6294 1 8.58 66.852 0 0 0 0
25174 6294 1 10.01 66.852 0 0 0 0
26105 6527 1 8.58 69.328 0 0 0 0
26106 6527 1 10.01 69.328 0 0 0 0
27037 6760 1 8.58 71.804 0 0 0 0
27038 6760 1 10.01 71.804 0 0 0 0
27969 6993 1 8.58 74.28 0 0 0 0
27970 6993 1 10.01 74.28 0 0 0 0
28901 7226 1 8.58 76.756 0 0 0 0
28902 7226 1 10.01 76.756 0 0 0 0
29833 7459 1 8.58 79.232 0 0 0 0
29834 7459 1 10.01 79.232 0 0 0 0
30765 7692 1 8.58 81.708 0 0 0 0
30766 7692 1 10.01 81.708 0 0 0 0
31697 7925 1 8.58 84.184 0 0 0 0
31698 7925 1 10.01 84.184 0 0 0 0
32629 8158 1 8.58 86.66 0 0 0 0
32630 8158 1 10.01 86.66 0 0 0 0
33561 8391 1 8.58 89.136 0 0 0 0
33562 8391 1 10.01 89.136 0 0 0 0
34493 8624 1 8.58 91.612 0 0 0 0
34494 8624 1 10.01 91.612 0 0 0 0
35425 8857 1 8.58 94.088 0 0 0 0
35426 8857 1 10.01 94.088 0 0 0 0
36357 9090 1 8.58 96.564 0 0 0 0
36358 9090 1 10.01 96.564 0 0 0 0
13 4 1 12.870000000000001 0 0 0 0 0
14 4 1 14.3 0 0 0 0 0
945 237 1 12.870000000000001 2.476 0 0 0 0
946 237 1 14.3 2.476 0 0 0 0
1877 470 1 12.870000000000001 4.952 0 0 0 0
1878 470 1 14.3 4.952 0 0 0 0
2809 703 1 12.870000000000001 7.428 0 0 0 0
2810 703 1 14.3 7.428 0 0 0 0
3741 936 1 12.870000000000001 9.904 0 0 0 0
3742 936 1 14.3 9.904 0 0 0 0
4673 1169 1 12.870000000000001 12.379999999999999 0 0 0 0
4674 1169 1 14.3 12.379999999999999 0 0 0 0
5605 1402 1 12.870000000000001 14.856 0 0 0 0
5606 1402 1 14.3 14.856 0 0 0 0
6537 1635 1 12.870000000000001 17.332 0 0 0 0
6538 1635 1 14.3 17.332 0 0 0 0
7469 1868 1 12.870000000000001 19.808 0 0 0 0
7470 1868 1 14.3 19.808 0 0 0 0
8401 2101 1 12.870000000000001 22.284 0 0 0 0
8402 2101 1 14.3 22.284 0 0 0 0
9333 2334 1 12.870000000000001 24.759999999999998 0 0 0 0
9334 2334 1 14.3 24.759999999999998 0 0 0 0
10265 2567 1 12.870000000000001 27.236 0 0 0 0
10266 2567 1 14.3 27.236 0 0 0 0
11197 2800 1 12.870000000000001 29.712 0 0 0 0
11198 2800 1 14.3 29.712 0 0 0 0
12129 3033 1 12.870000000000001 32.188 0 0 0 0
12130 3033 1 14.3 32.188 0 0 0 0
13061 3266 1 12.870000000000001 34.664 0 0 0 0
13062 3266 1 14.3 34.664 0 0 0 0
13993 3499 1 12.870000000000001 37.14 0 0 0 0
13994 3499 1 14.3 37.14 0 0 0 0
14925 3732 1 12.870000000000001 39.616 0 0 0 0
14926 3732 1 14.3 39.616 0 0 0 0
15857 3965 1 12.870000000000001 42.092 0 0 0 0
15858 3965 1 14.3 42.092 0 0 0 0
16789 4198 1 12.870000000000001 44.568 0 0 0 0
16790 4198 1 14.3 44.568 0 0 0 0
17721 4431 1 12.870000000000001 47.044 0 0 0 0
17722 4431 1 14.3 47.044 0 0 0 0
18653 4664 1 12.870000000000001 49.519999999999996 0 0 0 0
18654 4664 1 14.3 49.519999999999996 0 0 0 0
19585 4897 1 12.870000000000001 51.996 0 0 0 0
19586 4897 1 14.3 51.996 0 0 0 0
20517 5130 1 12.870000000000001 54.472 0 0 0 0
20518 5130 1 14.3 54.472 0 0 0 0
21449 5363 1 12.870000000000001 56.948 0 0 0 0
21450 5363 1 14.3 56.948 0 0 0 0
22381 5596 1 12.870000000000001 59.424 0 0 0 0
22382 5596 1 14.3 59.424 0 0 0 0
23313 5829 1 12.870000000000001 61.9 0 0 0 0
23314 5829 1 14.3 61.9 0 0 0 0
24245 6062 1 12.870000000000001 64.376 0 0 0 0
24246 6062 1 14.3 64.376 0 0 0 0
25177 6295 1 12.870000000000001 66.852 0 0 0 0
25178 6295 1 14.3 66.852 0 0 0 0
26109 6528 1 12.870000000000001 69.328 0 0 0 0
26110 6528 1 14.3 69.328 0 0 0 0
27041 6761 1 12.870000000000001 71.804 0 0 0 0
27042 6761 1 14.3 71.804 0 0 0 0
27973 6994 1 12.870000000000001 74.28 0 0 0 0
27974 6994 1 14.3 74.28 0 0 0 0
28905 7227 1 12.870000000000001 76.756 0 0 0 0
28906 7227 1 14.3 76.756 0 0 0 0
29837 7460 1 12.870000000000001 79.232 0 0 0 0
29838 7460 1 14.3 79.232 0 0 0 0
30769 7693 1 12.870000000000001 81.708 0 0 0 0
30770 7693 1 14.3 81.708 0 0 0 0
31701 7926 1 12.870000000000001 84.184 0 0 0 0
31702 7926 1 14.3 84.184 0 0 0 0
32633 8159 1 12.870000000000001 86.66 0 0 0 0
32634 8159 1 14.3 86.66 0 0 0 0
33565 8392 1 12.870000000000001 89.136 0 0 0 0
33566 8392 1 14.3 89.136 0 0 0 0
34497 8625 1 12.870000000000001 91.612 0 0 0 0
34498 8625 1 14.3 91.612 0 0 0 0
35429 8858 1 12.870000000000001 94.088 0 0 0 0
35430 8858 1 14.3 94.088 0 0 0 0
36361 9091 1 12.870000000000001 96.564 0 0 0 0
36362 9091 1 14.3 96.564 0 0 0 0
17 5 1 17.16 0 0 0 0 0
18 5 1 18.59 0 0 0 0 0
949 238 1 17.16 2.476 0 0 0 0
950 238 1 18.59 2.476 0 0 0 0
1881 471 1 17.16 4.952 0 0 0 0
1882 471 1 18.59 4.952 0 0 0 0
2813 704 1 17.16 7.428 0 0 0 0
2814 704 1 18.59 7.428 0 0 0 0
3745 937 1 17.16 9.904 0 0 0 0
3746 937 1 18.59 9.904 0 0 0 0
4677 1170 1 17.16 12.379999999999999 0 0 0 0
4678 1170 1 18.59 12.379999999999999 0 0 0 0
5609 1403 1 17.16 14.856 0 0 0 0
5610 1403 1 18.59 14.856 0 0 0 0
6541 1636 1 17.16 17.332 0 0 0 0
6542 1636 1 18.59 17.332 0 0 0 0
7473 1869 1 17.16 19.808 0 0 0 0
7474 1869 1 18.59 19.808 0 0 0 0
8405 2102 1 17.16 22.284 0 0 0 0
8406 2102 1 18.59 22.284 0 0 0 0
9337 2335 1 17.16 24.759999999999998 0 0 0 0
9338 2335 1 18.59 24.759999999999998 0 0 0 0
10269 2568 1 17.16 27.236 0 0 0 0
10270 2568 1 18.59 27.236 0 0 0 0
11201 2801 1 17.16 29.712 0 0 0 0
11202 2801 1 18.59 29.712 0 0 0 0
12133 3034 1 17.16 32.188 0 0 0 0
12134 3034 1 18.59 32.188 0 0 0 0
13065 3267 1 17.16 34.664 0 0 0 0
13066 3267 1 18.59 34.664 0 0 0 0
13997 3500 1 17.16 37.14 0 0 0 0
13998 3500 1 18.59 37.14 0 0 0 0
14929 3733 1 17.16 39.616 0 0 0 0
14930 3733 1 18.59 39.616 0 0 0 0
15861 3966 1 17.16 42.092 0 0 0 0
15862 3966 1 18.59 42.092 0 0 0 0
16793 4199 1 17.16 44.568 0 0 0 0
16794 4199 1 18.59 44.568 0 0 0 0
17725 4432 1 17.16 47.044 0 0 0 0
17726 4432 1 18.59 47.044 0 0 0 0
18657 4665 1 17.16 49.519999999999996 0 0 0 0
18658 4665 1 18.59 49.519999999999996 0 0 0 0
19589 4898 1 17.16 51.996 0 0 0 0
19590 4898 1 18.59 51.996 0 0 0 0
20521 5131 1 17.16 54.472 0 0 0 0
20522 5131 1 18.59 54.472 0 0 0 0
21453 5364 1 17.16 56.948 0 0 0 0
21454 5364 1 18.59 56.948 0 0 0 0
22385 5597 1 17.16 59.424 0 0 0 0
22386 5597 1 18.59 59.424 0 0 0 0
23317 5830 1 17.16 61.9 0 0 0 0
23318 5830 1 18.59 61.9 0 0 0 0
24249 6063 1 17.16 64.376 0 0 0 0
24250 6063 1 18.59 64.376 0 0 0 0
25181 6296 1 17.16 66.852 0 0 0 0
25182 6296 1 18.59 66.852 0 0 0 0
26113 6529 1 17.16 69.328 0 0 0 0
26114 6529 1 18.59 69.328 0 0 0 0
27045 6762 1 17.16 71.804 0 0 0 0
27046 6762 1 18.59 71.804 0 0 0 0
27977 6995 1 17.16 74.28 0 0 0 0
27978 6995 1 18.59 74.28 0 0 0 0
28909 7228 1 17.16 76.756 0 0 0 0
28910 7228 1 18.59 76.756 0 0 0 0
29841 7461 1 17.16 79.232 0 0 0 0
29842 7461 1 18.59 79.232 0 0 0 0
30773 7694 1 17.16 81.708 0 0 0 0
30774 7694 1 18.59 81.708 0 0 0 0
31705 7927 1 17.16 84.184 0 0 0 0
31706 7927 1 18.59 84.184 0 0 0 0
32637 8160 1 17.16 86.66 0 0 0 0
32638 8160 1 18.59 86.66 0 0 0 0
33569 8393 1 17.16 89.136 0 0 0 0
33570 8393 1 18.59 89.136 0 0 0 0
34501 8626 1 17.16 91.612 0 0 0 0
34502 8626 1 18.59 91.612 0 0 0 0
35433 8859 1 17.16 94.088 0 0 0 0
35434 8859 1 18.59 94.088 0 0 0 0
36365 9092 1 17.16 96.564 0 0 0 0
36366 9092 1 18.59 96.564 0 0 0 0
21 6 1 21.45 0 0 0 0 0
22 6 1 22.88 0 0 0 0 0
953 239 1 21.45 2.476 0 0 0 0
954 239 1 22.88 2.476 0 0 0 0
1885 472 1 21.45 4.952 0 0 0 0
1886 472 1 22.88 4.952 0 0 0 0
2817 705 1 21.45 7.428 0 0 0 0
2818 705 1 22.88 7.428 0 0 0 0
3749 938 1 21.45 9.904 0 0 0 0
3750 938 1 22.88 9.904 0 0 0 0
4681 1171 1 21.45 12.379999999999999 0 0 0 0
4682 1171 1 22.88 12.379999999999999 0 0 0 0
5613 1404 1 21.45 14.856 0 0 0 0
5614 1404 1 22.88 14.856 0 0 0 0
6545 1637 1 21.45 17.332 0 0 0 0
6546 1637 1 22.88 17.332 0 0 0 0
7477 1870 1 21.45 19.808 0 0 0 0
7478 1870 1 22.88 19.808 0 0 0 0
8409 2103 1 21.45 22.284 0 0 0 0
8410 2103 1 22.88 22.284 0 0 0 0
9341 2336 1 21.45 24.759999999999998 0 0 0 0
9342 2336 1 22.88 24.759999999999998 0 0 0 0
10273 2569 1 21.45 27.236 0 0 0 0
10274 2569 1 22.88 27.236 0 0 0 0
11205 2802 1 21.45 29.712 0 0 0 0
11206 2802 1 22.88 29.712 0 0 0 0
12137 3035 1 21.45 32.188 0 0 0 0
12138 3035 1 22.88 32.188 0 0 0 0
13069 3268 1 21.45 34.664 0 0 0 0
13070 3268 1 22.88 34.664 0 0 0 0
14001 3501 1 21.45 37.14 0 0 0 0
14002 3501 1 22.88 37.14 0 0 0 0
14933 3734 1 21.45 39.616 0 0 0 0
14934 3734 1 22.88 39.616 0 0 0 0
15865 3967 1 21.45 42.092 0 0 0 0
15866 3967 1 22.88 42.092 0 0 0 0
16797 4200 1 21.45 44.568 0 0 0 0
16798 4200 1 22.88 44.568 0 0 0 0
17729 4433 1 21.45 47.044 0 0 0 0
17730 4433 1 22.88 47.044 0 0 0 0
18661 4666 1 21.45 49.519999999999996 0 0 0 0
18662 4666 1 22.88 49.519999999999996 0 0 0 0
19593 4899 1 21.45 51.996 0 0 0 0
19594 4899 1 22.88 51.996 0 0 0 0
20525 5132 1 21.45 54.472 0 0 0 0
20526 5132 1 22.88 54.472 0 0 0 0
21457 5365 1 21.45 56.948 0 0 0 0
21458 5365 1 22.88 56.948 0 0 0 0
22389 5598 1 21.45 59.424 0 0 0 0
22390 5598 1 22.88 59.424 0 0 0 0
23321 5831 1 21.45 61.9 0 0 0 0
23322 5831 1 22.88 61.9 0 0 0 0
24253 6064 1 21.45 64.376 0 0 0 0
24254 6064 1 22.88 64.376 0 0 0 0
25185 6297 1 21.45 66.852 0 0 0 0
25186 6297 1 22.88 66.852 0 0 0 0
26117 6530 1 21.45 69.328 0 0 0 0
26118 6530 1 22.88 69.328 0 0 0 0
27049 6763 1 21.45 71.804 0 0 0 0
27050 6763 1 22.88 71.804 0 0 0 0
27981 6996 1 21.45 74.28 0 0 0 0
27982 6996 1 22.88 74.28 0 0 0 0
28913 7229 1 21.45 76.756 0 0 0 0
28914 7229 1 22.88 76.756 0 0 0 0
29845 7462 1 21.45 79.232 0 0 0 0
29846 7462 1 22.88 79.232 0 0 0 0
30777 7695 1 21.45 81.708 0 0 0 0
30778 7695 1 22.88 81.708 0 0 0 0
31709 7928 1 21.45 84.184 0 0 0 0
31710 7928 1 22.88 84.184 0 0 0 0
32641 8161 1 21.45 86.66 0 0 0 0
32642 8161 1 22.88 86.66 0 0 0 0
33573 8394 1 21.45 89.136 0 0 0 0
33574 8394 1 22.88 89.136 0 0 0 0
34505 8627 1 21.45 91.612 0 0 0 0
34506 8627 1 22.88 91.612 0 0 0 0
35437 8860 1 21.45 94.088 0 0 0 0
35438 8860 1 22.88 94.088 0 0 0 0
36369 9093 1 21.45 96.564 0 0 0 0
36370 9093 1 22.88 96.564 0 0 0 0
25 7 1 25.740000000000002 0 0 0 0 0
26 7 1 27.17 0 0 0 0 0
957 240 1 25.740000000000002 2.476 0 0 0 0
958 240 1 27.17 2.476 0 0 0 0
1889 473 1 25.740000000000002 4.952 0 0 0 0
1890 473 1 27.17 4.952 0 0 0 0
2821 706 1 25.740000000000002 7.428 0 0 0 0
2822 706 1 27.17 7.428 0 0 0 0
3753 939 1 25.740000000000002 9.904 0 0 0 0
3754 939 1 27.17 9.904 0 0 0 0
4685 1172 1 25.740000000000002 12.379999999999999 0 0 0 0
4686 1172 1 27.17 12.379999999999999 0 0 0 0
5617 1405 1 25.740000000000002 14.856 0 0 0 0
5618 1405 1 27.17 14.856 0 0 0 0
6549 1638 1 25.740000000000002 17.332 0 0 0 0
6550 1638 1 27.17 17.332 0 0 0 0
7481 1871 1 25.740000000000002 19.808 0 0 0 0
7482 1871 1 27.17 19.808 0 0 0 0
8413 2104 1 25.740000000000002 22.284 0 0 0 0
8414 2104 1 27.17 22.284 0 0 0 0
9345 2337 1 25.740000000000002 24.759999999999998 0 0 0 0
9346 2337 1 27.17 24.759999999999998 0 0 0 0
10277 2570 1 25.740000000000002 27.236 0 0 0 0
10278 2570 1 27.17 27.236 0 0 0 0
11209 2803 1 25.740000000000002 29.712 0 0 0 0
11210 2803 1 27.17 29.712 0 0 0 0
12141 3036 1 25.740000000000002 32.188 0 0 0 0
12142 3036 1 27.17 32.188 0 0 0 0
13073 3269 1 25.740000000000002 34.664 0 0 0 0
13074 3269 1 27.17 34.664 0 0 0 0
14005 3502 1 25.740000000000002 37.14 0 0 0 0
14006 3502 1 27.17 37.14 0 0 0 0
14937 3735 1 25.740000000000002 39.616 0 0 0 0
14938 3735 1 27.17 39.616 0 0 0 0
15869 3968 1 25.740000000000002 42.092 0 0 0 0
15870 3968 1 27.17 42.092 0 0 0 0
16801 4201 1 25.740000000000002 44.568 0 0 0 0
16802 4201 1 27.17 44.568 0 0 0 0
17733 4434 1 25.740000000000002 47.044 0 0 0 0
17734 4434 1 27.17 47.044 0 0 0 0
18665 4667 1 25.740000000000002 49.519999999999996 0 0 0 0
18666 4667 1 27.17 49.519999999999996 0 0 0 0
19597 4900 1 25.740000000000002 51.996 0 0 0 0
19598 4900 1 27.17 51.996 0 0 0 0
20529 5133 1 25.740000000000002 54.472 0 0 0 0
20530 5133 1 27.17 54.472 0 0 0 0
21461 5366 1 25.740000000000002 56.948 0 0 0 0
21462 5366 1 27.17 56.948 0 0 0 0
22393 5599 1 25.740000000000002 59.424 0 0 0 0
22394 5599 1 27.17 59.424 0 0 0 0
23325 5832 1 25.740000000000002 61.9 0 0 0 0
23326 5832 1 27.17 61.9 0 0 0 0
24257 6065 1 25.740000000000002 64.376 0 0 0 0
24258 6065 1 27.17 64.376 0 0 0 0
25189 6298 1 25.740000000000002 66.852 0 0 0 0
25190 6298 1 27.17 66.852 0 0 0 0
26121 6531 1 25.740000000000002 69.328 0 0 0 0
26122 6531 1 27.17 69.328 0 0 0 0
27053 6764 1 25.740000000000002 71.804 0 0 0 0
27054 6764 1 27.17 71.804 0 0 0 0
27985 6997 1 25.740000000000002 74.28 0 0 0 0
27986 6997 1 27.17 74.28 0 0 0 0
28917 7230 1 25.740000000000002 76.756 0 0 0 0
28918 7230 1 27.17 76.756 0 0 0 0
29849 7463 1 25.740000000000002 79.232 0 0 0 0
29850 7463 1 27.17 79.232 0 0 0 0
30781 7696 1 25.740000000000002 81.708 0 0 0 0
30782 7696 1 27.17 81.708 0 0 0 0
31713 7929 1 25.740000000000002 84.184 0 0 0 0
31714 7929 1 27.17 84.184 0 0 0 0
32645 8162 1 25.740000000000002 86.66 0 0 0 0
32646 8162 1 27.17 86.66 0 0 0 0
33577 8395 1 25.740000000000002 89.136 0 0 0 0
33578 8395 1 27.17 89.136 0 0 0 0
34509 8628 1 25.740000000000002 91.612 0 0 0 0
34510 8628 1 27.17 91.612 0 0 0 0
35441 8861 1 25.740000000000002 94.088 0 0 0 0
35442 8861 1 27.17 94.088 0 0 0 0
36373 9094 1 25.740000000000002 96.564 0 0 0 0
36374 9094 1 27.17 96.564 0 0 0 0
29 8 1 30.03 0 0 0 0 0
30 8 1 31.46 0 0 0 0 0
961 241 1 30.03 2.476 0 0 0 0
962 241 1 31.46 2.476 0 0 0 0
1893 474 1 30.03 4.952 0 0 0 0
1894 474 1 31.46 4.952 0 0 0 0
2825 707 1 30.03 7.428 0 0 0 0
2826 707 1 31.46 7.428 0 0 0 0
3757 940 1 30.03 9.904 0 0 0 0
3758 940 1 31.46 9.904 0 0 0 0
4689 1173 1 30.03 12.379999999999999 0 0 0 0
4690 1173 1 31.46 12.379999999999999 0 0 0 0
5621 1406 1 30.03 14.856 0 0 0 0
5622 1406 1 31.46 14.856 0 0 0 0
6553 1639 1 30.03 17.332 0 0 0 0
6554 1639 1 31.46 17.332 0 0 0 0
7485 1872 1 30.03 19.808 0 0 0 0
7486 1872 1 31.46 19.808 0 0 0 0
8417 2105 1 30.03 22.284 0 0 0 0
8418 2105 1 31.46 22.284 0 0 0 0
9349 2338 1 30.03 24.759999999999998 0 0 0 0
9350 2338 1 31.46 24.759999999999998 0 0 0 0
10281 2571 1 30.03 27.236 0 0 0 0
10282 2571 1 31.46 27.236 0 0 0 0
11213 2804 1 30.03 29.712 0 0 0 0
11214 2804 1 31.46 29.712 0 0 0 0
12145 3037 1 30.03 32.188 0 0 0 0
12146 3037 1 31.46 32.188 0 0 0 0
13077 3270 1 30.03 34.664 0 0 0 0
13078 3270 1 31.46 34.664 0 0 0 0
14009 3503 1 30.03 37.14 0 0 0 0
14010 3503 1 31.46 37.14 0 0 0 0
14941 3736 1 30.03 39.616 0 0 0 0
14942 3736 1 31.46 39.616 0 0 0 0
15873 3969 1 30.03 42.092 0 0 0 0
15874 3969 1 31.46 42.092 0 0 0 0
16805 4202 1 30.03 44.568 0 0 0 0
16806 4202 1 31.46 44.568 0 0 0 0
17737 4435 1 30.03 47.044 0 0 0 0
17738 4435 1 31.46 47.044 0 0 0 0
18669 4668 1 30.03 49.519999999999996 0 0 0 0
18670 4668 1 31.46 49.519999999999996 0 0 0 0
19601 4901 1 30.03 51.996 0 0 0 0
19602 4901 1 31.46 51.996 0 0 0 0
20533 5134 1 30.03 54.472 0 0 0 0
20534 5134 1 31.46 54.472 0 0 0 0
21465 5367 1 30.03 56.948 0 0 0 0
21466 5367 1 31.46 56.948 0 0 0 0
22397 5600 1 30.03 59.424 0 0 0 0
22398 5600 1 31.46 59.424 0 0 0 0
23329 5833 1 30.03 61.9 0 0 0 0
23330 5833 1 31.46 61.9 0 0 0 0
24261 6066 1 30.03 64.376 0 0 0 0
24262 6066 1 31.46 64.376 0 0 0 0
25193 6299 1 30.03 66.852 0 0 0 0
25194 6299 1 31.46 66.852 0 0 0 0
26125 6532 1 30.03 69.328 0 0 0 0
26126 6532 1 31.46 69.328 0 0 0 0
27057 6765 1 30.03 71.804 0 0 0 0
27058 6765 1 31.46 71.804 0 0 0 0
27989 6998 1 30.03 74.28 0 0 0 0
27990 6998 1 31.46 74.28 0 0 0 0
28921 7231 1 30.03 76.756 0 0 0 0
28922 7231 1 31.46 76.756 0 0 0 0
29853 7464 1 30.03 79.232 0 0 0 0
29854 7464 1 31.46 79.232 0 0 0 0
30785 7697 1 30.03 81.708 0 0 0 0
30786 7697 1 31.46 81.708 0 0 0 0
31717 7930 1 30.03 84.184 0 0 0 0
31718 7930 1 31.46 84.184 0 0 0 0
32649 8163 1 30.03 86.66 0 0 0 0
32650 8163 1 31.46 86.66 0 0 0 0
33581 8396 1 30.03 89.136 0 0 0 0
33582 8396 1 31.46 89.136 0 0 0 0
34513 8629 1 30.03 91.612 0 0 0 0
34514 8629 1 31.46 91.612 0 0 0 0
35445 8862 1 30.03 94.088 0 0 0 0
35446 8862 1 31.46 94.088 0 0 0 0
36377 9095 1 30.03 96.564 0 0 0 0
36378 9095 1 31.46 96.564 0 0 0 0
33 9 1 34.32 0 0 0 0 0
34 9 1 35.75 0 0 0 0 0
965 242 1 34.32 2.476 0 0 0 0
966 242 1 35.75 2.476 0 0 0 0
1897 475 1 34.32 4.952 0 0 0 0
1898 475 1 35.75 4.952 0 0 0 0
2829 708 1 34.32 7.428 0 0 0 0
2830 708 1 35.75 7.428 0 0 0 0
3761 941 1 34.32 9.904 0 0 0 0
3762 941 1 35.75 9.904 0 0 0 0
4693 1174 1 34.32 12.379999999999999 0 0 0 0
4694 1174 1 35.75 12.379999999999999 0 0 0 0
5625 1407 1 34.32 14.856 0 0 0 0
5626 1407 1 35.75 14.856 0 0 0 0
6557 1640 1 34.32 17.332 0 0 0 0
6558 1640 1 35.75 17.332 0 0 0 0
7489 1873 1 34.32 19.808 0 0 0 0
7490 1873 1 35.75 19.808 0 0 0 0
8421 2106 1 34.32 22.284 0 0 0 0
8422 2106 1 35.75 22.284 0 0 0 0
9353 2339 1 34.32 24.759999999999998 0 0 0 0
9354 2339 1 35.75 24.759999999999998 0 0 0 0
10285 2572 1 34.32 27.236 0 0 0 0
10286 2572 1 35.75 27.236 0 0 0 0
11217 2805 1 34.32 29.712 0 0 0 0
11218 2805 1 35.75 29.712 0 0 0 0
12149 3038 1 34.32 32.188 0 0 0 0
12150 3038 1 35.75 32.188 0 0 0 0
13081 3271 1 34.32 34.664 0 0 0 0
13082 3271 1 35.75 34.664 0 0 0 0
14013 3504 1 34.32 37.14 0 0 0 0
14014 3504 1 35.75 37.14 0 0 0 0
14945 3737 1 34.32 39.616 0 0 0 0
14946 3737 1 35.75 39.616 0 0 0 0
15877 3970 1 34.32 42.092 0 0 0 0
15878 3970 1 35.75 42.092 0 0 0 0
16809 4203 1 34.32 44.568 0 0 0 0
16810 4203 1 35.75 44.568 0 0 0 0
17741 4436 1 34.32 47.044 0 0 0 0
17742 4436 1 35.75 47.044 0 0 0 0
18673 4669 1 34.32 49.519999999999996 0 0 0 0
18674 4669 1 35.75 49.519999999999996 0 0 0 0
19605 4902 1 34.32 51.996 0 0 0 0
19606 4902 1 35.75 51.996 0 0 0 0
20537 5135 1 34.32 54.472 0 0 0 0
20538 5135 1 35.75 54.472 0 0 0 0
21469 5368 1 34.32 56.948 0 0 0 0
21470 5368 1 35.75 56.948 0 0 0 0
22401 5601 1 34.32 59.424 0 0 0 0
22402 5601 1 35.75 59.424 0 0 0 0
23333 5834 1 34.32 61.9 0 0 0 0
23334 5834 1 35.75 61.9 0 0 0 0
24265 6067 1 34.32 64.376 0 0 0 0
24266 6067 1 35.75 64.376 0 0 0 0
25197 6300 1 34.32 66.852 0 0 0 0
25198 6300 1 35.75 66.852 0 0 0 0
26129 6533 1 34.32 69.328 0 0 0 0
26130 6533 1 35.75 69.328 0 0 0 0
27061 6766 1 34.32 71.804 0 0 0 0
27062 6766 1 35.75 71.804 0 0 0 0
27993 6999 1 34.32 74.28 0 0 0 0
27994 6999 1 35.75 74.28 0 0 0 0
28925 7232 1 34.32 76.756 0 0 0 0
28926 7232 1 35.75 76.756 0 0 0 0
29857 7465 1 34.32 79.232 0 0 0 0
29858 7465 1 35.75 79.232 0 0 0 0
30789 7698 1 34.32 81.708 0 0 0 0
30790 7698 1 35.75 81.708 0 0 0 0
31721 7931 1 34.32 84.184 0 0 0 0
31722 7931 1 35.75 84.184 0 0 0 0
32653 8164 1 34.32 86.66 0 0 0 0
32654 8164 1 35.75 86.66 0 0 0 0
33585 8397 1 34.32 89.136 0 0 0 0
33586 8397 1 35.75 89.136 0 0 0 0
34517 8630 1 34.32 91.612 0 0 0 0
34518 8630 1 35.75 91.612 0 0 0 0
35449 8863 1 34.32 94.088 0 0 0 0
35450 8863 1 35.75 94.088 0 0 0 0
36381 9096 1 34.32 96.564 0 0 0 0
36382 9096 1 35.75 96.564 0 0 0 0
37 10 1 38.61 0 0 0 0 0
38 10 1 40.04 0 0 0 0 0
969 243 1 38.61 2.476 0 0 0 0
970 243 1 40.04 2.476 0 0 0 0
1901 476 1 38.61 4.952 0 0 0 0
1902 476 1 40.04 4.952 0 0 0 0
2833 709 1 38.61 7.428 0 0 0 0
2834 709 1 40.04 7.428 0 0 0 0
3765 942 1 38.61 9.904 0 0 0 0
3766 942 1 40.04 9.904 0 0 0 0
4697 1175 1 38.61 12.379999999999999 0 0 0 0
4698 1175 1 40.04 12.379999999999999 0 0 0 0
5629 1408 1 38.61 14.856 0 0 0 0
5630 1408 1 40.04 14.856 0 0 0 0
6561 1641 1 38.61 17.332 0 0 0 0
6562 1641 1 40.04 17.332 0 0 0 0
7493 1874 1 38.61 19.808 0 0 0 0
7494 1874 1 40.04 19.808 0 0 0 0
8425 2107 1 38.61 22.284 0 0 0 0
8426 2107 1 40.04 22.284 0 0 0 0
9357 2340 1 38.61 24.759999999999998 0 0 0 0
9358 2340 1 40.04 24.759999999999998 0 0 0 0
10289 2573 1 38.61 27.236 0 0 0 0
10290 2573 1 40.04 27.236 0 0 0 0
11221 2806 1 38.61 29.712 0 0 0 0
11222 2806 1 40.04 29.712 0 0 0 0
12153 3039 1 38.61 32.188 0 0 0 0
12154 3039 1 40.04 32.188 0 0 0 0
13085 3272 1 38.61 34.664 0 0 0 0
13086 3272 1 40.04 34.664 0 0 0 0
14017 3505 1 38.61 37.14 0 0 0 0
14018 3505 1 40.04 37.14 0 0 0 0
14949 3738 1 38.61 39.616 0 0 0 0
14950 3738 1 40.04 39.616 0 0 0 0
15881 3971 1 38.61 42.092 0 0 0 0
15882 3971 1 40.04 42.092 0 0 0 0
16813 4204 1 38.61 44.568 0 0 0 0
16814 4204 1 40.04 44.568 0 0 0 0
17745 4437 1 38.61 47.044 0 0 0 0
17746 4437 1 40.04 47.044 0 0 0 0
18677 4670 1 38.61 49.519999999999996 0 0 0 0
18678 4670 1 40.04 49.519999999999996 0 0 0 0
19609 4903 1 38.61 51.996 0 0 0 0
19610 4903 1 40.04 51.996 0 0 0 0
20541 5136 1 38.61 54.472 0 0 0 0
20542 5136 1 40.04 54.472 0 0 0 0
21473 5369 1 38.61 56.948 0 0 0 0
21474 5369 1 40.04 56.948 0 0 0 0
22405 5602 1 38.61 59.424 0 0 0 0
22406 5602 1 40.04 59.424 0 0 0 0
23337 5835 1 38.61 61.9 0 0 0 0
23338 5835 1 40.04 61.9 0 0 0 0
24269 6068 1 38.61 64.376 0 0 0 0
24270 6068 1 40.04 64.376 0 0 0 0
25201 6301 1 38.61 66.852 0 0 0 0
25202 6301 1 40.04 66.852 0 0 0 0
26133 6534 1 38.61 69.328 0 0 0 0
26134 6534 1 40.04 69.328 0 0 0 0
27065 6767 1 38.61 71.804 0 0 0 0
27066 6767 1 40.04 71.804 0 0 0 0
27997 7000 1 38.61 74.28 0 0 0 0
27998 7000 1 40.04 74.28 0 0 0 0
28929 7233 1 38.61 76.756 0 0 0 0
28930 7233 1 40.04 76.756 0 0 0 0
29861 7466 1 38.61 79.232 0 0 0 0
29862 7466 1 40.04 79.232 0 0 0 0
30793 7699 1 38.61 81.708 0 0 0 0
30794 7699 1 40.04 81.708 0 0 0 0
31725 7932 1 38.61 84.184 0 0 0 0
31726 7932 1 40.04 84.184 0 0 0 0
32657 8165 1 38.61 86.66 0 0 0 0
32658 8165 1 40.04 86.66 0 0 0 0
33589 8398 1 38.61 89.136 0 0 0 0
33590 8398 1 40.04 89.136 0 0 0 0
34521 8631 1 38.61 91.612 0 0 0 0
34522 8631 1 40.04 91.612 0 0 0 0
35453 8864 1 38.61 94.088 0 0 0 0
35454 8864 1 40.04 94.088 0 0 0 0
36385 9097 1 38.61 96.564 0 0 0 0
36386 9097 1 40.04 96.564 0 0 0 0
41 11 1 42.9 0 0 0 0 0
42 11 1 44.33 0 0 0 0 0
973 244 1 42.9 2.476 0 0 0 0
974 244 1 44.33 2.476 0 0 0 0
1905 477 1 42.9 4.952 0 0 0 0
1906 477 1 44.33 4.952 0 0 0 0
2837 710 1 42.9 7.428 0 0 0 0
2838 710 1 44.33 7.428 0 0 0 0
3769 943 1 42.9 9.904 0 0 0 0
3770 943 1 44.33 9.904 0 0 0 0
4701 1176 1 42.9 12.379999999999999 0 0 0 0
4702 1176 1 44.33 12.379999999999999 0 0 0 0
5633 1409 1 42.9 14.856 0 0 0 0
5634 1409 1 44.33 14.856 0 0 0 0
6565 1642 1 42.9 17.332 0 0 0 0
6566 1642 1 44.33 17.332 0 0 0 0
7497 1875 1 42.9 19.808 0 0 0 0
7498 1875 1 44.33 19.808 0 0 0 0
8429 2108 1 42.9 22.284 0 0 0 0
8430 2108 1 44.33 22.284 0 0 0 0
9361 2341 1 42.9 24.759999999999998 0 0 0 0
9362 2341 1 44.33 24.759999999999998 0 0 0 0
10293 2574 1 42.9 27.236 0 0 0 0
10294 2574 1 44.33 27.236 0 0 0 0