# LAMMPS data file written by OVITO Basic 3.8.4

4 atoms
3 bonds
2 angles
1 dihedrals
1 atom types
1 bond types
1 angle types
1 dihedral types

0.0 4.29 xlo xhi
0.0 2.476 ylo yhi
-10.0 10.0 zlo zhi

Masses

1 12.01  # C

Atoms  # molecular

1 1 1 0.0 0.0 0.0
2 1 1 1.43 0.0 0.0
3 1 1 2.145 1.238 0.0
4 1 1 3.575 1.238 0.0

Bonds

1 1 1 2
2 1 2 3
3 1 3 4

Angles

1 1 1 2 3
2 1 4 3 2

Dihedrals

1 1 1 2 3 4
