Output produced by LAMMPSStructureWriter


10368 atoms

3 atom types

0.00000000 43.18080000 xlo xhi
0.00000000 43.18080000 ylo yhi
0.00000000 61.82400000 zlo zhi



Masses

1 15.99939999999999962199 #O
2 91.22400000000000375167 #Zr
3 238.02890999999999621650 #U

Atoms

1 0 1 0.0 2.69879999999999986571 2.69879999999999986571 0.20605939200000000788
2 0 1 0.0 2.69880000000000030980 2.69880000000000030980 5.35810060799999909875
3 0 1 0.0 2.69880000000000030980 2.69880000000000030980 10.51008000000000031093
4 0 1 0.0 2.69880000000000075389 2.69880000000000075389 15.66205939199999797040
5 0 1 0.0 2.69880000000000119798 2.69880000000000119798 20.81410060800000039194
6 0 1 0.0 2.69880000000000164206 2.69880000000000164206 25.96607999999999805141
7 0 1 0.0 2.69880000000000164206 2.69880000000000164206 31.11805939199999926359
8 0 1 0.0 2.69880000000000208615 2.69880000000000208615 36.27010060799999990877
9 0 1 0.0 2.69880000000000253024 2.69880000000000253024 41.42208000000000112095
10 0 1 0.0 2.69880000000000253024 2.69880000000000253024 46.57405939200000233313
11 0 1 0.0 2.69880000000000297433 2.69880000000000297433 51.72610060800000297832
12 0 1 0.0 2.69880000000000341842 2.69880000000000341842 56.87808000000000419050
13 0 1 0.0 2.69880000000000030980 6.29718560639999935802 0.20605939200000000788
14 0 1 0.0 2.69880000000000075389 6.29718560639999935802 5.35810060799999909875
15 0 1 0.0 2.69880000000000075389 6.29718560640000024620 10.51008000000000031093
16 0 1 0.0 2.69880000000000119798 6.29718560640000024620 15.66205939199999797040
17 0 1 0.0 2.69880000000000164206 6.29718560640000024620 20.81410060800000039194
18 0 1 0.0 2.69880000000000208615 6.29718560640000113438 25.96607999999999805141
19 0 1 0.0 2.69880000000000208615 6.29718560640000113438 31.11805939199999926359
20 0 1 0.0 2.69880000000000253024 6.29718560640000202255 36.27010060799999990877
21 0 1 0.0 2.69880000000000297433 6.29718560640000202255 41.42208000000000112095
22 0 1 0.0 2.69880000000000297433 6.29718560640000202255 46.57405939200000233313
23 0 1 0.0 2.69880000000000341842 6.29718560640000291073 51.72610060800000297832
24 0 1 0.0 2.69880000000000386251 6.29718560640000291073 56.87808000000000419050
25 0 1 0.0 2.69880000000000030980 9.89561439360000072440 0.20605939200000000788
26 0 1 0.0 2.69880000000000075389 9.89561439360000072440 5.35810060799999909875
27 0 1 0.0 2.69880000000000075389 9.89561439360000072440 10.51008000000000031093
28 0 1 0.0 2.69880000000000119798 9.89561439360000250076 15.66205939199999797040
29 0 1 0.0 2.69880000000000164206 9.89561439360000250076 20.81410060800000039194
30 0 1 0.0 2.69880000000000208615 9.89561439360000250076 25.96607999999999805141
31 0 1 0.0 2.69880000000000208615 9.89561439360000250076 31.11805939199999926359
32 0 1 0.0 2.69880000000000253024 9.89561439360000250076 36.27010060799999990877
33 0 1 0.0 2.69880000000000297433 9.89561439360000250076 41.42208000000000112095
34 0 1 0.0 2.69880000000000297433 9.89561439360000427712 46.57405939200000233313
35 0 1 0.0 2.69880000000000341842 9.89561439360000427712 51.72610060800000297832
36 0 1 0.0 2.69880000000000386251 9.89561439360000427712 56.87808000000000419050
37 0 1 0.0 2.69880000000000075389 13.49399999999999977263 0.20605939200000000788
38 0 1 0.0 2.69880000000000119798 13.49399999999999977263 5.35810060799999909875
39 0 1 0.0 2.69880000000000119798 13.49399999999999977263 10.51008000000000031093
40 0 1 0.0 2.69880000000000164206 13.49400000000000154898 15.66205939199999797040
41 0 1 0.0 2.69880000000000208615 13.49400000000000154898 20.81410060800000039194
42 0 1 0.0 2.69880000000000253024 13.49400000000000154898 25.96607999999999805141
43 0 1 0.0 2.69880000000000253024 13.49400000000000154898 31.11805939199999926359
44 0 1 0.0 2.69880000000000297433 13.49400000000000154898 36.27010060799999990877
45 0 1 0.0 2.69880000000000341842 13.49400000000000154898 41.42208000000000112095
46 0 1 0.0 2.69880000000000341842 13.49400000000000332534 46.57405939200000233313
47 0 1 0.0 2.69880000000000386251 13.49400000000000332534 51.72610060800000297832
48 0 1 0.0 2.69880000000000430660 13.49400000000000332534 56.87808000000000419050
49 0 1 0.0 2.69880000000000075389 17.09238560639999704449 0.20605939200000000788
50 0 1 0.0 2.69880000000000119798 17.09238560639999704449 5.35810060799999909875
51 0 1 0.0 2.69880000000000119798 17.09238560639999704449 10.51008000000000031093
52 0 1 0.0 2.69880000000000164206 17.09238560639999704449 15.66205939199999797040
53 0 1 0.0 2.69880000000000208615 17.09238560639999704449 20.81410060800000039194
54 0 1 0.0 2.69880000000000253024 17.09238560639999704449 25.96607999999999805141
55 0 1 0.0 2.69880000000000253024 17.09238560640000059720 31.11805939199999926359
56 0 1 0.0 2.69880000000000297433 17.09238560640000059720 36.27010060799999990877
57 0 1 0.0 2.69880000000000341842 17.09238560640000059720 41.42208000000000112095
58 0 1 0.0 2.69880000000000341842 17.09238560640000059720 46.57405939200000233313
59 0 1 0.0 2.69880000000000386251 17.09238560640000059720 51.72610060800000297832
60 0 1 0.0 2.69880000000000430660 17.09238560640000059720 56.87808000000000419050
61 0 1 0.0 2.69880000000000119798 20.69081439360000018723 0.20605939200000000788
62 0 1 0.0 2.69880000000000164206 20.69081439360000018723 5.35810060799999909875
63 0 1 0.0 2.69880000000000164206 20.69081439360000018723 10.51008000000000031093
64 0 1 0.0 2.69880000000000208615 20.69081439360000018723 15.66205939199999797040
65 0 1 0.0 2.69880000000000253024 20.69081439360000018723 20.81410060800000039194
66 0 1 0.0 2.69880000000000297433 20.69081439360000018723 25.96607999999999805141
67 0 1 0.0 2.69880000000000297433 20.69081439360000373995 31.11805939199999926359
68 0 1 0.0 2.69880000000000341842 20.69081439360000373995 36.27010060799999990877
69 0 1 0.0 2.69880000000000386251 20.69081439360000373995 41.42208000000000112095
70 0 1 0.0 2.69880000000000386251 20.69081439360000373995 46.57405939200000233313
71 0 1 0.0 2.69880000000000430660 20.69081439360000373995 51.72610060800000297832
72 0 1 0.0 2.69880000000000475069 20.69081439360000373995 56.87808000000000419050
73 0 1 0.0 2.69880000000000119798 24.28919999999999745910 0.20605939200000000788
74 0 1 0.0 2.69880000000000164206 24.28919999999999745910 5.35810060799999909875
75 0 1 0.0 2.69880000000000164206 24.28919999999999745910 10.51008000000000031093
76 0 1 0.0 2.69880000000000208615 24.28919999999999745910 15.66205939199999797040
77 0 1 0.0 2.69880000000000253024 24.28919999999999745910 20.81410060800000039194
78 0 1 0.0 2.69880000000000297433 24.28919999999999745910 25.96607999999999805141
79 0 1 0.0 2.69880000000000297433 24.28920000000000101181 31.11805939199999926359
80 0 1 0.0 2.69880000000000341842 24.28920000000000101181 36.27010060799999990877
81 0 1 0.0 2.69880000000000386251 24.28920000000000101181 41.42208000000000112095
82 0 1 0.0 2.69880000000000386251 24.28920000000000101181 46.57405939200000233313
83 0 1 0.0 2.69880000000000430660 24.28920000000000101181 51.72610060800000297832
84 0 1 0.0 2.69880000000000475069 24.28920000000000101181 56.87808000000000419050
85 0 1 0.0 2.69880000000000164206 27.88758560639999828368 0.20605939200000000788
86 0 1 0.0 2.69880000000000208615 27.88758560639999828368 5.35810060799999909875
87 0 1 0.0 2.69880000000000208615 27.88758560639999828368 10.51008000000000031093
88 0 1 0.0 2.69880000000000253024 27.88758560639999828368 15.66205939199999797040
89 0 1 0.0 2.69880000000000297433 27.88758560639999828368 20.81410060800000039194
90 0 1 0.0 2.69880000000000341842 27.88758560639999828368 25.96607999999999805141
91 0 1 0.0 2.69880000000000341842 27.88758560640000183639 31.11805939199999926359
92 0 1 0.0 2.69880000000000386251 27.88758560640000183639 36.27010060799999990877
93 0 1 0.0 2.69880000000000430660 27.88758560640000183639 41.42208000000000112095
94 0 1 0.0 2.69880000000000430660 27.88758560640000183639 46.57405939200000233313
95 0 1 0.0 2.69880000000000475069 27.88758560640000183639 51.72610060800000297832
96 0 1 0.0 2.69880000000000519478 27.88758560640000183639 56.87808000000000419050
97 0 1 0.0 2.69880000000000164206 31.48601439359999787371 0.20605939200000000788
98 0 1 0.0 2.69880000000000208615 31.48601439359999787371 5.35810060799999909875
99 0 1 0.0 2.69880000000000208615 31.48601439359999787371 10.51008000000000031093
100 0 1 0.0 2.69880000000000253024 31.48601439359999787371 15.66205939199999797040
101 0 1 0.0 2.69880000000000297433 31.48601439359999787371 20.81410060800000039194
102 0 1 0.0 2.69880000000000341842 31.48601439359999787371 25.96607999999999805141
103 0 1 0.0 2.69880000000000341842 31.48601439360000142642 31.11805939199999926359
104 0 1 0.0 2.69880000000000386251 31.48601439360000142642 36.27010060799999990877
105 0 1 0.0 2.69880000000000430660 31.48601439360000142642 41.42208000000000112095
106 0 1 0.0 2.69880000000000430660 31.48601439360000142642 46.57405939200000233313
107 0 1 0.0 2.69880000000000475069 31.48601439360000142642 51.72610060800000297832
108 0 1 0.0 2.69880000000000519478 31.48601439360000142642 56.87808000000000419050
109 0 1 0.0 2.69880000000000208615 35.08439999999999514557 0.20605939200000000788
110 0 1 0.0 2.69880000000000253024 35.08439999999999514557 5.35810060799999909875
111 0 1 0.0 2.69880000000000253024 35.08439999999999514557 10.51008000000000031093
112 0 1 0.0 2.69880000000000297433 35.08439999999999514557 15.66205939199999797040
113 0 1 0.0 2.69880000000000341842 35.08439999999999514557 20.81410060800000039194
114 0 1 0.0 2.69880000000000386251 35.08439999999999514557 25.96607999999999805141
115 0 1 0.0 2.69880000000000386251 35.08439999999999514557 31.11805939199999926359
116 0 1 0.0 2.69880000000000430660 35.08439999999999514557 36.27010060799999990877
117 0 1 0.0 2.69880000000000475069 35.08439999999999514557 41.42208000000000112095
118 0 1 0.0 2.69880000000000475069 35.08439999999999514557 46.57405939200000233313
119 0 1 0.0 2.69880000000000519478 35.08439999999999514557 51.72610060800000297832
120 0 1 0.0 2.69880000000000563887 35.08439999999999514557 56.87808000000000419050
121 0 1 0.0 2.69880000000000208615 38.68278560639999597015 0.20605939200000000788
122 0 1 0.0 2.69880000000000253024 38.68278560639999597015 5.35810060799999909875
123 0 1 0.0 2.69880000000000253024 38.68278560639999597015 10.51008000000000031093
124 0 1 0.0 2.69880000000000297433 38.68278560639999597015 15.66205939199999797040
125 0 1 0.0 2.69880000000000341842 38.68278560639999597015 20.81410060800000039194
126 0 1 0.0 2.69880000000000386251 38.68278560639999597015 25.96607999999999805141
127 0 1 0.0 2.69880000000000386251 38.68278560639999597015 31.11805939199999926359
128 0 1 0.0 2.69880000000000430660 38.68278560639999597015 36.27010060799999990877
129 0 1 0.0 2.69880000000000475069 38.68278560639999597015 41.42208000000000112095
130 0 1 0.0 2.69880000000000475069 38.68278560639999597015 46.57405939200000233313
131 0 1 0.0 2.69880000000000519478 38.68278560639999597015 51.72610060800000297832
132 0 1 0.0 2.69880000000000563887 38.68278560639999597015 56.87808000000000419050
133 0 1 0.0 2.69880000000000253024 42.28121439359999556018 0.20605939200000000788
134 0 1 0.0 2.69880000000000297433 42.28121439359999556018 5.35810060799999909875
135 0 1 0.0 2.69880000000000297433 42.28121439359999556018 10.51008000000000031093
136 0 1 0.0 2.69880000000000341842 42.28121439359999556018 15.66205939199999797040
137 0 1 0.0 2.69880000000000386251 42.28121439359999556018 20.81410060800000039194
138 0 1 0.0 2.69880000000000430660 42.28121439359999556018 25.96607999999999805141
139 0 1 0.0 2.69880000000000430660 42.28121439359999556018 31.11805939199999926359
140 0 1 0.0 2.69880000000000475069 42.28121439359999556018 36.27010060799999990877
141 0 1 0.0 2.69880000000000519478 42.28121439359999556018 41.42208000000000112095
142 0 1 0.0 2.69880000000000519478 42.28121439359999556018 46.57405939200000233313
143 0 1 0.0 2.69880000000000563887 42.28121439359999556018 51.72610060800000297832
144 0 1 0.0 2.69880000000000608296 42.28121439359999556018 56.87808000000000419050
145 0 1 0.0 6.29718560639999935802 2.69879999999999986571 0.20605939200000000788
146 0 1 0.0 6.29718560639999935802 2.69880000000000030980 5.35810060799999909875
147 0 1 0.0 6.29718560640000024620 2.69880000000000030980 10.51008000000000031093
148 0 1 0.0 6.29718560640000024620 2.69880000000000075389 15.66205939199999797040
149 0 1 0.0 6.29718560640000024620 2.69880000000000119798 20.81410060800000039194
150 0 1 0.0 6.29718560640000113438 2.69880000000000164206 25.96607999999999805141
151 0 1 0.0 6.29718560640000113438 2.69880000000000164206 31.11805939199999926359
152 0 1 0.0 6.29718560640000202255 2.69880000000000208615 36.27010060799999990877
153 0 1 0.0 6.29718560640000202255 2.69880000000000253024 41.42208000000000112095
154 0 1 0.0 6.29718560640000202255 2.69880000000000253024 46.57405939200000233313
155 0 1 0.0 6.29718560640000291073 2.69880000000000297433 51.72610060800000297832
156 0 1 0.0 6.29718560640000291073 2.69880000000000341842 56.87808000000000419050
157 0 1 0.0 6.29718560639999935802 6.29718560639999935802 0.20605939200000000788
158 0 1 0.0 6.29718560639999935802 6.29718560639999935802 5.35810060799999909875
159 0 1 0.0 6.29718560640000024620 6.29718560640000024620 10.51008000000000031093
160 0 1 0.0 6.29718560640000024620 6.29718560640000024620 15.66205939199999797040
161 0 1 0.0 6.29718560640000024620 6.29718560640000024620 20.81410060800000039194
162 0 1 0.0 6.29718560640000113438 6.29718560640000113438 25.96607999999999805141
163 0 1 0.0 6.29718560640000113438 6.29718560640000113438 31.11805939199999926359
164 0 1 0.0 6.29718560640000202255 6.29718560640000202255 36.27010060799999990877
165 0 1 0.0 6.29718560640000202255 6.29718560640000202255 41.42208000000000112095
166 0 1 0.0 6.29718560640000202255 6.29718560640000202255 46.57405939200000233313
167 0 1 0.0 6.29718560640000291073 6.29718560640000291073 51.72610060800000297832
168 0 1 0.0 6.29718560640000291073 6.29718560640000291073 56.87808000000000419050
169 0 1 0.0 6.29718560640000024620 9.89561439360000072440 0.20605939200000000788
170 0 1 0.0 6.29718560640000024620 9.89561439360000072440 5.35810060799999909875
171 0 1 0.0 6.29718560640000113438 9.89561439360000072440 10.51008000000000031093
172 0 1 0.0 6.29718560640000113438 9.89561439360000250076 15.66205939199999797040
173 0 1 0.0 6.29718560640000113438 9.89561439360000250076 20.81410060800000039194
174 0 1 0.0 6.29718560640000202255 9.89561439360000250076 25.96607999999999805141
175 0 1 0.0 6.29718560640000202255 9.89561439360000250076 31.11805939199999926359
176 0 1 0.0 6.29718560640000291073 9.89561439360000250076 36.27010060799999990877
177 0 1 0.0 6.29718560640000291073 9.89561439360000250076 41.42208000000000112095
178 0 1 0.0 6.29718560640000291073 9.89561439360000427712 46.57405939200000233313
179 0 1 0.0 6.29718560640000379891 9.89561439360000427712 51.72610060800000297832
180 0 1 0.0 6.29718560640000379891 9.89561439360000427712 56.87808000000000419050
181 0 1 0.0 6.29718560640000024620 13.49399999999999977263 0.20605939200000000788
182 0 1 0.0 6.29718560640000024620 13.49399999999999977263 5.35810060799999909875
183 0 1 0.0 6.29718560640000113438 13.49399999999999977263 10.51008000000000031093
184 0 1 0.0 6.29718560640000113438 13.49400000000000154898 15.66205939199999797040
185 0 1 0.0 6.29718560640000113438 13.49400000000000154898 20.81410060800000039194
186 0 1 0.0 6.29718560640000202255 13.49400000000000154898 25.96607999999999805141
187 0 1 0.0 6.29718560640000202255 13.49400000000000154898 31.11805939199999926359
188 0 1 0.0 6.29718560640000291073 13.49400000000000154898 36.27010060799999990877
189 0 1 0.0 6.29718560640000291073 13.49400000000000154898 41.42208000000000112095
190 0 1 0.0 6.29718560640000291073 13.49400000000000332534 46.57405939200000233313
191 0 1 0.0 6.29718560640000379891 13.49400000000000332534 51.72610060800000297832
192 0 1 0.0 6.29718560640000379891 13.49400000000000332534 56.87808000000000419050
193 0 1 0.0 6.29718560640000024620 17.09238560639999704449 0.20605939200000000788
194 0 1 0.0 6.29718560640000024620 17.09238560639999704449 5.35810060799999909875
195 0 1 0.0 6.29718560640000113438 17.09238560639999704449 10.51008000000000031093
196 0 1 0.0 6.29718560640000113438 17.09238560639999704449 15.66205939199999797040
197 0 1 0.0 6.29718560640000113438 17.09238560639999704449 20.81410060800000039194
198 0 1 0.0 6.29718560640000202255 17.09238560639999704449 25.96607999999999805141
199 0 1 0.0 6.29718560640000202255 17.09238560640000059720 31.11805939199999926359
200 0 1 0.0 6.29718560640000291073 17.09238560640000059720 36.27010060799999990877
201 0 1 0.0 6.29718560640000291073 17.09238560640000059720 41.42208000000000112095
202 0 1 0.0 6.29718560640000291073 17.09238560640000059720 46.57405939200000233313
203 0 1 0.0 6.29718560640000379891 17.09238560640000059720 51.72610060800000297832
204 0 1 0.0 6.29718560640000379891 17.09238560640000059720 56.87808000000000419050
205 0 1 0.0 6.29718560640000024620 20.69081439360000018723 0.20605939200000000788
206 0 1 0.0 6.29718560640000024620 20.69081439360000018723 5.35810060799999909875
207 0 1 0.0 6.29718560640000113438 20.69081439360000018723 10.51008000000000031093
208 0 1 0.0 6.29718560640000113438 20.69081439360000018723 15.66205939199999797040
209 0 1 0.0 6.29718560640000113438 20.69081439360000018723 20.81410060800000039194
210 0 1 0.0 6.29718560640000202255 20.69081439360000018723 25.96607999999999805141
211 0 1 0.0 6.29718560640000202255 20.69081439360000373995 31.11805939199999926359
212 0 1 0.0 6.29718560640000291073 20.69081439360000373995 36.27010060799999990877
213 0 1 0.0 6.29718560640000291073 20.69081439360000373995 41.42208000000000112095
214 0 1 0.0 6.29718560640000291073 20.69081439360000373995 46.57405939200000233313
215 0 1 0.0 6.29718560640000379891 20.69081439360000373995 51.72610060800000297832
216 0 1 0.0 6.29718560640000379891 20.69081439360000373995 56.87808000000000419050
217 0 1 0.0 6.29718560640000113438 24.28919999999999745910 0.20605939200000000788
218 0 1 0.0 6.29718560640000113438 24.28919999999999745910 5.35810060799999909875
219 0 1 0.0 6.29718560640000202255 24.28919999999999745910 10.51008000000000031093
220 0 1 0.0 6.29718560640000202255 24.28919999999999745910 15.66205939199999797040
221 0 1 0.0 6.29718560640000202255 24.28919999999999745910 20.81410060800000039194
222 0 1 0.0 6.29718560640000291073 24.28919999999999745910 25.96607999999999805141
223 0 1 0.0 6.29718560640000291073 24.28920000000000101181 31.11805939199999926359
224 0 1 0.0 6.29718560640000379891 24.28920000000000101181 36.27010060799999990877
225 0 1 0.0 6.29718560640000379891 24.28920000000000101181 41.42208000000000112095
226 0 1 0.0 6.29718560640000379891 24.28920000000000101181 46.57405939200000233313
227 0 1 0.0 6.29718560640000468709 24.28920000000000101181 51.72610060800000297832
228 0 1 0.0 6.29718560640000468709 24.28920000000000101181 56.87808000000000419050
229 0 1 0.0 6.29718560640000113438 27.88758560639999828368 0.20605939200000000788
230 0 1 0.0 6.29718560640000113438 27.88758560639999828368 5.35810060799999909875
231 0 1 0.0 6.29718560640000202255 27.88758560639999828368 10.51008000000000031093
232 0 1 0.0 6.29718560640000202255 27.88758560639999828368 15.66205939199999797040
233 0 1 0.0 6.29718560640000202255 27.88758560639999828368 20.81410060800000039194
234 0 1 0.0 6.29718560640000291073 27.88758560639999828368 25.96607999999999805141
235 0 1 0.0 6.29718560640000291073 27.88758560640000183639 31.11805939199999926359
236 0 1 0.0 6.29718560640000379891 27.88758560640000183639 36.27010060799999990877
237 0 1 0.0 6.29718560640000379891 27.88758560640000183639 41.42208000000000112095
238 0 1 0.0 6.29718560640000379891 27.88758560640000183639 46.57405939200000233313
239 0 1 0.0 6.29718560640000468709 27.88758560640000183639 51.72610060800000297832
240 0 1 0.0 6.29718560640000468709 27.88758560640000183639 56.87808000000000419050
241 0 1 0.0 6.29718560640000113438 31.48601439359999787371 0.20605939200000000788
242 0 1 0.0 6.29718560640000113438 31.48601439359999787371 5.35810060799999909875
243 0 1 0.0 6.29718560640000202255 31.48601439359999787371 10.51008000000000031093
244 0 1 0.0 6.29718560640000202255 31.48601439359999787371 15.66205939199999797040
245 0 1 0.0 6.29718560640000202255 31.48601439359999787371 20.81410060800000039194
246 0 1 0.0 6.29718560640000291073 31.48601439359999787371 25.96607999999999805141
247 0 1 0.0 6.29718560640000291073 31.48601439360000142642 31.11805939199999926359
248 0 1 0.0 6.29718560640000379891 31.48601439360000142642 36.27010060799999990877
249 0 1 0.0 6.29718560640000379891 31.48601439360000142642 41.42208000000000112095
250 0 1 0.0 6.29718560640000379891 31.48601439360000142642 46.57405939200000233313
251 0 1 0.0 6.29718560640000468709 31.48601439360000142642 51.72610060800000297832
252 0 1 0.0 6.29718560640000468709 31.48601439360000142642 56.87808000000000419050
253 0 1 0.0 6.29718560640000113438 35.08439999999999514557 0.20605939200000000788
254 0 1 0.0 6.29718560640000113438 35.08439999999999514557 5.35810060799999909875
255 0 1 0.0 6.29718560640000202255 35.08439999999999514557 10.51008000000000031093
256 0 1 0.0 6.29718560640000202255 35.08439999999999514557 15.66205939199999797040
257 0 1 0.0 6.29718560640000202255 35.08439999999999514557 20.81410060800000039194
258 0 1 0.0 6.29718560640000291073 35.08439999999999514557 25.96607999999999805141
259 0 1 0.0 6.29718560640000291073 35.08439999999999514557 31.11805939199999926359
260 0 1 0.0 6.29718560640000379891 35.08439999999999514557 36.27010060799999990877
261 0 1 0.0 6.29718560640000379891 35.08439999999999514557 41.42208000000000112095
262 0 1 0.0 6.29718560640000379891 35.08439999999999514557 46.57405939200000233313
263 0 1 0.0 6.29718560640000468709 35.08439999999999514557 51.72610060800000297832
264 0 1 0.0 6.29718560640000468709 35.08439999999999514557 56.87808000000000419050
265 0 1 0.0 6.29718560640000202255 38.68278560639999597015 0.20605939200000000788
266 0 1 0.0 6.29718560640000202255 38.68278560639999597015 5.35810060799999909875
267 0 1 0.0 6.29718560640000291073 38.68278560639999597015 10.51008000000000031093
268 0 1 0.0 6.29718560640000291073 38.68278560639999597015 15.66205939199999797040
269 0 1 0.0 6.29718560640000291073 38.68278560639999597015 20.81410060800000039194
270 0 1 0.0 6.29718560640000379891 38.68278560639999597015 25.96607999999999805141
271 0 1 0.0 6.29718560640000379891 38.68278560639999597015 31.11805939199999926359
272 0 1 0.0 6.29718560640000468709 38.68278560639999597015 36.27010060799999990877
273 0 1 0.0 6.29718560640000468709 38.68278560639999597015 41.42208000000000112095
274 0 1 0.0 6.29718560640000468709 38.68278560639999597015 46.57405939200000233313
275 0 1 0.0 6.29718560640000557527 38.68278560639999597015 51.72610060800000297832
276 0 1 0.0 6.29718560640000557527 38.68278560639999597015 56.87808000000000419050
277 0 1 0.0 6.29718560640000202255 42.28121439359999556018 0.20605939200000000788
278 0 1 0.0 6.29718560640000202255 42.28121439359999556018 5.35810060799999909875
279 0 1 0.0 6.29718560640000291073 42.28121439359999556018 10.51008000000000031093
280 0 1 0.0 6.29718560640000291073 42.28121439359999556018 15.66205939199999797040
281 0 1 0.0 6.29718560640000291073 42.28121439359999556018 20.81410060800000039194
282 0 1 0.0 6.29718560640000379891 42.28121439359999556018 25.96607999999999805141
283 0 1 0.0 6.29718560640000379891 42.28121439359999556018 31.11805939199999926359
284 0 1 0.0 6.29718560640000468709 42.28121439359999556018 36.27010060799999990877
285 0 1 0.0 6.29718560640000468709 42.28121439359999556018 41.42208000000000112095
286 0 1 0.0 6.29718560640000468709 42.28121439359999556018 46.57405939200000233313
287 0 1 0.0 6.29718560640000557527 42.28121439359999556018 51.72610060800000297832
288 0 1 0.0 6.29718560640000557527 42.28121439359999556018 56.87808000000000419050
289 0 1 0.0 9.89561439360000072440 2.69879999999999986571 0.20605939200000000788
290 0 1 0.0 9.89561439360000072440 2.69880000000000030980 5.35810060799999909875
291 0 1 0.0 9.89561439360000072440 2.69880000000000030980 10.51008000000000031093
292 0 1 0.0 9.89561439360000250076 2.69880000000000075389 15.66205939199999797040
293 0 1 0.0 9.89561439360000250076 2.69880000000000119798 20.81410060800000039194
294 0 1 0.0 9.89561439360000250076 2.69880000000000164206 25.96607999999999805141
295 0 1 0.0 9.89561439360000250076 2.69880000000000164206 31.11805939199999926359
296 0 1 0.0 9.89561439360000250076 2.69880000000000208615 36.27010060799999990877
297 0 1 0.0 9.89561439360000250076 2.69880000000000253024 41.42208000000000112095
298 0 1 0.0 9.89561439360000427712 2.69880000000000253024 46.57405939200000233313
299 0 1 0.0 9.89561439360000427712 2.69880000000000297433 51.72610060800000297832
300 0 1 0.0 9.89561439360000427712 2.69880000000000341842 56.87808000000000419050
301 0 1 0.0 9.89561439360000072440 6.29718560639999935802 0.20605939200000000788
302 0 1 0.0 9.89561439360000072440 6.29718560639999935802 5.35810060799999909875
303 0 1 0.0 9.89561439360000072440 6.29718560640000024620 10.51008000000000031093
304 0 1 0.0 9.89561439360000250076 6.29718560640000024620 15.66205939199999797040
305 0 1 0.0 9.89561439360000250076 6.29718560640000024620 20.81410060800000039194
306 0 1 0.0 9.89561439360000250076 6.29718560640000113438 25.96607999999999805141
307 0 1 0.0 9.89561439360000250076 6.29718560640000113438 31.11805939199999926359
308 0 1 0.0 9.89561439360000250076 6.29718560640000202255 36.27010060799999990877
309 0 1 0.0 9.89561439360000250076 6.29718560640000202255 41.42208000000000112095
310 0 1 0.0 9.89561439360000427712 6.29718560640000202255 46.57405939200000233313
311 0 1 0.0 9.89561439360000427712 6.29718560640000291073 51.72610060800000297832
312 0 1 0.0 9.89561439360000427712 6.29718560640000291073 56.87808000000000419050
313 0 1 0.0 9.89561439360000072440 9.89561439360000072440 0.20605939200000000788
314 0 1 0.0 9.89561439360000072440 9.89561439360000072440 5.35810060799999909875
315 0 1 0.0 9.89561439360000072440 9.89561439360000072440 10.51008000000000031093
316 0 1 0.0 9.89561439360000250076 9.89561439360000250076 15.66205939199999797040
317 0 1 0.0 9.89561439360000250076 9.89561439360000250076 20.81410060800000039194
318 0 1 0.0 9.89561439360000250076 9.89561439360000250076 25.96607999999999805141
319 0 1 0.0 9.89561439360000250076 9.89561439360000250076 31.11805939199999926359
320 0 1 0.0 9.89561439360000250076 9.89561439360000250076 36.27010060799999990877
321 0 1 0.0 9.89561439360000250076 9.89561439360000250076 41.42208000000000112095
322 0 1 0.0 9.89561439360000427712 9.89561439360000427712 46.57405939200000233313
323 0 1 0.0 9.89561439360000427712 9.89561439360000427712 51.72610060800000297832
324 0 1 0.0 9.89561439360000427712 9.89561439360000427712 56.87808000000000419050
325 0 1 0.0 9.89561439360000072440 13.49399999999999977263 0.20605939200000000788
326 0 1 0.0 9.89561439360000072440 13.49399999999999977263 5.35810060799999909875
327 0 1 0.0 9.89561439360000072440 13.49399999999999977263 10.51008000000000031093
328 0 1 0.0 9.89561439360000250076 13.49400000000000154898 15.66205939199999797040
329 0 1 0.0 9.89561439360000250076 13.49400000000000154898 20.81410060800000039194
330 0 1 0.0 9.89561439360000250076 13.49400000000000154898 25.96607999999999805141
331 0 1 0.0 9.89561439360000250076 13.49400000000000154898 31.11805939199999926359
332 0 1 0.0 9.89561439360000250076 13.49400000000000154898 36.27010060799999990877
333 0 1 0.0 9.89561439360000250076 13.49400000000000154898 41.42208000000000112095
334 0 1 0.0 9.89561439360000427712 13.49400000000000332534 46.57405939200000233313
335 0 1 0.0 9.89561439360000427712 13.49400000000000332534 51.72610060800000297832
336 0 1 0.0 9.89561439360000427712 13.49400000000000332534 56.87808000000000419050
337 0 1 0.0 9.89561439360000250076 17.09238560639999704449 0.20605939200000000788
338 0 1 0.0 9.89561439360000250076 17.09238560639999704449 5.35810060799999909875
339 0 1 0.0 9.89561439360000250076 17.09238560639999704449 10.51008000000000031093
340 0 1 0.0 9.89561439360000427712 17.09238560639999704449 15.66205939199999797040
341 0 1 0.0 9.89561439360000427712 17.09238560639999704449 20.81410060800000039194
342 0 1 0.0 9.89561439360000427712 17.09238560639999704449 25.96607999999999805141
343 0 1 0.0 9.89561439360000427712 17.09238560640000059720 31.11805939199999926359
344 0 1 0.0 9.89561439360000427712 17.09238560640000059720 36.27010060799999990877
345 0 1 0.0 9.89561439360000427712 17.09238560640000059720 41.42208000000000112095
346 0 1 0.0 9.89561439360000605348 17.09238560640000059720 46.57405939200000233313
347 0 1 0.0 9.89561439360000605348 17.09238560640000059720 51.72610060800000297832
348 0 1 0.0 9.89561439360000605348 17.09238560640000059720 56.87808000000000419050
349 0 1 0.0 9.89561439360000250076 20.69081439360000018723 0.20605939200000000788
350 0 1 0.0 9.89561439360000250076 20.69081439360000018723 5.35810060799999909875
351 0 1 0.0 9.89561439360000250076 20.69081439360000018723 10.51008000000000031093
352 0 1 0.0 9.89561439360000427712 20.69081439360000018723 15.66205939199999797040
353 0 1 0.0 9.89561439360000427712 20.69081439360000018723 20.81410060800000039194
354 0 1 0.0 9.89561439360000427712 20.69081439360000018723 25.96607999999999805141
355 0 1 0.0 9.89561439360000427712 20.69081439360000373995 31.11805939199999926359
356 0 1 0.0 9.89561439360000427712 20.69081439360000373995 36.27010060799999990877
357 0 1 0.0 9.89561439360000427712 20.69081439360000373995 41.42208000000000112095
358 0 1 0.0 9.89561439360000605348 20.69081439360000373995 46.57405939200000233313
359 0 1 0.0 9.89561439360000605348 20.69081439360000373995 51.72610060800000297832
360 0 1 0.0 9.89561439360000605348 20.69081439360000373995 56.87808000000000419050
361 0 1 0.0 9.89561439360000250076 24.28919999999999745910 0.20605939200000000788