# LAMMPS data file written by OVITO Basic 3.8.4

3 atoms
2 atom types

0.0 3.03511028 xlo xhi
0.0 2.6284826058 ylo yhi
0.0 3.223208 zlo zhi
-1.51755514 0.0 0.0 xy xz yz

Masses

1 10.811  # B
2 47.867  # Ti

Atoms  # atomic

1 1 1.5175551552 0.8761608598 1.611604
2 1 -1.5175551038e-08 1.7523217459 1.611604
3 2 0.0 0.0 0.0
