ITEM: TIMESTEP
0
ITEM: NUMBER OF ATOMS
3600
ITEM: BOX BOUNDS xy xz yz pp pp pp
-4.7524456625499312e-01 7.2443244566256936e+01 0.0000000000000000e+00
-1.1209002697184545e-01 2.1702490026972111e+01 0.0000000000000000e+00
-3.1401284087734282e-01 2.6074012840877334e+01 0.0000000000000000e+00
ITEM: ATOMS id type x y z c_peratom fx fy fz 
6 1 0.27007 0.647567 1.66062 -8.32431 -0.276631 2.06139 1.95361 
726 1 0.660691 0.772846 6.98302 -7.74271 -0.440202 -0.659197 0.610783 
135 1 9.84805 6.27472 0.0704503 -8.50037 -0.459882 0.912866 0.0745427 
126 1 0.169146 4.30938 1.90233 -8.51793 1.83263 0.325725 0.244857 
846 1 0.970962 4.38014 7.0406 -7.23903 -1.14713 2.44166 0.868385 
263 1 11.3592 8.43736 4.84141 -7.92971 1.58472 -0.331728 -2.04348 
246 1 0.57368 8.10901 2.16733 -8.35769 -1.63976 0.0453983 -0.937037 
966 1 0.344387 8.04147 7.58161 -7.58894 1.22067 -0.080416 -0.984611 
1578 1 7.7078 4.32439 12.719 -8.95792 -0.660922 -0.592986 0.914347 
12 1 4.29005 0.860523 2.18533 -7.85701 0.296458 0.225009 -1.81538 
732 1 4.35185 1.04276 7.16568 -7.48701 0.381923 -1.20056 1.7946 
243 1 2.37186 9.94831 -0.031703 -7.837 1.69037 0.977016 1.07838 
132 1 3.96356 4.55639 1.99352 -7.813 0.221989 -0.658979 0.138289 
852 1 4.49441 4.69065 7.21448 -8.37634 -0.776028 -1.55811 1.5802 
136 1 9.7838 6.50171 2.86164 -8.20714 0.266441 0.583505 -0.777214 
252 1 4.17166 8.12873 2.25649 -8.47221 0.00825791 0.259662 0.164722 
972 1 4.45292 8.09486 7.39743 -8.10619 1.40872 0.448173 2.11697 
260 2 11.2209 9.91709 0.902289 -29.0509 1.47977 2.55094 -1.82857 
18 1 7.59361 0.931554 2.2046 -8.35725 1.0104 -0.916852 -1.57131 
738 1 7.77523 0.928219 7.44438 -8.6434 1.37656 -0.0940213 0.531014 
1700 2 11.301 9.93161 11.7859 -28.5425 0.701263 0.490474 -0.835738 
138 1 7.87983 4.72169 1.83343 -7.98363 0.0117828 -1.99806 3.2182 
858 1 8.41695 4.73688 7.21451 -7.30804 -0.656868 -3.26456 -0.457181 
23 1 11.2522 0.797469 4.68311 -7.92237 1.463 1.40867 1.67916 
258 1 7.53549 7.99797 2.17614 -8.60215 0.684148 1.94001 -0.358621 
978 1 7.93573 8.42783 7.67805 -8.27939 -0.317382 0.872092 -1.47958 
1698 1 7.62398 7.93265 12.4831 -7.31409 -0.290144 -0.983175 0.954304 
9 1 5.82687 3.06695 0.199899 -8.05163 0.71084 0.0276487 0.23319 
740 2 11.1771 2.45378 6.33179 -27.8368 -0.0776558 1.90733 0.308533 
1566 1 0.464843 4.63948 12.2908 -7.95761 0.327204 -0.523067 2.25741 
743 1 11.3627 0.446953 10.1924 -7.74818 -0.420713 2.5488 -0.484175 
256 1 9.40051 9.90849 2.70798 -9.21312 0.714118 -1.85214 -0.163477 
1580 2 11.2544 6.33584 11.5536 -29.3337 1.99121 0.260938 2.22156 
863 1 11.5737 4.57525 10.3099 -8.24044 -3.04921 -0.292251 -1.01178 
1460 2 11.371 2.73326 11.845 -29.0711 1.01766 -0.114115 -0.0376873 
976 1 10.0315 10.1943 8.25404 -7.89105 0.457492 -1.72442 -2.17933 
5 1 0.403612 0.880604 4.28542 -8.03429 0.0709575 0.942763 -0.168116 
725 1 0.271462 0.819542 9.72774 -7.48161 -0.0115278 -0.865336 0.0577449 
125 1 0.637683 4.22449 4.45664 -8.19904 -2.8062 -0.143139 -0.0477373 
845 1 0.75073 4.85599 9.75154 -7.49268 -1.32148 -0.421578 -0.961365 
245 1 0.341362 8.17977 4.84711 -8.54501 0.519125 0.277612 -0.719699 
965 1 0.568042 8.40946 10.1721 -7.88542 0.818579 -0.780255 -1.44392 
123 1 2.29343 6.14157 0.115209 -7.36908 -0.0476742 0.856884 0.425175 
731 1 4.11747 1.04338 9.85856 -8.28896 0.914414 0.0353162 0.818974 
131 1 4.08005 4.81299 4.7399 -8.20217 0.465267 -0.730933 -1.57308 
851 1 3.95513 4.257 9.76708 -8.38804 0.710736 0.83222 0.279426 
251 1 3.93554 8.16024 5.01729 -8.67865 -0.389568 -0.459078 -2.83782 
971 1 4.39474 7.81501 10.1104 -8.88566 0.254839 1.06432 -1.58348 
17 1 7.5634 0.760507 4.74442 -7.66942 0.250535 -0.405587 1.13199 
737 1 7.55911 1.08723 10.1962 -8.90322 0.812887 -1.14224 0.647947 
137 1 7.74025 4.87321 4.72526 -8.06517 -0.0141059 1.31815 -1.0956 
857 1 7.53776 4.18754 9.70352 -7.24704 5.07921 -1.27443 0.713579 
257 1 7.84 8.5183 4.971 -8.68514 -1.61272 0.580952 -1.58474 
977 1 7.82609 8.03165 10.1254 -7.37274 -0.393453 -0.395596 -0.710673 
1572 1 3.8406 4.29087 12.4344 -8.61225 -1.10551 2.53175 0.817779 
850 1 6.46808 6.28386 8.01745 -7.61908 -1.62441 0.22671 0.299155 
1704 1 11.4573 8.22151 12.6608 -7.4543 -2.16676 0.328436 -0.018214 
856 1 9.87214 6.47381 8.12473 -6.9425 1.55566 1.05046 0.611356 
143 1 11.2476 4.65736 4.84189 -7.66945 -1.8252 -0.0375845 -0.18803 
864 1 11.4089 4.40905 7.50039 -8.40496 0.0725046 -0.409255 0.629015 
2 2 0.632937 2.5284 0.962611 -27.9819 -1.90984 0.688505 -0.622315 
722 2 0.473218 2.57371 6.17254 -29.7839 0.578141 0.857352 0.444472 
1442 2 0.39274 2.57241 11.7953 -28.713 -2.14939 2.03324 -3.47866 
122 2 0.447647 6.11396 1.045 -28.2051 0.197171 1.36042 -0.74768 
842 2 0.381103 6.34333 6.29739 -28.7166 0.236424 0.0886427 1.27273 
1562 2 0.730773 6.49308 11.4684 -28.8357 -3.18667 0.141317 1.50715 
242 2 0.676 9.98006 1.05794 -28.9514 -0.804657 -1.20499 -0.552094 
962 2 0.478132 9.89841 6.24751 -28.3832 0.634622 -0.58071 2.71228 
1682 2 0.519492 10.1155 11.5148 -28.904 0.694352 -1.38277 1.18925 
8 2 4.13416 2.51639 0.828281 -28.7505 -1.58562 0.89705 1.08479 
728 2 4.09654 2.63771 6.32088 -28.6085 1.07779 3.1238 -0.821437 
1448 2 3.96071 2.60097 11.4022 -28.7577 0.650927 -0.581289 0.157689 
128 2 4.02438 6.39762 1.05955 -29.179 0.524832 -0.65421 -0.644369 
848 2 4.05926 6.32554 6.28162 -28.8385 -0.428402 0.839856 -0.988243 
1568 2 4.26881 6.35651 11.5923 -27.8689 0.0760015 -1.825 1.05131 
248 2 4.32432 9.97996 0.834037 -28.2285 -2.22894 0.285448 1.75479 
968 2 4.0903 9.86717 6.26676 -28.9157 0.00885901 1.2236 0.97998 
1688 2 4.36582 9.80181 11.4722 -28.389 -0.712615 3.27638 1.591 
14 2 7.59959 2.62755 0.973555 -28.4802 0.5273 1.93567 2.30468 
734 2 7.71459 2.81592 6.4519 -28.1638 0.0882203 0.558879 0.18826 
1454 2 7.83899 2.75458 11.5803 -27.9766 -2.25439 -0.535923 -0.603149 
134 2 7.81501 6.28751 0.824521 -28.6607 -1.69117 0.54068 0.721808 
854 2 7.72081 6.57053 6.35442 -29.3896 2.30668 -1.1138 1.78972 
1574 2 7.78857 5.98699 11.6624 -28.7147 -1.37826 2.69767 -0.259423 
254 2 7.7007 9.94559 1.3475 -27.6012 -0.588523 -0.140026 -1.56334 
974 2 7.67452 9.98173 6.37952 -28.5008 1.09002 2.78791 0.114663 
1694 2 7.69679 9.81043 11.528 -29.0758 0.62562 0.503503 0.899389 
860 2 11.4782 6.35084 6.44767 -29.6709 -1.79312 0.275087 0.6878 
1695 1 9.40891 10.0584 10.5745 -8.18018 1.83889 0.27366 1.01793 
983 1 11.1405 8.0588 10.044 -8.35561 1.53454 -1.81839 2.59957 
1452 1 3.70964 0.516319 12.5424 -8.04932 -0.99293 1.96488 -1.24766 
1686 1 0.283642 8.42056 12.6287 -7.5071 0.0336091 -0.308028 0.146103 
970 1 5.96713 10.2616 7.78004 -7.96487 1.38403 -2.49471 0.903043 
1446 1 0.140727 0.743413 12.4124 -8.01897 -0.19855 0.581108 -0.262766 
980 2 11.6654 10.0937 6.502 -29.8256 -1.19128 0.272573 0.134745 
1584 1 11.5012 4.60172 12.8415 -7.38426 -0.35728 -0.114606 -0.597087 
1 2 2.42505 1.06789 3.65411 -28.4405 0.443164 -1.74043 0.657755 
721 2 2.15865 1.04256 9.00179 -29.7407 0.0949239 -1.71752 -1.07712 
121 2 2.23137 4.57669 3.6009 -28.1509 3.03904 -0.319953 0.206257 
841 2 2.41542 4.82381 8.93448 -27.8364 -1.33764 -2.35748 -2.93324 
241 2 2.2453 8.18225 3.70438 -28.3492 -0.192534 -0.562884 0.302783 
961 2 2.45981 8.10914 9.12083 -27.8922 -1.20586 1.31436 -1.24052 
7 2 5.98778 0.874815 3.49484 -29.158 -0.388318 -0.52148 0.620342 
727 2 6.04942 1.08948 8.94003 -28.3603 -2.55606 -2.49264 0.606705 
127 2 5.94267 4.73773 3.61688 -28.4109 -0.462302 -3.99381 1.65726 
847 2 5.91858 4.29031 8.8731 -28.555 -1.25182 4.49677 1.66081 
247 2 5.75818 8.18389 3.75664 -27.6043 0.693387 0.186361 -0.262742 
967 2 5.9613 8.10417 8.9253 -28.3268 2.81048 -0.137388 -0.51733 
13 2 9.31879 0.805408 3.77729 -29.2418 1.70321 1.06343 -0.208412 
733 2 9.35982 0.807325 9.21516 -27.859 1.79933 -1.2829 1.64268 
133 2 9.36392 4.53736 3.80138 -28.6108 2.4611 0.414735 -1.06444 
853 2 9.71603 4.44406 9.00898 -29.1289 -1.37291 1.26286 -1.04139 
253 2 9.56591 8.37991 3.89373 -27.8083 0.464996 -2.66293 1.56995 
973 2 9.65208 8.32499 9.16889 -28.546 -4.04179 -1.07053 -3.49391 
11 1 4.45581 1.01139 4.6807 -7.84064 -1.06742 0.341711 0.374496 
723 1 2.44371 2.57434 5.32052 -8.18737 -0.388877 -0.346896 -2.47343 
1443 1 2.05366 2.50016 10.556 -8.02353 0.30965 0.34444 1.13769 
20 2 11.3394 2.6947 1.15062 -29.2068 -0.62513 0.65597 0.9267 
843 1 2.00658 6.24515 5.28 -7.63527 1.17533 1.21481 -1.09066 
1563 1 2.35915 6.54881 10.4665 -8.79602 2.27817 -0.83374 -0.450366 
736 1 9.63371 2.42614 8.42726 -8.28916 0.619224 2.49348 -4.19366 
963 1 2.25781 10.0883 5.22171 -8.28971 -1.63526 -1.31813 1.34924 
1683 1 2.64733 9.77387 10.6557 -8.1715 -1.16883 -0.0809247 -2.49248 
249 1 6.10052 9.92479 -0.0976533 -8.70734 0.266665 -0.197085 0.733748 
729 1 6.26608 3.00645 5.31301 -7.13438 -3.18291 0.278855 0.574482 
1449 1 5.84235 2.87348 10.7347 -7.34099 -0.0490506 -1.49719 -0.558191 
250 1 5.75066 10.2009 2.40613 -8.66885 2.28307 -2.26524 1.56384 
849 1 6.00717 6.73061 5.42941 -8.38416 -0.845374 0.0254011 -1.49245 
1569 1 6.01594 5.86567 10.6644 -7.79105 -1.37875 1.03143 0.684694 
255 1 9.15795 9.99619 -0.0127507 -8.10113 1.4789 -2.48309 0.688694 
969 1 5.78103 10.1084 5.24579 -8.37259 1.28719 -1.85341 -1.81099 
1689 1 6.0235 9.88274 10.4171 -8.39386 -0.650454 -0.529589 -1.87297 
24 1 11.3624 0.870839 2.191 -7.71274 0.197393 -0.174295 -1.23278 
735 1 9.27342 2.63314 5.3533 -8.84331 2.51631 -0.0241772 0.458544 
1455 1 9.57149 2.61451 10.8027 -8.34622 1.67695 0.464389 0.348982 
129 1 5.61714 6.19607 -0.139378 -7.04447 0.170707 -0.588381 2.21426 
855 1 9.55776 6.82773 5.49363 -7.33504 0.375825 -1.24672 0.0286257 
1575 1 9.34216 5.79898 10.5687 -8.22558 1.88797 0.42655 1.03028 
16 1 9.59576 2.81372 2.729 -7.6436 -0.919065 -0.658544 1.20916 
975 1 9.86396 10.3211 5.58292 -7.4141 -2.40252 -0.757844 -0.765831 
140 2 11.4222 6.35743 1.22559 -28.5118 1.11334 -0.221097 0.676125 
4 1 2.29471 2.65891 2.51997 -8.8388 -0.94738 0.288195 0.0892431 
724 1 2.41174 2.5672 7.89709 -7.21182 1.28366 1.57981 0.525843 
124 1 2.19571 6.37756 2.72179 -8.31637 -0.0693553 -1.05014 -0.506092 
844 1 2.5308 6.56134 7.75122 -8.4706 -0.400471 -1.06369 1.66463 
244 1 2.29143 9.90676 2.74837 -7.75692 -0.42698 -0.256915 -1.21459 
964 1 2.46144 9.7276 7.83597 -8.98293 -0.30186 1.18523 0.659247 
10 1 6.00503 2.75863 2.84495 -7.55941 -0.0666633 2.13408 -1.89844 
730 1 6.11939 2.71623 7.89437 -8.70195 -0.122531 0.394269 -1.03447 
130 1 5.87227 6.25992 2.70378 -8.04878 -0.896347 1.74415 -0.625829 
144 1 11.5374 4.47024 2.22394 -8.02419 0.404877 0.97811 -1.20778 
15 1 9.41554 2.61158 0.225295 -7.87199 -1.18176 0.860028 -1.32296 
3 1 2.25705 2.17906 -0.0295397 -8.27425 -0.343788 0.428219 -0.365539 
1692 1 4.26115 8.19487 12.5819 -8.6773 0.0761143 -0.44797 1.54874 
2166 1 0.384132 0.554898 17.7772 -7.86352 0.343632 0.501392 -1.98471 
2886 1 0.579292 0.748294 23.0624 -8.18744 -1.26891 0.0876455 -0.709613 
1450 1 5.45664 2.48894 13.1492 -8.3268 0.504342 -0.00695489 1.74023 
3006 1 0.937213 4.52329 23.0758 -8.7372 -3.18607 2.05135 -2.40531 
2406 1 0.318598 7.89056 17.6643 -7.38336 0.633827 0.706544 0.346908 
2885 1 0.293954 0.613231 25.5564 -7.9597 -0.218065 -0.329109 -0.0620036 
2172 1 4.35038 0.985281 17.8372 -8.42935 -1.27295 -1.88272 -1.37638 
2892 1 4.32 0.731219 23.084 -7.39391 0.347157 0.554749 -0.365353 
2292 1 3.96333 4.22419 17.7251 -8.65608 1.06324 0.691538 2.59953 
3012 1 4.34488 4.44275 23.0891 -7.41629 -0.0749471 -0.440676 -1.13973 
2412 1 4.10474 8.13711 18.006 -7.98622 0.995036 0.523933 -1.43728 
3132 1 4.45206 8.31988 23.1453 -8.32334 -1.49551 0.961522 0.751012 
2178 1 8.14282 0.695371 18.0984 -8.57212 -1.14882 -0.224393 0.0623533 
2898 1 7.84487 0.864878 23.1896 -8.13967 -0.227553 0.671805 1.30671 
2298 1 7.70676 4.50058 17.9268 -8.15433 0.0710036 -1.60428 0.833293 
3018 1 7.69436 4.48284 23.2327 -7.89987 -0.493302 1.26018 -0.519915 
2418 1 7.35723 8.01209 17.5705 -8.6912 0.338563 -0.13797 1.6676 
3138 1 8.08737 8.16351 23.1848 -8.17021 0.116078 0.136868 -0.0557084 
3136 1 9.98207 9.9089 23.8614 -8.14555 -0.917185 0.343808 -0.61638 
3005 1 0.668934 4.44203 25.6397 -8.47252 -1.88108 -0.652374 0.879278 
2900 2 11.2774 2.63859 22.1134 -28.7964 2.19761 1.47463 1.02336 
3126 1 0.715637 8.03097 22.9928 -8.22389 -0.64569 -1.52544 0.0964879 
1456 1 9.88314 2.84709 13.3255 -7.80901 -1.99268 -1.03448 0.571895 
2180 2 11.4372 2.66019 17.2265 -28.685 -0.724241 -2.13475 -2.42858 
1445 1 0.361668 0.849081 15.0651 -8.31288 3.57017 -1.42066 0.758052 
2165 1 0.261369 0.645547 20.2229 -7.23498 0.683359 0.475742 2.21656 
3016 1 9.66512 6.26769 23.7329 -8.22597 -0.203793 -0.908623 0.084836 
1565 1 0.502514 4.88742 15.0205 -7.79997 0.406943 -3.34133 -2.88968 
2285 1 0.584134 4.50775 20.4239 -9.00023 -0.135899 -0.364429 0.6044 
3023 1 11.2265 4.2126 25.8244 -7.95531 2.39258 0.100443 0.671903 
1685 1 0.292278 7.74451 15.037 -7.12766 -0.367734 0.445123 0.213048 
2405 1 0.549222 8.13076 20.3195 -8.22768 -0.628027 -0.96474 0.573862 
2303 1 11.5049 4.61849 20.6405 -6.85258 -3.66352 -1.64054 -0.959514 
1684 1 2.27842 10.0843 13.1513 -7.57353 -0.156715 -1.51955 0.811927 
2171 1 4.15897 0.829961 20.4551 -7.92738 2.26898 -0.760755 -0.188262 
2420 2 11.4725 9.63347 17.0037 -29.5442 0.462722 0.0828513 -0.824891 
1571 1 4.06776 4.33787 15.1437 -8.19609 -0.207681 -0.846503 -0.953738 
2291 1 3.89626 4.15989 20.4625 -8.05262 0.213509 0.0924991 -1.00758 
3144 1 11.5671 8.04057 23.1978 -8.08082 -0.343306 -0.565371 -0.285099 
1691 1 4.40929 8.21769 15.3083 -7.79943 -0.705684 -1.36711 -0.923912 
2411 1 4.3744 8.11703 20.5227 -7.94635 -0.743733 0.649106 0.703256 
1583 1 11.3667 4.42239 15.4985 -8.34964 1.01591 -1.3668 0.449578 
1457 1 7.68361 0.609374 15.5759 -8.58857 -0.136912 0.571264 -0.491523 
2177 1 7.81656 0.837016 20.6236 -8.85108 -1.00762 0.0526481 -0.510455 
3131 1 4.11804 8.22972 25.9348 -8.19828 0.647703 0.438037 -0.502329 
1577 1 7.86411 4.35867 15.3632 -7.79705 -0.876004 -0.585847 -1.03806 
2297 1 7.82315 4.48815 20.514 -8.07052 0.859371 -0.953878 0.0432651 
1703 1 11.4953 7.81241 15.2863 -7.68838 -0.0141396 2.16729 1.0793 
1697 1 7.79497 7.99879 15.0514 -7.9146 -2.17636 -0.515534 0.892456 
2417 1 7.7841 8.05987 20.6303 -8.18353 -0.693143 0.130829 -1.93571 
2300 2 11.5874 5.95133 16.8695 -28.5048 -0.653042 3.08603 0.410911 
2176 1 9.6745 2.67309 18.5667 -8.37265 0.21058 -0.683354 0.88942 
3020 2 11.4105 6.27781 22.1881 -29.2393 -1.15462 -2.16223 1.05686 
2416 1 9.67331 9.39802 18.5323 -8.18048 -1.16494 1.55412 -1.45271 
2896 1 9.51727 2.86701 23.8002 -7.28298 -1.28942 -2.60347 1.57966 
3017 1 7.74798 4.71213 25.7852 -7.85875 -0.156838 -1.38433 -0.660387 
2184 1 11.4539 0.638213 18.1259 -8.20524 -1.7466 1.6852 -0.404025 
2286 1 0.653188 4.57643 17.6343 -8.01764 -1.15099 -2.12303 1.72172 
2296 1 9.69826 6.28258 18.4048 -8.47431 -1.15525 -0.729641 0.333917 
2423 1 11.3088 8.24347 20.6341 -8.30148 0.0337242 -1.07885 1.00974 
2162 2 0.442652 2.48063 16.9082 -28.3511 1.86295 0.67111 1.08466 
2882 2 0.41213 2.77892 22.0653 -28.3872 1.47164 -2.12383 -0.132982 
2282 2 0.580367 6.12501 16.5626 -29.9014 -0.297975 3.13518 0.0489331 
3002 2 0.609532 6.31539 21.9081 -27.6696 -0.830277 0.592916 0.199205 
2402 2 0.515727 9.84626 17.0549 -28.4297 -0.0936229 -1.47834 -0.776434 
3122 2 0.617281 10.0015 22.0514 -28.7496 -1.66915 -0.548336 1.50227 
2168 2 4.05805 2.63681 16.7408 -27.4233 -0.82861 -1.09156 0.00606216 
2888 2 4.10487 2.45823 22.0823 -29.6288 -1.38595 0.748078 0.543169 
2288 2 4.18234 6.08182 17.0271 -29.0434 0.229469 2.23248 -1.99487 
3008 2 4.33612 6.27561 22.1046 -29.155 -0.324792 0.232241 1.07941 
2408 2 4.31913 9.74697 16.6791 -28.7972 -2.25086 1.24801 0.702248 
3128 2 4.30741 9.91458 22.0356 -28.0562 -2.01257 -0.0928427 0.187048 
2174 2 7.72911 2.49665 16.9722 -28.3275 1.30095 0.745954 0.751599 
2894 2 7.78021 2.856 22.0503 -28.9157 0.142206 -1.17903 2.39038 
2294 2 7.89085 6.10809 16.9039 -28.7117 -1.31865 0.587378 -1.243 
3014 2 7.80779 6.31736 22.2109 -29.0869 -0.774045 -0.110984 -0.503417 
2414 2 7.67821 9.76531 16.7415 -28.5728 1.33786 0.955528 -1.05309 
3134 2 7.8592 9.95241 22.1696 -28.4423 -1.12066 -0.800048 -0.292299 
1576 1 9.60951 6.19621 13.215 -8.09932 -0.895694 0.886907 -0.579079 
1451 1 4.03524 0.61386 15.0771 -8.43091 -1.14921 2.49476 1.99132 
3125 1 0.790725 7.97423 25.7039 -8.2618 -2.60173 -0.52188 0.652341 
3024 1 11.31 4.39703 23.197 -7.08513 1.65291 -0.319025 0.212659 
1463 1 11.2763 0.938529 15.5353 -7.12409 1.79355 -0.273263 -0.117665 
1570 1 5.84339 6.19631 13.3406 -8.0882 -0.89747 -0.878198 -1.08372 
1441 2 2.28186 0.779223 14.0523 -27.9266 -0.676416 -1.803 0.28215 
2161 2 2.24503 0.699776 19.611 -29.4562 -0.334934 0.349257 -0.456592 
2881 2 2.13778 0.730859 24.7754 -29.2694 2.25676 0.49828 -1.10488 
1561 2 2.30737 4.40952 14.0361 -28.2061 -0.642666 1.54609 0.86333 
2281 2 2.16479 4.40707 19.3534 -28.1393 1.79204 -0.940905 -1.14571 
3001 2 2.28265 4.51613 24.4244 -28.8933 2.364 -0.517704 1.70741 
1681 2 2.34662 8.11992 14.0941 -29.1768 -0.828575 1.67935 2.58413 
2401 2 2.43351 7.89922 19.4444 -28.9029 0.3651 2.15851 0.307873 
3121 2 2.48456 8.0703 24.6997 -28.6749 0.0640474 1.44767 0.269686 
1447 2 5.94669 1.00997 14.4174 -27.9023 -0.217704 -3.73049 -1.53666 
2167 2 6.03556 0.531315 19.4096 -27.5668 -1.20803 1.58194 0.0559261 
2887 2 6.046 0.640941 24.7362 -29.2001 -2.57244 -0.461846 -0.534698 
1567 2 5.81042 4.202 14.2256 -28.1253 1.71442 3.06285 0.059572 
2287 2 5.93849 4.31245 19.5766 -28.8154 -0.180003 1.13228 0.623305 
3007 2 5.84368 4.4086 24.8328 -30.3343 -0.588787 1.95723 -0.972027 
1687 2 6.03061 8.18591 14.0202 -28.8996 0.188721 -1.00283 0.628133 
2407 2 6.02545 8.27675 19.3235 -28.5077 -0.247675 -2.68539 1.42086 
3127 2 6.15978 8.3478 24.7455 -28.7389 -1.562 -4.03301 0.520608 
1453 2 9.47847 0.862072 14.2732 -29.1886 2.26397 1.07565 2.54814 
2173 2 9.57345 0.560429 19.6505 -27.9084 1.65077 1.2517 -0.429228 
2893 2 9.44215 1.00765 25.0769 -28.7515 -0.349182 -0.76997 -2.58991 
1573 2 9.59786 4.43426 14.3991 -28.9323 0.575712 0.975078 0.135192 
2293 2 9.71606 4.33586 19.5466 -28.3988 -0.249522 2.06935 1.01333 
3013 2 9.41745 4.45086 24.8502 -29.0648 2.00299 0.720345 -0.571542 
1693 2 9.61223 7.97921 14.4726 -28.9829 1.33369 -0.473242 -2.37801 
2413 2 9.79184 7.92916 19.5686 -27.7126 -2.23405 -2.32109 0.68728 
3133 2 9.7107 7.87805 24.7454 -28.379 -0.207927 2.27184 0.499388 
2163 1 2.25348 2.73852 15.7975 -8.40365 -0.619244 -1.45153 -0.788346 
2883 1 2.13256 2.18218 20.9739 -7.56607 -0.468916 2.30801 1.54453 
2283 1 2.48927 6.38186 15.6838 -7.33163 1.13424 -0.112699 -0.233826 
3003 1 2.4799 6.34419 21.0749 -8.78377 -0.526197 -0.0219392 -0.614245 
2403 1 2.12982 9.5357 15.834 -7.91764 0.646832 0.901359 0.815439 
3123 1 2.30782 9.85118 21.1653 -7.66208 0.336093 -0.788573 1.4368 
2169 1 5.9451 2.51523 15.8084 -9.64011 -0.176046 0.642366 0.310619 
2889 1 5.95547 2.81358 21.5082 -7.90809 0.00690694 -0.592875 -2.84442 
2289 1 5.94384 5.8666 15.9439 -7.28396 -0.163569 0.8583 1.25032 
3009 1 5.90638 6.03977 21.0213 -7.44065 0.887278 -0.0835014 2.64316 
2409 1 5.93694 10.0364 15.6129 -7.86927 1.09631 -1.02141 0.66292 
3129 1 6.05148 10.0409 21.2149 -8.59102 0.311189 -0.226038 -0.84893 
2175 1 9.52643 2.63665 16.025 -7.55054 -0.600058 -0.132631 -0.269669 
2895 1 9.57944 2.68769 21.2922 -8.20764 -0.298467 0.401092 -2.94979 
2295 1 9.66638 6.27778 15.8469 -8.05693 -1.14806 -0.738155 0.707677 
3015 1 9.60968 6.2946 21.1497 -8.15895 -0.0269379 0.139317 -0.640005 
2415 1 9.56815 9.57923 15.8021 -7.91555 1.36021 0.126137 0.821809 
3135 1 9.51725 9.96651 21.1693 -8.24496 -0.705618 -0.533185 -1.36778 
1444 1 1.88833 2.52306 13.1763 -8.94325 1.20794 0.857362 0.679114 
2164 1 1.98698 2.50489 18.4103 -7.9255 0.952641 -0.355259 -0.0471197 
2884 1 2.33489 2.59905 23.5624 -7.75823 0.805525 -1.05795 0.723052 
1696 1 9.37327 9.79655 13.077 -8.46788 0.685545 0.389225 0.677579 
2284 1 2.40951 6.31041 18.2601 -8.21496 -0.0868987 -1.36302 1.90716 
3004 1 2.79378 6.37201 23.7928 -8.09013 -0.949701 0.769648 -1.13487 
3140 2 11.1102 9.75261 22.118 -28.3749 4.41742 1.9115 1.87653 
2404 1 2.19286 9.84665 18.7019 -7.72987 -0.862315 -0.463497 -2.30407 
3124 1 1.93911 10.0435 23.7988 -7.73064 2.4608 -0.0943382 -0.513392 
2897 1 7.48515 1.06475 25.9997 -8.7397 1.61586 -1.53861 -0.23556 
2170 1 6.1565 2.43053 18.6725 -8.52343 0.968884 1.46457 -0.0786472 
2890 1 6.0242 2.51203 24.0679 -7.14935 0.0263113 0.526417 0.303982 
2891 1 4.25689 0.759867 25.9212 -7.76553 -0.0150387 0.404162 -0.322922 
2290 1 5.75971 6.23517 18.6753 -7.48864 -0.574209 -0.898978 -2.32179 
3010 1 6.01536 6.47875 23.7897 -7.27691 0.730514 -0.712904 -2.23654 
3143 1 11.4157 8.33452 25.7459 -7.90705 -0.0611629 0.25032 0.258519 
2410 1 5.93798 10.0838 18.5019 -8.4159 1.42014 -1.72697 -0.769828 
3130 1 6.41424 9.96148 23.8731 -8.22552 -0.767069 2.1866 -1.6119 
1458 1 7.82033 1.20033 13.0012 -9.11276 0.134327 -0.58792 -0.454402 
2903 1 11.1306 1.05105 26.0525 -8.34 3.76749 0.00669204 -0.670636 
1690 1 6.17593 9.96912 12.9522 -8.07845 -1.25974 -0.456305 0.933564 
3011 1 3.80163 4.28451 25.5133 -7.01654 1.31483 -1.48161 2.14371 
3137 1 7.73037 7.56159 25.7033 -8.17123 1.79532 2.47163 0.725271 
2904 1 11.2011 1.00386 23.3614 -8.46537 2.12719 -0.473913 0.68033 
2304 1 11.5517 4.42338 18.1937 -8.38111 -0.124995 0.538583 -1.56388 
2183 1 11.3211 0.889022 20.6899 -8.16988 -0.499638 1.65586 -0.120107 
1564 1 2.30169 6.57424 13.0347 -8.60712 0.449709 -2.41544 -0.952028 
1464 1 11.2861 0.865715 12.8964 -7.58046 0.708134 0.38751 -1.82448 
366 1 0.567782 11.7087 2.06172 -8.58937 -1.35192 0.605284 1.08185 
1086 1 0.596525 11.8314 7.38741 -8.17458 0.725472 -2.14318 0.00519226 
483 1 2.32223 16.9426 -0.0940508 -8.49517 -1.07764 1.23394 1.07744 
486 1 0.432317 15.1796 2.05973 -7.38703 -1.10817 1.98678 -0.660999 
1206 1 0.560177 15.5194 7.30216 -8.01437 0.919544 -0.375464 -0.0469482 
1940 2 11.1908 17.2695 11.8021 -29.5937 -0.278541 -0.783451 -2.04961 
606 1 0.757629 19.1358 1.88781 -8.24133 -0.517343 -0.744007 0.164922 
1326 1 1.03878 18.9332 6.96657 -7.72702 1.46661 -0.279937 0.852486 
375 1 9.85175 13.7006 -0.047146 -7.96659 -0.713419 0.202517 0.644257 
372 1 3.94328 11.7927 2.13198 -7.31384 -0.404588 0.304664 -2.57233 
1092 1 4.19505 11.7852 7.18609 -7.81967 -2.32959 0.849644 1.44752 
1216 1 9.51653 17.3108 7.98578 -7.48437 -0.732371 -0.526439 0.745757 
492 1 4.21507 15.3452 2.1029 -7.89681 -0.22259 -0.560197 -1.94509 
1212 1 4.20759 15.3383 7.35843 -7.49483 -0.565113 -0.869119 -1.1951 
384 1 11.2177 11.6281 2.13284 -8.15902 -1.19522 0.0860587 1.61051 
612 1 3.90193 19.0707 1.83515 -8.53152 0.168101 -2.08538 1.01637 
1332 1 4.39568 19.2705 7.25942 -8.17752 -1.01482 -0.437182 -1.38864 
1812 1 4.21228 11.7203 12.5343 -7.38593 0.216065 -0.350621 0.106316 
378 1 7.90841 11.7726 1.99115 -8.14377 -0.0802522 1.48584 0.117697 
1098 1 8.00186 12.042 7.23426 -7.68515 0.179069 -1.80033 0.920952 
1340 2 11.3584 21.0203 6.52439 -28.4157 -0.531152 -1.24604 -0.45121 
498 1 7.62809 15.3096 1.99611 -8.40731 0.958455 1.00003 -1.63843 
1218 1 7.96084 15.3473 7.28637 -8.12727 -0.878787 -0.100493 -0.738244 
1806 1 0.507924 11.9192 12.5102 -7.8272 -2.82561 -1.83319 -0.0243424 
618 1 7.88587 18.8614 2.17114 -8.87662 0.425509 -0.97802 -0.113378 
1338 1 7.84728 19.2227 7.41352 -8.34647 -0.77467 -0.109544 0.517291 
1343 1 11.2272 19.004 9.94184 -7.93514 0.761731 1.70787 0.71856 
2064 1 11.2521 19.1905 12.5579 -7.96997 -0.0285765 -1.82785 0.607977 
380 2 11.5194 13.3711 1.43578 -28.8817 0.700082 1.34162 -2.99314 
1103 1 11.4786 11.8825 10.2986 -8.49673 -0.777417 0.555557 -0.642598 
369 1 5.88012 13.5327 -0.18896 -8.16212 1.56984 1.3901 1.18333 
1820 2 11.3425 13.7627 11.5254 -29.5087 0.84042 -0.571306 -0.365914 
1224 1 11.5129 15.6793 7.41435 -7.95425 1.10263 -0.178744 -0.457732 
1336 1 9.82042 21.0095 8.05014 -8.79883 -1.35621 0.267651 0.960364 
2052 1 3.89445 19.3177 12.6015 -7.73111 -0.340766 -0.748077 0.488185 
496 1 9.94157 17.0627 2.8395 -7.95912 -2.10059 -2.49396 0.0915645 
365 1 0.635753 12.1143 4.76853 -8.22307 -2.22277 -1.31878 -0.678603 
1085 1 0.603533 11.5022 9.93952 -8.70567 0.863809 0.147729 0.457606 
485 1 0.0871015 15.5095 4.64843 -7.90982 2.73365 -0.475304 1.19271 
1205 1 0.346499 15.8572 9.96514 -7.66659 -0.205445 -1.85141 -0.825946 
605 1 0.758752 19.114 4.5388 -8.30414 0.359098 0.631388 -1.18604 
1325 1 0.783467 19.1597 9.82928 -7.82365 -2.19683 -1.28769 0.106215 
371 1 3.98504 11.7379 4.68393 -7.48105 1.29649 1.53941 0.376769 
1091 1 4.19426 11.7659 9.96122 -7.88984 -1.10912 -0.180947 -1.66326 
491 1 4.10133 15.5605 4.65325 -7.40893 1.23505 -0.0624639 0.238186 
1211 1 4.00462 15.3377 10.0378 -6.72295 1.3889 0.652987 -0.167793 
611 1 4.05938 18.8883 4.50264 -8.74064 -0.350635 0.289947 0.499221 
1331 1 4.23149 19.1491 10.0133 -8.0147 -2.04201 -1.25353 0.0397332 
377 1 7.78295 11.622 4.54763 -7.81641 -1.4569 -1.17186 0.259489 
1097 1 7.70842 11.8325 10.0464 -8.12587 -0.00164028 1.15214 -0.994589 
497 1 7.34358 15.356 4.43965 -7.47701 5.11785 0.766415 2.91054 
1217 1 7.60592 15.3657 9.83835 -7.16261 0.900535 -0.0947168 -1.38059 
617 1 8.14402 19.2544 4.85125 -8.08721 -2.78792 -1.24667 0.28353 
1337 1 7.75346 19.0251 9.99609 -7.54902 -0.0443198 0.0462919 0.204334 
1330 1 5.95071 21.101 8.04616 -7.54104 1.21181 -0.966947 -1.18712 
616 1 9.44727 21.0432 2.65739 -7.63075 -1.7741 -0.684834 -0.206245 
610 1 6.07357 20.5735 2.58991 -8.18439 -0.204707 1.16813 -0.740939 
1220 2 11.3627 17.3252 6.30958 -29.1377 -0.480778 -0.848521 -0.306976 
624 1 10.976 19.2245 2.25739 -7.38635 2.78153 -0.350084 -1.4791 
1818 1 7.58139 11.9926 12.6842 -7.97328 0.697055 -0.0370328 -0.0852548 
362 2 0.404061 13.4937 0.969548 -28.7671 2.35159 0.540857 0.839382 
1082 2 0.443218 13.5116 6.43239 -28.9789 -0.425997 1.99214 -0.528027 
1802 2 0.435465 13.7424 11.5469 -28.5694 1.54012 0.297835 -0.344073 
482 2 0.584859 17.1015 0.916108 -28.4902 -1.95243 0.4701 1.19699 
1202 2 0.299108 17.3476 6.05091 -28.69 2.31565 -1.57815 2.08574 
1922 2 0.449478 17.4374 11.4967 -29.6417 0.956195 -1.71551 -0.506766 
602 2 0.426386 20.78 0.778373 -28.8026 -0.777334 -1.30755 -0.935055 
1322 2 0.693724 20.804 6.06316 -29.1379 -1.98665 -0.0624804 0.323115 
2042 2 0.564356 20.8259 11.3866 -29.3285 -1.37905 0.440645 -0.54993 
368 2 4.05401 13.5129 0.908088 -29.2394 -0.0291862 0.603717 1.07036 
1088 2 3.94603 13.6195 6.21861 -29.0171 2.03173 0.204516 -0.186769 
1808 2 4.08351 13.6226 11.7804 -29.6579 -1.59848 0.542501 -0.656771 
488 2 4.12067 17.1456 1.28989 -28.4225 0.274441 -0.603247 -2.50402 
1208 2 4.05391 17.476 6.14288 -29.2204 1.55402 -2.2035 1.33175 
1928 2 4.10908 17.2323 11.4444 -29.4331 0.470803 0.00676867 0.432971 
608 2 3.99506 20.6729 0.895371 -28.9995 1.76567 2.98064 -1.67928 
1328 2 4.23609 21.1333 6.19686 -28.6717 1.32339 -1.01788 1.8051 
2048 2 4.03945 20.8691 11.2846 -28.942 1.07918 -0.406744 0.419986 
374 2 7.908 13.6206 1.03788 -28.3408 -0.248634 -1.17663 -0.706553 
1094 2 7.70946 13.7047 6.13878 -28.8538 -0.390006 -1.24942 0.892287 
1814 2 7.75142 13.5772 11.5268 -29.195 0.189573 0.245617 -1.26395 
494 2 7.80996 17.0604 0.923508 -27.908 -2.08615 0.654097 0.511459 
1214 2 7.73577 17.3271 6.46087 -28.7529 0.107246 -0.0707885 1.20471 
1934 2 7.75969 17.085 11.3036 -29.5353 -1.85143 0.540005 1.44725 
614 2 7.86848 20.7325 1.19631 -28.0116 -0.746581 0.312977 -0.791496 
1334 2 7.83176 20.9925 6.50753 -28.7062 -1.1187 -0.555873 -2.07549 
2054 2 7.55779 21.0244 11.8045 -27.8444 0.408993 -1.03712 -1.00496 
489 1 5.91637 17.2258 0.00557181 -8.134 0.275819 0.102513 1.2123 
2046 1 -0.0574614 19.1559 12.3 -7.36653 -1.03546 -1.07386 -0.734444 
500 2 11.3695 17.2019 1.16818 -29.4346 2.18433 0.656969 1.22602 
503 1 11.3905 15.4133 4.65361 -8.3018 0.593602 -0.788328 0.680864 
623 1 11.0026 18.7038 4.83956 -7.41045 2.23721 0.938364 -0.625862 
1223 1 11.2938 15.6118 10.0947 -6.92241 0.648802 -1.72859 -1.00627 
620 2 11.485 20.9746 1.08884 -28.7035 -2.33127 -1.51546 0.76394 
1824 1 11.4405 11.6168 12.8608 -7.88419 -1.10605 0.525468 -0.458987 
1944 1 11.293 15.3599 12.6957 -7.66741 -0.774909 1.37973 1.57518 
361 2 2.28128 11.6857 3.78318 -29.2589 0.960413 2.0883 -2.70669 
1081 2 2.34209 11.6026 8.81142 -28.0784 0.814828 1.60882 0.620628 
481 2 2.09148 15.4452 3.77217 -29.5528 0.612509 -1.78589 -0.545323 
1201 2 2.32723 15.4152 8.75742 -29.9624 0.301633 1.05349 1.96064 
601 2 2.42999 19.1774 3.43658 -27.9556 -1.18691 -0.377364 -0.618149 
1321 2 2.30951 19.1039 8.62829 -29.3388 1.18572 0.25474 1.79126 
367 2 5.85884 11.7525 3.74052 -29.0641 -0.544621 1.33832 0.10172 
1087 2 5.91224 11.882 8.89712 -28.7849 0.431892 -0.0708212 0.613595 
487 2 5.83625 15.3896 3.52109 -29.2198 -2.65136 -1.27847 -0.310561 
1207 2 5.85139 15.3666 8.72904 -29.6434 -0.672594 1.25567 2.13641 
607 2 6.1891 19.0738 3.85884 -28.377 -0.865358 -0.830894 -0.302535 
1327 2 5.76126 19.099 8.92282 -29.1461 2.70599 -0.00443782 -0.799689 
373 2 9.5766 11.6943 3.63883 -28.53 0.806983 1.68495 1.75342 
1093 2 9.74341 11.7887 9.1098 -28.2129 -1.1829 2.45788 -0.306706 
493 2 9.43136 15.257 3.92832 -28.3813 0.677285 1.69556 -1.6034 
1213 2 9.60448 15.3216 8.77293 -29.636 -0.0358816 2.37227 1.82205 
613 2 9.43269 18.7692 3.65136 -28.5322 2.97156 1.96658 -0.941901 
1333 2 9.66867 19.1209 8.84129 -28.7718 -2.30301 -1.33466 1.10718 
603 1 2.24204 20.731 -0.119549 -7.7336 0.0383467 1.30107 1.50832 
1083 1 2.32566 13.7609 5.12899 -7.92442 -0.60081 0.903971 0.992437 
1803 1 2.19519 13.7752 10.4028 -7.32117 -1.63874 -1.47141 0.282885 
383 1 11.6739 11.9025 4.92871 -7.77563 -1.70076 2.35163 -1.3589 
1203 1 2.28214 16.9645 5.42857 -7.90906 -1.53543 0.775175 -0.469213 
1923 1 2.3875 17.1805 10.4899 -6.8781 -0.558089 1.3517 2.58671 
2060 2 11.273 20.8981 11.7445 -29.2187 0.828839 0.946278 0.134035 
1323 1 2.53854 21.2435 5.32674 -8.60485 -1.02815 -1.2224 -1.25212 
2043 1 2.28481 20.9807 10.3439 -7.39695 0.200979 1.43447 3.84643 
1926 1 0.379428 15.5366 12.4977 -8.00459 -0.487109 -1.75015 1.14305 
1089 1 5.95946 13.5989 5.27931 -7.71951 -2.26602 -1.71335 0.154711 
1809 1 5.72005 13.7456 10.7923 -7.48932 2.19844 -1.35431 -0.309422 
495 1 9.59311 16.9231 0.295959 -8.26016 -0.0817014 0.948676 -1.24926 