Output produced by LAMMPSStructureWriter


12 atoms
2 atom types
0.00000000 5.14500000 xlo xhi
0.00000000 5.14500000 ylo yhi
0.00000000 5.14500000 zlo zhi
0.00000000 0.00000000 0.00000000 xy xz yz



Masses

1 15.99939999999999962199 #O
2 91.22400000000000375167 #Zr

Atoms

1 0 2 0.0 0.00000000000000000000 0.00000000000000000000 0.00000000000000000000
2 0 2 0.0 0.00000000000000031504 2.57249999999999978684 2.57249999999999978684
3 0 2 0.0 2.57249999999999978684 0.00000000000000015752 2.57249999999999978684
4 0 2 0.0 2.57249999999999978684 2.57249999999999978684 0.00000000000000000000
5 0 1 0.0 1.28625000000000011546 1.28625000000000011546 3.85874999999999968026
6 0 1 0.0 1.28625000000000011546 3.85874999999999968026 1.28624999999999989342
7 0 1 0.0 3.85874999999999968026 1.28624999999999989342 1.28624999999999989342
8 0 1 0.0 3.85875000000000056843 3.85875000000000012434 3.85874999999999968026
9 0 1 0.0 3.85875000000000012434 3.85874999999999968026 1.28624999999999989342
10 0 1 0.0 3.85875000000000012434 1.28625000000000011546 3.85874999999999968026
11 0 1 0.0 1.28625000000000033751 3.85875000000000012434 3.85874999999999968026
12 0 1 0.0 1.28624999999999989342 1.28624999999999989342 1.28624999999999989342

