ITEM: TIMESTEP
0
ITEM: NUMBER OF ATOMS
18000
ITEM: BOX BOUNDS pp pp pp
1.9700700417146777e-04 2.7340802992995684e+01
1.4496177171540836e-02 2.7326503822828585e+01
7.5042425442120475e-02 3.2801695757455747e+02
ITEM: ATOMS id type x y z c_peratom fx fy fz 
362 3 5.89334 5.43539 5.89876 -28.2872 -3.33679 0.636792 -1.66008 
1801 2 5.55899 2.87845 2.6281 -24.9543 -1.52407 1.46614 0.563027 
3061 3 2.77308 5.62112 2.76025 -29.3334 -0.660082 -1.21631 0.452701 
4502 2 2.58439 2.99775 5.54137 -25.5907 1.19055 0.267937 -0.75756 
6001 1 1.28203 1.70595 1.45595 -7.69048 -0.688052 0.73329 1.88538 
7501 1 3.83737 4.22681 4.1847 -6.27177 0.566211 -0.868486 -0.880217 
9001 1 4.13232 4.33912 1.44839 -7.40073 0.724793 0.283257 -0.113751 
10501 1 1.34942 1.55721 4.19028 -7.98128 -0.804196 0.493393 0.181867 
12001 1 3.98661 1.61163 3.88492 -8.08729 2.13211 -1.07686 -0.275161 
13501 1 1.56461 4.45236 1.30233 -7.76285 -1.09067 -0.731296 0.924826 
15001 1 1.18094 4.20062 4.29799 -7.67885 -1.9395 -0.793255 -0.562225 
16501 1 4.03432 1.82022 1.05747 -7.66472 0.645637 -2.22133 1.81782 
12061 1 3.99181 6.72884 4.14384 -7.45043 0.651935 1.79726 -0.388555 
302 2 5.25583 0.309769 5.38433 -24.7381 -0.382116 -2.30631 -0.585589 
16502 1 3.75983 1.55305 6.67525 -7.76467 0.808484 -1.02504 0.652075 
15301 1 6.65507 4.13647 4.36346 -8.07755 -0.122794 -0.855235 -0.792087 
13801 1 6.82039 4.312 1.19374 -7.42648 0.0595331 -0.264204 1.98382 
10561 1 1.36478 6.78566 3.99107 -7.07625 0.397121 0.407977 0.0560467 
6302 1 6.52704 1.44473 6.68398 -8.47461 1.15307 -0.0147387 0.877612 
1501 3 0.0128158 2.68892 2.91138 -27.1172 -0.247494 0.794137 -1.29805 
10861 1 6.7245 6.75496 4.28781 -7.71738 -0.173344 0.868617 1.07862 
3001 2 2.6516 0.255635 2.72784 -24.5644 -1.0564 0.298988 0.261087 
4501 3 2.69082 3.08744 0.159135 -28.8959 -0.328416 -0.698438 -1.47315 
10801 1 7.05997 1.39575 3.8904 -7.78536 -1.62281 1.46403 0.987169 
6301 1 6.86456 1.73663 1.30475 -7.65458 -1.14839 -2.11889 -0.595403 
662 2 10.9394 5.49101 5.44311 -24.3299 -1.52295 0.817273 2.27776 
2101 2 11.0467 2.74344 2.69677 -24.56 -2.27942 -0.165095 0.721068 
3361 2 8.05384 5.54071 2.85571 -25.0511 -1.35629 -1.91247 0.575988 
4802 2 8.0705 2.68373 5.51084 -24.7683 0.975159 0.469619 -0.344132 
6601 1 12.1408 1.24333 1.25302 -8.33321 -0.0780808 1.37652 0.652621 
7801 1 9.26331 4.01935 4.1701 -7.43439 1.80619 1.40462 0.18892 
9301 1 9.52644 4.06992 1.54477 -7.87996 0.572249 0.180219 -0.932616 
11101 1 12.39 1.55713 3.99737 -7.47326 0.373851 -0.319344 0.159716 
12301 1 9.74794 1.43777 4.08253 -7.46221 -0.06411 -0.930669 0.682608 
14101 1 12.2504 4.16584 1.40593 -8.55946 0.524958 -1.14564 1.23086 
15601 1 12.3068 4.2663 4.31958 -8.35721 -1.00558 -0.310867 -0.863638 
16801 1 9.35935 1.24908 1.24066 -7.56877 0.548121 1.63424 1.48489 
3661 3 13.6057 5.35618 2.72556 -28.5373 1.1195 0.713644 1.17399 
3301 3 8.20923 0.11538 2.63396 -28.9862 -0.148313 -0.638894 0.137832 
16861 1 9.33101 6.75509 1.60945 -8.30097 2.11506 -0.651058 -1.79831 
6602 1 12.134 1.29725 6.73893 -8.63678 0.184074 -0.898239 0.158409 
5102 2 13.6675 2.60932 5.60373 -25.1413 0.99612 1.18367 -2.35484 
6661 1 12.1746 6.71897 1.79871 -7.57679 -0.835856 -1.94075 -1.52186 
12361 1 9.38544 6.78958 4.30065 -8.2888 1.25504 -1.23091 -0.0405583 
661 3 10.7227 5.4818 0.331309 -28.0876 1.59515 -0.541931 -1.75448 
602 3 10.8546 0.203467 5.72248 -27.6468 -1.05808 -2.20835 -2.59305 
6662 1 12.3302 6.59612 6.86632 -7.10869 -0.0810558 -0.312676 -1.39096 
5401 3 18.8906 2.77757 0.129213 -29.0624 1.79332 -0.455284 0.609002 
962 2 16.2006 5.29578 5.49436 -25.1492 0.337917 2.9028 0.500064 
2401 2 16.4574 2.79721 2.73943 -25.0282 -1.42279 -0.0913645 -1.29464 
3961 3 18.71 5.43959 3.04938 -28.0866 2.35536 0.200324 -1.60694 
5402 2 19.2273 2.97579 5.53653 -24.9147 -1.08185 -3.97457 0.613197 
6901 1 17.8595 1.44281 1.5616 -7.64337 -3.51989 1.9402 0.103874 
8101 1 14.9036 3.99953 4.05604 -6.82509 -1.46226 1.74763 0.984338 
9601 1 15.1221 4.23819 1.4886 -7.68279 -1.47578 -0.869944 0.795979 
11401 1 17.7813 1.26642 4.25879 -7.93188 1.74734 0.252406 -0.721847 
12601 1 15.1401 1.57345 3.82449 -6.2395 -0.897623 -3.10417 2.25211 
14401 1 17.7992 4.19589 1.33163 -7.34703 -0.190329 -2.97723 2.93928 
15901 1 17.3621 3.94585 4.36284 -8.07154 4.2149 -0.187497 -2.60119 
17101 1 14.8872 1.3162 1.25847 -7.9172 0.647214 -0.404465 -1.68657 
8401 1 20.2973 4.22014 4.15846 -7.87571 -0.777844 1.57033 -1.34713 
17161 1 14.844 6.775 1.31777 -8.31518 0.641684 0.371726 0.231469 
3901 3 18.7721 0.0997195 2.65757 -28.284 3.60444 -0.533456 0.20221 
14402 1 18.1121 4.32336 6.79654 -7.04205 -1.97978 0.451557 0.249888 
6961 1 17.589 6.48066 1.77755 -7.33137 -2.20964 3.52499 0.280308 
17102 1 14.9724 1.26479 6.82692 -8.13153 0.154048 0.61732 -0.147068 
17401 1 20.2472 1.55531 1.37667 -6.46162 0.69928 -0.265734 -0.532709 
11461 1 17.7786 6.64434 4.43616 -7.56804 0.246923 -0.141362 -0.0800556 
12661 1 15.0061 6.69152 4.03998 -7.63005 0.399837 0.55316 -0.647184 
961 3 16.301 5.49822 0.189617 -29.3572 1.77189 -1.07618 -0.196502 
9901 1 20.5206 4.2854 1.47094 -7.60698 -1.52569 -1.17424 0.828967 
9902 1 20.6988 4.1816 6.74785 -7.87076 -0.525036 -0.883147 2.45617 
12901 1 20.7147 1.55683 3.91624 -7.06833 -2.34119 -1.71767 3.85155 
62 2 27.3034 5.58441 5.82426 -25.1292 0.546558 -0.529317 -2.33314 
1262 2 21.9533 5.49188 5.48738 -25.2391 -0.126924 1.06456 -1.24174 
2701 2 21.7867 2.80029 2.65961 -25.9889 1.12975 -0.579617 -1.75773 
4261 2 24.6962 5.40561 2.7054 -24.5936 -2.64064 1.60357 -1.90578 
5702 2 24.6526 2.81028 5.50283 -25.3162 -1.9121 -0.106841 -0.26409 
7201 1 22.9315 1.26799 1.23655 -6.17613 -0.311231 0.121985 0.893895 
8701 1 25.6675 4.43895 4.22902 -8.10815 2.90647 -2.72774 1.8489 
10201 1 26.0099 4.18046 1.2757 -7.39373 0.985281 -0.924985 3.78609 
11701 1 23.4134 1.00374 3.94055 -6.59273 -3.38763 3.38468 3.4012 
13201 1 25.9752 1.41664 3.95853 -8.04069 1.7326 0.997101 1.35661 
14701 1 23.3033 3.94379 1.28842 -7.57727 -1.24835 2.41311 1.9743 
16201 1 23.061 3.96177 4.12463 -7.57188 0.304584 0.372911 -0.909338 
17701 1 25.5843 1.34457 1.31027 -7.13739 1.91137 0.0156366 0.229 
17761 1 25.7541 6.84063 1.28169 -7.98044 1.32389 0.401596 1.00319 
2 2 27.3338 0.140408 5.53808 -24.8749 -1.33905 -2.40887 -1.91005 
17702 1 25.6999 1.33629 6.79902 -7.78126 1.42335 -0.273525 -0.0812724 
14702 1 23.258 4.304 6.74895 -7.14944 1.91156 0.213949 1.07904 
7202 1 23.1129 1.77493 6.83427 -6.94377 -0.640925 -2.51418 -0.685876 
1261 2 21.6272 5.54539 0.245902 -25.1524 2.07708 1.81303 -0.79689 
6062 1 1.43593 6.87826 6.80865 -7.91769 0.828819 0.759862 0.765571 
16561 1 3.89369 6.95009 1.3456 -8.14749 -0.0138166 -0.00383485 -0.986768 
6061 1 1.37077 7.05006 1.30687 -7.35572 -1.33851 0.700902 0.247612 
6361 1 6.67602 6.86787 1.50939 -7.79544 -0.318582 -0.294991 -1.05903 
422 2 5.57409 10.8772 5.51194 -26.0342 -1.38541 1.4157 2.02467 
1861 2 5.12943 8.03468 2.66455 -24.7341 2.39984 1.95412 2.20115 
3121 2 2.56661 11.0004 2.75707 -25.0643 0.565791 -1.22695 -0.174995 
4562 2 2.76629 8.1563 5.34772 -25.3217 -0.427797 0.0297173 1.55124 
6121 1 1.27034 12.1501 1.23059 -7.67103 1.12849 4.20292 1.18717 
7561 1 4.00866 9.50103 4.00624 -7.63363 -0.446368 0.0941746 -1.67714 
9061 1 3.89443 9.74754 1.22722 -8.06803 -1.03469 -0.322081 -0.0613346 
10621 1 1.55787 12.4189 4.11476 -7.43355 -0.859161 -0.430809 -1.62333 
12121 1 4.15268 12.2818 4.58038 -6.83916 -0.0843275 -0.778834 -3.92385 
13561 1 0.967583 9.77583 1.53852 -6.97715 0.702722 -2.05995 0.262748 
15061 1 1.22424 9.43176 4.10232 -7.94352 0.500372 0.997403 1.06391 
16621 1 3.92377 12.5026 1.49373 -8.4934 1.18157 -0.416904 0.247059 
122 2 0.0137811 10.7199 5.58341 -25.3528 0.113618 3.16651 -1.72921 
13562 1 1.38461 9.58148 6.87727 -7.6456 0.740753 -1.19182 -0.581333 
10921 1 6.65991 12.3105 4.09947 -7.63781 -1.13399 2.73567 -0.0769057 
9062 1 4.15898 9.66815 6.56171 -6.97943 -1.88368 -2.33557 1.55378 
6122 1 1.52814 12.1738 6.86632 -7.3479 -0.587998 0.94235 -0.384401 
6421 1 6.81188 12.2102 1.37044 -8.17423 0.163563 0.706801 0.932492 
15361 1 6.80951 9.65197 4.35783 -7.36927 1.4661 -2.01494 -1.2957 
13861 1 6.5218 9.43788 1.67174 -7.17816 1.06203 1.89095 -0.959676 
421 2 5.49627 11.076 0.16988 -24.7136 -1.98481 -2.54952 -2.56417 
11161 1 12.4195 7.10749 4.18918 -7.28631 -0.95928 -2.86552 1.38015 
721 2 10.6413 10.7124 0.290088 -25.7779 1.65748 -0.184888 -0.547195 
6422 1 7.14215 12.0621 6.75334 -7.6306 -1.16698 1.72079 -0.0191897 
722 2 10.7394 10.8653 5.59252 -25.4635 0.588331 -0.415013 0.622755 
2161 2 10.7935 7.96938 3.01427 -25.1911 0.312141 2.78399 -1.45875 
3421 2 7.97493 11.1132 3.01301 -24.7429 1.52205 -3.90748 -1.05044 
4862 2 8.13469 8.20107 5.5989 -25.4291 0.037122 -0.451064 0.399739 
6721 1 12.164 11.782 1.38305 -6.88644 0.607113 1.71721 3.40211 
7861 1 9.5876 9.46198 4.2441 -7.21299 -1.12336 0.521436 -0.406442 
9361 1 9.47561 9.30533 1.58354 -7.58313 -0.0640523 1.30956 0.030365 
11221 1 11.9373 12.3501 4.24569 -8.08773 0.452202 -0.134805 -0.122148 
12421 1 9.18213 12.1928 4.63492 -8.1579 1.22221 1.78538 -0.906095 
14161 1 12.2955 9.17638 1.38767 -7.11101 -1.30068 0.729566 0.476265 
15661 1 12.1841 9.58463 4.22254 -7.66038 0.619849 0.682102 0.757621 
16921 1 9.43988 12.249 1.80575 -7.92805 0.314591 0.997287 0.78353 
3721 2 13.3668 10.8134 2.91069 -24.9037 1.49671 -0.875173 -1.75344 
2221 2 10.6347 13.6573 3.12369 -24.0267 -0.279007 1.19325 -1.78854 
5221 2 13.5086 13.3972 0.23165 -26.0055 -0.880676 0.714562 -2.74172 
5161 3 13.5581 7.9676 0.340992 -28.3582 -0.942251 1.01887 -1.06199 
4861 2 8.13171 8.17558 0.18063 -24.9095 -1.34428 -0.754732 1.26772 
9362 1 9.47242 9.53562 6.841 -7.96355 -0.024883 0.394676 2.22324 
6722 1 12.1869 11.9158 6.89929 -7.77025 1.81488 2.53089 0.247208 
5521 3 18.8811 13.5873 0.179484 -28.706 0.637368 -0.146511 0.0979922 
17461 1 20.1522 7.03921 1.61878 -6.3798 0.572903 -2.08025 1.21002 
5162 2 13.7831 8.27817 5.46288 -25.4239 -1.00969 0.0401254 1.19107 
1022 2 16.2873 11.1292 5.61843 -25.3836 0.259991 -0.460098 -0.788981 
2461 2 16.1751 8.23377 2.66583 -24.6856 1.94962 -2.37657 2.55237 
4021 2 19.2661 10.7732 2.7786 -24.7276 -1.69149 0.276827 -1.23048 
5462 2 19.2351 8.23775 5.40334 -24.8411 -2.09271 1.06804 3.0757 
7021 1 17.8451 12.0421 1.64489 -7.34668 -1.21446 0.39656 -2.23779 
8161 1 15.193 9.58553 4.15439 -7.81221 -1.24286 -0.393683 0.778373 
9661 1 14.9123 9.45064 1.51432 -7.40439 -1.22989 0.923709 -0.788619 
11521 1 17.7033 12.2318 4.21624 -7.52503 0.0653697 0.995449 0.61618 
12721 1 14.6512 12.1523 4.07307 -7.97714 0.686911 0.956414 1.10676 
14461 1 17.579 9.39739 1.46918 -7.9204 1.46459 -0.563078 -0.893351 
15961 1 17.9605 9.38965 4.17461 -7.36175 -0.521269 1.07438 -1.05287 
17221 1 14.973 12.2057 1.32592 -7.77613 0.762231 -1.01741 1.43916 
17522 1 20.3331 12.4673 6.8478 -7.1318 0.152197 1.09859 0.013876 
17521 1 20.4062 12.2765 1.43602 -8.15046 1.21889 -0.230651 0.397132 
2521 2 16.0246 13.4359 2.86506 -24.795 2.2711 0.268912 -0.0128177 
5461 3 18.9961 8.09444 0.230082 -29.0604 0.803937 0.473013 0.72135 
17162 1 15.1473 7.00126 6.73054 -7.85746 -1.00846 -1.11003 0.338092 
17462 1 20.4436 6.87566 6.80286 -7.82844 1.94289 1.28584 0.564418 
17222 1 15.0599 12.7806 6.69925 -7.90858 -1.1097 -0.701985 0.749432 
9962 1 20.4489 9.85055 6.84129 -7.22435 -1.25267 -1.57914 -0.741742 
12961 1 20.6116 7.08116 4.38922 -7.65177 2.29194 -1.74535 -3.12022 
7261 1 23.1412 6.8723 1.71303 -7.7613 -0.45061 -1.65825 -1.91431 
13261 1 26.1476 7.07674 4.36391 -7.49149 -0.61051 -0.325095 -0.50873 
7262 1 23.3347 6.97183 6.85651 -7.53799 -1.24398 0.488936 0.278891 
1561 2 27.2424 8.16887 2.76709 -25.1995 0.122462 0.251492 -0.999685 
8461 1 20.6986 9.88061 4.17548 -7.83024 -2.41834 -0.135886 -1.26657 
13021 1 20.7948 13.0645 4.25463 -7.62867 -1.11108 -2.61484 -0.62407 
9961 1 20.5383 9.44081 1.24837 -6.95225 -1.812 2.63653 0.15329 
11761 1 23.4604 6.89352 4.21045 -8.08069 0.290169 -1.18784 0.863068 
1322 2 21.8282 11.2075 5.5264 -25.9488 -0.103652 0.0888315 1.0491 
2761 2 22.1663 8.23805 3.0919 -24.7344 -4.8955 -0.380525 -3.13859 
4321 2 24.5537 10.9006 2.70628 -25.3637 0.742987 0.257175 2.17485 
5762 3 24.6119 8.28616 5.38343 -28.1947 -0.374787 -0.37917 2.24785 
7321 1 23.2491 12.1378 1.62773 -7.79944 -1.926 2.17013 -2.20101 
8761 1 25.6912 9.60738 4.18081 -7.86841 0.950054 -0.780723 0.051161 
10261 1 25.634 9.55184 1.28598 -7.46301 0.706645 0.0179215 0.799686 
11821 1 23.3628 12.1964 4.323 -6.71696 1.51368 1.41673 -1.62379 
13321 1 26.3252 12.1142 4.10164 -6.36236 -1.00737 -0.518262 -1.9118 
14761 1 23.0431 9.52568 1.51083 -7.43185 1.07026 0.222346 -0.0144839 
16261 1 23.0798 9.63888 4.29829 -7.21495 3.42689 0.0753976 0.992338 
17821 1 25.9222 12.4509 1.22494 -8.0108 -0.310724 -0.0179894 1.73663 
7322 1 23.1304 12.5054 6.78871 -7.64789 0.30308 0.647274 1.41149 
17822 1 25.953 12.3039 6.75449 -7.20801 1.44953 0.943763 -0.470399 
1921 3 5.37459 13.682 2.7474 -28.454 -0.0400058 -0.91842 1.52295 
4681 2 2.49544 19.1849 0.268148 -25.1288 1.27884 0.248778 -1.16262 
4622 2 2.76569 13.6791 5.35857 -25.3797 -1.18455 1.52229 2.23714 
482 3 5.31183 16.3042 5.64788 -28.2271 2.69945 1.56214 -1.60083 
1981 2 5.59648 19.162 2.98649 -25.1503 -1.85074 -0.274985 -1.46216 
3181 2 2.93513 16.5298 2.73823 -24.4736 -2.20433 0.994683 2.01457 
4682 3 2.91666 19.1908 5.35991 -29.5377 -2.27655 0.186651 0.420466 
6181 1 1.04818 17.938 1.40308 -7.63953 2.36882 0.23944 0.36797 
7621 1 4.21889 14.8258 3.92009 -7.62326 -2.17475 1.6396 0.614747 
9121 1 3.98985 15.2553 1.37975 -7.75796 -0.231641 -0.945083 -0.374193 
10681 1 1.5686 18.1617 4.06131 -6.84881 0.124318 -0.660161 -1.70894 
12181 1 4.47887 17.7197 4.27983 -7.82321 -3.07086 -1.25044 -0.102513 
13621 1 1.36502 15.2558 1.02073 -7.90324 0.329362 -2.26464 2.86307 
15121 1 1.36029 15.26 4.00983 -7.68352 0.325068 -0.0493689 -1.15324 
16681 1 4.18229 18.0701 1.57797 -7.78501 -1.29681 -1.34399 0.249112 
7681 1 3.73974 20.383 3.87583 -7.23739 2.11716 0.937153 1.90689 
13921 1 6.48094 14.7676 1.59973 -7.89874 2.30676 2.07165 -1.48611 
15421 1 6.67546 15.0592 4.2605 -7.08225 -0.27931 -0.0327578 0.916626 
6482 1 6.58271 17.9527 6.62483 -7.52682 -0.455421 -1.30191 0.840196 
6182 1 1.58686 17.4315 6.49776 -6.52393 -1.99005 2.05042 -0.158526 
9122 1 3.90891 15.2763 6.52145 -8.18659 1.38278 -0.722536 0.196163 
16682 1 3.94262 18.3087 6.82654 -7.0904 1.32886 -1.62924 1.23906 
13682 1 1.42154 20.2783 6.86752 -7.55382 -0.761384 0.121726 0.656027 
13622 1 1.35094 15.0103 6.79363 -7.50031 -2.03802 -2.31049 1.18648 
481 2 5.32675 16.412 0.0774568 -25.1486 2.40784 0.876429 0.254393 
5281 2 13.4513 19.2555 0.199797 -25.7552 2.34061 -1.62508 -1.44113 
5222 2 13.4152 13.7717 5.6227 -24.8476 0.358595 -0.313873 -0.87377 
6481 1 6.84109 17.6662 1.364 -7.60925 -0.971593 -0.221922 -0.187678 
10981 1 6.87996 17.7211 4.03005 -6.89471 0.287957 0.814966 0.447775 
4922 3 8.05822 13.7622 5.64898 -28.5372 0.292951 0.220754 -0.37953 
782 2 10.8713 16.4466 5.87224 -25.3877 -0.317089 0.480628 -2.59909 
2281 2 10.9351 18.9023 2.95327 -25.2627 -1.06195 1.30486 2.00099 
3481 3 7.73703 16.4449 2.81335 -29.2316 2.74803 -0.936487 0.418955 
4982 2 8.1134 19.1952 5.67601 -25.714 0.182525 -1.42758 -1.16656 
6781 1 12.2482 17.4839 1.56746 -8.19439 -1.21569 0.794285 0.439828 
7921 1 9.15419 15.0918 3.95089 -7.51769 1.37076 -1.55777 0.814792 
9421 1 9.32389 15.3106 1.25639 -7.64795 -0.612687 -0.769726 1.20072 
11281 1 12.2933 17.7918 4.37839 -7.15828 -1.62612 -1.19634 -0.120969 
12481 1 9.38568 17.8671 4.38086 -6.52985 2.3876 -0.328999 0.624888 
14221 1 12.1898 14.6605 1.45529 -7.50578 -2.65985 0.892395 2.44001 
15721 1 12.0416 15.089 4.38736 -8.08531 -0.732243 -0.172169 -1.79561 
16981 1 9.33312 18.0783 1.81798 -6.99738 0.742403 -1.09036 -1.8898 
3781 2 13.5018 16.228 2.83145 -25.0049 0.499449 0.205975 1.35445 
15781 1 12.1764 20.3948 4.45838 -7.19454 -1.40636 2.10191 0.0321982 
14281 1 12.4588 20.1213 1.96196 -7.13182 -0.582905 0.782115 -0.839997 
4981 3 8.21543 19.2307 0.204371 -28.8051 -1.38244 -0.178984 1.00011 
781 2 10.9459 16.428 0.199769 -24.76 -1.35779 -1.793 -0.951425 
4921 2 8.14115 13.7387 0.0847015 -24.7226 -0.520909 -0.206715 0.95214 
5522 3 19.2291 14.0623 5.35149 -28.2665 -0.0115348 -1.83007 2.2538 
5581 2 19.1578 18.7179 0.244271 -25.3626 -2.75346 4.41489 1.54079 
5282 2 13.7332 19.2615 5.46429 -25.3189 -0.86812 -0.17399 1.97137 
1082 2 16.5247 16.4619 5.72785 -24.0982 -2.82796 -0.0892472 1.40567 
2581 2 16.0882 19.1263 2.76125 -24.727 1.90103 0.341636 0.60341 
4081 3 18.9794 16.6935 3.20982 -27.6801 0.288411 -0.63952 -1.66566 
5582 2 18.9535 19.2387 5.72055 -24.8186 -0.587205 -0.639542 -1.00798 
7081 1 17.7058 17.5004 1.56831 -8.40389 0.41591 0.60061 2.83303 
8221 1 14.8085 14.9171 4.10348 -7.71481 0.917887 -0.669746 -0.0906706 
9721 1 14.6897 14.8391 1.38283 -7.51158 2.00894 1.64359 1.36663 
11581 1 17.4355 17.9692 4.51959 -8.64009 1.85914 -0.129305 -1.49243 
12781 1 14.7792 17.7119 4.28193 -7.33927 2.21588 -0.0494751 -1.64578 
14521 1 17.3986 14.6885 1.69891 -7.43234 0.359404 0.849043 -0.693011 
16021 1 17.786 15.25 4.34943 -8.39577 -1.00163 -0.0463781 0.965068 
17281 1 14.9265 17.6783 1.37004 -8.00852 -0.486682 0.547873 1.90969 
9781 1 14.9774 20.4798 1.40403 -7.57262 0.00772104 1.56864 0.0791829 
10021 1 20.1812 14.9718 1.27833 -7.89314 -0.124449 -0.663147 0.193982 
8521 1 20.2746 15.457 4.19446 -7.49183 1.17766 0.11535 -0.841823 
17581 1 20.4125 17.5581 1.84621 -7.74819 0.0962513 0.199353 -0.826716 
13081 1 20.3482 17.9221 4.32933 -7.56083 -1.21364 0.585763 1.8827 
10022 1 20.2036 15.3025 6.84529 -7.26333 2.00021 0.334734 -0.315618 
14581 1 17.7112 20.3521 1.39276 -6.91272 -0.155433 0.136954 1.01157 
1081 2 16.289 16.3157 0.431578 -25.0651 0.0898359 -2.34627 -3.8822 
9722 1 14.7823 15.4346 6.72873 -8.00144 0.447273 -0.0179869 1.82296 
10082 1 20.235 20.4084 6.86763 -7.05435 0.952802 3.02627 1.96662 
1621 2 27.1942 13.6998 2.64365 -24.6204 2.08749 -1.64507 2.94988 
5822 3 24.4903 13.8661 5.64014 -29.2612 -0.929498 -2.02698 -1.36622 
182 2 27.2063 16.3715 5.44474 -25.3105 1.25676 -0.136911 0.324589 
1681 2 27.1413 19.2825 2.78626 -25.9499 -0.419323 -1.80222 2.53919 
2821 3 21.6812 13.7263 2.5653 -27.7371 -0.951705 -1.66525 2.17387 
1382 2 21.7694 16.5997 5.6015 -25.3004 -0.668806 -1.76771 0.470584 
2881 2 21.9169 19.1696 2.90747 -25.7944 -1.28001 -0.0581225 -1.43908 
4381 2 24.4338 16.2319 2.79563 -24.6508 -1.39858 2.95592 2.3245 
5882 3 24.1546 19.2744 5.57194 -28.1831 2.72681 -0.927406 -0.710886 
7381 1 23.1143 17.5532 1.4654 -8.02857 -0.0618105 0.914594 -0.581584 
8821 1 25.9846 14.6862 4.32979 -7.52288 -0.515215 2.42501 -0.569025 
10321 1 25.8012 15.0786 1.7236 -8.42017 0.767315 -1.27374 -2.9825 
11881 1 23.0618 17.8134 4.23447 -7.93259 1.21929 -0.145701 -0.795711 
13381 1 25.9296 17.7814 4.35847 -7.26297 -0.480955 -0.358628 -0.308227 
14821 1 22.8116 14.8655 1.68898 -8.02493 2.1473 0.851689 0.120908 
16321 1 23.2007 15.1002 4.28218 -7.64074 -0.0434397 0.0193954 0.10094 
17881 1 25.8908 17.6812 1.71779 -6.71145 -1.43225 -1.28793 -0.799364 
10081 1 20.5183 20.3054 1.45851 -6.76907 -0.395228 -0.663069 1.35939 
10381 1 25.634 20.1537 1.38014 -6.87813 1.33114 2.99319 0.464366 
8581 1 20.6412 20.4688 4.24326 -7.12982 -2.48744 1.55905 -0.0209598 
10382 1 25.9171 20.3512 6.77291 -7.86076 -1.22836 -0.259189 1.33735 
1381 3 21.623 16.2727 0.447317 -28.917 -0.0256264 0.282464 -1.76969 
181 2 27.1872 16.4416 0.209414 -25.0796 -1.56749 1.83553 -2.14755 
7382 1 23.1591 17.8346 6.79773 -7.65663 0.556674 1.01566 1.06713 
9181 1 3.66478 20.7018 1.41403 -7.1333 0.202418 1.95023 -2.2652 
13681 1 0.771578 20.8134 1.60825 -7.42432 2.685 0.176889 0.474407 
15181 1 1.27596 20.8606 4.23778 -7.36956 -0.842713 0.354999 -0.313675 
13981 1 6.57348 20.5797 1.68594 -7.66574 0.418373 0.397192 -1.68472 
9182 1 3.97412 20.8677 6.72587 -7.79803 1.18521 0.672966 0.21429 
15481 1 6.44004 20.6199 4.41401 -8.03897 2.07952 -1.50284 -0.680646 
542 2 5.30532 22.0475 5.381 -24.363 -1.14391 1.63053 4.27005 
2041 2 5.18202 24.9082 2.88739 -24.5917 2.43106 -1.36525 0.149141 
3241 2 2.52883 22.1378 2.89624 -24.7281 0.319113 -2.02352 -0.968797 
4742 3 2.59189 24.5596 5.59641 -28.4812 0.0715052 1.75869 1.10406 
6241 1 1.18338 23.5085 1.80282 -7.7657 0.362525 0.554576 1.41305 
7741 1 3.87025 26.0765 4.46386 -7.84756 0.112196 0.329922 -3.3566 
9241 1 4.19138 26.198 1.4176 -8.43909 -2.56099 2.00016 1.49494 
10741 1 0.907494 23.6856 4.68479 -7.34877 1.86219 -0.335332 -2.1625 
12241 1 3.8769 23.3947 4.34552 -8.87633 -1.1564 -0.799257 -1.40236 
13741 1 1.22263 26.3793 1.51916 -7.72156 1.07891 -1.72759 -1.95574 
15241 1 1.23525 26.2705 4.01615 -7.12367 0.443784 -0.809661 1.35259 
16741 1 3.75031 23.6812 1.56612 -7.75482 0.59703 -1.17966 1.46651 
14041 1 6.76878 26.0495 1.26524 -7.23216 -0.880012 1.35578 -0.433599 
6541 1 6.57101 23.3384 1.46408 -7.45213 0.0852291 -0.486056 -0.380542 
15541 1 6.74158 26.2319 3.99663 -7.65049 -0.984776 -0.761142 0.236563 
11041 1 6.6267 23.4406 4.36087 -7.97438 0.626101 0.78169 -1.83457 
14042 1 6.80615 25.8769 6.77967 -7.09721 0.0241129 3.2239 2.02115 
4741 3 2.59282 24.7716 0.316694 -28.3315 -1.09799 0.117669 -1.39744 
9242 1 4.32227 26.1168 6.89988 -6.7165 -1.567 2.1258 1.13423 
3601 2 13.3858 27.2093 2.46829 -24.7307 2.00794 1.20502 3.81501 
7981 1 9.20819 20.6468 4.32716 -7.65637 0.676165 0.271871 -0.0306653 
9481 1 9.27252 20.7095 1.55918 -7.00525 0.885734 0.388918 -0.236877 
842 2 10.6787 21.8553 5.57533 -25.189 1.75912 -1.17025 1.26516 
2341 2 10.7965 24.4715 2.88339 -24.598 -0.277217 1.56416 0.938309 
3541 2 8.05154 22.1156 2.94909 -24.9907 -0.98144 -1.13943 -0.899727 
5042 2 8.1221 24.949 5.48189 -24.8866 -0.269821 -2.28136 -0.880762 
6841 1 12.011 22.7935 1.50339 -8.20017 0.993673 2.46864 -0.162773 
8041 1 9.46649 25.9391 4.01208 -7.6689 -0.41539 0.967121 -0.0150212 
9541 1 9.26347 25.9628 1.24604 -7.11495 1.6146 0.934804 0.579779 
11341 1 12.1999 23.3451 4.27606 -7.77311 -1.10383 -0.29554 -0.893957 
12541 1 9.35156 23.3089 4.53485 -8.22532 0.481039 0.220965 -1.72049 
14341 1 12.0053 25.7536 1.49238 -8.60924 0.948383 -0.440424 -0.451193 
15841 1 12.0868 26.1926 4.31502 -7.3117 0.801875 -0.517833 0.207672 
17041 1 9.43133 23.3931 1.53177 -7.88484 -1.27082 -0.664579 0.436974 
5342 2 13.5987 24.7406 5.70439 -25.0941 -1.18507 -0.746235 -0.899367 
3841 2 13.5442 22.0487 2.77884 -24.6833 1.70939 -2.06958 2.07948 
9542 1 9.51612 25.9351 6.9006 -7.58557 0.706141 0.319363 -1.00182 
16081 1 17.7492 20.5925 4.31055 -7.01673 0.83261 -1.01626 0.243014 
8281 1 15.0454 20.6204 4.10649 -8.08352 -1.07706 0.19447 1.13032 
902 2 16.5688 27.1928 5.39537 -24.3582 -2.3927 1.83457 2.2097 
1142 2 16.1317 21.9587 5.80383 -25.1431 0.21304 -0.340869 -2.18984 
2641 2 16.3484 24.6479 2.93283 -24.448 -1.67728 -1.18091 -1.47356 
4141 2 19.1766 21.9362 3.08332 -25.1368 -0.738906 -1.80333 -0.582564 
5642 2 18.9767 24.5948 5.84918 -24.5122 -0.28282 -2.30722 -2.80935 
7141 1 17.5766 23.418 1.24993 -8.03266 1.00507 0.308012 1.84037 
8341 1 14.9304 26.1355 4.16439 -7.7997 0.585493 -0.377262 0.650105 
9841 1 14.9521 25.8322 1.50176 -8.14849 -0.814492 2.00728 -1.23323 
11641 1 17.4804 23.0808 4.17179 -7.62098 0.565074 2.01888 0.211826 
12841 1 14.7541 23.4355 4.33322 -7.77068 1.51835 -0.721375 -0.574284 
14641 1 17.6169 26.29 1.16055 -7.97184 0.177483 -2.01957 1.50321 
16141 1 17.8022 25.8606 4.03281 -8.86113 -0.36226 0.216462 0.584379 
17341 1 15.0105 23.4007 1.3943 -7.82671 -1.9807 -1.96925 0.699881 
17641 1 20.3934 23.0595 1.67337 -7.31286 0.00177164 1.38485 -0.289948 
13141 1 20.4126 23.3644 4.40352 -7.6671 -0.125461 -0.212689 -0.124678 
10141 1 20.3446 25.9709 1.49525 -7.63264 -0.729144 -0.266025 -0.184146 
8641 1 20.4699 26.0734 4.17784 -7.47769 0.215598 0.213206 0.650555 
1141 2 16.3475 21.9751 0.156674 -25.57 -0.987881 -2.70556 -1.89946 
4201 2 24.6201 27.1187 2.88561 -25.6748 1.37498 -0.90669 -2.05676 
1202 2 21.7716 27.2451 5.52366 -25.0945 0.722596 1.92281 -0.515804 
5941 2 24.4962 24.5133 0.206991 -25.2031 -0.0389687 0.377123 -0.304915 
1441 2 21.7556 21.7961 0.166224 -25.6831 -1.11787 0.733469 2.97272 
1741 3 27.2798 24.6109 2.88757 -29.0397 -1.59398 1.60646 1.28661 
8881 1 25.7172 20.6027 4.17387 -7.5639 1.06957 -0.282338 -0.34718 
14881 1 23.1743 20.5384 1.55744 -6.53407 -0.324626 -1.47971 -0.180057 
16381 1 23.0957 20.5064 4.22735 -7.17619 1.74643 -0.190601 1.47192 
242 2 27.242 21.7356 5.64172 -25.2033 -0.450294 0.689614 -0.880004 
1442 2 21.8111 21.8096 5.714 -25.2013 -2.47508 2.63499 -2.64319 
2941 2 21.7721 24.7177 2.88905 -25.4091 -0.517998 -2.46055 0.803105 
4441 3 24.705 21.9892 2.88098 -29.5902 -3.08605 -1.70938 -0.470813 
5942 2 24.5294 24.3753 5.64052 -25.4622 2.34635 0.710291 -0.905237 
7441 1 23.1267 23.071 1.50977 -6.7916 0.371072 1.83799 -0.56497 
8941 1 25.9623 25.7811 4.18136 -6.74463 0.905641 1.60831 0.314073 
10441 1 25.8657 25.9225 1.54543 -7.62345 0.645924 -1.41105 -0.565643 
11941 1 23.255 23.1081 4.12266 -6.90147 -1.13023 0.502871 1.41172 
13441 1 25.8197 23.2594 4.03628 -6.96971 0.628956 -0.939263 1.06026 
14941 1 23.0975 25.7809 1.54931 -7.79368 0.855773 0.695563 0.243667 
16441 1 23.4377 25.7577 4.51721 -6.80795 -3.48084 1.03301 -3.9728 
17941 1 25.8285 23.0318 1.48267 -8.15813 -0.0601225 1.24557 -0.955027 
10442 1 26.0383 25.9371 6.87903 -7.92311 0.26942 -0.267735 0.040887 
14942 1 23.1413 26.0472 6.86516 -7.9047 -0.48983 1.01304 3.62127 
241 2 27.0373 21.8837 0.0912298 -24.8951 -0.736034 0.669465 -0.838252 
13502 1 1.62323 4.20447 7.13755 -7.38079 -2.56581 -0.82428 -1.45424 
9002 1 4.18597 4.23119 6.93456 -6.75889 -0.919084 0.374462 -0.412476 
6002 1 1.03466 1.2962 6.95802 -7.79331 1.06448 1.34021 1.80986 
13802 1 6.56504 4.09734 7.16503 -7.32078 4.08515 -0.39122 -0.709554 
363 2 5.44188 5.53154 11.0309 -24.5983 -0.0202394 -0.0959236 -0.2848 
1802 2 5.28497 2.69194 8.22142 -25.4917 0.263926 1.18207 0.592148 
3062 2 2.81048 5.59117 8.32711 -25.1692 -0.196391 -0.264852 -0.283072 
4503 3 2.71031 2.94387 11.1849 -28.5598 -2.08419 -1.36569 -2.2127 
6003 1 1.35536 1.51479 12.4578 -7.56264 -1.0617 -0.674339 0.280149 
7502 1 4.1662 4.16697 9.63864 -7.99761 -0.379447 0.00586363 0.612456 
9003 1 3.80723 4.09144 12.2906 -8.17477 2.07038 0.749556 -0.250274 
10502 1 1.69576 1.67974 9.84273 -7.18068 -2.40489 -1.74174 -1.10431 
12002 1 4.14163 1.23703 9.36773 -7.39902 2.15262 0.0757398 1.37522 
13503 1 1.18912 4.17666 12.4289 -7.27451 0.160265 0.209908 -0.850542 
15002 1 1.21867 4.23388 9.6558 -7.28711 0.29145 0.892981 1.31217 
16503 1 4.00799 1.36005 12.0403 -8.33872 -0.489831 1.16764 2.47438 
13803 1 6.74784 4.25371 12.1866 -7.64231 -0.169461 0.589737 2.63844 
10802 1 6.83126 1.51845 9.56639 -7.62417 -0.422332 -2.09732 -0.546472 
6303 1 6.68148 1.67942 12.4928 -7.06564 -3.18342 -1.43786 -0.0370125 
1803 3 5.19574 2.60676 13.5452 -28.0636 2.65931 1.8661 0.162516 
16802 1 9.27705 1.27427 6.91828 -8.29599 1.10296 0.808213 -1.61575 
14102 1 12.6325 3.78653 7.28821 -7.24261 -1.11638 0.0473391 -2.9703 
6362 1 7.2102 6.5962 7.18163 -7.94764 -3.11187 1.38888 -1.01689 
9302 1 9.54105 3.98867 6.91371 -7.88534 0.18296 0.383348 -0.853568 
15302 1 7.03611 4.01802 9.75054 -6.85735 -0.559218 3.20604 -2.16571 
663 3 10.7745 5.69787 11.1584 -28.9 0.298919 -1.599 -2.7103 
2102 2 10.9642 2.73453 8.25678 -25.42 -1.55125 2.07621 0.70369 
3362 3 8.3685 5.47303 8.42895 -29.3328 0.455514 -0.374825 0.502566 
4803 2 8.13886 2.68295 10.9447 -25.656 0.468681 1.70204 0.938526 
6603 1 11.8006 1.3405 12.1538 -7.5442 0.848738 2.3479 0.961973 
7802 1 9.85189 4.3535 9.53783 -6.62795 -2.2209 -1.8714 0.383604 
9303 1 9.65791 3.89162 12.3306 -7.45272 -0.179297 0.16148 -0.17743 
11102 1 12.2863 1.53808 9.4226 -7.24255 1.70735 -1.72598 0.919653 
12302 1 9.67332 1.37497 9.55446 -7.79558 -1.69731 0.725164 -0.600846 
14103 1 12.3886 4.20782 12.6278 -8.3742 -0.575386 -0.154613 -0.890582 
15602 1 12.2566 4.29537 9.72341 -6.42816 0.693071 0.499516 2.16516 
16803 1 8.89907 1.11059 12.1024 -7.10047 3.68118 -2.68452 0.852144 
3662 2 13.655 5.52612 8.19443 -25.5595 -0.699241 0.118159 2.05909 
5103 2 13.4329 2.97223 11.0642 -24.9911 0.425535 -1.83288 -0.780003 
3302 2 8.01142 0.0845726 8.20949 -24.903 -0.348712 -1.79607 1.15193 
3363 2 8.00925 5.39829 13.7198 -25.6729 1.03989 0.349818 -0.144202 
16863 1 9.34855 6.62127 12.0196 -6.77776 -0.597219 0.400615 2.30347 
12362 1 9.25228 6.77203 9.64782 -5.8011 0.296582 -0.626825 -1.524 
2103 2 11.1359 2.82236 13.737 -24.7132 -2.44066 -0.316382 1.70649 
3602 2 13.6181 0.0358388 8.13935 -24.9946 -0.66112 -1.0256 2.53344 
6902 1 17.775 1.51498 7.07734 -6.75368 -0.937453 -0.150264 -0.833806 
17402 1 20.4222 1.21722 7.0349 -7.34529 0.879458 0.532562 -1.13281 
9602 1 15.1008 4.20192 6.97121 -7.9428 0.506283 -1.27756 0.476786 
963 3 16.189 5.84977 11.1226 -28.4056 0.994256 -1.66686 0.283528 
2402 2 16.0649 2.65022 8.59295 -24.4619 2.6357 1.44732 -5.15386 
3962 2 19.2459 5.62606 8.06267 -24.9265 -0.720926 -0.715589 3.14432 
5403 3 18.874 3.07109 10.9069 -28.7596 0.123599 -1.27716 0.700097 
6903 1 17.4685 1.53301 12.3229 -7.57002 0.604444 -0.669841 0.607384 
8102 1 14.8193 4.1508 9.77734 -7.6592 0.388095 1.30458 0.451235 
9603 1 15.0409 4.38367 12.6034 -7.37316 -0.28156 -0.752616 -1.34995 
11402 1 17.6256 1.10451 9.69442 -7.47982 -0.98344 1.33193 1.31559 
12602 1 14.9979 1.35292 9.66615 -7.58069 -2.83383 -2.11596 1.17375 
14403 1 17.7157 4.25182 12.4258 -6.93702 0.0392076 -1.63369 -1.37179 
15902 1 17.3632 3.94192 9.54113 -7.43361 2.61962 1.91754 1.94697 
17103 1 14.837 1.48991 12.2281 -7.88208 -1.47675 0.0578196 1.42617 
9903 1 20.4066 4.01636 12.6422 -7.36104 0.298411 -1.8742 -1.29311 
8402 1 20.165 4.357 9.83304 -7.43059 0.709659 1.37281 -0.788972 
12902 1 20.2997 1.89804 9.68089 -7.15169 0.859536 -1.86495 0.10125 
3902 2 18.888 0.0206224 8.38961 -25.3769 0.823328 1.21498 -1.72993 
2403 2 16.1282 2.67308 13.6831 -25.8401 1.17393 1.94049 1.52045 
17403 1 20.2031 0.974312 12.2807 -7.04428 0.83065 2.10551 -0.520172 
17463 1 20.4967 6.67664 12.7444 -6.46269 -0.47629 0.568274 -1.33004 
6963 1 17.7238 6.76991 12.4046 -6.65019 -0.94973 1.17206 0.637136 