ITEM: TIMESTEP
0
ITEM: NUMBER OF ATOMS
6000
ITEM: BOX BOUNDS xy xz yz pp pp pp
-3.0478556435388526e-01 2.6029785564354071e+01 0.0000000000000000e+00
-3.1824454243430722e-01 2.6043244542433946e+01 0.0000000000000000e+00
-1.1490101566484938e+00 1.0404901015664896e+02 0.0000000000000000e+00
ITEM: ATOMS id type x y z c_peratom fx fy fz 
1 1 1.09381 0.951443 2.84719 -8.62959 -1.23042 0.114886 0.887364 
2 1 1.10735 0.70247 8.29589 -7.80565 -0.692068 3.72888 -0.3638 
3 1 0.88366 0.624557 13.3101 -7.89115 0.117899 -0.63385 0.249999 
21 1 1.10464 6.22859 3.15331 -7.08786 -0.999954 -2.02462 -0.342525 
22 1 0.72718 6.1609 8.27653 -8.51327 0.256273 -0.106422 1.04347 
23 1 1.24229 5.91392 13.4819 -8.33305 -1.50287 -0.602118 1.55359 
41 1 1.09283 11.2987 2.91341 -7.93011 -1.23941 0.0805783 -0.397757 
42 1 0.815297 11.4706 7.88435 -7.29737 -1.11987 -0.464541 1.0173 
43 1 0.778981 11.1718 13.0236 -7.28977 -3.16421 0.0136275 2.20493 
101 1 6.30041 1.1768 2.6432 -7.92827 -0.93443 -0.591998 1.66096 
102 1 6.30558 0.783942 8.03351 -8.2313 -0.96295 0.179132 0.720406 
103 1 5.95647 0.578289 13.3753 -7.83254 -0.0876302 0.276707 -0.466108 
121 1 6.36412 6.25969 2.84523 -8.24168 -0.298242 1.27016 -0.833128 
122 1 6.24458 6.27574 8.07659 -7.72244 -0.188848 -1.78773 0.495539 
123 1 6.16828 6.02184 13.2436 -7.85099 -0.193341 0.20949 0.436245 
141 1 6.38979 11.5888 2.71454 -7.99831 -1.03937 1.57128 -0.236668 
142 1 5.9033 11.4638 7.68433 -7.16847 -0.920366 0.138759 1.06344 
143 1 6.17099 11.5457 13.0412 -8.11218 -0.761713 1.04855 0.805372 
201 1 11.4182 0.903681 2.5973 -7.65721 1.52506 0.950712 -1.77247 
202 1 11.4881 0.883504 7.54292 -7.52136 1.06268 -1.00669 0.376003 
203 1 11.1513 0.984303 13.3969 -7.86513 0.78582 1.78689 -3.38486 
221 1 11.9647 6.35495 2.53262 -7.63894 -1.54217 0.974407 1.19856 
222 1 11.5543 6.00673 7.75555 -8.47782 -0.593342 0.771728 0.485611 
223 1 11.708 6.21269 13.1929 -7.55297 -1.21111 -0.405374 0.709726 
241 1 11.6271 11.4455 2.73211 -7.92677 -1.82316 1.71842 0.313584 
242 1 11.3698 11.6503 8.08723 -8.71923 -0.825583 -1.61359 1.64382 
243 1 11.4998 11.3441 13.2881 -7.35134 -0.52839 1.05074 1.07996 
501 1 0.952482 3.77743 -0.123263 -8.27216 0.962467 0.314846 1.07003 
502 1 0.713088 3.8798 5.618 -7.34427 1.51901 -0.00733423 -2.42678 
503 1 0.913591 3.69091 10.698 -8.03696 0.738839 -0.552571 -0.261499 
504 1 0.727924 3.77209 16.055 -7.37516 3.42762 1.74481 0.223915 
521 1 1.08553 8.9455 0.0637175 -8.41668 -0.924969 0.765947 1.7048 
522 1 0.998407 9.0942 5.47233 -8.06583 -0.437157 0.466767 0.194583 
523 1 0.658251 8.73848 10.7583 -8.25423 0.88724 0.231554 0.298276 
524 1 0.560513 9.09876 16.1825 -7.77196 0.798254 -0.0193664 -1.57181 
601 1 6.28016 3.54636 0.0622656 -7.75007 0.510439 1.03803 -0.219385 
602 1 6.20347 3.82083 5.31894 -8.00724 0.613355 -0.302296 0.725852 
603 1 6.09406 3.57969 10.8895 -7.46269 0.508761 1.18378 -0.126001 
3624 1 6.09202 6.35393 15.8849 -7.90375 -1.41178 -1.72203 0.454811 
621 1 6.42254 9.09825 0.360479 -8.37576 -1.14854 0.650193 0.0718364 
622 1 6.17773 9.20766 5.56624 -6.9322 2.51151 0.2798 0.594672 
623 1 6.13088 8.92862 10.6968 -6.90613 0.828146 0.0811764 -0.131052 
3644 1 6.03182 11.7891 15.7757 -8.62558 0.246417 -1.1921 0.179173 
701 1 11.66 3.818 0.152143 -8.31586 -1.0766 -1.28181 -0.503809 
702 1 11.5224 3.92563 5.2574 -8.85059 0.48176 -0.338406 1.22503 
703 1 11.3815 3.97746 10.5668 -7.82771 0.300961 0.84188 -0.615757 
704 1 11.3953 3.59826 16.186 -8.64448 -1.53709 -0.114664 -1.42478 
721 1 11.5224 9.04436 0.20827 -7.98396 2.29804 -1.146 1.2825 
722 1 11.489 9.04345 5.38628 -7.14994 1.38887 0.155477 1.28159 
723 1 11.5035 9.1725 10.5883 -7.07201 0.194362 0.928858 -0.931721 
4202 2 10.1909 -0.20145 3.96749 -28.9995 0.291619 0.457985 0.22963 
1001 1 3.30405 1.13291 0.186399 -7.78729 0.96417 -0.302784 0.797533 
1002 1 3.55712 0.704749 5.34641 -8.04787 0.320859 0.671967 1.14608 
1003 1 3.36965 0.808751 10.6041 -8.15079 0.714015 0.322127 0.894657 
1004 1 3.64746 0.821711 15.8351 -8.24641 -0.0256203 -0.534657 0.955776 
1021 1 3.68664 6.411 0.125545 -7.31812 -2.44104 -0.282633 1.54339 
1022 1 3.84335 6.18052 5.50519 -8.24706 -0.386104 0.313208 0.203859 
1023 1 3.40337 6.16206 10.7492 -7.78994 -0.339201 -1.01944 1.19573 
1024 1 3.52668 6.16306 16.0392 -8.80762 -0.746741 -0.958227 -1.94503 
1041 1 3.86608 11.5084 0.255994 -7.80625 -2.50238 -0.644746 0.63467 
1042 1 3.49057 11.6215 5.55484 -7.32589 0.822587 -0.783561 0.448649 
1043 1 3.72711 11.3389 10.9604 -6.71768 0.279365 1.23932 0.320811 
724 1 11.3897 9.18977 15.7933 -8.44334 0.327557 -2.09509 -0.0930781 
1101 1 8.54818 1.07243 -0.10314 -6.73414 -0.573829 -0.296255 1.22504 
1102 1 8.8202 0.825217 5.05959 -8.12473 0.90306 -1.33917 0.869204 
1103 1 9.0204 0.685948 10.6329 -8.27353 -0.0010878 2.05822 0.68625 
5221 2 12.8195 5.01867 1.43339 -29.071 0.217485 -0.455449 -0.155962 
1121 1 8.80068 6.24054 0.309167 -7.80605 0.37166 0.240246 -0.571259 
1122 1 9.00553 5.8878 5.56025 -8.45992 1.28024 0.211784 -1.3616 
1123 1 8.76185 6.34163 10.6796 -8.30357 -0.0383002 -2.51939 1.2643 
4203 3 10.2911 -0.262679 9.1126 -25.7763 -0.400743 -1.79536 -0.54287 
1141 1 9.08576 11.5446 0.490777 -7.91689 -1.71082 -1.32392 -0.884037 
1142 1 9.02364 11.2522 5.54034 -8.15431 -1.88911 0.626651 1.54251 
1143 1 8.77489 11.5049 10.6862 -7.30598 1.44194 -1.12944 1.12175 
1044 1 3.41965 11.3458 16.2403 -7.11191 0.752404 0.454536 -2.25748 
1501 1 3.74646 3.71201 3.01201 -7.68627 -2.41129 0.578189 -0.296243 
1502 1 3.41516 3.9661 8.26562 -7.76023 0.47879 -0.905938 0.246763 
1503 1 3.25383 3.68845 13.3566 -8.47516 1.54947 0.543056 -0.237505 
1521 1 3.52775 9.1965 2.81846 -8.16781 1.03369 0.114123 -0.954403 
1522 1 3.84793 8.97258 8.01071 -6.77405 -1.13114 -0.501085 -0.575639 
1523 1 3.53848 8.8893 13.3228 -8.27916 -0.5783 0.00906021 -0.344299 
1601 1 8.84279 3.66185 2.70336 -8.03673 0.256311 1.17796 1.30845 
1602 1 8.77668 3.73098 8.24746 -7.46619 1.74724 0.479677 -1.34235 
1603 1 8.71523 3.64661 13.4744 -7.93022 0.868269 -0.0247504 -0.796831 
1621 1 8.82498 8.9489 2.6994 -7.7192 0.287873 0.124591 -0.88635 
1622 1 8.99983 9.06727 7.93412 -7.25319 0.0500251 0.359197 -0.848038 
1623 1 8.55625 8.86826 13.1953 -6.89762 1.33235 0.459507 -0.471436 
2001 1 3.75454 3.72254 0.296829 -7.97194 -1.41484 -0.264317 -0.280612 
2002 1 3.49323 3.41476 5.62247 -7.26934 -0.55409 -0.628149 0.496825 
2003 1 3.57112 3.37564 10.776 -7.55836 -0.74691 0.449565 0.638006 
2004 1 3.39165 3.3023 15.8393 -7.87628 1.4286 2.50249 0.546718 
2021 1 3.59238 8.92766 0.0191916 -8.16953 1.04383 0.986829 1.48594 
2022 1 3.73915 8.94231 5.45853 -7.50364 -1.4907 -0.108366 -0.0232671 
2023 1 3.58681 8.78457 10.6567 -7.49618 -2.41705 -0.896564 0.178632 
2024 1 3.28208 8.88503 15.9456 -7.89845 -0.0580161 -2.70064 -0.822863 
2101 1 8.85603 3.62448 0.115935 -8.0504 0.789804 0.658119 0.0176216 
2102 1 8.87526 3.26126 5.55198 -8.82137 0.502161 2.93863 -0.111829 
2103 1 8.77479 3.3891 10.7738 -8.2366 0.289714 1.15128 0.837196 
1104 1 8.90025 0.892021 16.1242 -9.17019 0.579809 0.739333 -0.576345 
2121 1 9.06639 8.86359 0.223233 -7.38495 -0.804218 0.415333 -0.833591 
2122 1 8.98345 8.61108 5.08615 -7.13631 -0.640589 -0.702793 1.53366 
2123 1 8.8223 8.81807 10.5492 -7.63868 -0.0584463 1.66049 -0.111396 
5543 3 2.11905 12.81 9.21987 -24.8809 -0.80576 0.2676 1.3501 
2501 1 3.57065 1.15943 2.87763 -7.74717 0.964888 -1.27948 -0.253868 
2502 1 3.62935 1.17658 8.0725 -7.97561 0.968478 1.34138 -1.1259 
2503 1 3.45241 1.13207 13.2223 -8.71133 -0.523261 -0.639762 0.305451 
2521 1 3.56984 6.37972 2.83514 -8.0346 2.11498 0.528912 -0.492708 
2522 1 3.39413 6.56279 8.1934 -7.2941 0.634589 -0.837034 -0.701137 
2523 1 3.75732 6.31566 13.4693 -8.1481 -0.623971 -0.505485 -0.524787 
2541 1 3.61956 11.9386 2.95312 -8.2454 0.95303 -1.56784 -1.33725 
2542 1 3.31947 11.339 8.31801 -7.26928 1.19746 1.07454 -1.08228 
2543 1 3.34928 11.7838 13.5267 -7.97131 1.37652 -0.0643214 0.207274 
2601 1 8.85272 1.15367 2.48678 -7.16045 0.560278 -0.305141 0.0742456 
2602 1 8.88617 0.960835 7.76143 -8.02096 0.18718 1.38718 0.541418 
2603 1 8.4834 1.08239 13.3601 -7.88845 0.991315 -0.183204 0.381136 
2621 1 9.01313 6.16337 2.78866 -8.53323 1.62245 0.916443 1.18266 
2622 1 8.88683 6.41358 8.10607 -7.77689 0.685994 -0.214355 -0.231384 
2623 1 8.76648 6.30908 13.5676 -8.06875 1.15764 -0.278382 -2.54719 
2641 1 8.90558 11.7128 3.12257 -8.14463 0.639246 0.815797 -1.18646 
2642 1 8.42409 11.5935 8.18094 -7.84962 2.27555 0.129642 -1.04876 
2643 1 8.8873 11.4977 13.3662 -7.5317 -0.631686 0.818269 -1.01488 
3001 1 0.800745 3.65563 2.74042 -8.97518 1.0482 -1.31189 0.180868 
3002 1 0.695249 3.37095 8.01881 -7.81285 0.81411 -0.411166 2.21617 
3003 1 0.670026 3.23944 13.4196 -8.12552 1.07619 0.554922 -0.408418 
3021 1 1.03981 8.63676 2.7521 -7.538 -1.41208 1.82975 -0.44826 
3022 1 1.04011 8.79672 8.28476 -8.18645 0.420992 -0.0826765 -1.58965 
3023 1 1.00113 8.46731 13.396 -8.0095 -1.18297 0.449626 0.439782 
3101 1 6.21924 3.68261 2.65036 -7.43681 0.99368 0.989346 0.613912 
3102 1 6.31454 3.48695 8.20206 -7.82445 -2.3984 0.00580702 -1.34795 
3103 1 6.02771 3.33074 13.5047 -7.94939 -0.772563 -0.309514 -0.1332 
3121 1 6.20439 9.12182 3.02801 -7.65919 1.11499 -3.00573 -2.13888 
3122 1 6.42315 8.8788 8.1458 -7.67226 0.446339 0.707422 0.149437 
3123 1 6.12644 8.87081 13.2278 -7.36519 -2.11702 0.143844 -0.0386428 
3201 1 11.3601 3.59625 2.70933 -8.17008 -0.0113281 0.504944 0.0988431 
3202 1 11.4472 3.35718 7.86478 -7.67912 -0.252134 1.48589 -0.22563 
3203 1 11.3721 3.54757 13.1336 -8.00581 0.0379329 0.470072 1.60661 
3221 1 11.4186 8.94409 2.93137 -7.5719 0.340656 -1.06236 -2.12277 
3222 1 11.5582 8.86623 7.99393 -7.84648 0.0302345 -0.250626 0.189958 
3223 1 11.1313 8.84327 13.1044 -7.15563 0.325602 -0.859057 1.06012 
3501 1 0.689693 1.25802 0.0475422 -7.57124 0.465789 -0.715105 0.826399 
3502 1 0.920975 1.01999 5.62634 -8.72938 -0.402668 0.941829 -0.416278 
3503 1 0.73157 1.13395 10.7906 -7.93173 1.7776 0.280324 -0.76245 
3504 1 0.955743 1.25504 15.9286 -7.54914 1.40442 -2.3261 -0.853623 
3521 1 0.816577 6.30717 0.356017 -8.11937 1.68917 -0.497006 0.211452 
3522 1 1.1305 6.63565 5.76714 -7.83917 -1.43239 0.0877587 0.0226504 
3523 1 0.801186 6.16603 11.0225 -7.53176 1.11719 0.377758 -1.09826 
3524 1 0.720463 6.36791 16.1959 -7.96947 0.707922 0.318226 -2.19901 
3541 1 1.11558 11.8575 0.318873 -7.93225 0.599849 -3.32416 0.588051 
3542 1 0.950477 11.6692 5.4877 -7.23183 -1.78798 1.5079 -1.90378 
3543 1 1.05789 11.3001 10.4589 -7.75695 -1.43992 0.979229 -0.227639 
1124 1 8.64043 6.35711 16.2467 -7.16997 -0.0135083 -1.50346 -0.404436 
3601 1 5.89633 0.935103 0.0294272 -7.82637 0.617017 -0.566342 0.700263 
3602 1 6.28966 1.16794 5.53032 -8.62588 -1.04351 -0.591166 -1.61558 
3603 1 6.31834 0.991546 10.8302 -8.16832 -1.66777 0.342792 -0.389781 
4221 3 10.1532 5.00595 -1.1118 -25.1829 0.541833 0.925485 -0.635127 
3621 1 6.16603 6.35868 0.132815 -8.11691 2.30051 0.760994 1.93114 
3622 1 6.55866 6.40809 5.43412 -7.65865 -0.32377 0.552325 -0.580533 
3623 1 6.01425 6.37127 10.6956 -7.52856 0.690855 -1.11701 -0.104031 
4742 3 10.0663 12.7456 6.71295 -24.6833 -0.359934 3.24396 0.102027 
3641 1 6.27437 11.958 0.0889762 -6.86929 1.72168 -1.90087 0.519126 
3642 1 6.195 11.8979 5.29706 -7.85427 1.14083 0.803533 -0.559301 
3643 1 6.3158 11.4576 10.3478 -7.04842 -0.888038 0.521561 -0.0895449 
4041 3 -0.264991 10.2071 -1.0434 -24.811 -1.2992 1.45977 -0.510905 
3701 1 11.2648 1.2019 -0.134937 -8.36657 0.836021 1.0578 2.07046 
3702 1 11.7657 1.43099 4.99323 -7.67501 -0.934727 -0.374671 1.66175 
3703 1 11.6955 1.31264 10.1935 -7.49468 -2.37694 -1.14685 1.87858 
4743 2 10.1264 12.8054 11.8738 -28.6934 -0.430943 -0.477611 1.09278 
3721 1 11.5147 6.34903 0.11516 -7.78404 -0.211565 1.1755 -1.15365 
3722 1 11.4939 6.41192 5.01125 -8.00352 -0.103683 0.218886 1.22715 
3723 1 11.4174 6.71368 10.5821 -7.57934 -1.08484 -2.10099 -1.3335 
3724 1 11.1746 6.46768 15.7859 -7.70982 2.05378 1.36138 -0.480477 
3741 1 11.5591 11.627 0.130543 -7.83301 0.836675 0.957873 -0.412728 
3742 1 11.5943 11.657 5.41707 -8.25728 -0.0811431 0.958095 -0.931893 
3743 1 11.3992 11.6903 10.8242 -7.89066 -0.282549 0.304948 -1.69961 
3744 1 11.4554 11.7474 15.8939 -7.85789 -0.435586 -0.173738 0.568188 
5241 2 12.836 10.2651 1.52322 -28.8226 -0.315237 0.34996 0.281996 
5542 2 2.3038 12.8418 4.09221 -29.0621 -0.972258 0.481404 1.50016 
5624 3 7.23716 7.55246 14.5601 -25.7205 2.54958 1.93286 0.606258 
3544 1 0.778006 11.7476 15.6884 -7.3521 -0.669915 -0.12465 -0.0148946 
5623 2 7.44143 7.66407 9.44459 -29.6038 0.322752 -0.567207 -0.131163 
5622 2 7.89369 7.45712 3.84163 -28.3524 -2.17003 1.22941 1.75726 
5101 2 7.3396 -0.163494 1.45145 -29.3776 2.14698 0.899854 -0.561269 
5142 2 7.42186 10.4056 6.86016 -29.2963 -0.028903 -1.55549 -1.06174 
3604 1 6.27585 1.03645 15.8877 -8.47279 -0.0470956 0.392627 0.467299 
604 1 6.01775 3.70472 15.9691 -8.17953 -0.11323 -0.0738356 0.410024 
5604 2 7.46599 2.27354 14.8537 -28.4662 0.0986562 0.920985 -2.26036 
5603 3 7.60041 2.09784 9.39897 -25.0839 -0.108071 1.49251 -1.12657 
5704 2 12.5936 2.40357 14.5902 -28.9914 1.32258 -0.654322 -0.513636 
4204 3 10.2158 -0.310486 14.753 -24.532 -0.629802 -1.62693 0.851261 
1144 1 8.76066 11.5527 15.9223 -7.81545 -0.335578 -0.17481 1.53435 
2124 1 8.47944 8.9314 15.8978 -7.13226 1.83823 -0.00889583 -0.498865 
4521 2 -0.239207 7.39373 1.57865 -28.9223 -1.32143 1.40975 -0.146405 
4122 2 4.92002 5.15484 4.0854 -28.8969 1.0912 -1.86719 0.188888 
4123 2 4.91037 4.90759 9.57564 -29.1294 -0.44217 0.241257 -0.44486 
4124 2 4.81536 4.84578 14.5972 -28.3228 0.758705 -0.274082 0.0415204 
5042 2 2.2692 10.0424 6.79794 -29.667 0.751213 2.11212 0.544844 
4142 3 4.98435 10.4763 4.12333 -25.4702 -1.83267 -0.158428 2.13634 
4143 2 4.89402 10.134 9.24987 -30.4853 0.0607893 0.845797 1.96489 
4144 3 4.72688 10.2996 14.5152 -24.944 -0.139122 0.892188 0.289039 
5141 2 7.67201 10.373 1.75011 -28.7581 0.306843 -0.380516 -1.65849 
5043 3 2.1456 10.0726 11.9681 -25.2876 2.81015 -0.753332 -1.1844 
2104 1 8.66923 3.57435 15.9674 -8.04067 0.571558 -0.309099 0.879767 
5503 2 2.18129 2.28882 9.2848 -28.9191 0.855273 0.752912 0.888682 
5502 2 2.1417 2.18332 4.29676 -28.0771 1.87183 1.2544 0.479206 
4222 2 10.1607 4.92326 4.1519 -27.6708 0.633697 0.0610364 -2.14019 
4223 2 10.1915 5.10179 9.26344 -28.4461 -0.268996 -0.600059 0.120459 
4224 3 10.1309 5.0432 14.6505 -24.7042 -0.166597 -2.03327 0.24048 
5002 2 2.27557 -0.201862 6.87572 -29.0479 0.0138146 -1.15838 -1.14554 
4242 2 10.1838 10.434 4.05244 -29.3485 1.19314 -3.09249 0.527132 
4243 2 10.1377 10.3438 9.26345 -28.9673 -0.932292 -1.36514 1.48604 
4244 2 10.1636 10.1124 14.5752 -29.3857 -2.26912 1.50446 -1.52172 
5524 2 2.35607 7.33482 14.5541 -28.0021 -0.923596 1.59653 1.01011 
5523 2 2.0822 7.49285 9.4472 -28.82 1.46575 0.152549 1.32016 
5123 3 7.58736 4.87689 12.0571 -24.7308 -1.5801 0.13616 -1.0385 
5522 3 2.40235 7.68429 4.29875 -25.3456 -0.762506 -0.207938 -1.9262 
5122 2 7.70288 4.94161 6.65534 -28.5857 -2.26281 -0.494573 2.59565 
5602 3 7.63028 2.4236 4.0356 -24.7996 -2.40821 -1.37057 -1.5524 
4601 2 4.86562 2.33679 1.76721 -29.1818 -0.112676 0.832442 -2.26292 
4602 2 5.0729 2.23866 6.79387 -28.178 -1.43032 1.64249 -0.113872 
4603 2 4.78683 2.17539 12.2104 -28.4813 1.68382 1.34847 -2.20225 
4621 3 4.94054 7.82242 1.54145 -24.6901 -0.248555 -1.21526 0.15212 
4622 3 5.191 7.61456 6.745 -25.7347 -1.62482 0.38017 0.180246 
4623 2 4.72187 7.58242 12.0835 -29.3331 1.73448 0.0233088 -2.24392 
4701 2 10.1758 2.50684 1.29717 -29.0247 -0.962952 -1.84867 0.813608 
4702 2 10.2656 2.33446 6.54286 -28.4412 0.798552 -1.93676 1.45936 
4703 2 9.93823 2.28801 11.9637 -28.1429 1.62251 -0.3125 1.0457 
4721 2 10.3988 7.65185 1.45079 -28.8893 -0.796053 -0.0767359 0.276283 
4722 3 10.2453 7.54961 6.63157 -25.4404 -0.453756 1.34462 0.333968 
4723 2 9.97947 7.69023 11.8236 -29.3165 1.35069 0.842092 1.01915 
5143 2 7.40373 10.342 11.9173 -29.8905 0.423931 -1.40252 -0.49773 
5504 2 2.33144 2.25565 14.6017 -28.7563 -2.6952 -0.732604 0.81968 
5121 2 7.56774 4.92375 1.41222 -28.8714 -0.545371 -0.376949 0.356971 
5021 3 2.31433 4.91142 1.54655 -24.783 0.0431198 1.28561 0.35321 
5022 3 2.20369 5.20679 6.89081 -25.2058 0.968989 -4.1399 -0.450027 
5023 2 2.16924 4.79177 12.0702 -28.5376 0.236204 0.126245 -1.93506 
5041 2 2.36667 10.3315 1.46564 -28.2635 -0.679721 0.0211354 0.441622 
5003 2 2.31041 -0.222523 12.0233 -28.3634 -1.26391 -1.95185 -0.450987 
624 1 5.92962 9.04506 15.8409 -7.97459 -0.470966 0.0949572 1.75944 
5102 2 7.50562 -0.246907 6.58856 -28.7959 2.20297 -1.28812 1.11588 
3704 1 11.6282 0.969338 15.8903 -8.22877 -1.1877 1.02348 1.74741 
5724 2 12.8396 7.63781 14.7045 -29.1469 -0.688089 -0.638475 -1.23875 
4501 2 -0.298071 2.31651 1.54303 -28.5818 -1.56622 0.0307578 -1.23425 
5243 2 12.7167 10.3563 12.0613 -29.9457 -0.284177 -0.587399 -0.322414 
5702 2 12.7277 2.68038 4.03222 -27.9461 2.40536 -0.667563 -1.91663 
5203 3 12.8426 -0.314996 11.9473 -25.4837 -0.405663 0.481444 0.153104 
4503 2 -0.285044 2.16622 11.9885 -28.6139 -2.21297 1.08903 0.992428 
5223 2 12.8234 5.03823 11.9385 -29.3503 -0.0397066 0.646707 -0.336389 
5722 2 12.8249 7.73169 4.1662 -29.1598 0.151269 0.558979 -0.472398 
5723 2 12.8167 7.74439 9.33888 -29.2692 0.139911 -0.349178 0.335153 
5242 3 12.8147 10.4673 6.84721 -25.3507 0.952307 -1.99039 -0.527828 
5701 3 12.849 2.32461 -1.14245 -24.6155 1.49267 1.17727 0.0583573 
4241 3 10.2774 10.3346 -1.08887 -24.9938 -0.963799 -0.445475 -0.591098 
5521 2 2.24215 7.73535 -1.13526 -28.7425 1.14432 -1.03731 -0.590785 
4121 3 5.01495 5.05831 -1.05927 -24.8986 -1.46955 -1.04818 -2.05826 
5621 3 7.56195 7.73677 -1.03194 -25.594 0.644391 -0.522014 -1.5385 
4 1 1.04067 0.687305 18.6101 -7.91025 1.0627 -0.00232742 0.155908 
5 1 0.778736 0.442425 24.0676 -7.79039 0.74778 0.995059 -2.1417 
6 1 0.985902 0.638229 28.8267 -8.38778 1.00827 -0.749642 1.55303 
24 1 1.02684 5.90034 18.7527 -7.60913 -0.312165 0.36582 0.822303 
25 1 0.943414 6.0202 24.0631 -7.33673 -0.308203 -0.929351 -0.385097 
26 1 0.757315 6.15607 29.0375 -8.16152 -0.0917629 -0.967417 1.28469 
44 1 0.764035 11.0816 18.2212 -7.42526 -0.0921812 0.410184 1.02641 
45 1 0.991783 11.245 23.9306 -7.98614 -0.398109 0.0560876 -0.457414 
46 1 1.00881 11.3999 29.008 -6.89266 -0.733195 0.128219 0.133695 
104 1 6.58199 0.857451 18.4889 -7.75789 -1.75519 -0.77244 0.340145 
105 1 6.02832 0.416719 23.7297 -7.25705 -0.919401 -0.246978 0.606253 
106 1 6.42877 0.513655 28.8394 -7.30849 -0.0466661 0.777963 -0.451985 
124 1 6.26767 6.03077 18.4955 -8.51434 -0.418233 0.803773 1.02693 
125 1 6.28403 5.89543 23.6751 -7.55956 -0.629749 -1.04831 1.24891 
126 1 6.14601 5.93465 29.1174 -7.9849 -0.212509 0.29562 -1.06495 
144 1 6.10373 11.4693 18.4601 -7.9307 -0.782998 0.401137 -0.723979 
145 1 6.20182 11.2941 23.8275 -7.88854 -0.00227245 0.187483 -0.115557 
146 1 6.33905 11.1756 28.9403 -7.37795 -1.40748 -0.116431 1.43845 
204 1 11.5885 1.15769 18.5835 -8.4048 -0.522629 0.336631 -1.11818 
205 1 11.1837 0.752509 23.6459 -7.90417 0.919063 -0.927278 1.16424 
206 1 11.3301 0.763475 29.0116 -8.48746 2.04914 -0.189893 -0.323929 
224 1 11.5177 6.2167 18.3177 -7.39749 0.0249228 -1.03684 0.473411 
225 1 11.6783 6.07352 23.7507 -8.2054 -2.73176 -0.265627 0.882712 
226 1 11.3834 6.11195 29.257 -7.63794 -0.0687719 -0.801063 -2.75619 
244 1 11.515 11.2677 18.7384 -7.73427 -1.81934 1.84585 -0.600396 
245 1 11.5428 11.4771 23.7449 -6.97021 -0.387275 -0.259231 0.252494 
246 1 11.6587 11.4273 29.0346 -7.44123 -1.26862 0.554378 0.696958 
505 1 1.28956 3.45153 21.3647 -7.95559 -0.833058 0.27102 -2.07555 
506 1 1.25062 3.83693 26.1299 -8.06081 -0.658115 0.340508 2.02812 
507 1 0.856894 3.47483 31.6066 -7.80938 0.65019 -0.160099 -0.886118 
525 1 0.861621 8.96794 21.0839 -7.54601 1.28495 -1.53648 2.01765 
526 1 1.29088 9.16796 26.0134 -7.41329 -0.349313 0.424252 0.819741 
527 1 1.22312 8.73559 31.7227 -7.46991 -0.582891 -0.276461 -0.379381 
605 1 6.66039 3.69207 21.174 -7.61035 1.13482 0.751371 -1.86261 
606 1 6.45849 3.90876 26.3367 -7.64147 -0.404743 -0.789856 -1.00867 
607 1 6.19207 3.61848 31.3549 -8.91146 -0.0786625 -1.16234 1.27054 
625 1 6.22298 8.8712 21.3867 -7.84763 -0.156486 1.16073 -0.187264 
626 1 6.43592 8.92787 26.4468 -7.39891 -1.13979 0.34411 0.029461 
627 1 6.24979 8.90576 31.6518 -7.96259 1.24827 -0.904906 0.964332 
705 1 12.0178 3.28485 21.692 -7.32614 -0.616663 -1.33466 -1.49133 
706 1 11.4397 3.82178 26.7365 -7.44326 -0.34117 -0.664021 -1.35366 
707 1 11.3995 3.82664 31.6642 -7.89665 -1.3473 -0.57718 1.17303 
725 1 11.426 8.82235 21.2039 -7.96527 0.746054 -1.12307 -2.99311 
726 1 11.5903 9.04388 26.2308 -7.18425 0.314787 0.317982 0.24242 
727 1 11.5887 9.25666 31.6698 -7.64392 0.623964 -1.80175 -0.159289 
1005 1 3.61237 0.763073 21.3445 -8.1092 0.831732 -2.01603 -1.31267 
1006 1 3.97898 0.452944 26.5365 -7.55896 -0.970879 -0.794458 -0.69597 
1007 1 3.56195 0.676878 31.7496 -7.85269 -1.17169 0.711212 -0.888119 
1025 1 3.5303 5.98203 21.4191 -8.33043 -0.0273904 0.69957 -1.24162 
1026 1 3.96326 5.82691 26.6184 -8.21625 -0.969917 1.03835 0.429104 
1027 1 3.41745 6.03666 31.6004 -7.68169 0.717113 0.287047 0.36429 
1045 1 3.68582 11.397 21.1851 -7.57951 0.20143 1.00782 1.27155 
1046 1 4.03984 11.3817 26.5082 -7.98294 -1.46727 -0.134027 -0.0253475 
1047 1 3.8727 11.5575 31.9255 -7.28916 0.34698 -2.41164 -0.523479 
1105 1 8.75046 0.893274 21.3768 -8.07481 1.59121 0.14848 -0.158463 
1106 1 8.94448 0.681496 26.6801 -8.49541 0.0961354 -0.72793 -0.264867 
1107 1 8.60971 0.636923 31.8011 -7.41902 0.915758 -0.745349 0.299256 
1125 1 8.84468 6.06239 21.2525 -8.33453 0.148663 0.514463 1.88903 
1126 1 9.15554 5.9356 26.6407 -7.64221 -0.268342 0.460482 0.405318 
1127 1 8.73363 5.8343 31.6042 -7.46414 -1.42165 -0.0520106 0.44507 
1145 1 9.29802 11.3311 21.4234 -7.64412 -1.4237 0.638615 -0.838659 
1146 1 9.07597 11.1494 26.5548 -7.34879 -0.377204 1.7469 0.264787 
1147 1 8.86887 11.3427 31.6613 -6.64122 1.23766 -2.84938 -1.28994 
1504 1 3.57636 3.41176 18.3927 -7.77122 1.54006 1.81901 0.184512 
1505 1 3.56689 3.58338 23.6714 -7.47549 0.133627 1.76244 -0.148427 
1506 1 3.71032 3.27934 28.6867 -7.15318 0.397108 0.854769 0.643553 
1524 1 3.61458 8.98464 18.6155 -7.687 -0.167907 -0.482822 -1.4813 
1525 1 3.66333 8.86097 23.8627 -8.36993 1.28347 1.03904 0.328919 
1526 1 3.44298 8.79888 29.0233 -8.03251 2.3129 0.498862 0.380892 
1604 1 8.84335 3.79489 18.5125 -8.53332 -0.296246 -0.393089 0.94882 
1605 1 8.67617 3.73167 23.9129 -8.12844 -0.138538 -0.884318 0.192108 
1606 1 8.82499 3.68272 29.1821 -8.4557 1.42017 -0.208992 1.2457 
1624 1 8.927 9.48421 18.4138 -6.07995 0.349558 -2.44907 -0.659481 
1625 1 9.19333 9.11391 23.6774 -7.49879 -0.295345 -1.34607 0.35089 
1626 1 8.77547 8.92167 28.8433 -7.86178 0.597341 0.31114 2.51785 
2005 1 4.04231 3.39766 21.0944 -7.72499 -1.8328 -0.981092 -0.199941 
2006 1 3.83109 3.13521 26.1839 -7.45951 0.217721 -0.0163526 -0.0455593 
2007 1 3.50748 3.36973 31.2121 -8.21146 0.969383 0.467046 2.42814 
2025 1 3.58807 8.74032 21.1011 -7.8573 -0.0161711 -1.35679 2.55955 
2026 1 3.78622 8.70224 26.6032 -8.20106 0.109658 -0.570525 -1.63004 
2027 1 3.71214 8.76766 31.6895 -7.63594 0.238425 -0.563309 0.192937 
2105 1 9.44218 3.53375 21.3089 -8.27615 -1.11421 -0.845357 -0.879929 
2106 1 8.86079 3.43652 26.5959 -8.00427 0.420799 -1.02897 -0.924062 
2107 1 8.73811 3.23307 31.9629 -7.57781 -0.184852 -0.0995085 -2.50031 
2125 1 8.80147 8.78723 21.0243 -7.98119 0.424814 -0.565391 0.776432 
2126 1 9.05617 8.64747 26.3281 -7.41096 -0.682654 -1.16457 -0.832284 
2127 1 9.00279 8.55248 31.929 -7.6436 -1.25474 0.52296 -1.67742 
2504 1 3.87282 0.853487 18.7004 -8.26651 -0.0248623 -0.64894 -1.48438 
2505 1 3.47257 1.12644 23.8421 -6.85246 -0.547685 -1.20728 1.01386 
2506 1 3.88889 0.636316 29.0215 -7.43225 -1.88095 1.80516 1.45164 
2524 1 3.54574 6.30016 18.4944 -8.71225 0.82402 -1.56139 2.79021 
2525 1 3.59639 6.30803 24.1023 -7.7981 0.556334 -0.422759 -0.596329 
2526 1 3.48708 6.00589 29.0773 -8.38829 0.00849202 0.953307 -0.599886 
2544 1 3.3601 11.7438 18.6229 -6.68813 0.418258 0.52329 1.1487 
2545 1 3.64371 11.7136 23.7805 -7.79269 -1.13772 -1.01123 0.994075 
2546 1 3.59176 11.5507 29.1037 -8.05179 0.840527 -0.949199 0.475582 
2604 1 8.98262 1.19343 18.7248 -8.55649 1.53511 -0.475332 0.290291 
2605 1 8.67677 1.00876 24.0718 -7.83115 -0.10427 1.26363 0.124966 
2606 1 8.86171 0.994554 29.3753 -8.13632 -0.188858 0.786766 -1.91531 
2624 1 8.99584 6.53113 18.8226 -7.32675 -0.806243 0.473358 -0.111844 
2625 1 8.80676 6.29174 24.1942 -8.085 3.18518 -0.160689 -3.30708 
2626 1 8.73568 6.4179 29.0933 -7.73929 -0.034268 -0.886493 0.0130789 
2644 1 8.70472 11.7907 18.7867 -7.12717 0.19679 1.85992 -0.0460488 
2645 1 8.9286 11.6265 23.9386 -8.18825 -0.226186 1.10238 0.151213 
2646 1 8.95013 11.6882 29.0378 -7.65195 -0.0109321 -0.959537 0.144589 
3004 1 1.14633 3.35129 18.7729 -7.11902 -1.56271 0.327126 -0.504536 
3005 1 1.03471 3.31133 23.7526 -7.72981 -0.0677499 -0.0633272 1.02584 
3006 1 1.18189 3.36097 28.8008 -8.04233 0.701237 2.85568 1.64558 
3024 1 0.830964 8.53042 18.7329 -7.79138 0.267409 -1.11743 -1.76136 
3025 1 1.00557 8.46242 23.6169 -7.57098 -0.123392 1.44655 -0.628239 
3026 1 0.992607 8.84757 28.7785 -7.36157 -0.820354 -1.10233 0.402038 
3104 1 6.18262 3.33279 18.4461 -8.25812 0.832109 0.899637 0.91047 
3105 1 6.06966 2.87179 23.6945 -7.22748 2.02215 2.9607 2.14917 
3106 1 6.34701 3.32335 28.7307 -7.58942 -0.36291 -1.2486 1.68353 
3124 1 6.41372 8.91869 18.6804 -7.66854 -1.3884 -1.86838 -0.310332 
3125 1 6.64145 8.62746 23.8696 -7.41353 -1.71988 -0.166335 -0.00121873 
3126 1 6.19465 8.61465 29.0753 -7.55037 -1.23644 -1.11374 -0.0355193 
3204 1 11.56 3.72924 18.8755 -8.53869 -1.18266 -2.35539 1.45669 
3205 1 11.152 3.3395 24.2128 -7.85838 -0.0540436 0.0982763 -0.264199 
3206 1 11.7027 3.45277 29.1166 -7.83038 -1.82543 -0.535915 0.931786 
3224 1 11.3387 8.70249 18.3869 -7.39661 0.467879 0.418929 0.812851 
3225 1 11.764 8.81294 23.5998 -6.70529 0.402361 -0.820436 0.845612 
3226 1 11.3794 8.89768 28.9023 -7.57318 -1.78156 -3.0646 -0.135792 
3505 1 1.11404 0.778393 21.3791 -8.17659 -1.61862 0.0207071 -0.93234 
3506 1 1.47599 1.23079 26.4647 -7.58261 -0.502186 -0.923919 0.176231 
3507 1 0.810428 0.853153 31.645 -8.12855 1.17626 -0.419546 -0.609036 
3525 1 0.808693 6.12163 21.4592 -8.3958 0.897421 0.204583 -0.872469 
3526 1 1.17092 6.44967 26.6043 -8.13298 0.185823 0.168327 -0.0459913 
3527 1 0.656271 6.08242 31.7877 -7.64225 1.86217 -0.142438 0.173589 
3545 1 1.03567 11.5373 21.1555 -7.77868 -0.0979547 1.24989 -0.648942 
3546 1 1.34767 11.7174 26.5655 -7.45553 0.172485 0.451633 -1.50466 
3547 1 1.30811 11.4009 31.5327 -7.14013 -0.944151 -0.789893 1.04029 
3605 1 6.28975 1.19689 21.1858 -7.60734 -1.3238 -2.02477 -0.912719 
3606 1 6.37924 1.17881 26.2862 -7.58703 0.49156 -0.307169 -0.0313005 
3607 1 6.06792 0.794823 31.2779 -7.5875 0.556988 1.61925 1.6315 
3625 1 6.19271 6.34255 21.2527 -7.38047 -0.164472 -0.585815 -2.24667 
3626 1 6.55272 6.48391 26.4216 -7.22949 -0.691772 -0.778997 0.876939 
3627 1 6.15883 6.13604 31.6372 -8.01996 -0.790879 1.05897 0.463208 
3645 1 6.4131 11.7493 21.0976 -8.14159 0.103605 -1.91584 1.33892 
3646 1 6.55405 11.471 26.4133 -7.48976 -1.32715 0.268082 0.78528 
3647 1 6.45039 11.5983 31.6944 -7.40057 -2.19954 0.282689 -0.779763 
3705 1 11.5514 0.735978 21.1006 -7.91635 -1.44311 0.50881 -0.470507 
3706 1 11.5046 1.02573 26.3419 -8.57187 0.178771 -0.665956 -0.181341 
3707 1 11.2634 1.25987 31.6704 -7.66802 -0.27543 -0.439743 -1.08916 
3725 1 11.515 5.85348 21.06 -7.92318 -0.599906 1.59014 -0.51554 
3726 1 11.7255 6.4733 26.5816 -7.5625 -1.49524 -1.28222 0.795245 
3727 1 11.1836 6.42097 31.5919 -7.84137 1.45402 0.844196 3.00139 
3745 1 11.7964 11.4373 21.2191 -7.21606 -0.473524 0.249626 -0.328843 
3746 1 11.5476 11.7249 26.3498 -7.53414 -0.317562 0.00923841 0.765809 
3747 1 11.4716 11.8403 31.8816 -6.94172 1.14868 -0.154903 -1.01389 
5627 2 7.48788 7.43129 30.3769 -28.929 0.0905403 0.183674 0.19522 
5626 2 7.72518 7.47977 25.1284 -29.1541 -1.39621 1.32143 1.30886 
5625 2 7.55272 7.51642 20.1477 -28.7351 -0.536234 -0.137693 -2.17791 
5607 2 7.52605 2.1763 30.4019 -28.8874 -0.278053 -0.4776 -0.164318 
5606 2 7.57797 2.39598 25.3099 -28.9801 -0.0713337 -0.870559 -1.67047 
4645 2 4.92197 12.7324 22.6207 -28.9892 0.243736 1.02524 -1.53082 
5605 2 7.56844 2.16623 19.8426 -28.541 -0.53888 0.700893 1.05655 
5527 2 2.42969 7.53869 30.0687 -28.4885 -2.28406 -0.79083 2.60007 
5526 2 2.25644 7.62845 25.1074 -29.1077 -0.0103018 -0.995117 -0.039059 
4047 3 -0.236872 10.0352 30.3298 -25.4965 1.83373 -0.139137 0.0157731 
4746 2 10.2805 12.8119 27.8138 -29.6594 0.852572 0.312288 1.21159 
4025 2 -0.207879 4.73596 19.9713 -28.7082 0.0256697 -0.495886 -0.226599 
4125 3 4.9605 4.74139 19.7484 -24.3712 0.945072 0.755664 1.41716 
4126 3 4.94185 4.68299 25.0629 -25.1534 0.600538 0.820095 -2.00164 
4127 2 4.85263 4.6913 30.2075 -28.7081 -0.56573 0.832106 -1.29806 
4145 3 4.97894 10.1155 20.0126 -25.4027 0.260047 1.31058 -1.85007 
4146 2 4.99988 10.0966 25.42 -28.5279 1.36737 -0.17038 -2.14266 
4147 3 4.82638 10.1219 30.3954 -25.2129 1.70225 0.87514 -0.884122 
5706 2 12.6129 2.25119 25.0743 -28.6549 0.892368 0.0259358 -0.76589 
4647 2 5.0815 12.81 33.1399 -29.5417 -1.88911 -0.869835 -0.369306 
4026 2 -0.200776 4.71561 25.0593 -28.5695 -0.66889 0.767333 -0.919752 
4225 2 10.1315 4.86154 19.7246 -28.6271 -0.34599 2.03801 1.00432 
4226 2 10.1567 4.85106 25.2487 -28.8141 0.463812 -0.28354 0.343952 
4227 2 10.0795 4.90109 30.4259 -29.04 0.187149 0.158523 -0.299225 
4245 2 10.1831 10.0809 19.9437 -29.8454 -0.453113 0.904166 -1.11021 
4246 2 10.2133 10.366 25.166 -29.8742 2.03898 -2.03344 -1.11088 
4247 3 10.2026 10.1735 30.1973 -25.3339 -0.809908 1.28699 2.44518 
4646 2 4.96463 12.7818 27.8146 -29.7738 0.839245 0.739688 0.302673 
5525 3 2.2428 7.31334 20.0734 -24.693 -0.834149 1.17107 -0.80808 
5507 3 2.25935 1.91328 30.174 -24.8613 1.00466 0.612233 -0.0950765 
5506 2 2.31754 2.21084 24.9946 -29.4603 1.08307 0.0237475 -0.0714366 