Output produced by LAMMPSStructureWriter


6000 atoms
3 atom types
0.00000000 25.72500000 xlo xhi
0.00000000 25.72500000 ylo yhi
0.00000000 102.90000000 zlo zhi
0.00000000 0.00000000 0.00000000 xy xz yz



Masses

1 15.99939999999999962199 #O
2 91.22400000000000375167 #Zr
3 238.02890999999999621650 #U

Atoms

1 0 1 0.0 1.28625000000000033751 1.28625000000000033751 3.85875000000000012434
2 0 1 0.0 1.28625000000000055955 1.28625000000000055955 9.00375000000000014211
3 0 1 0.0 1.28625000000000100364 1.28625000000000100364 14.14875000000000149214
4 0 1 0.0 1.28625000000000122569 1.28625000000000122569 19.29375000000000284217
5 0 1 0.0 1.28625000000000166978 1.28625000000000166978 24.43874999999999886313
6 0 1 0.0 1.28625000000000189182 1.28625000000000189182 29.58374999999999843681
7 0 1 0.0 1.28625000000000233591 1.28625000000000233591 34.72875000000000511591
8 0 1 0.0 1.28625000000000255795 1.28625000000000255795 39.87375000000000113687
9 0 1 0.0 1.28625000000000278000 1.28625000000000278000 45.01875000000000426326
10 0 1 0.0 1.28625000000000322409 1.28625000000000322409 50.16375000000000028422
11 0 1 0.0 1.28625000000000344613 1.28625000000000344613 55.30875000000000341061
12 0 1 0.0 1.28625000000000389022 1.28625000000000389022 60.45375000000000653699
13 0 1 0.0 1.28625000000000411227 1.28625000000000411227 65.59874999999999545253
14 0 1 0.0 1.28625000000000455636 1.28625000000000455636 70.74375000000000568434
15 0 1 0.0 1.28625000000000477840 1.28625000000000477840 75.88875000000000170530
16 0 1 0.0 1.28625000000000500044 1.28625000000000500044 81.03374999999999772626
17 0 1 0.0 1.28625000000000544453 1.28625000000000544453 86.17875000000000795808
18 0 1 0.0 1.28625000000000566658 1.28625000000000566658 91.32375000000000397904
19 0 1 0.0 1.28625000000000611067 1.28625000000000611067 96.46875000000000000000
20 0 1 0.0 1.28625000000000633271 1.28625000000000633271 101.61375000000001023182
21 0 1 0.0 1.28625000000000078160 6.43125000000000035527 3.85875000000000012434
22 0 1 0.0 1.28625000000000100364 6.43125000000000124345 9.00375000000000014211
23 0 1 0.0 1.28625000000000144773 6.43125000000000124345 14.14875000000000149214
24 0 1 0.0 1.28625000000000166978 6.43125000000000124345 19.29375000000000284217
25 0 1 0.0 1.28625000000000211386 6.43125000000000213163 24.43874999999999886313
26 0 1 0.0 1.28625000000000233591 6.43125000000000213163 29.58374999999999843681
27 0 1 0.0 1.28625000000000278000 6.43125000000000213163 34.72875000000000511591
28 0 1 0.0 1.28625000000000300204 6.43125000000000301981 39.87375000000000113687
29 0 1 0.0 1.28625000000000322409 6.43125000000000301981 45.01875000000000426326
30 0 1 0.0 1.28625000000000366818 6.43125000000000301981 50.16375000000000028422
31 0 1 0.0 1.28625000000000389022 6.43125000000000390799 55.30875000000000341061
32 0 1 0.0 1.28625000000000433431 6.43125000000000390799 60.45375000000000653699
33 0 1 0.0 1.28625000000000455636 6.43125000000000479616 65.59874999999999545253
34 0 1 0.0 1.28625000000000500044 6.43125000000000479616 70.74375000000000568434
35 0 1 0.0 1.28625000000000522249 6.43125000000000479616 75.88875000000000170530
36 0 1 0.0 1.28625000000000544453 6.43125000000000568434 81.03374999999999772626
37 0 1 0.0 1.28625000000000588862 6.43125000000000568434 86.17875000000000795808
38 0 1 0.0 1.28625000000000611067 6.43125000000000568434 91.32375000000000397904
39 0 1 0.0 1.28625000000000655476 6.43125000000000657252 96.46875000000000000000
40 0 1 0.0 1.28625000000000677680 6.43125000000000657252 101.61375000000001023182
41 0 1 0.0 1.28625000000000100364 11.57625000000000170530 3.85875000000000012434
42 0 1 0.0 1.28625000000000122569 11.57625000000000170530 9.00375000000000014211
43 0 1 0.0 1.28625000000000166978 11.57625000000000170530 14.14875000000000149214
44 0 1 0.0 1.28625000000000189182 11.57625000000000348166 19.29375000000000284217
45 0 1 0.0 1.28625000000000233591 11.57625000000000348166 24.43874999999999886313
46 0 1 0.0 1.28625000000000255795 11.57625000000000348166 29.58374999999999843681
47 0 1 0.0 1.28625000000000300204 11.57625000000000348166 34.72875000000000511591
48 0 1 0.0 1.28625000000000322409 11.57625000000000348166 39.87375000000000113687
49 0 1 0.0 1.28625000000000344613 11.57625000000000525802 45.01875000000000426326
50 0 1 0.0 1.28625000000000389022 11.57625000000000525802 50.16375000000000028422
51 0 1 0.0 1.28625000000000411227 11.57625000000000525802 55.30875000000000341061
52 0 1 0.0 1.28625000000000455636 11.57625000000000525802 60.45375000000000653699
53 0 1 0.0 1.28625000000000477840 11.57625000000000525802 65.59874999999999545253
54 0 1 0.0 1.28625000000000522249 11.57625000000000525802 70.74375000000000568434
55 0 1 0.0 1.28625000000000544453 11.57625000000000703437 75.88875000000000170530
56 0 1 0.0 1.28625000000000566658 11.57625000000000703437 81.03374999999999772626
57 0 1 0.0 1.28625000000000611067 11.57625000000000703437 86.17875000000000795808
58 0 1 0.0 1.28625000000000633271 11.57625000000000703437 91.32375000000000397904
59 0 1 0.0 1.28625000000000677680 11.57625000000000703437 96.46875000000000000000
60 0 1 0.0 1.28625000000000699885 11.57625000000000881073 101.61375000000001023182
61 0 1 0.0 1.28625000000000144773 16.72125000000000127898 3.85875000000000012434
62 0 1 0.0 1.28625000000000166978 16.72125000000000127898 9.00375000000000014211
63 0 1 0.0 1.28625000000000211386 16.72125000000000127898 14.14875000000000149214
64 0 1 0.0 1.28625000000000233591 16.72125000000000127898 19.29375000000000284217
65 0 1 0.0 1.28625000000000278000 16.72125000000000127898 24.43874999999999886313
66 0 1 0.0 1.28625000000000300204 16.72125000000000483169 29.58374999999999843681
67 0 1 0.0 1.28625000000000344613 16.72125000000000483169 34.72875000000000511591
68 0 1 0.0 1.28625000000000366818 16.72125000000000483169 39.87375000000000113687
69 0 1 0.0 1.28625000000000389022 16.72125000000000483169 45.01875000000000426326
70 0 1 0.0 1.28625000000000433431 16.72125000000000483169 50.16375000000000028422
71 0 1 0.0 1.28625000000000455636 16.72125000000000483169 55.30875000000000341061
72 0 1 0.0 1.28625000000000500044 16.72125000000000483169 60.45375000000000653699
73 0 1 0.0 1.28625000000000522249 16.72125000000000483169 65.59874999999999545253
74 0 1 0.0 1.28625000000000566658 16.72125000000000483169 70.74375000000000568434
75 0 1 0.0 1.28625000000000588862 16.72125000000000483169 75.88875000000000170530
76 0 1 0.0 1.28625000000000611067 16.72125000000000483169 81.03374999999999772626
77 0 1 0.0 1.28625000000000655476 16.72125000000000483169 86.17875000000000795808
78 0 1 0.0 1.28625000000000677680 16.72125000000000838440 91.32375000000000397904
79 0 1 0.0 1.28625000000000722089 16.72125000000000838440 96.46875000000000000000
80 0 1 0.0 1.28625000000000744294 16.72125000000000838440 101.61375000000001023182
81 0 1 0.0 1.28625000000000166978 21.86625000000000085265 3.85875000000000012434
82 0 1 0.0 1.28625000000000189182 21.86625000000000085265 9.00375000000000014211
83 0 1 0.0 1.28625000000000233591 21.86625000000000085265 14.14875000000000149214
84 0 1 0.0 1.28625000000000255795 21.86625000000000085265 19.29375000000000284217
85 0 1 0.0 1.28625000000000300204 21.86625000000000085265 24.43874999999999886313
86 0 1 0.0 1.28625000000000322409 21.86625000000000440536 29.58374999999999843681
87 0 1 0.0 1.28625000000000366818 21.86625000000000440536 34.72875000000000511591
88 0 1 0.0 1.28625000000000389022 21.86625000000000440536 39.87375000000000113687
89 0 1 0.0 1.28625000000000411227 21.86625000000000440536 45.01875000000000426326
90 0 1 0.0 1.28625000000000455636 21.86625000000000440536 50.16375000000000028422
91 0 1 0.0 1.28625000000000477840 21.86625000000000440536 55.30875000000000341061
92 0 1 0.0 1.28625000000000522249 21.86625000000000440536 60.45375000000000653699
93 0 1 0.0 1.28625000000000544453 21.86625000000000440536 65.59874999999999545253
94 0 1 0.0 1.28625000000000588862 21.86625000000000440536 70.74375000000000568434
95 0 1 0.0 1.28625000000000611067 21.86625000000000440536 75.88875000000000170530
96 0 1 0.0 1.28625000000000633271 21.86625000000000440536 81.03374999999999772626
97 0 1 0.0 1.28625000000000677680 21.86625000000000440536 86.17875000000000795808
98 0 1 0.0 1.28625000000000699885 21.86625000000000795808 91.32375000000000397904
99 0 1 0.0 1.28625000000000744294 21.86625000000000795808 96.46875000000000000000
100 0 1 0.0 1.28625000000000766498 21.86625000000000795808 101.61375000000001023182
101 0 1 0.0 6.43125000000000035527 1.28625000000000033751 3.85875000000000012434
102 0 1 0.0 6.43125000000000124345 1.28625000000000055955 9.00375000000000014211
103 0 1 0.0 6.43125000000000124345 1.28625000000000100364 14.14875000000000149214
104 0 1 0.0 6.43125000000000124345 1.28625000000000122569 19.29375000000000284217
105 0 1 0.0 6.43125000000000213163 1.28625000000000166978 24.43874999999999886313
106 0 1 0.0 6.43125000000000213163 1.28625000000000189182 29.58374999999999843681
107 0 1 0.0 6.43125000000000213163 1.28625000000000233591 34.72875000000000511591
108 0 1 0.0 6.43125000000000301981 1.28625000000000255795 39.87375000000000113687
109 0 1 0.0 6.43125000000000301981 1.28625000000000278000 45.01875000000000426326
110 0 1 0.0 6.43125000000000301981 1.28625000000000322409 50.16375000000000028422
111 0 1 0.0 6.43125000000000390799 1.28625000000000344613 55.30875000000000341061
112 0 1 0.0 6.43125000000000390799 1.28625000000000389022 60.45375000000000653699
113 0 1 0.0 6.43125000000000479616 1.28625000000000411227 65.59874999999999545253
114 0 1 0.0 6.43125000000000479616 1.28625000000000455636 70.74375000000000568434
115 0 1 0.0 6.43125000000000479616 1.28625000000000477840 75.88875000000000170530
116 0 1 0.0 6.43125000000000568434 1.28625000000000500044 81.03374999999999772626
117 0 1 0.0 6.43125000000000568434 1.28625000000000544453 86.17875000000000795808
118 0 1 0.0 6.43125000000000568434 1.28625000000000566658 91.32375000000000397904
119 0 1 0.0 6.43125000000000657252 1.28625000000000611067 96.46875000000000000000
120 0 1 0.0 6.43125000000000657252 1.28625000000000633271 101.61375000000001023182
121 0 1 0.0 6.43125000000000035527 6.43125000000000035527 3.85875000000000012434
122 0 1 0.0 6.43125000000000124345 6.43125000000000124345 9.00375000000000014211
123 0 1 0.0 6.43125000000000124345 6.43125000000000124345 14.14875000000000149214
124 0 1 0.0 6.43125000000000124345 6.43125000000000124345 19.29375000000000284217
125 0 1 0.0 6.43125000000000213163 6.43125000000000213163 24.43874999999999886313
126 0 1 0.0 6.43125000000000213163 6.43125000000000213163 29.58374999999999843681
127 0 1 0.0 6.43125000000000213163 6.43125000000000213163 34.72875000000000511591
128 0 1 0.0 6.43125000000000301981 6.43125000000000301981 39.87375000000000113687
129 0 1 0.0 6.43125000000000301981 6.43125000000000301981 45.01875000000000426326
130 0 1 0.0 6.43125000000000301981 6.43125000000000301981 50.16375000000000028422
131 0 1 0.0 6.43125000000000390799 6.43125000000000390799 55.30875000000000341061
132 0 1 0.0 6.43125000000000390799 6.43125000000000390799 60.45375000000000653699
133 0 1 0.0 6.43125000000000479616 6.43125000000000479616 65.59874999999999545253
134 0 1 0.0 6.43125000000000479616 6.43125000000000479616 70.74375000000000568434
135 0 1 0.0 6.43125000000000479616 6.43125000000000479616 75.88875000000000170530
136 0 1 0.0 6.43125000000000568434 6.43125000000000568434 81.03374999999999772626
137 0 1 0.0 6.43125000000000568434 6.43125000000000568434 86.17875000000000795808
138 0 1 0.0 6.43125000000000568434 6.43125000000000568434 91.32375000000000397904
139 0 1 0.0 6.43125000000000657252 6.43125000000000657252 96.46875000000000000000
140 0 1 0.0 6.43125000000000657252 6.43125000000000657252 101.61375000000001023182
141 0 1 0.0 6.43125000000000124345 11.57625000000000170530 3.85875000000000012434
142 0 1 0.0 6.43125000000000213163 11.57625000000000170530 9.00375000000000014211
143 0 1 0.0 6.43125000000000213163 11.57625000000000170530 14.14875000000000149214
144 0 1 0.0 6.43125000000000213163 11.57625000000000348166 19.29375000000000284217
145 0 1 0.0 6.43125000000000301981 11.57625000000000348166 24.43874999999999886313
146 0 1 0.0 6.43125000000000301981 11.57625000000000348166 29.58374999999999843681
147 0 1 0.0 6.43125000000000301981 11.57625000000000348166 34.72875000000000511591
148 0 1 0.0 6.43125000000000390799 11.57625000000000348166 39.87375000000000113687
149 0 1 0.0 6.43125000000000390799 11.57625000000000525802 45.01875000000000426326
150 0 1 0.0 6.43125000000000390799 11.57625000000000525802 50.16375000000000028422
151 0 1 0.0 6.43125000000000479616 11.57625000000000525802 55.30875000000000341061
152 0 1 0.0 6.43125000000000479616 11.57625000000000525802 60.45375000000000653699
153 0 1 0.0 6.43125000000000568434 11.57625000000000525802 65.59874999999999545253
154 0 1 0.0 6.43125000000000568434 11.57625000000000525802 70.74375000000000568434
155 0 1 0.0 6.43125000000000568434 11.57625000000000703437 75.88875000000000170530
156 0 1 0.0 6.43125000000000657252 11.57625000000000703437 81.03374999999999772626
157 0 1 0.0 6.43125000000000657252 11.57625000000000703437 86.17875000000000795808
158 0 1 0.0 6.43125000000000657252 11.57625000000000703437 91.32375000000000397904
159 0 1 0.0 6.43125000000000746070 11.57625000000000703437 96.46875000000000000000
160 0 1 0.0 6.43125000000000746070 11.57625000000000881073 101.61375000000001023182
161 0 1 0.0 6.43125000000000124345 16.72125000000000127898 3.85875000000000012434
162 0 1 0.0 6.43125000000000213163 16.72125000000000127898 9.00375000000000014211
163 0 1 0.0 6.43125000000000213163 16.72125000000000127898 14.14875000000000149214
164 0 1 0.0 6.43125000000000213163 16.72125000000000127898 19.29375000000000284217
165 0 1 0.0 6.43125000000000301981 16.72125000000000127898 24.43874999999999886313
166 0 1 0.0 6.43125000000000301981 16.72125000000000483169 29.58374999999999843681
167 0 1 0.0 6.43125000000000301981 16.72125000000000483169 34.72875000000000511591
168 0 1 0.0 6.43125000000000390799 16.72125000000000483169 39.87375000000000113687
169 0 1 0.0 6.43125000000000390799 16.72125000000000483169 45.01875000000000426326
170 0 1 0.0 6.43125000000000390799 16.72125000000000483169 50.16375000000000028422
171 0 1 0.0 6.43125000000000479616 16.72125000000000483169 55.30875000000000341061
172 0 1 0.0 6.43125000000000479616 16.72125000000000483169 60.45375000000000653699
173 0 1 0.0 6.43125000000000568434 16.72125000000000483169 65.59874999999999545253
174 0 1 0.0 6.43125000000000568434 16.72125000000000483169 70.74375000000000568434
175 0 1 0.0 6.43125000000000568434 16.72125000000000483169 75.88875000000000170530
176 0 1 0.0 6.43125000000000657252 16.72125000000000483169 81.03374999999999772626
177 0 1 0.0 6.43125000000000657252 16.72125000000000483169 86.17875000000000795808
178 0 1 0.0 6.43125000000000657252 16.72125000000000838440 91.32375000000000397904
179 0 1 0.0 6.43125000000000746070 16.72125000000000838440 96.46875000000000000000
180 0 1 0.0 6.43125000000000746070 16.72125000000000838440 101.61375000000001023182
181 0 1 0.0 6.43125000000000213163 21.86625000000000085265 3.85875000000000012434
182 0 1 0.0 6.43125000000000301981 21.86625000000000085265 9.00375000000000014211
183 0 1 0.0 6.43125000000000301981 21.86625000000000085265 14.14875000000000149214
184 0 1 0.0 6.43125000000000301981 21.86625000000000085265 19.29375000000000284217
185 0 1 0.0 6.43125000000000390799 21.86625000000000085265 24.43874999999999886313
186 0 1 0.0 6.43125000000000390799 21.86625000000000440536 29.58374999999999843681
187 0 1 0.0 6.43125000000000390799 21.86625000000000440536 34.72875000000000511591
188 0 1 0.0 6.43125000000000479616 21.86625000000000440536 39.87375000000000113687
189 0 1 0.0 6.43125000000000479616 21.86625000000000440536 45.01875000000000426326
190 0 1 0.0 6.43125000000000479616 21.86625000000000440536 50.16375000000000028422
191 0 1 0.0 6.43125000000000568434 21.86625000000000440536 55.30875000000000341061
192 0 1 0.0 6.43125000000000568434 21.86625000000000440536 60.45375000000000653699
193 0 1 0.0 6.43125000000000657252 21.86625000000000440536 65.59874999999999545253
194 0 1 0.0 6.43125000000000657252 21.86625000000000440536 70.74375000000000568434
195 0 1 0.0 6.43125000000000657252 21.86625000000000440536 75.88875000000000170530
196 0 1 0.0 6.43125000000000746070 21.86625000000000440536 81.03374999999999772626
197 0 1 0.0 6.43125000000000746070 21.86625000000000440536 86.17875000000000795808
198 0 1 0.0 6.43125000000000746070 21.86625000000000795808 91.32375000000000397904
199 0 1 0.0 6.43125000000000834888 21.86625000000000795808 96.46875000000000000000
200 0 1 0.0 6.43125000000000834888 21.86625000000000795808 101.61375000000001023182
201 0 1 0.0 11.57625000000000170530 1.28625000000000033751 3.85875000000000012434
202 0 1 0.0 11.57625000000000170530 1.28625000000000055955 9.00375000000000014211
203 0 1 0.0 11.57625000000000170530 1.28625000000000100364 14.14875000000000149214
204 0 1 0.0 11.57625000000000348166 1.28625000000000122569 19.29375000000000284217
205 0 1 0.0 11.57625000000000348166 1.28625000000000166978 24.43874999999999886313
206 0 1 0.0 11.57625000000000348166 1.28625000000000189182 29.58374999999999843681
207 0 1 0.0 11.57625000000000348166 1.28625000000000233591 34.72875000000000511591
208 0 1 0.0 11.57625000000000348166 1.28625000000000255795 39.87375000000000113687
209 0 1 0.0 11.57625000000000525802 1.28625000000000278000 45.01875000000000426326
210 0 1 0.0 11.57625000000000525802 1.28625000000000322409 50.16375000000000028422
211 0 1 0.0 11.57625000000000525802 1.28625000000000344613 55.30875000000000341061
212 0 1 0.0 11.57625000000000525802 1.28625000000000389022 60.45375000000000653699
213 0 1 0.0 11.57625000000000525802 1.28625000000000411227 65.59874999999999545253
214 0 1 0.0 11.57625000000000525802 1.28625000000000455636 70.74375000000000568434
215 0 1 0.0 11.57625000000000703437 1.28625000000000477840 75.88875000000000170530
216 0 1 0.0 11.57625000000000703437 1.28625000000000500044 81.03374999999999772626
217 0 1 0.0 11.57625000000000703437 1.28625000000000544453 86.17875000000000795808
218 0 1 0.0 11.57625000000000703437 1.28625000000000566658 91.32375000000000397904
219 0 1 0.0 11.57625000000000703437 1.28625000000000611067 96.46875000000000000000
220 0 1 0.0 11.57625000000000881073 1.28625000000000633271 101.61375000000001023182
221 0 1 0.0 11.57625000000000170530 6.43125000000000035527 3.85875000000000012434
222 0 1 0.0 11.57625000000000170530 6.43125000000000124345 9.00375000000000014211
223 0 1 0.0 11.57625000000000170530 6.43125000000000124345 14.14875000000000149214
224 0 1 0.0 11.57625000000000348166 6.43125000000000124345 19.29375000000000284217
225 0 1 0.0 11.57625000000000348166 6.43125000000000213163 24.43874999999999886313
226 0 1 0.0 11.57625000000000348166 6.43125000000000213163 29.58374999999999843681
227 0 1 0.0 11.57625000000000348166 6.43125000000000213163 34.72875000000000511591
228 0 1 0.0 11.57625000000000348166 6.43125000000000301981 39.87375000000000113687
229 0 1 0.0 11.57625000000000525802 6.43125000000000301981 45.01875000000000426326
230 0 1 0.0 11.57625000000000525802 6.43125000000000301981 50.16375000000000028422
231 0 1 0.0 11.57625000000000525802 6.43125000000000390799 55.30875000000000341061
232 0 1 0.0 11.57625000000000525802 6.43125000000000390799 60.45375000000000653699
233 0 1 0.0 11.57625000000000525802 6.43125000000000479616 65.59874999999999545253
234 0 1 0.0 11.57625000000000525802 6.43125000000000479616 70.74375000000000568434
235 0 1 0.0 11.57625000000000703437 6.43125000000000479616 75.88875000000000170530
236 0 1 0.0 11.57625000000000703437 6.43125000000000568434 81.03374999999999772626
237 0 1 0.0 11.57625000000000703437 6.43125000000000568434 86.17875000000000795808
238 0 1 0.0 11.57625000000000703437 6.43125000000000568434 91.32375000000000397904
239 0 1 0.0 11.57625000000000703437 6.43125000000000657252 96.46875000000000000000
240 0 1 0.0 11.57625000000000881073 6.43125000000000657252 101.61375000000001023182
241 0 1 0.0 11.57625000000000170530 11.57625000000000170530 3.85875000000000012434
242 0 1 0.0 11.57625000000000170530 11.57625000000000170530 9.00375000000000014211
243 0 1 0.0 11.57625000000000170530 11.57625000000000170530 14.14875000000000149214
244 0 1 0.0 11.57625000000000348166 11.57625000000000348166 19.29375000000000284217
245 0 1 0.0 11.57625000000000348166 11.57625000000000348166 24.43874999999999886313
246 0 1 0.0 11.57625000000000348166 11.57625000000000348166 29.58374999999999843681
247 0 1 0.0 11.57625000000000348166 11.57625000000000348166 34.72875000000000511591
248 0 1 0.0 11.57625000000000348166 11.57625000000000348166 39.87375000000000113687
249 0 1 0.0 11.57625000000000525802 11.57625000000000525802 45.01875000000000426326
250 0 1 0.0 11.57625000000000525802 11.57625000000000525802 50.16375000000000028422
251 0 1 0.0 11.57625000000000525802 11.57625000000000525802 55.30875000000000341061
252 0 1 0.0 11.57625000000000525802 11.57625000000000525802 60.45375000000000653699
253 0 1 0.0 11.57625000000000525802 11.57625000000000525802 65.59874999999999545253
254 0 1 0.0 11.57625000000000525802 11.57625000000000525802 70.74375000000000568434
255 0 1 0.0 11.57625000000000703437 11.57625000000000703437 75.88875000000000170530
256 0 1 0.0 11.57625000000000703437 11.57625000000000703437 81.03374999999999772626
257 0 1 0.0 11.57625000000000703437 11.57625000000000703437 86.17875000000000795808
258 0 1 0.0 11.57625000000000703437 11.57625000000000703437 91.32375000000000397904
259 0 1 0.0 11.57625000000000703437 11.57625000000000703437 96.46875000000000000000
260 0 1 0.0 11.57625000000000881073 11.57625000000000881073 101.61375000000001023182
261 0 1 0.0 11.57625000000000348166 16.72125000000000127898 3.85875000000000012434
262 0 1 0.0 11.57625000000000348166 16.72125000000000127898 9.00375000000000014211
263 0 1 0.0 11.57625000000000348166 16.72125000000000127898 14.14875000000000149214
264 0 1 0.0 11.57625000000000525802 16.72125000000000127898 19.29375000000000284217
265 0 1 0.0 11.57625000000000525802 16.72125000000000127898 24.43874999999999886313
266 0 1 0.0 11.57625000000000525802 16.72125000000000483169 29.58374999999999843681
267 0 1 0.0 11.57625000000000525802 16.72125000000000483169 34.72875000000000511591
268 0 1 0.0 11.57625000000000525802 16.72125000000000483169 39.87375000000000113687
269 0 1 0.0 11.57625000000000703437 16.72125000000000483169 45.01875000000000426326
270 0 1 0.0 11.57625000000000703437 16.72125000000000483169 50.16375000000000028422
271 0 1 0.0 11.57625000000000703437 16.72125000000000483169 55.30875000000000341061
272 0 1 0.0 11.57625000000000703437 16.72125000000000483169 60.45375000000000653699
273 0 1 0.0 11.57625000000000703437 16.72125000000000483169 65.59874999999999545253
274 0 1 0.0 11.57625000000000703437 16.72125000000000483169 70.74375000000000568434
275 0 1 0.0 11.57625000000000881073 16.72125000000000483169 75.88875000000000170530
276 0 1 0.0 11.57625000000000881073 16.72125000000000483169 81.03374999999999772626
277 0 1 0.0 11.57625000000000881073 16.72125000000000483169 86.17875000000000795808
278 0 1 0.0 11.57625000000000881073 16.72125000000000838440 91.32375000000000397904
279 0 1 0.0 11.57625000000000881073 16.72125000000000838440 96.46875000000000000000
280 0 1 0.0 11.57625000000001058709 16.72125000000000838440 101.61375000000001023182
281 0 1 0.0 11.57625000000000348166 21.86625000000000085265 3.85875000000000012434
282 0 1 0.0 11.57625000000000348166 21.86625000000000085265 9.00375000000000014211
283 0 1 0.0 11.57625000000000348166 21.86625000000000085265 14.14875000000000149214
284 0 1 0.0 11.57625000000000525802 21.86625000000000085265 19.29375000000000284217
285 0 1 0.0 11.57625000000000525802 21.86625000000000085265 24.43874999999999886313
286 0 1 0.0 11.57625000000000525802 21.86625000000000440536 29.58374999999999843681
287 0 1 0.0 11.57625000000000525802 21.86625000000000440536 34.72875000000000511591
288 0 1 0.0 11.57625000000000525802 21.86625000000000440536 39.87375000000000113687
289 0 1 0.0 11.57625000000000703437 21.86625000000000440536 45.01875000000000426326
290 0 1 0.0 11.57625000000000703437 21.86625000000000440536 50.16375000000000028422
291 0 1 0.0 11.57625000000000703437 21.86625000000000440536 55.30875000000000341061
292 0 1 0.0 11.57625000000000703437 21.86625000000000440536 60.45375000000000653699
293 0 1 0.0 11.57625000000000703437 21.86625000000000440536 65.59874999999999545253
294 0 1 0.0 11.57625000000000703437 21.86625000000000440536 70.74375000000000568434
295 0 1 0.0 11.57625000000000881073 21.86625000000000440536 75.88875000000000170530
296 0 1 0.0 11.57625000000000881073 21.86625000000000440536 81.03374999999999772626
297 0 1 0.0 11.57625000000000881073 21.86625000000000440536 86.17875000000000795808
298 0 1 0.0 11.57625000000000881073 21.86625000000000795808 91.32375000000000397904
299 0 1 0.0 11.57625000000000881073 21.86625000000000795808 96.46875000000000000000
300 0 1 0.0 11.57625000000001058709 21.86625000000000795808 101.61375000000001023182
301 0 1 0.0 16.72125000000000127898 1.28625000000000033751 3.85875000000000012434
302 0 1 0.0 16.72125000000000127898 1.28625000000000055955 9.00375000000000014211
303 0 1 0.0 16.72125000000000127898 1.28625000000000100364 14.14875000000000149214
304 0 1 0.0 16.72125000000000127898 1.28625000000000122569 19.29375000000000284217
305 0 1 0.0 16.72125000000000127898 1.28625000000000166978 24.43874999999999886313
306 0 1 0.0 16.72125000000000483169 1.28625000000000189182 29.58374999999999843681
307 0 1 0.0 16.72125000000000483169 1.28625000000000233591 34.72875000000000511591
308 0 1 0.0 16.72125000000000483169 1.28625000000000255795 39.87375000000000113687
309 0 1 0.0 16.72125000000000483169 1.28625000000000278000 45.01875000000000426326
310 0 1 0.0 16.72125000000000483169 1.28625000000000322409 50.16375000000000028422
311 0 1 0.0 16.72125000000000483169 1.28625000000000344613 55.30875000000000341061
312 0 1 0.0 16.72125000000000483169 1.28625000000000389022 60.45375000000000653699
313 0 1 0.0 16.72125000000000483169 1.28625000000000411227 65.59874999999999545253
314 0 1 0.0 16.72125000000000483169 1.28625000000000455636 70.74375000000000568434
315 0 1 0.0 16.72125000000000483169 1.28625000000000477840 75.88875000000000170530
316 0 1 0.0 16.72125000000000483169 1.28625000000000500044 81.03374999999999772626
317 0 1 0.0 16.72125000000000483169 1.28625000000000544453 86.17875000000000795808
318 0 1 0.0 16.72125000000000838440 1.28625000000000566658 91.32375000000000397904
319 0 1 0.0 16.72125000000000838440 1.28625000000000611067 96.46875000000000000000
320 0 1 0.0 16.72125000000000838440 1.28625000000000633271 101.61375000000001023182
321 0 1 0.0 16.72125000000000127898 6.43125000000000035527 3.85875000000000012434
322 0 1 0.0 16.72125000000000127898 6.43125000000000124345 9.00375000000000014211
323 0 1 0.0 16.72125000000000127898 6.43125000000000124345 14.14875000000000149214
324 0 1 0.0 16.72125000000000127898 6.43125000000000124345 19.29375000000000284217
325 0 1 0.0 16.72125000000000127898 6.43125000000000213163 24.43874999999999886313
326 0 1 0.0 16.72125000000000483169 6.43125000000000213163 29.58374999999999843681
327 0 1 0.0 16.72125000000000483169 6.43125000000000213163 34.72875000000000511591
328 0 1 0.0 16.72125000000000483169 6.43125000000000301981 39.87375000000000113687
329 0 1 0.0 16.72125000000000483169 6.43125000000000301981 45.01875000000000426326
330 0 1 0.0 16.72125000000000483169 6.43125000000000301981 50.16375000000000028422
331 0 1 0.0 16.72125000000000483169 6.43125000000000390799 55.30875000000000341061
332 0 1 0.0 16.72125000000000483169 6.43125000000000390799 60.45375000000000653699
333 0 1 0.0 16.72125000000000483169 6.43125000000000479616 65.59874999999999545253
334 0 1 0.0 16.72125000000000483169 6.43125000000000479616 70.74375000000000568434
335 0 1 0.0 16.72125000000000483169 6.43125000000000479616 75.88875000000000170530
336 0 1 0.0 16.72125000000000483169 6.43125000000000568434 81.03374999999999772626
337 0 1 0.0 16.72125000000000483169 6.43125000000000568434 86.17875000000000795808
338 0 1 0.0 16.72125000000000838440 6.43125000000000568434 91.32375000000000397904
339 0 1 0.0 16.72125000000000838440 6.43125000000000657252 96.46875000000000000000
340 0 1 0.0 16.72125000000000838440 6.43125000000000657252 101.61375000000001023182
341 0 1 0.0 16.72125000000000127898 11.57625000000000170530 3.85875000000000012434
342 0 1 0.0 16.72125000000000127898 11.57625000000000170530 9.00375000000000014211
343 0 1 0.0 16.72125000000000127898 11.57625000000000170530 14.14875000000000149214
344 0 1 0.0 16.72125000000000127898 11.57625000000000348166 19.29375000000000284217
345 0 1 0.0 16.72125000000000127898 11.57625000000000348166 24.43874999999999886313
346 0 1 0.0 16.72125000000000483169 11.57625000000000348166 29.58374999999999843681
347 0 1 0.0 16.72125000000000483169 11.57625000000000348166 34.72875000000000511591
348 0 1 0.0 16.72125000000000483169 11.57625000000000348166 39.87375000000000113687
349 0 1 0.0 16.72125000000000483169 11.57625000000000525802 45.01875000000000426326
350 0 1 0.0 16.72125000000000483169 11.57625000000000525802 50.16375000000000028422
351 0 1 0.0 16.72125000000000483169 11.57625000000000525802 55.30875000000000341061
352 0 1 0.0 16.72125000000000483169 11.57625000000000525802 60.45375000000000653699
353 0 1 0.0 16.72125000000000483169 11.57625000000000525802 65.59874999999999545253
354 0 1 0.0 16.72125000000000483169 11.57625000000000525802 70.74375000000000568434
355 0 1 0.0 16.72125000000000483169 11.57625000000000703437 75.88875000000000170530
356 0 1 0.0 16.72125000000000483169 11.57625000000000703437 81.03374999999999772626
357 0 1 0.0 16.72125000000000483169 11.57625000000000703437 86.17875000000000795808
358 0 1 0.0 16.72125000000000838440 11.57625000000000703437 91.32375000000000397904
359 0 1 0.0 16.72125000000000838440 11.57625000000000703437 96.46875000000000000000