# LAMMPS data file written by OVITO Basic 3.8.4

4 atoms
2 atom types

0.0 3.885 xlo xhi
0.0 3.885 ylo yhi
0.0 3.885 zlo zhi

Masses

1 186.207  # Re
2 195.08   # Pt

Atoms  # atomic

1 2 0.0 1.9425 1.9425
2 2 1.9425 1.9425 0.0
3 2 1.9425 0.0 1.9425
4 1 0.0 0.0 0.0
