LAMMPS (18 Jun 2019)
OMP_NUM_THREADS environment is not set. Defaulting to 1 thread. (../comm.cpp:88)
  using 1 OpenMP thread(s) per MPI task
#LAMMPS Input file
# Title
clear
OMP_NUM_THREADS environment is not set. Defaulting to 1 thread. (../comm.cpp:88)
  using 1 OpenMP thread(s) per MPI task

# ----- condition settings -----

variable    temp index 298.0 # K

variable    pres index 1.0 # 0.1 MPa (bar units)


# -----other settings -----
variable        fs    index 0.0010 # 1.0 fs
variable        ps    index 20 # 20 ps
variable        nstep equal ${ps}/${fs}
variable        nstep equal 20/${fs}
variable        nstep equal 20/0.0010
variable        tdamp equal ${fs}*100
variable        tdamp equal 0.0010*100
variable        pdamp equal ${fs}*1000
variable        pdamp equal 0.0010*1000

# ----- Structure settings -----
units           metal
atom_style      atomic
dimension       3
boundary        p p p
#read_data       data_5x4x4.in
read_data       data.in
  orthogonal box = (-9.00663 -7.20531 -7.20531) to (9.00663 7.20531 7.20531)
  1 by 1 by 1 MPI processor grid
  reading atoms ...
  320 atoms
  reading velocities ...
  320 velocities
  read_data CPU = 0.0139549 secs
replicate       1 1 1
  orthogonal box = (-9.00663 -7.20531 -7.20531) to (9.00663 7.20531 7.20531)
  1 by 1 by 1 MPI processor grid
  320 atoms
  replicate CPU = 0.00598407 secs
timestep        ${fs}
timestep        0.0010

# ----- Potential settings (MEAM)-----
# -----HEA (Co-Ni-Cr-Fe-Mn)
pair_style      meam/c
pair_coeff      * * ./meam/CoNiCrFeMn.HEA.library.meam Co Ni Cr Fe Mn ./meam/CoNiCrFeMn.HEA.meam Co Ni Cr Fe Mn
# -----(Al-Si-Mg-Cu-Fe)
#pair_style      meam/c
#pair_coeff      * * ./meam/Jelinek_2012_meamf AlS SiS MgS CuS FeS ./meam/Jelinek_2012_meam.alsimgcufe AlS SiS MgS CuS

# ----- Relax calculation (0 K) -----
thermo_style    custom step etotal temp lx vol press
thermo          10
fix             f1 all box/relax iso 0.0
minimize        1.0e-10 0.0 1000 100000
WARNING: Using 'neigh_modify every 1 delay 0 check yes' setting during minimization (../min.cpp:168)
Neighbor list info ...
  update every 1 steps, delay 0 steps, check yes
  max neighbors/atom: 2000, page size: 100000
  master list distance cutoff = 6.5
  ghost atom cutoff = 6.5
  binsize = 3.25, bins = 6 5 5
  2 neighbor lists, perpetual/occasional/extra = 2 0 0
  (1) pair meam/c, perpetual
      attributes: full, newton on
      pair build: full/bin/atomonly
      stencil: full/bin/3d
      bin: standard
  (2) pair meam/c, perpetual, half/full from (1)
      attributes: half, newton on
      pair build: halffull/newton
      stencil: none
      bin: none
Per MPI rank memory allocation (min/avg/max) = 9.792 | 9.792 | 9.792 Mbytes
Step TotEng Temp Lx Volume Press 
       0   -1280.3195          298    18.013268    3740.7399    16958.516 
      10   -1280.3976          298    18.031281    3751.9733    11433.718 
      20   -1280.4408          298    18.049295    3763.2293    5967.6704 
      30   -1280.5281          298      18.0565    3767.7379    3675.1544 
      40   -1280.7554          298      18.0565    3767.7379    3332.0596 
      50   -1280.8917          298      18.0565    3767.7379    3126.4194 
      60   -1282.6079          298    18.052897    3765.4831     1612.596 
      70    -1282.687          298    18.045692    3760.9763    3662.5162 
      80   -1282.9007          298    18.045692    3760.9763     3341.657 
      90   -1283.0084          298    18.045692    3760.9763    3179.9488 
     100   -1283.1377          298    18.045692    3760.9763    2985.8947 
     110   -1283.3193          298    18.042089    3758.7242    3798.8166 
     120   -1283.4123          298    18.042089    3758.7242    3659.6277 
     130   -1283.6632          298    18.042089    3758.7242    3284.1729 
     140   -1283.7562          298    18.042089    3758.7242    3145.0765 
     150   -1283.9182          298    18.042089    3758.7242    2902.9888 
     160   -1284.0441          298    18.038487     3756.473    3803.9674 
     170   -1284.1284          298    18.038487     3756.473    3679.0599 
     180   -1284.2662          298    18.038487     3756.473    3474.9868 
     190   -1284.4477          298    18.038487     3756.473    3206.2085 
     200   -1284.5378          298    18.038487     3756.473    3072.7902 
     210   -1284.7175          298    18.034884    3754.2227    3895.9828 
     220   -1284.8009          298    18.034884    3754.2227    3772.8871 
     230   -1284.8789          298    18.034884    3754.2227     3657.868 
     240   -1285.0678          298    18.034884    3754.2227    3380.6189 
     250   -1285.1557          298    18.034884    3754.2227    3252.0074 
     260   -1285.2309          298    18.034884    3754.2227    3142.0496 
     270   -1285.3369          298    18.034884    3754.2227    2987.1913 
     280   -1285.4885          298    18.031281    3751.9733    3859.8241 
     290   -1285.5589          298    18.031281    3751.9733    3757.1558 
     300   -1285.6299          298    18.031281    3751.9733    3653.5321 
     310   -1285.7771          298    18.031281    3751.9733         3439 
     320    -1285.878          298    18.031281    3751.9733    3291.9937 
     330   -1285.9455          298    18.031281    3751.9733    3193.8672 
     340   -1286.0172          298    18.031281    3751.9733    3089.4701 
     350   -1286.1867          298    18.027679    3749.7249    3945.6216 
     360   -1286.2634          298    18.027679    3749.7249    3836.5499 
     370   -1286.3243          298    18.027679    3749.7249    3749.9956 
     380   -1286.3876          298    18.027679    3749.7249    3660.0066 
     390   -1286.4862          298    18.027679    3749.7249    3519.8522 
     400   -1286.6341          298    18.027679    3749.7249    3309.6104 
     410   -1286.6946          298    18.027679    3749.7249      3223.68 
     420   -1286.7537          298    18.027679    3749.7249    3139.7354 
     430   -1286.8282          298    18.027679    3749.7249     3034.021 
     440    -1287.772          298    18.020473    3745.2306    3948.2706 
     450    -1287.831          298    18.020473    3745.2306    3866.2887 
     460   -1287.8785          298    18.020473    3745.2306     3800.388 
     470   -1287.9238          298    18.020473    3745.2306    3737.8145 
     480   -1287.9719          298    18.020473    3745.2306    3672.3801 
     490   -1288.0329          298    18.020473    3745.2306    3589.4986 
     500   -1288.1737          298    18.020473    3745.2306    3398.0101 
     510    -1288.232          298    18.020473    3745.2306    3318.8481 
     520   -1288.2776          298    18.020473    3745.2306    3256.8342 
     530   -1288.3202          298    18.020473    3745.2306    3198.9812 
     540   -1288.3638          298    18.020473    3745.2306    3139.7026 
     550   -1288.4139          298    18.020473    3745.2306    3071.5867 
     560   -1288.5008          298    18.020473    3745.2306    2953.7069 
     570   -1288.7201          298    18.016871    3742.9848    3777.4166 
     580   -1288.7588          298    18.016871    3742.9848    3725.1072 
     590   -1288.8004          298    18.016871    3742.9848    3668.7417 
     600   -1288.8519          298    18.016871    3742.9848    3599.0287 
     610   -1288.9713          298    18.016871    3742.9848    3437.6536 
     620   -1289.0327          298    18.016871    3742.9848    3354.7885 
     630   -1289.0747          298    18.016871    3742.9848    3298.1357 
     640   -1289.1118          298    18.016871    3742.9848    3248.1541 
     650   -1289.1474          298    18.016871    3742.9848    3200.1499 
     660   -1289.1839          298    18.016871    3742.9848    3151.1002 
     670    -1289.224          298    18.016871    3742.9848    3097.1357 
     680   -1289.2755          298    18.016871    3742.9848    3027.8352 
     690   -1289.4691          298    18.013268    3740.7399    3887.0256 
     700   -1289.5042          298    18.013268    3740.7399     3840.101 
     710   -1289.5367          298    18.013268    3740.7399     3796.608 
     720   -1289.5686          298    18.013268    3740.7399    3754.0308 
     730   -1289.6014          298    18.013268    3740.7399    3710.3453 
     740    -1289.637          298    18.013268    3740.7399    3662.8542 
     750   -1289.6802          298    18.013268    3740.7399    3605.3456 
     760   -1289.7789          298    18.013268    3740.7399    3474.2652 
     770   -1289.8454          298    18.013268    3740.7399    3386.1665 
     780   -1289.8843          298    18.013268    3740.7399    3334.6018 
     790   -1289.9171          298    18.013268    3740.7399    3291.2182 
     800   -1289.9473          298    18.013268    3740.7399    3253.9133 
     810   -1289.9765          298    18.013268    3740.7399    3222.1966 
     820   -1290.0054          298    18.013268    3740.7399    3190.3615 
     830   -1290.0348          298    18.013268    3740.7399     3159.964 
     840   -1290.0654          298    18.013268    3740.7399    3128.2617 
     850   -1290.0986          298    18.013268    3740.7399    3093.4685 
     860   -1290.1368          298    18.013268    3740.7399    3052.7435 
     870   -1290.1891          298    18.013268    3740.7399    2995.9919 
     880   -1290.3214          298    18.009665    3738.4959    3982.1192 
     890   -1290.3614          298    18.009665    3738.4959    3935.7166 
     900   -1290.3935          298    18.009665    3738.4959    3898.2962 
     910   -1290.4221          298    18.009665    3738.4959    3864.8449 
     920   -1290.4487          298    18.009665    3738.4959    3833.4887 
     930   -1290.4743          298    18.009665    3738.4959    3803.1998 
     940   -1290.4995          298    18.009665    3738.4959    3773.2544 
     950   -1290.5249          298    18.009665    3738.4959    3743.6335 
     960    -1290.551          298    18.009665    3738.4959    3713.2133 
     970   -1290.5772          298    18.009665    3738.4959    3682.5194 
     980   -1290.6075          298    18.009665    3738.4959    3646.9287 
     990   -1290.6436          298    18.009665    3738.4959     3604.342 
    1000      -1290.7          298    18.009665    3738.4959    3537.3815 
Loop time of 8.40338 on 1 procs for 1000 steps with 320 atoms

94.6% CPU use with 1 MPI tasks x 1 OpenMP threads

Minimization stats:
  Stopping criterion = max iterations
  Energy initial, next-to-last, final = 
        -1292.60719571     -1302.98629732     -1302.98771337
  Force two-norm initial, final = 95.484 5.42658
  Force max component initial, final = 94.2081 0.511119
  Final line search alpha, max atom move = 2.74347e-05 1.40224e-05
  Iterations, force evaluations = 1000 1000

MPI task timing breakdown:
Section |  min time  |  avg time  |  max time  |%varavg| %total
---------------------------------------------------------------
Pair    | 7.8747     | 7.8747     | 7.8747     |   0.0 | 93.71
Neigh   | 0          | 0          | 0          |   0.0 |  0.00
Comm    | 0.0099361  | 0.0099361  | 0.0099361  |   0.0 |  0.12
Output  | 0.39193    | 0.39193    | 0.39193    |   0.0 |  4.66
Modify  | 0          | 0          | 0          |   0.0 |  0.00
Other   |            | 0.1268     |            |       |  1.51

Nlocal:    320 ave 320 max 320 min
Histogram: 1 0 0 0 0 0 0 0 0 0
Nghost:    1592 ave 1592 max 1592 min
Histogram: 1 0 0 0 0 0 0 0 0 0
Neighs:    13881 ave 13881 max 13881 min
Histogram: 1 0 0 0 0 0 0 0 0 0
FullNghs:  27762 ave 27762 max 27762 min
Histogram: 1 0 0 0 0 0 0 0 0 0

Total # of neighbors = 27762
Ave neighs/atom = 86.7562
Neighbor list builds = 0
Dangerous builds = 0
unfix           f1

# ----- Output setting -----
dump            d1 all cfg 100 cfg/run.*.cfg mass type xs ys zs id type
dump_modify     d1 element Co Ni Cr Fe Mn
#dump_modify     d1 element Al Si Mg Cu   # Al-Si-Mg-Cu-Fe

# ----- Check equilibriation setting -----
variable        energy equal etotal
variable        temperature equal temp
fix             fout1 all ave/time 1 100 100 v_energy v_temperature file out_energy.txt

# ----- Equilibriation -----
velocity        all create 10.0 123456
fix             f1 all npt temp 10.0 ${temp} ${tdamp} iso 0.0 ${pres} ${pdamp}
fix             f1 all npt temp 10.0 298.0 ${tdamp} iso 0.0 ${pres} ${pdamp}
fix             f1 all npt temp 10.0 298.0 0.1 iso 0.0 ${pres} ${pdamp}
fix             f1 all npt temp 10.0 298.0 0.1 iso 0.0 1.0 ${pdamp}
fix             f1 all npt temp 10.0 298.0 0.1 iso 0.0 1.0 1
run             ${nstep} # 20 ps
run             20000 
Per MPI rank memory allocation (min/avg/max) = 9.934 | 9.934 | 9.934 Mbytes
Step TotEng Temp Lx Volume Press 
    1000   -1302.5754           10    18.009665    3738.4959    144.48981 
    1010   -1302.5757    14.280943    18.010281    3738.8792   -201.27694 
    1020   -1302.5849    26.155357    18.008548       3737.8   -85.847154 
    1030   -1302.6409    40.191708    18.005735    3736.0486    202.16299 
    1040   -1302.7679    50.583536    18.005031    3735.6103    -97.48253 
    1050   -1302.9205    54.941945    18.003625    3734.7357    85.836504 
    1060   -1303.1062    52.455252    18.003438    3734.6189    146.49809 
    1070   -1303.2925    45.832098    18.004735    3735.4264   -287.66677 
    1080    -1303.451    38.675964      18.0033     3734.533    146.78337 
    1090   -1303.5812    33.385006    18.003291    3734.5275    122.29055 
    1100   -1303.6921     30.51089    18.004569    3735.3229   -255.69041 
    1110   -1303.7933    29.370191    18.003203    3734.4729    135.06859 
    1120   -1303.8906    28.986057    18.003179     3734.458     74.44374 
    1130   -1303.9865    28.762418    18.003887    3734.8986    -245.0008 
    1140   -1304.0814    28.528351    18.002058    3733.7606    164.05964 
    1150   -1304.1752    28.202208    18.002192    3733.8439    169.64003 
    1160   -1304.2669    27.541059    18.004056    3735.0038   -318.21845 
    1170   -1304.3544    26.223926    18.002643    3734.1244    148.84394 
    1180   -1304.4347    24.311489    18.002724     3734.175    142.99475 
    1190   -1304.5056    22.270873    18.004312    3735.1629    -293.5453 
    1200   -1304.5677     20.65173    18.003124    3734.4239    241.53369 
    1210   -1304.6231     19.71924    18.004268    3735.1359   -29.655174 
    1220   -1304.6743    19.403187    18.005008    3735.5964   -304.19168 
    1230   -1304.7234    19.297078    18.002535    3734.0574    305.20673 
    1240   -1304.7706    18.943383    18.003145    3734.4366   -57.137812 
    1250   -1304.8152    18.177515    18.003171    3734.4527   -246.88003 
    1260   -1304.8561    17.244159    18.000733    3732.9363    352.40995 
    1270   -1304.8933    16.554461    18.002016    3733.7345   -107.95934 
    1280   -1304.9276    16.361794     18.00224    3733.8734   -217.21715 
    1290   -1304.9603    16.566464    18.000289    3732.6599    358.70216 
    1300   -1304.9925    16.785518    18.001939    3733.6861   -204.18255 
    1310    -1305.024    16.678473    18.001481    3733.4013   -144.82669 
    1320    -1305.054    16.154432    17.999712    3732.3007    407.28908 
    1330   -1305.0817    15.369885    18.002096    3733.7843   -301.09785 
    1340   -1305.1065    14.565411    18.001408    3733.3559   -90.393087 
    1350    -1305.128    13.897779    17.999759    3732.3303    391.84151 
    1360   -1305.1468    13.421028    18.002114     3733.795   -338.33395 
    1370   -1305.1631    13.143852    18.001003     3733.104   -38.135186 
    1380   -1305.1769    13.103769    17.999497    3732.1672    390.89131 
    1390   -1305.1889    13.321299    18.002017    3733.7346   -371.84013 
    1400   -1305.1994    13.742518    18.000718    3732.9269   -11.352197 
    1410   -1305.2085    14.173276    17.999324    3732.0597    448.67401 
    1420   -1305.2165    14.334719     18.00245     3734.004   -462.92471 
    1430   -1305.2233    14.213606    18.000763    3732.9546     -11.0774 
    1440   -1305.2283    13.898215       17.999     3731.858    498.58899 
    1450   -1305.2315    13.555339     18.00223    3733.8673   -580.51373 
    1460    -1305.233    13.372008    17.999782    3732.3444    133.75431 
    1470    -1305.232    13.472519    17.998632    3731.6288    387.79336 
    1480   -1305.2288    13.806327     18.00142    3733.3636   -539.17058 
    1490   -1305.2236     14.24003    17.998827    3731.7502    299.73676 
    1500   -1305.2162    14.480181    17.999373    3732.0897    253.74524 
    1510   -1305.2067    14.348071    18.002471    3734.0176   -606.08003 
    1520   -1305.1958    13.907858    17.999536    3732.1914    466.79248 
    1530   -1305.1833    13.394073    18.001206    3733.2304    95.106748 
    1540   -1305.1684    13.137759    18.003774    3734.8281   -606.22452 
    1550   -1305.1516    13.312177    18.000102    3732.5436    541.69665 
    1560   -1305.1326    13.829015    18.001947    3733.6916   -3.2956546 
    1570   -1305.1108    14.401635    18.003628    3734.7373   -529.65548 
    1580   -1305.0874    14.834247    17.999908    3732.4229    622.78897 
    1590   -1305.0631    15.055526     18.00248     3734.023   -221.68731 
    1600    -1305.038    15.159695     18.00272    3734.1722   -394.24717 
    1610    -1305.012    15.381782    17.999004    3731.8604    723.45608 
    1620   -1304.9858    15.827906    18.002785     3734.213   -308.19839 
    1630   -1304.9583    16.451617    18.003337    3734.5561   -388.80165 
    1640     -1304.93    17.164945    17.999855    3732.3896    730.86013 
    1650   -1304.9018    17.720835      18.0038    3734.8441   -399.89277 
    1660   -1304.8734    18.000992    18.003647    3734.7491   -328.32167 
    1670   -1304.8453    18.047713    18.000099    3732.5415      748.719 
    1680   -1304.8183    18.015286    18.004135     3735.053   -534.03588 
    1690   -1304.7918    18.034325    18.002747    3734.1894   -176.58897 
    1700   -1304.7647    18.205888     17.99966    3732.2687    775.13702 
    1710    -1304.738    18.521095    18.004444     3735.245   -720.77931 
    1720   -1304.7113    18.960424    18.001867    3733.6416   -5.5490257 
    1730   -1304.6837    19.487641    17.999366    3732.0856    824.78898 
    1740   -1304.6564    20.045083    18.005213    3735.7235   -898.99932 
    1750   -1304.6298    20.696013    18.001797    3733.5982    84.591337 
    1760   -1304.6026     21.36399    17.999271    3732.0266    824.16516 
    1770   -1304.5763    21.973268    18.005148    3735.6834   -993.45294 
    1780    -1304.552    22.432089    18.000896    3733.0377    232.13712 
    1790   -1304.5282    22.670996     17.99934    3732.0695    815.53132 
    1800   -1304.5059    22.746906    18.005978    3736.2003   -1156.8516 
    1810   -1304.4861    22.816279    18.000904    3733.0425    490.23081 
    1820   -1304.4671    22.900702    18.000775    3732.9619    618.99903 
    1830   -1304.4486    22.923238    18.006973    3736.8192    -1161.976 
    1840   -1304.4323     22.85692    18.001341    3733.3143    672.53137 
    1850   -1304.4168    22.800131     18.00259    3734.0913    423.08143 
    1860   -1304.4009    22.912169    18.008034    3737.4801   -1214.4572 
    1870   -1304.3867    23.273378    18.000983    3733.0915    847.86401 
    1880   -1304.3728    23.660573    18.002493    3734.0313    238.42748 
    1890   -1304.3587     23.88127    18.006429    3736.4806   -1114.8825 
    1900   -1304.3463    23.958082     17.99903    3731.8765     1081.531 
    1910   -1304.3355     23.86164    18.002707    3734.1641   -9.9895955 
    1920    -1304.324    23.615221    18.006234    3736.3595   -1108.6943 
    1930   -1304.3134    23.351921     17.99837    3731.4663     1224.413 
    1940   -1304.3041    23.114791    18.003031     3734.366   -182.46768 
    1950    -1304.293    23.079022     18.00596    3736.1886   -1015.4766 
    1960   -1304.2816    23.465554     17.99847    3731.5285    1298.5385 
    1970   -1304.2712    24.339698    18.004248    3735.1231   -381.88171 
    1980    -1304.259    25.568182    18.006331      3736.42   -838.42054 
    1990   -1304.2477    26.737925    17.999793    3732.3515     1300.233 
    2000   -1304.2395    27.301684    18.006231    3736.3574     -737.796 
    2010   -1304.2332    27.052306     18.00549    3735.8964   -449.52995 
    2020   -1304.2283    26.224428    18.000095     3732.539    1254.8383 
    2030    -1304.226    25.305732    18.007284    3737.0131   -1024.9703 
    2040   -1304.2245    24.820733    18.004195      3735.09   -133.15061 
    2050   -1304.2214    24.945519    17.999657    3732.2669    1170.2329 
    2060   -1304.2191    25.385826    18.007326    3737.0389    -1130.064 
    2070   -1304.2176    25.761005    18.003493    3734.6534    30.547055 
    2080   -1304.2148    25.797818    17.999897    3732.4157    1103.3347 
    2090   -1304.2126      25.5331    18.007577    3737.1953   -1300.3492 
    2100   -1304.2118    25.197125    18.001956    3733.6968     297.1003 
    2110   -1304.2084    24.858287    17.999127    3731.9367    1020.3146 
    2120   -1304.2045    24.592955    18.006777    3736.6974   -1388.5551 
    2130    -1304.201    24.657861     18.00042    3732.7412    552.02583 
    2140   -1304.1949    25.116626    17.999568    3732.2111    792.57991 
    2150    -1304.187    25.882097    18.006852    3736.7438   -1464.1905 
    2160   -1304.1801    26.709924    17.999364    3732.0843    855.58178 
    2170   -1304.1726    27.117422    18.000581    3732.8414    669.11965 
    2180   -1304.1633    26.894456    18.008523    3737.7848   -1629.1694 
    2190   -1304.1565    26.420223    17.999681    3732.2815    1036.6775 
    2200   -1304.1488    25.957842    18.001327    3733.3058    552.96889 
    2210   -1304.1379    25.882301    18.009078    3738.1301   -1586.5994 
    2220   -1304.1283    26.292427    18.000473    3732.7745    1123.0467 
    2230   -1304.1176     26.77915    18.003171    3734.4527    386.16112 
    2240   -1304.1035    27.014018    18.010092    3738.7615   -1511.4382 
    2250   -1304.0909    26.873399    18.001322    3733.3023    1166.7876 
    2260   -1304.0779    26.597168    18.004368    3735.1977    208.61256 
    2270   -1304.0618    26.540004    18.009605    3738.4583   -1464.0078 
    2280   -1304.0458    27.003833    17.999976    3732.4654    1425.5524 
    2290   -1304.0297    27.755566    18.004896    3735.5264   -68.920008 
    2300     -1304.01    28.433914    18.009272    3738.2507    -1371.379 
    2310   -1303.9907    28.853681    17.999604     3732.234    1615.1629 
    2320   -1303.9735    28.959698    18.006331    3736.4199   -435.88152 
    2330   -1303.9542     29.03718    18.008677    3737.8806   -1297.3114 
    2340   -1303.9343    29.274955    17.997749    3731.0801    1967.5527 
    2350   -1303.9178    29.623112    18.006783    3736.7013   -762.24873 
    2360   -1303.8988    30.079648    18.008194    3737.5795   -1202.3468 
    2370   -1303.8786    30.618621    17.997185    3730.7294    2120.3726 
    2380    -1303.863    31.135316    18.007765    3737.3124   -1118.5511 
    2390   -1303.8465    31.653076    18.007364    3737.0631   -930.07957 
    2400   -1303.8287    32.046564    17.997117     3730.687    2074.8352 
    2410   -1303.8162    32.107036    18.007933    3737.4173   -1363.3175 
    2420   -1303.8052    31.907537    18.004991    3735.5856   -535.15916 
    2430   -1303.7919    31.524927    17.996449    3730.2715    2085.8929 
    2440   -1303.7829    31.130019    18.009267     3738.248   -1727.1471 
    2450    -1303.775    30.923387    18.004712    3735.4123   -190.72487 
    2460   -1303.7634    30.692418    17.997944    3731.2009    1938.0511 
    2470   -1303.7537    30.101578    18.010968    3739.3074   -1928.0058 
    2480   -1303.7457      29.2491    18.004347    3735.1851    180.81515 
    2490   -1303.7325     28.29552    17.999327    3732.0614    1760.4634 
    2500   -1303.7183    27.809044    18.012579    3740.3104   -2093.7432 
    2510   -1303.7047    28.315536    18.004496    3735.2774    508.47827 
    2520   -1303.6846     29.75142    18.001274    3733.2729    1532.2111 
    2530   -1303.6615    31.629019    18.013718    3741.0202   -2315.1745 
    2540   -1303.6421    33.374264    18.002365    3733.9514    926.85162 
    2550   -1303.6185    34.387682    18.000246    3732.6332    1351.7564 
    2560   -1303.5954    34.526262    18.012124     3740.027   -2385.2868 
    2570   -1303.5793    34.297724    17.999623    3732.2454    1294.9583 
    2580   -1303.5625    34.155206    18.000155    3732.5763    1010.5463 
    2590   -1303.5438    34.464016    18.011304    3739.5166   -2381.8171 
    2600   -1303.5312    35.253914    17.998221    3731.3734    1631.4948 
    2610   -1303.5197    35.907235    18.001497    3733.4114    565.32724 
    2620    -1303.506    35.998733    18.011059    3739.3635   -2240.8989 
    2630   -1303.4985    35.577739    17.997822    3731.1255    2007.1265 
    2640   -1303.4954     34.82457    18.004874    3735.5126    96.504775 
    2650   -1303.4869    34.432043    18.013014    3740.5818   -2246.8988 
    2660   -1303.4822    34.572299    17.998043    3731.2629    2351.8377 
    2670   -1303.4819    34.678038    18.006977    3736.8216   -265.60296 
    2680   -1303.4756    34.223852    18.013064    3740.6127   -2167.6621 
    2690   -1303.4707    33.310354     17.99695    3730.5832    2657.1724 
    2700   -1303.4709    32.451071    18.008039    3737.4829   -649.20632 
    2710    -1303.463    32.290246    18.012561    3740.2994   -2041.1581 
    2720    -1303.453    32.955523    17.996042    3730.0184    2856.5561 
    2730   -1303.4484    33.896642    18.008694    3737.8908   -990.29948 
    2740   -1303.4369    34.578557    18.011319     3739.526   -1779.5888 
    2750   -1303.4226     34.70696    17.995864    3729.9074    3084.9455 
    2760   -1303.4158    34.392863    18.011287    3739.5061   -1656.8304 
    2770    -1303.405    34.457196    18.009883    3738.6315   -1329.0796 
    2780    -1303.387    35.117973    17.994801     3729.247    3120.7348 
    2790    -1303.377    35.834058    18.011505    3739.6415   -2098.5126 
    2800   -1303.3664    36.204828    18.006889     3736.767   -828.98091 
    2810   -1303.3473    36.050874    17.993709    3728.5676    3086.2792 
    2820   -1303.3364    35.623172    18.012149    3740.0428   -2456.3993 
    2830   -1303.3263    35.641063    18.005687    3736.0189   -362.30856 
    2840   -1303.3072    36.212301    17.995371    3729.6014    2843.1115 
    2850   -1303.2929    37.196039    18.014082    3741.2467   -2757.1711 
    2860   -1303.2831    38.382158    18.004681    3735.3926      196.277 
    2870   -1303.2658    39.052707    17.997297    3730.7988    2617.1958 
    2880   -1303.2523    38.677236    18.016496    3742.7512   -3063.7132 
    2890   -1303.2475    37.689482    18.004343    3735.1821    731.68648 
    2900   -1303.2352    36.555085    17.999569    3732.2118    2201.1023 
    2910   -1303.2217    35.956423    18.017187     3743.182   -3236.3731 
    2920   -1303.2167      36.4702    18.001555    3733.4475     1320.734 
    2930   -1303.2029     37.80227    17.999367    3732.0861    1795.1733 
    2940   -1303.1856    39.241328    18.015541    3742.1561   -3264.8271 
    2950   -1303.1782    40.331327    17.998538    3731.5705    1872.7498 
    2960   -1303.1692    40.542039    18.000629     3732.871    1251.4261 
    2970   -1303.1551    39.996706    18.015553    3742.1638    -3224.333 
    2980   -1303.1518    39.249095    17.997395    3730.8598     2289.885 
    2990   -1303.1494    38.606886    18.002892    3734.2792    847.53975 
    3000   -1303.1366    38.449895     18.01703    3743.0844   -3226.8657 
    3010   -1303.1322    38.740621    17.998345    3731.4504    2677.8586 
    3020   -1303.1306    39.098902    18.006816    3736.7219    232.62513 
    3030   -1303.1182    39.329332    18.017644    3743.4666   -2971.6338 
    3040   -1303.1117    39.165445    17.997899     3731.173    2961.2558 
    3050   -1303.1106    38.188594    18.008437    3737.7307    -203.0796 
    3060   -1303.0983    36.752905    18.016804    3742.9432   -2744.4564 
    3070   -1303.0871    35.704766    17.997012    3730.6216    3164.2331 
    3080   -1303.0806    35.543842    18.009492     3738.388   -683.41282 
    3090   -1303.0618    36.504625    18.014954    3741.7904   -2386.1757 
    3100   -1303.0398    38.168509    17.995896    3729.9275    3244.1723 
    3110   -1303.0245    39.602726    18.010101    3738.7674    -1072.563 
    3120   -1303.0003    40.522225    18.013309    3740.7656   -2030.0822 
    3130   -1302.9736    41.052447    17.995728    3729.8233    3293.2457 
    3140   -1302.9566    41.437497    18.011564    3739.6783   -1568.7325 
    3150   -1302.9351    42.166851    18.011355    3739.5483   -1589.2487 
    3160   -1302.9087    43.051533    17.995337    3729.5799    3368.0669 
    3170   -1302.8936    43.399726    18.013498    3740.8829   -2127.5993 
    3180   -1302.8781    43.118104    18.009852    3738.6122   -1021.3116 
    3190   -1302.8562    42.541745    17.995967     3729.972    3243.9278 
    3200   -1302.8438    42.243011    18.015016     3741.829   -2550.2384 
    3210    -1302.834     42.79968     18.00772    3737.2846   -523.42321 
    3220   -1302.8139    43.865918    17.995252    3729.5271    3104.4629 
    3230   -1302.8024    44.523042    18.014266    3741.3616   -2832.7709 
    3240   -1302.7962    44.417297     18.00509    3735.6472    258.95186 
    3250   -1302.7846    43.431951    17.998756    3731.7061    2505.9104 
    3260   -1302.7746    42.213651    18.017461    3743.3529   -3208.8107 
    3270   -1302.7729    41.685393    18.003519    3734.6697    1042.4865 
    3280   -1302.7627    41.911259    18.000286    3732.6576     2041.992 
    3290   -1302.7494    42.553264    18.018016    3743.6985    -3174.059 
    3300   -1302.7446     43.17638    18.003181    3734.4591    1444.8822 
    3310   -1302.7345    43.238106    18.002863    3734.2614    1470.0635 
    3320   -1302.7203     42.87523    18.017614    3743.4481   -3022.1987 
    3330   -1302.7142    42.710495      18.0013     3733.289    1778.5584 
    3340   -1302.7041    42.979053    18.003147    3734.4379    999.01445 
    3350   -1302.6883    43.823935    18.015561    3742.1687   -2787.2589 
    3360   -1302.6787    45.212187    17.999637    3732.2543    2109.5366 
    3370   -1302.6708    46.321729    18.005415    3735.8493    551.45097 
    3380   -1302.6565    46.600354    18.016758    3742.9147   -2623.9012 
    3390   -1302.6499    45.777987    18.001208    3733.2314    2273.9837 
    3400   -1302.6473    43.989195    18.008959     3738.056    78.635368 
    3410   -1302.6371    42.250554    18.017322    3743.2662   -2396.4078 
    3420   -1302.6288    41.585108     18.00107    3733.1456     2446.656 
    3430   -1302.6216    42.178572    18.009748    3738.5472   -462.97799 
    3440    -1302.607    43.549984    18.013755    3741.0434   -1989.1778 
    3450   -1302.5902    45.217827    17.997321    3730.8136    2703.8202 
    3460   -1302.5789    46.296985    18.008639    3737.8568   -882.69317 
    3470   -1302.5629    46.747272    18.011139    3739.4138   -1702.3937 
    3480   -1302.5461    46.897708    17.996341    3730.2045    2787.6397 
    3490   -1302.5371    46.791702    18.009929      3738.66   -1310.2626 
    3500   -1302.5248     46.64877    18.010259    3738.8654   -1316.2751 
    3510   -1302.5098    46.409771     17.99737    3730.8445    2821.4721 
    3520   -1302.5024    45.711245    18.013492    3740.8796   -1679.3633 
    3530   -1302.4911    44.982109    18.012347    3740.1659   -1044.6147 
    3540   -1302.4748    44.846312    18.000306    3732.6703    2664.0122 
    3550   -1302.4631    45.628572    18.015375    3742.0526   -1901.6815 
    3560   -1302.4503    47.439289    18.010858    3739.2383   -633.96358 
    3570    -1302.431    49.588016     17.99997    3732.4612    2567.9603 
    3580   -1302.4184    50.805211    18.015025    3741.8347   -2297.9818 
    3590   -1302.4121    50.510752    18.006805    3736.7151   -203.01248 
    3600   -1302.3998     48.74938    17.997041    3730.6397    2528.9612 
    3610   -1302.3937    46.428701    18.013481    3740.8727   -2416.4711 
    3620   -1302.3905    44.761834    18.005131    3735.6725    138.17528 
    3630   -1302.3783    44.128166    17.998267    3731.4022      2271.47 
    3640   -1302.3654    44.493843    18.014625     3741.585   -2573.4962 
    3650   -1302.3541    45.749333    18.004919    3735.5411    646.23707 
    3660   -1302.3359    47.420285    18.001899    3733.6618    1791.0959 
    3670   -1302.3149    49.249096    18.016983     3743.055   -2610.0022 
    3680   -1302.2999    50.965023    18.005223    3735.7303    1078.5323 
    3690   -1302.2823    51.816044    18.004065    3735.0096    1189.3403 
    3700   -1302.2656    51.409431    18.015757    3742.2904   -2237.0814 
    3710   -1302.2558    50.016997     18.00447    3735.2612    1255.1892 
    3720   -1302.2457    48.246416     18.00603    3736.2327    831.30844 
    3730    -1302.232     47.23704    18.016019    3742.4539   -2073.2653 
    3740   -1302.2207    47.818008     18.00486    3735.5039    1417.7102 
    3750   -1302.2074    49.742627    18.007858    3737.3705    387.64158 
    3760   -1302.1909    52.133231    18.014957    3741.7922    -1744.073 
    3770   -1302.1782    53.815032    18.004223    3735.1074    1574.4066 
    3780     -1302.17     53.75749    18.009649    3738.4859    120.39507 
    3790    -1302.161    52.241995    18.016411    3742.6983   -1685.2745 
    3800   -1302.1563    50.462143    18.005695    3736.0236    1579.2775 
    3810   -1302.1532    49.739225    18.011032    3739.3468   -56.181862 
    3820   -1302.1469    50.158188     18.01556     3742.168   -1561.8033 
    3830    -1302.141    50.878373    18.004287    3735.1473     1735.708 
    3840   -1302.1372    51.247305    18.010883    3739.2539   -371.42156 
    3850   -1302.1313    51.117057      18.0133    3740.7597   -1439.0786 
    3860   -1302.1247     50.81166    18.001193    3733.2224    2035.3484 
    3870   -1302.1211    50.439716    18.009779    3738.5669   -771.34007 
    3880   -1302.1146    50.275312    18.010697    3739.1386   -1127.1406 
    3890   -1302.1055    50.361348    18.000397    3732.7271    2095.2483 
    3900   -1302.0994    50.573374    18.011493    3739.6341   -1140.8255 
    3910   -1302.0905    51.202598    18.010738    3739.1639   -941.48126 
    3920    -1302.078     52.13553    18.000454    3732.7624    2150.4754 
    3930   -1302.0695    52.850742    18.011975    3739.9346   -1400.7029 
    3940   -1302.0606    53.273076    18.009424    3738.3453   -548.89281 
    3950   -1302.0493    53.059498    18.001206    3733.2301    1937.5306 
    3960   -1302.0416    51.958697    18.012955    3740.5448   -1537.0516 
    3970   -1302.0338    50.564285    18.009151    3738.1756   -223.30406 
    3980   -1302.0215    49.301253    18.002772    3734.2049    1652.5854 
    3990   -1302.0087    48.688529    18.013278    3740.7462   -1587.4567 
    4000   -1301.9941    49.229013    18.007602     3737.211    108.25569 
    4010   -1301.9733    50.770602    18.003086       3734.4     1566.561 
    4020   -1301.9508    52.741727     18.01461    3741.5761   -1772.0694 
    4030   -1301.9292    54.709377    18.007913    3737.4046    280.36783 
    4040   -1301.9048    56.036082    18.004154     3735.065    1525.8323 
    4050   -1301.8823     56.14865    18.015756    3742.2901   -1907.5816 
    4060   -1301.8646    55.370657    18.008077    3737.5068     586.9554 
    4070   -1301.8463    54.319343    18.006575    3736.5716     1281.461 
    4080   -1301.8271    53.617064     18.01823    3743.8317   -2005.4564 
    4090   -1301.8115    53.772636    18.008935    3738.0407    686.68952 
    4100   -1301.7916    54.480595    18.006384    3736.4527    1155.3772 
    4110   -1301.7714    55.081964    18.015909    3742.3853   -1822.5643 
    4120   -1301.7543    55.229277    18.006811    3736.7189    873.12853 
    4130   -1301.7357    54.942799    18.006817    3736.7221    958.33787 
    4140   -1301.7154    54.856405    18.016709    3742.8842   -1829.4556 
    4150    -1301.698    55.926798    18.007547    3737.1765    933.57656 
    4160   -1301.6794    58.166975    18.007959    3737.4336    777.44383 
    4170   -1301.6606    60.418345    18.016235    3742.5887   -1821.2593 
    4180   -1301.6484    61.404332    18.005888    3736.1438     1201.254 
    4190   -1301.6405    60.416503     18.00793    3737.4155    628.36125 
    4200   -1301.6338    58.150854    18.016622    3742.8299   -1667.1802 
    4210   -1301.6318    55.801191    18.007961    3737.4346      1103.11 
    4220   -1301.6295    54.413923    18.010374    3738.9374    230.09427 
    4230   -1301.6243    54.140605    18.015041    3741.8445   -1459.9587 
    4240   -1301.6183    54.622107    18.004638     3735.366    1453.0656 
    4250   -1301.6115    55.169943    18.008876    3738.0046   -27.301279 
    4260   -1301.6011     55.78437    18.012962    3740.5489   -1431.9382 
    4270   -1301.5903    56.434362    18.002387    3733.9652    1603.6677 
    4280   -1301.5808    56.894112    18.008386    3737.6991   -192.35256 
    4290   -1301.5681    57.412453    18.012521    3740.2742    -1397.416 
    4300   -1301.5559    58.177258    18.002194     3733.845    1728.3877 
    4310   -1301.5466    59.055426     18.00951    3738.3992   -455.52984 
    4320   -1301.5355    59.864783     18.01215    3740.0431   -1310.0087 
    4330   -1301.5255    60.291447    18.001572    3733.4577    1990.5754 
    4340    -1301.521    59.972201    18.011304    3739.5166   -846.45745 
    4350    -1301.515    59.212476    18.012726    3740.4021   -979.19109 
    4360   -1301.5092    58.268058    18.004823    3735.4812    1886.8098 
    4370   -1301.5061    57.782807    18.016007    3742.4465    -1390.325 
    4380   -1301.5025    58.121083    18.012715    3740.3954   -500.43817 
    4390   -1301.4946    58.962201    18.004345    3735.1837    2007.6893 
    4400     -1301.49    59.608882     18.01657    3742.7973   -1694.5804 
    4410   -1301.4869    59.747393    18.011509    3739.6438   -191.31834 
    4420   -1301.4801    59.048437    18.004608    3735.3472    1975.0997 
    4430   -1301.4754    57.610692    18.017986    3743.6799   -1934.5847 
    4440   -1301.4718    56.083466    18.011383    3739.5654     21.41188 
    4450   -1301.4607    55.291921    18.004688    3735.3969    1883.4525 
    4460   -1301.4486    55.749738    18.017478    3743.3635   -2061.9165 
    4470   -1301.4368    57.520941    18.008931    3738.0387    260.37982 
    4480   -1301.4166    59.677012    18.003111    3734.4156    1966.7888 
    4490   -1301.3968    60.953812    18.017647    3743.4683   -2376.9819 
    4500   -1301.3816    60.972348    18.008006    3737.4624    708.07192 
    4510   -1301.3631    60.102885    18.005546    3735.9313    1806.5191 
    4520   -1301.3423    59.730657    18.021901    3746.1207   -2743.2376 
    4530   -1301.3278    60.589073    18.009726    3738.5333    1044.9426 
    4540   -1301.3077    61.992401    18.007774     3737.318    1592.8654 
    4550   -1301.2852    62.947846    18.022581    3746.5448   -2896.0946 
    4560   -1301.2719    62.999398    18.007612    3737.2173    1538.0226 
    4570   -1301.2563    62.075391    18.008191    3737.5779    1271.2802 
    4580   -1301.2367    61.208087    18.021729    3746.0136   -3164.3279 
    4590   -1301.2255    61.447506    18.002527    3734.0525    2176.6848 
    4600   -1301.2109    62.539206    18.004985    3735.5822     916.7271 
    4610   -1301.1904    63.522115    18.017734    3743.5225   -3158.9879 
    4620   -1301.1781    63.836219    17.998222    3731.3741     2835.478 
    4630   -1301.1706    63.033027    18.006921    3736.7868    197.41196 
    4640   -1301.1517    62.102137    18.018553    3744.0331    -3232.796 
    4650   -1301.1389    62.055415    17.996845    3730.5175    3491.7096 
    4660   -1301.1343    62.710297    18.010314    3738.8996   -553.91385 
    4670   -1301.1151    63.812568    18.019122    3744.3884   -3035.0407 
    4680   -1301.0987    64.729351    17.996301    3730.1793    4048.4225 
    4690   -1301.0977      64.4287    18.014519    3741.5191   -1313.3152 
    4700   -1301.0831    63.317381    18.020088    3744.9902   -2750.3221 
    4710   -1301.0657    62.217799     17.99803    3731.2549     4663.608 
    4720   -1301.0655    61.901365    18.022807    3746.6855   -2604.2682 
    4730   -1301.0548    63.219138    18.021526     3745.887   -2147.1846 
    4740   -1301.0287     65.32721    17.997278     3730.787    5041.5847 
    4750   -1301.0263    66.453731    18.024721    3747.8795   -3327.3879 
    4760   -1301.0235    66.187787    18.018382    3743.9265   -1707.8303 
    4770   -1300.9977    64.753182    17.994434    3729.0186     5526.213 
    4780   -1300.9975    62.802818    18.027006     3749.305   -4262.3505 
    4790   -1300.9993    61.964747    18.016377    3742.6773   -919.30951 
    4800   -1300.9706    62.409385    17.995708    3729.8104    5432.0102 
    4810   -1300.9599    63.466238     18.03048    3751.4732   -5157.2003 
    4820   -1300.9638    64.843398    18.012644    3740.3513    94.831448 
    4830   -1300.9312    65.780748    17.995335    3729.5789    5301.4103 
    4840   -1300.9123    65.776114     18.03228    3752.5967   -5884.4807 
    4850     -1300.92    65.639156    18.009015    3738.0909    1125.3468 
    4860   -1300.8925    65.365924    17.996967    3730.5938     4792.809 
    4870   -1300.8668    65.396711    18.034053    3753.7039   -6425.1339 
    4880   -1300.8776    66.788478    18.004975    3735.5758    2100.9795 
    4890   -1300.8537    68.617763    17.997248    3730.7686    4223.8778 
    4900   -1300.8248    69.621801    18.033245    3753.1992   -6634.0769 
    4910   -1300.8386     69.77023    18.001113    3733.1726    3008.7461 
    4920   -1300.8313    68.230765     17.99988    3732.4056    3525.0668 
    4930   -1300.8042    65.551682    18.034852    3754.2028   -6782.0448 
    4940   -1300.8187    63.364798    18.000127    3732.5591    3853.4227 
    4950   -1300.8175    62.092563    18.004921    3735.5421    2572.9694 
    4960   -1300.7812    62.276159    18.036065    3754.9604   -6673.9099 
    4970    -1300.782    64.314284    17.998226    3731.3763    4561.0145 
    4980   -1300.7746    67.040579    18.007147    3736.9281    1736.7686 
    4990   -1300.7321    69.381098    18.033785    3753.5364    -6344.882 
    5000   -1300.7241    70.958689    17.995218    3729.5061     5192.651 
    5010   -1300.7263    70.861515    18.010082    3738.7553    759.88874 
    5020   -1300.6909    70.004648    18.032527    3752.7511   -5988.9591 
    5030   -1300.6835    69.851525    17.993267    3728.2931    5583.2717 
    5040   -1300.6919    69.871812    18.011105    3739.3922   -185.59605 
    5050   -1300.6677    69.707648    18.027284    3749.4788   -5079.3374 
    5060   -1300.6573    68.852134    17.991671    3727.3013    5668.2783 
    5070   -1300.6705    66.747384    18.013978     3741.182   -1114.7867 
    5080   -1300.6508    65.256729     18.02497     3748.035   -4160.1077 
    5090   -1300.6322    65.932028    17.994359    3728.9722    5609.3944 
    5100   -1300.6367    68.487803    18.020391    3745.1789   -2248.1906 
    5110   -1300.6208    71.735444    18.022668    3746.5992   -3098.7909 
    5120    -1300.595    73.606278    17.993728    3728.5796    5576.4021 
    5130   -1300.6006    72.546306    18.021695     3745.992   -2904.1216 
    5140   -1300.5963    69.826236    18.019517    3744.6343   -2227.8579 
    5150   -1300.5765    67.299874     17.99529    3729.5507    5320.8028 
    5160   -1300.5791    66.015378    18.024905    3747.9946   -3572.3412 
    5170   -1300.5762    66.933422    18.017185    3743.1808    -1269.613 
    5180   -1300.5493    68.875078    17.997633     3731.008     4955.739 
    5190   -1300.5387    70.147735    18.028068    3749.9676   -4223.7031 
    5200   -1300.5355    71.076232    18.014657     3741.605   -305.54594 
    5210   -1300.5082    71.724762    17.999137    3731.9434    4415.8436 
    5220   -1300.4934    71.640391    18.028025    3749.9406   -4457.4297 
    5230   -1300.4933    71.050474    18.010807    3739.2069    605.98927 
    5240   -1300.4716    69.802415    18.000717    3732.9259    3768.5661 
    5250   -1300.4528     68.73884     18.02876    3750.3998   -4589.4071 
    5260   -1300.4494    69.299175    18.009319    3738.2799    1276.8387 
    5270   -1300.4263    71.172689     18.00335    3734.5645    2995.4328 
    5280   -1300.4008     73.07245    18.027644    3749.7033   -4426.0323 
    5290   -1300.3938    74.024277    18.006352    3736.4327    1815.7691 
    5300   -1300.3756    73.369322    18.004187     3735.085    2371.1179 
    5310    -1300.353    71.940941    18.026192    3748.7975   -4130.5179 
    5320   -1300.3468    71.361692    18.005468    3735.8823    2018.1697 
    5330   -1300.3317    71.838123     18.00588    3736.1393    1827.1641 
    5340   -1300.3082    73.030601    18.024959    3748.0282   -3875.4979 
    5350   -1300.2989    74.330163    18.004048    3734.9988     2307.895 
    5360   -1300.2864     74.62204     18.00709     3736.892    1433.2869 
    5370   -1300.2653    74.661796    18.024836    3747.9515   -3591.6708 
    5380   -1300.2577    75.510419    18.005731    3736.0465    2350.6255 
    5390   -1300.2509    76.357504    18.010707    3739.1444    882.69725 
    5400   -1300.2371    76.046976    18.024523    3747.7559    -3161.578 
    5410   -1300.2339    74.262161    18.006145    3736.3041    2616.9763 
    5420   -1300.2332    71.468079     18.01403    3741.2145    93.284309 
    5430   -1300.2229    69.914487    18.022513    3746.5027   -2643.6419 
    5440   -1300.2131    70.942476    18.004057    3735.0045    2910.3965 
    5450   -1300.2065    73.595435    18.015301    3742.0064   -585.36249 
    5460   -1300.1913    76.212909    18.020298    3745.1211   -2251.4248 
    5470   -1300.1771    77.449396    18.002625    3734.1133    3211.5768 
    5480    -1300.174    76.373044    18.017537       3743.4   -1172.2639 
    5490   -1300.1645    74.133721    18.020397    3745.1828   -1803.5762 
    5500   -1300.1529    72.141887    18.004903     3735.531    3005.5567 
    5510   -1300.1474    71.349095    18.020193    3745.0557   -1635.9061 
    5520   -1300.1357    72.658119    18.018812    3744.1948   -1249.5083 
    5530   -1300.1165    75.124172    18.004768    3735.4472     2938.066 
    5540   -1300.1042    76.594495    18.020574    3745.2936     -1929.12 
    5550   -1300.0914    76.492904    18.016693    3742.8737    -694.4872 
    5560    -1300.073    75.544661    18.005549    3735.9332    2688.6241 
    5570   -1300.0605    75.504327    18.021888    3746.1127   -2334.1107 
    5580   -1300.0509    77.621111    18.013977    3741.1816   -358.95441 
    5590    -1300.032     80.20708    18.002598    3734.0966    2734.6218 
    5600   -1300.0228    80.878055    18.019671    3744.7301   -2298.0062 
    5610   -1300.0188    79.166729    18.013441    3740.8475    -127.9621 
    5620   -1300.0116    76.377794    18.005946    3736.1803    2321.2021 
    5630   -1300.0079    74.362611    18.022668    3746.5989     -2224.36 
    5640   -1300.0048    74.405865    18.016084    3742.4947    -40.46513 
    5650   -1299.9942    75.766199    18.009095    3738.1406    2026.5971 
    5660   -1299.9844    76.657267    18.022362     3746.408   -2284.5791 
    5670   -1299.9781    76.041497    18.012398    3740.1976    667.71404 
    5680   -1299.9663    73.778709     18.00948    3738.3801    1492.2142 
    5690   -1299.9509    71.586257    18.021648     3745.963   -2325.0524 
    5700   -1299.9366    72.264814    18.009679    3738.5041    1035.5437 
    5710    -1299.914    75.934517    18.008703    3737.8969    1163.1601 
    5720   -1299.8868    80.647949    18.019573    3744.6692   -2329.8269 
    5730    -1299.865    83.957015    18.007153    3736.9313    1444.4921 
    5740   -1299.8468    84.359444    18.009723    3738.5319    844.61998 
    5750   -1299.8294    82.557805    18.021015    3745.5685    -2185.577 
    5760   -1299.8203     80.12485    18.010324    3738.9058    1523.2695 
    5770   -1299.8136    77.938482    18.015074    3741.8654    350.79275 
    5780   -1299.8017    76.521156    18.023314    3747.0023   -1875.2819 
    5790   -1299.7915    76.293984    18.011846    3739.8543    1560.4522 
    5800   -1299.7798    77.002185    18.016473     3742.737    77.565384 
    5810   -1299.7635      78.0098    18.021421    3745.8213   -1848.2912 
    5820   -1299.7466    79.143464    18.008001    3737.4597    2062.9703 
    5830    -1299.732    80.486285    18.015627    3742.2098   -459.73051 
    5840   -1299.7144    82.349544    18.018586    3744.0541   -1684.1244 
    5850   -1299.6979    84.427735    18.004373     3735.201    2364.0382 
    5860   -1299.6894    84.961568    18.014189     3741.314   -811.72573 
    5870   -1299.6814    83.315109    18.016016    3742.4519   -1336.1083 
    5880   -1299.6748    79.919177    18.004411    3735.2247    2433.0731 
    5890   -1299.6742    76.153878    18.018386    3743.9291   -1129.6005 
    5900   -1299.6653    74.498263    18.020353    3745.1556   -1442.2929 
    5910   -1299.6503    76.064823    18.007565    3737.1879    2571.0874 
    5920   -1299.6372    79.405293    18.021104    3745.6238   -1362.6236 
    5930   -1299.6188    82.338122    18.020817     3745.445   -1074.4336 
    5940   -1299.5976    82.975497    18.008985     3738.072    2327.0352 
    5950   -1299.5831    81.659893    18.021226    3745.6996   -1386.3664 
    5960   -1299.5684    81.182544    18.018698    3744.1235   -920.51986 
    5970   -1299.5483     82.79464     18.00679    3736.7057     2386.757 
    5980   -1299.5339     85.44275    18.019069    3744.3549   -1761.8671 
    5990   -1299.5227    87.128122    18.014042    3741.2223   -323.50112 
    6000   -1299.5108    86.511277     18.00583    3736.1078    2126.7244 
    6010   -1299.5059    84.027031    18.019528    3744.6414   -1933.7953 
    6020   -1299.5045    81.913754    18.013437    3740.8452   -33.736132 
    6030   -1299.4988    81.019302    18.007381    3737.0735    2113.8262 
    6040   -1299.4934    81.010294    18.022338    3746.3935   -2312.4696 
    6050   -1299.4904    81.734391    18.013556    3740.9194    435.16283 
    6060   -1299.4815    81.933693     18.00943    3738.3494    1956.6502 
    6070   -1299.4715    81.200546    18.025576    3748.4127   -2482.6537 
    6080   -1299.4651     80.64288     18.01586     3742.355    556.92138 
    6090   -1299.4513    81.162609    18.011717    3739.7739    1682.0147 
    6100   -1299.4355    83.024059    18.024729    3747.8845   -2400.1952 
    6110   -1299.4243     85.50839    18.012897    3740.5085    948.69888 
    6120   -1299.4095    86.754551    18.010956    3739.2998     1423.803 
    6130   -1299.3952    86.192475    18.023358    3747.0294   -2578.6607 
    6140   -1299.3887    85.074203    18.009406     3738.334    1490.5511 
    6150   -1299.3809    84.107239    18.011206    3739.4553    1088.1155 
    6160   -1299.3677     83.63727    18.024206    3747.5583   -2775.4108 
    6170   -1299.3605    83.417051    18.008897    3738.0173     1956.302 
    6180   -1299.3521    82.675335    18.013457    3740.8574     560.2718 
    6190   -1299.3353    81.997137    18.024519    3747.7536   -2575.2897 
    6200   -1299.3217    82.572548    18.009057     3738.117    2225.8111 
    6210   -1299.3083    84.114448    18.016285    3742.6197    128.71935 
    6220   -1299.2859     86.01075    18.025155    3748.1506    -2421.747 
    6230   -1299.2674    87.658752    18.008975     3738.066    2474.9361 
    6240   -1299.2543    88.055848    18.018142    3743.7773   -435.64078 
    6250    -1299.237    87.480035    18.023123    3746.8827   -2146.1369 
    6260   -1299.2211    86.715803    18.006177    3736.3239    2900.0319 
    6270    -1299.213    86.042089    18.018893    3744.2451   -1040.5157 
    6280   -1299.1988    85.900959    18.021351     3745.778   -1768.8772 
    6290   -1299.1817    85.933663    18.005884    3736.1413     3015.593 
    6300   -1299.1721    85.636765    18.021137    3745.6446   -1592.3436 
    6310   -1299.1576    85.722742    18.020647    3745.3387   -1183.4113 
    6320    -1299.138    86.459994    18.007833    3737.3552     2851.736 
    6330   -1299.1244    87.657922    18.023956    3747.4024   -2107.8518 
    6340   -1299.1119    89.230396    18.018424    3743.9528   -664.36094 
    6350   -1299.0917    90.288648    18.006045    3736.2419    2966.6401 
    6360   -1299.0809    89.840552     18.02428    3747.6048   -2556.6355 
    6370   -1299.0743     88.38844    18.016855    3742.9748   -143.27973 
    6380   -1299.0603    86.690178    18.007753    3737.3053    2712.0035 
    6390   -1299.0491    85.859247    18.026596    3749.0496   -3010.3178 
    6400   -1299.0429    87.008303    18.014852    3741.7268    568.76523 
    6410   -1299.0257    88.891085    18.008239    3737.6074    2388.2835 
    6420   -1299.0095    89.561957    18.026391    3748.9216   -3278.8971 
    6430   -1299.0031    88.675781    18.011231    3739.4711    1357.2097 
    6440   -1298.9903    86.746073    18.009835    3738.6013    2078.8113 
    6450   -1298.9696     85.61572    18.030173    3751.2813   -3753.4934 
    6460   -1298.9598    86.671045    18.011532    3739.6586    1904.1128 
    6470   -1298.9405    89.339416    18.011666    3739.7421     1763.283 
    6480   -1298.9125    92.229984    18.030437    3751.4465   -3943.6222 
    6490   -1298.8999    94.133382    18.008524    3737.7849    2533.5644 
    6500   -1298.8872    94.228991    18.012121    3740.0251    1356.4982 
    6510   -1298.8658    93.450712    18.030548    3751.5153   -4116.0592 
    6520   -1298.8621    93.232095    18.006553    3736.5579    3153.4343 
    6530   -1298.8626     92.96038    18.014221    3741.3333    826.43674 
    6540   -1298.8485    91.679267    18.031355    3752.0196   -4183.3874 
    6550   -1298.8493    89.053844    18.005136    3735.6759    3797.0676 
    6560   -1298.8574    85.619509    18.017659    3743.4759    216.80711 
    6570   -1298.8389    84.252732    18.033121    3753.1216   -4326.3686 
    6580   -1298.8269     87.02585    18.003222    3734.4845    4558.4498 
    6590   -1298.8246    91.924838    18.019594    3744.6823   -521.34647 
    6600   -1298.7971    95.473535    18.031828    3752.3144   -4147.4811 
    6610   -1298.7769     95.31247    18.000615    3732.8628    5235.4251 
    6620   -1298.7824    91.141548    18.022802    3746.6827   -1373.2268 
    6630   -1298.7607     86.60334    18.032139    3752.5087   -4038.0914 
    6640   -1298.7335    85.476724     17.99933    3732.0634    5837.0264 
    6650    -1298.728    88.486818    18.025351    3748.2726   -2371.2789 
    6660   -1298.6975    94.157857    18.028037    3749.9482   -3445.7343 
    6670   -1298.6483    98.688846    17.994801    3729.2468    6413.5495 
    6680   -1298.6392     98.19416     18.02715     3749.395   -3366.0214 
    6690   -1298.6154    94.046311    18.026111    3748.7467   -2863.2328 
    6700   -1298.5695    90.057387    17.995199     3729.494    6672.3868 
    6710     -1298.56    88.881884    18.032437    3752.6947   -4388.9345 
    6720   -1298.5393    91.283035    18.024777    3747.9144   -2148.1406 
    6730   -1298.4764    94.698743    17.994683    3729.1732    6882.1675 
    6740   -1298.4524    96.242533    18.035251    3754.4516   -5201.8097 
    6750   -1298.4321    96.510375    18.022795    3746.6783   -1297.1335 
    6760   -1298.3714    96.295948    17.996824    3730.5048    6623.6678 
    6770   -1298.3445    97.200143    18.038734    3756.6274   -5942.1017 
    6780   -1298.3393    101.29071    18.019387    3744.5533    -412.9991 
    6790   -1298.2874    106.41367       17.996    3729.9923    6445.2628 
    6800   -1298.2724    107.84707    18.038204    3756.2963   -6457.8988 
    6810   -1298.2982    104.24014    18.014152    3741.2906    791.59528 
    6820   -1298.2874    96.399722    17.998427    3731.5018     5784.039 
    6830   -1298.2876    88.577957    18.041937    3758.6288   -6948.9054 
    6840   -1298.3218    85.867539    18.013856    3741.1064    1849.7255 
    6850   -1298.3103    88.374263    18.004203    3735.0955    4715.1884 
    6860   -1298.2897    93.554362    18.042317    3758.8663   -6981.6249 
    6870   -1298.3112    98.494052    18.008659    3737.8694    3011.2547 
    6880   -1298.3064     100.1243    18.006496    3736.5223    3743.2277 
    6890   -1298.2859    98.264185    18.041774    3758.5273   -6963.1126 
    6900   -1298.3125    95.540182    18.005523    3735.9171    4021.3582 
    6910   -1298.3264    93.188002    18.010673    3739.1231    2525.6624 
    6920    -1298.309    92.956117    18.041435    3758.3152   -6598.3136 
    6930    -1298.332    95.643994    18.003791     3734.839    4450.9596 
    6940   -1298.3506    98.891898    18.012188    3740.0669    1723.2179 
    6950   -1298.3431    100.37227    18.038068    3756.2112   -6072.0346 
    6960   -1298.3743      99.8344    18.001499    3733.4123    4685.2843 
    6970   -1298.4156    97.113426    18.013748     3741.039    1006.7568 
    6980   -1298.4273    93.920349    18.035886    3754.8488   -5462.5409 
    6990   -1298.4641    92.169903    18.001749    3733.5681    4837.3112 
    7000   -1298.5121    91.961708    18.017763    3743.5406    201.76714 
    7010   -1298.5271      93.4734    18.034751    3754.1397   -4990.2018 
    7020   -1298.5568    95.863519    18.000793    3732.9732    5200.2525 
    7030   -1298.6056    96.777751    18.020206    3745.0638   -580.34843 
    7040   -1298.6254     95.53557    18.032975    3753.0307   -4254.1941 
    7050   -1298.6511    92.623041    18.002455    3734.0076    5099.3244 
    7060   -1298.6923    88.924021    18.023733    3747.2634   -1465.2101 
    7070    -1298.707      87.0442    18.029505    3750.8644   -3306.6284 
    7080   -1298.7111    88.102065    18.001894    3733.6584      4841.49 
    7090   -1298.7286     90.50733    18.023913    3747.3758   -2115.9398 
    7100   -1298.7297    92.765979    18.023858    3747.3412   -2354.3701 
    7110   -1298.7156    93.453594    18.000666    3732.8942    4690.0255 
    7120   -1298.7173    92.670941    18.025313    3748.2487   -2667.2899 
    7130   -1298.7073    92.872981    18.022318    3746.3806   -1596.5817 
    7140   -1298.6806    94.344905    18.003177    3734.4566    4075.0131 
    7150    -1298.664    95.724012    18.025596    3748.4254   -2777.4618 
    7160   -1298.6425    96.295153    18.019343    3744.5261   -813.07298 
    7170   -1298.6056    95.549805    18.005124    3735.6683    3496.2544 
    7180   -1298.5746    93.914697    18.026638    3749.0756   -2928.9415 
    7190    -1298.541    93.032446    18.018306    3743.8792   -117.24243 
    7200   -1298.4925    93.218107    18.009079    3738.1308    2917.3595 
    7210   -1298.4428    93.993024    18.029402    3750.8001   -3049.4092 
    7220   -1298.3953    95.268471    18.018349    3743.9061    486.27525 
    7230    -1298.338    96.390209    18.012423    3740.2132    2341.5218 
    7240   -1298.2832    97.399113    18.030462    3751.4617   -3135.0422 
    7250   -1298.2406    99.167069    18.016294    3742.6253    1019.3874 
    7260    -1298.195    101.31551    18.012538    3740.2853     1904.831 
    7270   -1298.1557    102.89918    18.028481    3750.2257   -3001.4247 
    7280   -1298.1318    103.50874     18.01388    3741.1212    1421.5641 
    7290   -1298.1105    101.97812    18.014083    3741.2475    1580.5765 
    7300   -1298.0888    99.016398    18.030311    3751.3678   -3045.8962 
    7310   -1298.0772    97.150496    18.015072    3741.8638    1676.2654 
    7320   -1298.0623    97.710701    18.016964    3743.0426    1139.7776 
    7330   -1298.0409    99.722176    18.029659    3750.9608   -3057.7173 
    7340    -1298.027      101.175    18.011186    3739.4429    2309.4219 
    7350   -1298.0142    100.18753    18.016535    3742.7758    710.72622 
    7360   -1297.9929    97.683898    18.029583    3750.9131   -2812.8614 
    7370   -1297.9771    95.971848    18.013651    3740.9782    2231.6731 
    7380   -1297.9595    96.366909    18.020201    3745.0606    149.80062 
    7390   -1297.9325    99.111744    18.027958    3749.8993   -2526.0944 
    7400   -1297.9062    102.85694    18.010013    3738.7122    2554.6645 
    7410   -1297.8842    105.25491    18.018293    3743.8716   -197.26675 
    7420   -1297.8584     105.7583    18.025003    3748.0555   -2157.4268 
    7430   -1297.8379    105.11298     18.00976    3738.5548    2632.0146 
    7440   -1297.8259    103.70621    18.021399    3745.8076   -690.58245 
    7450   -1297.8082    102.57299    18.025832    3748.5726   -1923.2347 
    7460   -1297.7906    102.24466    18.010302    3738.8924    2729.6698 
    7470   -1297.7792    102.36632    18.022957    3746.7795   -990.34018 
    7480   -1297.7613    103.12643    18.025438    3748.3271    -1667.655 
    7490   -1297.7412    104.29397    18.010984    3739.3172    2845.8677 
    7500   -1297.7287     105.0991    18.025839    3748.5768   -1460.0453 
    7510   -1297.7128    106.04049    18.025676    3748.4751   -1404.4812 
    7520   -1297.6938    107.24533    18.010972    3739.3097    2813.8973 
    7530   -1297.6843    107.58205    18.025319    3748.2528   -1635.4413 
    7540   -1297.6753    106.70407    18.023022    3746.8197   -988.95252 
    7550   -1297.6623    104.56673    18.010388    3738.9462    2693.8764 
    7560   -1297.6558    102.30231    18.025604    3748.4305   -1729.4402 
    7570   -1297.6456     101.8114    18.022899    3746.7429   -920.13805 
    7580   -1297.6263    103.28269    18.010482    3739.0045    2572.5284 
    7590   -1297.6098    104.62926    18.024925    3748.0066   -1630.7885 
    7600   -1297.5877    104.48615    18.022819    3746.6931   -702.32774 
    7610   -1297.5578    103.03973    18.013682    3740.9978    2474.6414 
    7620   -1297.5256    102.10171    18.029672    3750.9689   -2063.7551 
    7630   -1297.4853    103.57274    18.024591    3747.7982   -407.39908 
    7640    -1297.429     107.3634     18.01509    3741.8749    2355.4458 
    7650   -1297.3689    111.12845    18.030044    3751.2013   -2204.7439 
    7660   -1297.3085    113.38068    18.022311    3746.3763   -83.867446 
    7670   -1297.2423    113.77127       18.014    3741.1956    2425.6633 
    7680   -1297.1851    112.77398    18.030955    3751.7693   -2456.3799 
    7690   -1297.1375    111.99151    18.022583    3746.5459    164.38171 
    7700    -1297.089    112.33464    18.015548    3742.1602    2174.6892 
    7710   -1297.0487    113.96918    18.030788    3751.6654   -2558.3802 
    7720    -1297.021    116.16137    18.019941    3744.8989    647.55324 
    7730    -1296.996    116.51671     18.01579    3742.3114    1896.0727 
    7740   -1296.9799    114.26831     18.03115    3751.8912    -2627.238 
    7750   -1296.9762    111.61578    18.019914    3744.8816    1078.9942 
    7760   -1296.9736    110.50168    18.019619    3744.6978    1384.9021 
    7770   -1296.9703    111.17448     18.03304    3753.0715   -2773.2559 
    7780    -1296.978    112.42769    18.017151    3743.1595    1580.7133 
    7790   -1296.9853    112.67375    18.017375    3743.2988    1244.1045 
    7800   -1296.9928    112.15475    18.030607    3751.5521   -2830.0858 
    7810   -1297.0122    112.54786    18.014147    3741.2876    1715.3841 
    7820   -1297.0328    114.05692    18.015235    3741.9654    1005.2021 
    7830   -1297.0559    114.66733    18.026819    3749.1884   -2668.2076 
    7840   -1297.0911    112.73616    18.011634    3739.7217     2049.715 
    7850   -1297.1319    108.07482    18.017328    3743.2698    451.36542 
    7860   -1297.1655    103.32254    18.028332    3750.1326   -2379.6415 
    7870   -1297.2013    101.35651    18.014772    3741.6772    2195.3834 
    7880   -1297.2368    103.16155    18.023127    3746.8853   -270.18561 
    7890   -1297.2649    107.75152    18.029066    3750.5904   -2054.6902 
    7900   -1297.2976    112.96449    18.013823    3741.0857    2587.9749 
    7910   -1297.3443    115.60227    18.025197    3748.1767   -683.22657 
    7920   -1297.3945    114.71788    18.030135    3751.2576   -1840.5434 
    7930   -1297.4553    111.88565    18.015347     3742.035    2441.3905 
    7940   -1297.5276    109.06152    18.025812      3748.56   -840.68754 
    7950   -1297.5991    107.69388    18.027318    3749.4997   -1757.6017 
    7960   -1297.6665    107.42256    18.010847    3739.2318    2893.2589 
    7970   -1297.7373    106.30809    18.024461    3747.7175   -1219.8623 
    7980   -1297.7938    103.76285    18.025608     3748.433   -1679.2104 
    7990   -1297.8327    100.66141    18.009525    3738.4082    3209.3528 
    8000   -1297.8672    98.782541    18.026952    3749.2712   -1672.9391 
    8010   -1297.8833    99.537092    18.026364    3748.9047   -1774.7356 
    8020   -1297.8808    101.98577    18.008042    3737.4852    3834.4042 
    8030   -1297.8845    103.65889    18.029183    3750.6637   -2343.3444 
    8040   -1297.8785    103.77415    18.026708    3749.1194   -1286.9142 
    8050   -1297.8598    103.02075    18.010449    3738.9839    3709.5248 
    8060   -1297.8488    102.93016    18.032199     3752.546   -2903.8271 
    8070    -1297.837    104.36109    18.023929    3747.3856   -690.45972 
    8080   -1297.8058    105.73678    18.008483    3737.7598    3750.9669 
    8090    -1297.783    105.62767     18.03139    3752.0412     -3617.56 
    8100    -1297.767    105.05762    18.017611     3743.446    228.00017 
    8110   -1297.7298    104.50293    18.005991    3736.2082     3655.511 
    8120   -1297.6954    103.74892    18.032239    3752.5712   -4112.8649 
    8130   -1297.6702    103.53845    18.016181    3742.5551    689.81154 
    8140    -1297.623    103.63349    18.007056    3736.8709    3565.2826 
    8150   -1297.5733    103.44585    18.034386     3753.912   -4507.8693 
    8160   -1297.5359    103.62021    18.015808    3742.3227    1544.6327 
    8170   -1297.4836    104.42157    18.012829    3740.4666    2923.6469 
    8180   -1297.4195    107.13635    18.039804    3757.2964   -5136.6975 
    8190   -1297.3789    112.19593    18.014087    3741.2504    2532.5967 
    8200   -1297.3275    116.37644    18.013788     3741.064    2468.5221 
    8210   -1297.2693    116.36337    18.039405    3757.0467   -5315.1341 
    8220   -1297.2436    112.70685     18.01032    3738.9033    3361.5977 
    8230   -1297.2156    107.33437    18.015284    3741.9958    1819.8908 
    8240   -1297.1647    104.05909     18.03949       3757.1   -5526.5044 
    8250   -1297.1366    105.76087    18.006111     3736.283    4177.4838 
    8260   -1297.1033    110.85197    18.014983    3741.8081    1253.1283 
    8270   -1297.0407    116.21956    18.037768    3756.0242   -5519.2524 
    8280    -1297.004    118.74341    18.003855    3734.8789    5067.9942 
    8290   -1296.9873    115.77243    18.020931    3745.5159    211.81083 
    8300    -1296.935    110.97594    18.041379    3758.2805   -5347.1353 
    8310   -1296.9025    108.74113    18.006319     3736.412    5642.2321 
    8320   -1296.8903    110.16494    18.028467    3750.2165   -892.49741 
    8330   -1296.8389    114.22427      18.0419    3758.6057   -5119.2493 
    8340   -1296.7913    117.99315    18.002193    3733.8443    6451.1926 
    8350    -1296.779      118.052     18.02798     3749.913   -1778.1643 
    8360   -1296.7383    115.74173    18.036682    3755.3458   -4384.7418 
    8370   -1296.6934    113.64198    17.999505    3732.1719    6716.1066 
    8380   -1296.6878    112.64192    18.030797     3751.671   -2891.4873 
    8390   -1296.6541    114.00564    18.033448     3753.326   -3753.9669 
    8400    -1296.599    117.01874    17.997269    3730.7814    7233.4414 
    8410   -1296.5909    118.67298    18.034684    3754.0978   -4089.0201 
    8420   -1296.5673    119.07876    18.030833    3751.6936   -2878.0953 
    8430   -1296.5119    118.81426    17.997142    3730.7022    7427.5937 
    8440   -1296.5064    118.43987    18.039262    3756.9573    -5141.113 
    8450   -1296.4967    120.08868    18.029236    3750.6968    -1793.231 
    8460   -1296.4473    122.55428     18.00018    3732.5917    7067.1988 
    8470   -1296.4419    123.39894     18.04381       3759.8   -5843.0791 
    8480   -1296.4551    122.28829    18.026389      3748.92   -838.33245 
    8490    -1296.417    119.49139    18.000091    3732.5365    7028.7659 
    8500   -1296.4136    116.04496    18.045449    3760.8241   -6794.4645 
    8510   -1296.4369    115.04463    18.021455    3745.8427    394.59112 
    8520   -1296.4019    116.15509    18.001879    3733.6488     6350.071 
    8530   -1296.3813    117.71025    18.047397    3762.0423   -7213.6451 
    8540   -1296.3997    119.58104    18.018493    3743.9958    1493.7606 
    8550   -1296.3691    120.39041    18.005497    3735.9007    5584.8184 
    8560   -1296.3394    120.01031    18.049743      3763.51     -7403.99 
    8570   -1296.3579    119.71312    18.017076     3743.113    2323.9925 
    8580   -1296.3314    118.32678    18.008858    3737.9932    4812.9002 
    8590   -1296.2928    116.80044    18.049978    3763.6566   -7341.1219 
    8600   -1296.2993     118.0661    18.015061    3741.8573    2983.3986 
    8610   -1296.2648    121.98248    18.011503    3739.6404    3830.2537 
    8620   -1296.2095    126.23781    18.046837    3761.6921   -6907.5636 
    8630   -1296.1963    128.52264    18.011018    3739.3385    3750.5616 
    8640    -1296.166     126.0172    18.014499     3741.507    2821.8038 
    8650   -1296.1082      121.002      18.0464    3761.4192    -6335.041 
    8660   -1296.0847    118.21018    18.012823    3740.4624    3996.0733 
    8670   -1296.0489    119.19759    18.021015     3745.568    1835.0307 
    8680   -1295.9756    123.82419    18.046486    3761.4729   -5911.5815 
    8690   -1295.9272    129.71093    18.011457    3739.6115    4432.7415 
    8700   -1295.8807      132.565    18.022621    3746.5699    912.21728 
    8710   -1295.8139    131.10587    18.043007    3759.2976   -4909.8792 
    8720   -1295.7762    127.07496    18.012703    3740.3877    4171.7571 
    8730   -1295.7513     122.7761    18.026123    3748.7543    251.31438 
    8740   -1295.7047    122.52099    18.040948     3758.011   -4260.1504 
    8750   -1295.6704    128.33144     18.01261    3740.3298    4036.2188 
    8760   -1295.6474     135.9679    18.026008    3748.6826   -409.29855 
    8770   -1295.6208    140.24723    18.034734     3754.129   -3198.4874 
    8780   -1295.6136    138.75418    18.011387    3739.5682    3833.4274 
    8790   -1295.6331    132.10908    18.027598    3749.6743   -1038.5731 
    8800   -1295.6482    125.41116     18.03321    3753.1775   -2391.3953 
    8810   -1295.6672    122.17957    18.014723    3741.6467    3390.0297 
    8820   -1295.6968    122.50856    18.030628    3751.5653   -1443.1454 
    8830   -1295.7222    124.94698    18.031155    3751.8947   -1655.3605 
    8840   -1295.7474    126.56907    18.015593    3742.1883    3139.5015 
    8850   -1295.7875    125.70803    18.032605    3752.7997   -1701.7676 
    8860   -1295.8271    123.82876    18.031956    3752.3944   -1334.6765 
    8870   -1295.8656    122.69975    18.017704    3743.5042    2719.2609 
    8880   -1295.9135    123.14237    18.031388    3752.0399   -1602.0589 
    8890   -1295.9636    125.22056    18.028419    3750.1865   -874.36826 
    8900   -1296.0138     127.6288    18.016929     3743.021    2512.2676 
    8910   -1296.0758    128.60545    18.031089    3751.8531   -1797.6252 
    8920   -1296.1438    127.80388    18.026452    3748.9597   -627.33064 
    8930   -1296.2077    125.02268    18.015523    3742.1448    2193.8435 
    8940   -1296.2737    121.03704    18.028214    3750.0588   -1591.3997 
    8950   -1296.3313    118.26895    18.024382    3747.6682   -448.80509 
    8960   -1296.3747    118.06144    18.015946    3742.4087    1866.8685 
    8970   -1296.4119    119.72836    18.027008    3749.3065   -1580.6169 
    8980   -1296.4425    121.72929    18.021854    3746.0917    -78.35876 
    8990   -1296.4635    122.10362    18.016156    3742.5391    1676.1532 
    9000   -1296.4807    120.85481    18.027876    3749.8481   -1620.8335 
    9010   -1296.4934    119.49412    18.022845    3746.7096    113.54409 
    9020   -1296.4979    118.78412    18.019294     3744.495    1510.0281 
    9030   -1296.4972    118.83118    18.031353     3752.018   -1686.3998 
    9040   -1296.4934    119.44838    18.025729    3748.5087    290.11132 
    9050   -1296.4837    119.79289    18.023229     3746.949    1257.6783 
    9060   -1296.4701    119.37467    18.033466    3753.3372   -1758.9629 
    9070    -1296.456    118.53923    18.025524    3748.3806    517.61091 
    9080   -1296.4353    118.02918    18.023035    3746.8279    1067.4754 
    9090   -1296.4108    118.95334    18.031859    3752.3338    -1609.135 
    9100   -1296.3854    121.36169    18.023828    3747.3226    510.01056 
    9110   -1296.3555    123.32633    18.021381    3745.7962    1112.8546 
    9120   -1296.3252    123.24825    18.030372    3751.4056   -1675.0316 
    9130   -1296.2973    121.60808    18.022081    3746.2327    744.01518 
    9140   -1296.2664    120.04619    18.021512    3745.8783      933.509 
    9150   -1296.2319    120.05977    18.030505    3751.4889   -1667.2574 
    9160   -1296.1975    121.97797    18.021973    3746.1657     799.5847 
    9170   -1296.1599    124.68755    18.021643    3745.9597    778.60042 
    9180   -1296.1216    126.94116    18.029361    3750.7749   -1634.8215 
    9190   -1296.0882    127.83751    18.020088    3744.9902    856.10676 
    9200   -1296.0563    126.38449    18.020157    3745.0333    828.70839 
    9210    -1296.025    123.33232     18.02903    3750.5681   -1570.3887 
    9220   -1295.9958    120.51287    18.021532    3745.8907    815.25952 
    9230   -1295.9634    119.76959    18.022289    3746.3629    608.29732 
    9240    -1295.926    122.09355    18.029573    3750.9073   -1601.0879 
    9250   -1295.8889    127.48294    18.019864    3744.8506    985.64624 
    9260   -1295.8513    132.67833    18.020148    3745.0275    681.68749 
    9270   -1295.8178    134.07335    18.028245    3750.0781    -1428.316 
    9280    -1295.793    130.45802     18.02209    3746.2386    1103.6319 
    9290   -1295.7735    124.01377     18.02714    3749.3888    141.94008 
    9300   -1295.7494    119.29036    18.033534    3753.3798    -1359.451 
    9310   -1295.7226     120.1175    18.025083    3748.1057    1115.2843 
    9320   -1295.6907     126.0982    18.027752    3749.7705   -77.262227 
    9330   -1295.6565    132.93537    18.029258    3750.7101   -1131.4594 
    9340   -1295.6252    136.54002    18.019341    3744.5245    1611.7462 
    9350   -1295.6033    135.26098    18.026131     3748.759   -538.86577 
    9360   -1295.5854    131.42462    18.028138    3750.0116   -1019.6623 
    9370   -1295.5697    128.50658    18.020072    3744.9806    1653.1841 
    9380    -1295.556    128.14517    18.028736    3750.3845   -1044.1763 
    9390   -1295.5408    129.84573    18.026977    3749.2873   -574.74402 
    9400    -1295.523    131.41819    18.018822    3744.2012    1672.0769 
    9410   -1295.5088    131.66076    18.028137    3750.0108   -1104.8941 
    9420   -1295.4951    131.74231    18.026795    3749.1734   -452.90081 
    9430   -1295.4811    132.45182     18.02096    3745.5338    1625.6982 
    9440   -1295.4701     133.0312    18.031684    3752.2246   -1434.7425 
    9450   -1295.4614    132.83129    18.027453    3749.5838   -281.03952 
    9460   -1295.4501    131.52262    18.020587    3745.3013    1869.4944 
    9470   -1295.4409    129.92964    18.032747    3752.8884   -1881.2672 
    9480   -1295.4326    129.40429    18.025832    3748.5725    144.87722 
    9490   -1295.4178    129.38393    18.020525    3745.2628    1807.8423 
    9500   -1295.4014    129.14435    18.034062    3753.7093   -2249.1974 
    9510   -1295.3861    129.56565    18.024647    3747.8335    648.30465 
    9520   -1295.3632    131.20307    18.021587    3745.9251    1668.1203 
    9530   -1295.3365    133.61701    18.035785    3754.7855   -2519.6062 
    9540   -1295.3139    136.13502    18.024259    3747.5912    1019.8016 
    9550   -1295.2875    138.14494    18.022523    3746.5089    1354.1161 
    9560   -1295.2609    139.68873     18.03488    3754.2199   -2453.5257 
    9570    -1295.242    140.46964     18.02208    3746.2323     1393.475 
    9580   -1295.2239    139.26541      18.0232    3746.9306    979.49656 
    9590   -1295.2035    136.99235    18.034769     3754.151   -2610.2444 
    9600   -1295.1882    134.68547    18.019438    3744.5852    2009.1817 
    9610   -1295.1694    132.27711    18.024321    3747.6303     490.0157 
    9620    -1295.136     131.4623    18.035165    3754.3981   -2690.1727 
    9630   -1295.0968    133.87056    18.018464    3743.9777    2563.1812 
    9640   -1295.0492    137.95565    18.027358    3749.5246   -243.55942 
    9650   -1294.9836    141.34311    18.034989    3754.2884   -2403.8142 
    9660   -1294.9149    142.59426    18.017666    3743.4803    3015.6935 
    9670    -1294.853    141.06589    18.031009    3751.8034   -889.24707 
    9680   -1294.7829    139.07953    18.036433    3755.1899   -2245.2385 
    9690   -1294.7137    138.53878    18.018215    3743.8229    3360.3169 
    9700   -1294.6564    139.54359    18.034353    3753.8913   -1504.7447 
    9710   -1294.5961    141.79022    18.035479    3754.5941   -2014.5549 
    9720   -1294.5343    143.69423    18.015457     3742.104    4027.7888 
    9730   -1294.4956    142.81641    18.036789    3755.4125   -2178.6746 
    9740   -1294.4569    140.34897    18.036477    3755.2178   -2054.4369 
    9750   -1294.4131    139.05465    18.014986    3741.8102    4594.9293 
    9760   -1294.3904    141.01655    18.040108    3757.4862   -3084.0526 
    9770   -1294.3701     146.3133    18.034221    3753.8088   -1492.4782 
    9780   -1294.3379    150.50391    18.012562    3740.3001    4982.5693 
    9790   -1294.3381    149.53424    18.042023    3758.6827   -3983.2019 
    9800   -1294.3521    145.69223    18.031927    3752.3763    -622.4775 
[...]
   41540   -1281.4417    311.89423    18.051506    3764.6125    2718.4292 
   41550   -1281.4287    302.74703    18.051506    3764.6125    3333.5478 
   41560   -1281.4197    291.89541    18.051506    3764.6125    3611.4353 
   41570   -1281.4063    286.05306    18.051506    3764.6125    4027.4363 
   41580    -1281.383    287.08959    18.051506    3764.6125    4128.5244 
   41590   -1281.3488    293.10021    18.051506    3764.6125    4019.2646 
   41600   -1281.3059    302.36507    18.051506    3764.6125    3864.0664 
   41610   -1281.2597    313.56225    18.051506    3764.6125    3266.4017 
   41620   -1281.2182    321.68781    18.051506    3764.6125    2708.7763 
   41630   -1281.1896     321.9361    18.051506    3764.6125    2880.6277 
   41640   -1281.1771    315.29853    18.051506    3764.6125    3429.1798 
   41650   -1281.1787    309.49975    18.051506    3764.6125    3666.3891 
   41660   -1281.1932    311.24474    18.051506    3764.6125    3408.4865 
   41670   -1281.2264    317.70046    18.051506    3764.6125    3238.7368 
   41680   -1281.2892    319.50156    18.051506    3764.6125    3080.9336 
   41690   -1281.3868    312.02238    18.051506    3764.6125    3185.2885 
   41700   -1281.5122    298.49772    18.051506    3764.6125    3670.8359 
   41710    -1281.649    284.45665    18.051506    3764.6125    4435.9458 
   41720   -1281.7816    275.76515    18.051506    3764.6125    4540.3804 
   41730   -1281.9023    276.85089    18.051506    3764.6125    4365.7279 
   41740   -1282.0124    286.13431    18.051506    3764.6125     3604.222 
   41750   -1282.1181     296.1274    18.051506    3764.6125    2961.3587 
   41760   -1282.2238    298.13993    18.051506    3764.6125    2856.2379 
   41770   -1282.3267    290.36697    18.051506    3764.6125    3647.2174 
   41780   -1282.4191    281.53985    18.051506    3764.6125    4157.4812 
   41790   -1282.4966    281.85343    18.051506    3764.6125    4168.0361 
   41800    -1282.563     292.2117    18.051506    3764.6125    3335.4407 
   41810   -1282.6266    302.80062    18.051506    3764.6125    2587.9243 
   41820   -1282.6944    304.90325    18.051506    3764.6125    2275.0288 
   41830   -1282.7667    298.07244    18.051506    3764.6125    2534.7681 
   41840   -1282.8365    287.78939    18.051506    3764.6125     3091.993 
   41850   -1282.8966    280.42264    18.051506    3764.6125    3350.8791 
   41860    -1282.943    278.22017    18.051506    3764.6125    3516.4147 
   41870   -1282.9746    278.89178    18.051506    3764.6125     2996.373 
   41880   -1282.9918    279.30692    18.051506    3764.6125    2523.7133 
   41890   -1282.9947    278.36114    18.051506    3764.6125    2415.5908 
   41900   -1282.9823     278.0015    18.051506    3764.6125    2798.1601 
   41910   -1282.9538    281.46923    18.051506    3764.6125    2611.7919 
   41920   -1282.9103    289.55326    18.051506    3764.6125    2434.5342 
   41930   -1282.8561    297.21847    18.051506    3764.6125    2186.2316 
   41940   -1282.7966    300.59981    18.051506    3764.6125    2190.4562 
   41950   -1282.7352    298.93745    18.051506    3764.6125    2322.4866 
   41960   -1282.6712    293.39666    18.051506    3764.6125    2955.4646 
   41970   -1282.6007    288.07341    18.051506    3764.6125    3185.3613 
   41980   -1282.5188    285.58509    18.051506    3764.6125     2989.286 
   41990   -1282.4222    283.35327    18.051506    3764.6125    2689.4177 
   42000   -1282.3092    279.54611    18.051506    3764.6125    2561.4425 
   42010   -1282.1781    278.09565    18.051506    3764.6125     2554.193 
   42020   -1282.0284    283.36189    18.051506    3764.6125      2389.38 
   42030   -1281.8644    292.65611    18.051506    3764.6125    2092.2643 
   42040   -1281.6982    299.71233    18.051506    3764.6125    1928.7291 
   42050   -1281.5433    301.14511    18.051506    3764.6125    2108.5506 
   42060   -1281.4071     299.5012    18.051506    3764.6125     2657.697 
   42070   -1281.2899    300.73002    18.051506    3764.6125    2984.9336 
   42080   -1281.1907    308.36076    18.051506    3764.6125    3252.9094 
   42090   -1281.1123    318.82398    18.051506    3764.6125    3231.3635 
   42100   -1281.0606    324.71994    18.051506    3764.6125     3404.034 
   42110   -1281.0375    322.40897    18.051506    3764.6125    3687.5275 
   42120   -1281.0373    312.34762    18.051506    3764.6125    4183.4406 
   42130    -1281.048    297.57035    18.051506    3764.6125    4881.5736 
   42140   -1281.0568    285.48152    18.051506    3764.6125    5239.3492 
   42150   -1281.0559    284.03635    18.051506    3764.6125    5465.3324 
   42160   -1281.0456    296.25572    18.051506    3764.6125    4553.1118 
   42170   -1281.0347    315.09481    18.051506    3764.6125    3462.6587 
   42180   -1281.0384    328.36818    18.051506    3764.6125    2668.1496 
   42190   -1281.0673    325.99942    18.051506    3764.6125    2540.9661 
   42200   -1281.1171    309.44529    18.051506    3764.6125     3493.562 
   42210   -1281.1718    291.25548    18.051506    3764.6125    4469.1338 
   42220   -1281.2184    283.56887    18.051506    3764.6125       4842.6 
   42230   -1281.2537    288.72007    18.051506    3764.6125    4487.1136 
   42240   -1281.2825    300.30061    18.051506    3764.6125    3410.5106 
   42250   -1281.3142    310.48858    18.051506    3764.6125    2648.9518 
   42260   -1281.3568    312.54019    18.051506    3764.6125    2454.6186 
   42270   -1281.4112    305.60352    18.051506    3764.6125    3094.9474 
   42280   -1281.4712    295.99831    18.051506    3764.6125    3536.5144 
   42290   -1281.5302    292.27775    18.051506    3764.6125    3820.0905 
   42300   -1281.5871    297.34124    18.051506    3764.6125    3540.2845 
   42310   -1281.6479    307.58991    18.051506    3764.6125    2953.0162 
   42320   -1281.7219    315.76961    18.051506    3764.6125    2501.3699 
   42330   -1281.8165    316.78019    18.051506    3764.6125     2390.527 
   42340   -1281.9314    308.93173    18.051506    3764.6125    2632.4246 
   42350   -1282.0576    295.49112    18.051506    3764.6125    3227.7748 
   42360   -1282.1812    280.46012    18.051506    3764.6125    3460.8276 
   42370   -1282.2899     269.1548    18.051506    3764.6125    3628.3691 
   42380   -1282.3782    267.58988    18.051506    3764.6125     3691.117 
   42390   -1282.4479    276.08438    18.051506    3764.6125     2948.564 
   42400   -1282.5052    286.77618    18.051506    3764.6125    2366.7928 
   42410   -1282.5572    293.40517    18.051506    3764.6125    2104.6618 
   42420   -1282.6088    296.53019    18.051506    3764.6125    1755.8167 
   42430   -1282.6636    298.76585    18.051506    3764.6125    1745.1364 
   42440   -1282.7247    300.26305    18.051506    3764.6125    1788.8304 
   42450   -1282.7955    300.61684    18.051506    3764.6125    1426.3065 
   42460   -1282.8795    300.07886    18.051506    3764.6125    1508.3518 
   42470     -1282.98    296.62546    18.051506    3764.6125    1559.9265 
   42480   -1283.0972    287.03796    18.051506    3764.6125    1889.1294 
   42490   -1283.2241    271.01439    18.051506    3764.6125    2571.8652 
   42500   -1283.3486    254.91711    18.051506    3764.6125    3265.6871 
   42510   -1283.4608    247.39237    18.051506    3764.6125    3617.2929 
   42520   -1283.5575    252.01766    18.051506    3764.6125    3383.0359 
   42530   -1283.6417    264.70677    18.051506    3764.6125    2670.4838 
   42540   -1283.7188    276.84126    18.051506    3764.6125    1827.6494 
   42550   -1283.7943    282.82342    18.051506    3764.6125    1540.8842 
   42560   -1283.8701    282.65888    18.051506    3764.6125    1672.0556 
   42570   -1283.9439    277.40112    18.051506    3764.6125    1927.7778 
   42580   -1284.0099    269.87882    18.051506    3764.6125    2078.6795 
   42590   -1284.0614     265.1211    18.051506    3764.6125    2049.5488 
   42600   -1284.0943     266.6887    18.051506    3764.6125    1525.3868 
   42610   -1284.1073    271.29574    18.051506    3764.6125    1122.5078 
   42620   -1284.1005    275.21729    18.051506    3764.6125    612.73085 
   42630   -1284.0742    278.35646    18.051506    3764.6125    710.43442 
   42640   -1284.0282    281.65274    18.051506    3764.6125    130.81069 
   42650    -1283.963    284.88136    18.051506    3764.6125   -88.078959 
   42660   -1283.8792    284.37867    18.051506    3764.6125    140.60414 
   42670   -1283.7772    279.16068    18.051506    3764.6125    703.20059 
   42680   -1283.6553     272.9638    18.051506    3764.6125    1613.0649 
   42690   -1283.5109     270.7425    18.051506    3764.6125    1982.0414 
   42700   -1283.3441    273.44313    18.051506    3764.6125    2221.8422 
   42710   -1283.1613    278.45222    18.051506    3764.6125    2262.8716 
   42720   -1282.9745    281.33974    18.051506    3764.6125    2009.9339 
   42730   -1282.7958     281.1063    18.051506    3764.6125    1961.8297 
   42740    -1282.631    281.04975    18.051506    3764.6125    2268.6401 
   42750   -1282.4808    284.80591    18.051506    3764.6125    2779.3616 
   42760   -1282.3446    292.56382    18.051506    3764.6125     3093.603 
   42770   -1282.2243    300.55425    18.051506    3764.6125     2817.144 
   42780   -1282.1223    303.69342    18.051506    3764.6125    2915.1992 
   42790    -1282.038    301.29778    18.051506    3764.6125    3265.4408 
   42800   -1281.9668    299.09792    18.051506    3764.6125    3238.1208 
   42810   -1281.9038     301.2037    18.051506    3764.6125    3369.1781 
   42820   -1281.8476    302.16168    18.051506    3764.6125    3358.6698 
   42830   -1281.7977    298.16723    18.051506    3764.6125    3668.3995 
   42840   -1281.7507    291.24398    18.051506    3764.6125    4012.8497 
   42850    -1281.701    287.41214    18.051506    3764.6125    4081.1895 
   42860   -1281.6446    290.33399    18.051506    3764.6125    3958.6152 
   42870   -1281.5821    298.14189    18.051506    3764.6125    3604.9674 
   42880   -1281.5183    306.21424    18.051506    3764.6125    2896.2378 
   42890   -1281.4602    310.82792    18.051506    3764.6125    2442.4959 
   42900   -1281.4122     309.5398    18.051506    3764.6125    2788.7427 
   42910   -1281.3737    303.03171    18.051506    3764.6125    3546.8727 
   42920   -1281.3399    297.75723    18.051506    3764.6125    4235.2606 
   42930    -1281.306    298.36007    18.051506    3764.6125    4547.5081 
   42940   -1281.2716    303.39167    18.051506    3764.6125    4332.7066 
   42950     -1281.24    308.74637    18.051506    3764.6125    4150.0921 
   42960   -1281.2156    309.83419    18.051506    3764.6125    3971.8538 
   42970   -1281.2003    307.40289    18.051506    3764.6125    4285.5699 
   42980   -1281.1926    304.75375    18.051506    3764.6125    4572.1549 
   42990   -1281.1905    303.33258    18.051506    3764.6125    4505.4397 
   43000   -1281.1928    302.50205    18.051506    3764.6125    4501.8416 
   43010   -1281.1994     303.5371    18.051506    3764.6125    4128.8354 
   43020   -1281.2118    308.46053    18.051506    3764.6125    3375.6673 
   43030   -1281.2354    315.39252    18.051506    3764.6125    2851.0881 
   43040   -1281.2774    318.68644    18.051506    3764.6125    2625.1876 
   43050   -1281.3421    314.34352    18.051506    3764.6125    2440.0433 
   43060   -1281.4263     304.2749    18.051506    3764.6125    2405.3549 
   43070   -1281.5215    293.73702    18.051506    3764.6125    2873.3447 
   43080   -1281.6196     287.2021    18.051506    3764.6125    3280.1075 
   43090   -1281.7165    286.35127    18.051506    3764.6125     3319.395 
   43100   -1281.8123    290.14306    18.051506    3764.6125    3134.0488 
   43110   -1281.9105    297.04308    18.051506    3764.6125     2933.813 
   43120    -1282.017    304.60822    18.051506    3764.6125    2540.9467 
   43130   -1282.1373    309.28523    18.051506    3764.6125      2201.12 
   43140    -1282.273     308.0862    18.051506    3764.6125    2164.8351 
   43150   -1282.4183    300.94141    18.051506    3764.6125    2333.6475 
   43160   -1282.5625    291.60139    18.051506    3764.6125    2620.9824 
   43170   -1282.6946    282.31283    18.051506    3764.6125      2932.28 
   43180   -1282.8058    274.07741    18.051506    3764.6125    3433.0062 
   43190   -1282.8915    269.72214    18.051506    3764.6125    3673.3579 
   43200   -1282.9515    270.36612    18.051506    3764.6125    3484.3804 
   43210   -1282.9884    274.14354    18.051506    3764.6125    3122.9456 
   43220   -1283.0058    278.86856    18.051506    3764.6125    2701.5427 
   43230   -1283.0083    283.93133    18.051506    3764.6125    2442.9681 
   43240   -1282.9997    286.74497    18.051506    3764.6125    2348.4664 
   43250   -1282.9822     285.9608    18.051506    3764.6125    2436.2309 
   43260   -1282.9562     284.4684    18.051506    3764.6125     2351.315 
   43270   -1282.9208    283.72754    18.051506    3764.6125    2107.9808 
   43280   -1282.8751    282.49092    18.051506    3764.6125    2114.7899 
   43290   -1282.8188    282.95503    18.051506    3764.6125    2033.2687 
   43300   -1282.7519    287.51166    18.051506    3764.6125    1635.0644 
   43310   -1282.6772    295.05853    18.051506    3764.6125    1385.1138 
   43320   -1282.6001    300.84921    18.051506    3764.6125    1257.0122 
   43330   -1282.5263    301.42877    18.051506    3764.6125    1683.9423 
   43340    -1282.458    295.68764    18.051506    3764.6125     2603.212 
   43350   -1282.3919    285.94433    18.051506    3764.6125    3270.4317 
   43360   -1282.3213    278.29312    18.051506    3764.6125    3802.4103 
   43370   -1282.2413    278.01259    18.051506    3764.6125    4028.9579 
   43380   -1282.1509    284.54207    18.051506    3764.6125    4032.5316 
   43390   -1282.0552    292.40997    18.051506    3764.6125     3664.182 
   43400   -1281.9629    300.54978    18.051506    3764.6125    3288.6321 
   43410   -1281.8825    310.18439    18.051506    3764.6125    2565.4803 
   43420   -1281.8223    317.68606    18.051506    3764.6125    2022.8909 
   43430   -1281.7873    316.07574    18.051506    3764.6125    1735.1423 
   43440   -1281.7725    303.69344    18.051506    3764.6125    1636.5398 
   43450   -1281.7652    289.60219    18.051506    3764.6125    2186.0148 
   43460   -1281.7543     283.8407    18.051506    3764.6125    2619.1204 
   43470   -1281.7366    288.74546    18.051506    3764.6125     2609.121 
   43480   -1281.7157    298.81798    18.051506    3764.6125    2311.4437 
   43490   -1281.6985    305.46758    18.051506    3764.6125    2451.9063 
   43500   -1281.6891    303.35612    18.051506    3764.6125    3076.4702 
   43510   -1281.6844    294.89076    18.051506    3764.6125    3377.0305 
   43520   -1281.6781    288.36989    18.051506    3764.6125     3690.936 
   43530   -1281.6658    289.50395    18.051506    3764.6125    3849.4776 
   43540   -1281.6481    297.31463    18.051506    3764.6125    3567.8977 
   43550   -1281.6303    304.69698    18.051506    3764.6125    3318.3793 
   43560   -1281.6179    305.15775    18.051506    3764.6125    3783.4848 
   43570   -1281.6113    299.80658    18.051506    3764.6125    4316.6807 
   43580   -1281.6064    296.81445    18.051506    3764.6125    4383.5652 
   43590   -1281.6015    301.37582    18.051506    3764.6125     4181.088 
   43600   -1281.5996    309.02571    18.051506    3764.6125    3867.6075 
   43610   -1281.6067    312.88367    18.051506    3764.6125    3713.1861 
   43620   -1281.6266    310.75347    18.051506    3764.6125    3656.5624 
   43630   -1281.6575    304.88771    18.051506    3764.6125    3717.4585 
   43640   -1281.6949     298.5527    18.051506    3764.6125     4131.641 
   43650   -1281.7338    293.38956    18.051506    3764.6125    4187.7645 
   43660   -1281.7707    290.24193    18.051506    3764.6125    3882.7319 
   43670   -1281.8032    289.12617    18.051506    3764.6125    3719.3111 
   43680   -1281.8307    290.47641    18.051506    3764.6125    3293.1668 
   43690   -1281.8546     294.2594    18.051506    3764.6125    2954.4624 
   43700   -1281.8777    298.94586    18.051506    3764.6125    2462.0035 
   43710   -1281.9041    301.55948    18.051506    3764.6125    2379.8002 
   43720   -1281.9362    301.20281    18.051506    3764.6125    2502.8035 
   43730   -1281.9745    299.36116    18.051506    3764.6125    2624.8151 
   43740   -1282.0187    297.93916    18.051506    3764.6125     2968.675 
   43750   -1282.0686    296.97869    18.051506    3764.6125    3414.4738 
   43760   -1282.1241    295.39784    18.051506    3764.6125    3775.7656 
   43770   -1282.1847    293.02426    18.051506    3764.6125     4108.993 
   43780   -1282.2489    289.27643    18.051506    3764.6125    4132.0271 
   43790   -1282.3136     285.0295    18.051506    3764.6125     4227.888 
   43800   -1282.3761    285.11478    18.051506    3764.6125     3945.941 
   43810   -1282.4374    289.59307    18.051506    3764.6125    3546.5723 
   43820   -1282.5005    293.87711    18.051506    3764.6125    2974.1707 
   43830   -1282.5685    295.45813    18.051506    3764.6125    2353.7325 
   43840   -1282.6425    294.04055    18.051506    3764.6125    1964.0713 
   43850   -1282.7209    291.12098    18.051506    3764.6125    1805.0973 
   43860   -1282.8013    288.18561    18.051506    3764.6125    1652.9665 
   43870   -1282.8804    284.20882    18.051506    3764.6125    1948.6157 
   43880   -1282.9539    277.77109    18.051506    3764.6125    2335.5906 
   43890   -1283.0157    271.34046    18.051506    3764.6125    2916.3461 
   43900   -1283.0614    269.63017    18.051506    3764.6125    3402.2096 
   43910   -1283.0895     274.4318    18.051506    3764.6125    3580.1376 
   43920   -1283.1024    282.88733    18.051506    3764.6125    3364.1114 
   43930    -1283.104    289.67205    18.051506    3764.6125    2969.5653 
   43940   -1283.0982    290.63862    18.051506    3764.6125    2836.2648 
   43950   -1283.0853    286.59841    18.051506    3764.6125    2756.7285 
   43960   -1283.0616    281.57342    18.051506    3764.6125    2473.1268 
   43970   -1283.0225    279.26419    18.051506    3764.6125    1975.7365 
   43980   -1282.9638    281.24938    18.051506    3764.6125    1612.2676 
   43990   -1282.8839    285.17053    18.051506    3764.6125    979.12051 
   44000   -1282.7838    287.28157    18.051506    3764.6125    999.37799 
Loop time of 27.6348 on 1 procs for 3000 steps with 320 atoms

Performance: 9.379 ns/day, 2.559 hours/ns, 108.559 timesteps/s
95.5% CPU use with 1 MPI tasks x 1 OpenMP threads

MPI task timing breakdown:
Section |  min time  |  avg time  |  max time  |%varavg| %total
---------------------------------------------------------------
Pair    | 26.081     | 26.081     | 26.081     |   0.0 | 94.38
Neigh   | 0          | 0          | 0          |   0.0 |  0.00
Comm    | 0.03102    | 0.03102    | 0.03102    |   0.0 |  0.11
Output  | 1.1191     | 1.1191     | 1.1191     |   0.0 |  4.05
Modify  | 0.38809    | 0.38809    | 0.38809    |   0.0 |  1.40
Other   |            | 0.01602    |            |       |  0.06

Nlocal:    320 ave 320 max 320 min
Histogram: 1 0 0 0 0 0 0 0 0 0
Nghost:    1592 ave 1592 max 1592 min
Histogram: 1 0 0 0 0 0 0 0 0 0
Neighs:    13862 ave 13862 max 13862 min
Histogram: 1 0 0 0 0 0 0 0 0 0
FullNghs:  27724 ave 27724 max 27724 min
Histogram: 1 0 0 0 0 0 0 0 0 0

Total # of neighbors = 27724
Ave neighs/atom = 86.6375
Neighbor list builds = 0
Dangerous builds = 0

# ----- Output restart data -----
write_data data.in.restart
Total wall time: 0:06:47
