ITEM: TIMESTEP
0
ITEM: NUMBER OF ATOMS
12000
ITEM: BOX BOUNDS pp pp pp
-2.9595242876776595e-01 2.7636952428767458e+01
-2.9644157045607322e-01 2.7637441570456126e+01
-2.4594295764191685e+00 2.2118742957641942e+02
ITEM: ATOMS id type x y z c_peratom fx fy fz 
242 2 5.32577 5.45383 3.27462 -24.9589 -2.45805 0.930008 -2.60923 
1201 2 5.02419 2.691 0.355137 -25.762 -1.74328 0.692991 -0.249249 
1202 2 5.32596 2.64463 6.04023 -24.4988 -2.37962 3.19811 1.63968 
2041 2 2.28534 5.38029 0.425618 -25.5478 1.55873 2.26025 -1.59205 
2042 2 2.41316 5.34623 5.85427 -25.4682 -1.19285 1.84227 1.05226 
3002 2 2.39866 2.61046 3.31697 -24.3216 -2.5935 1.66083 -2.08817 
4001 1 1.19794 1.72721 -1.13733 -7.38182 -1.97092 -1.10634 -0.489105 
4002 1 0.564727 1.21396 4.45661 -6.98466 3.83249 0.225246 -0.599776 
5001 1 3.93082 4.21543 1.73235 -6.66967 -0.0249846 0.60947 0.677345 
6001 1 3.45237 3.78124 -0.932884 -6.96334 -0.485414 0.991853 -0.517255 
6002 1 3.51516 3.96683 4.52513 -7.52634 2.22546 1.33527 0.75391 
7001 1 0.33527 1.44403 1.51851 -7.62889 3.53999 -3.65111 2.57768 
8001 1 3.49842 1.47787 1.68974 -8.00221 -0.377795 -0.844439 2.19628 
9001 1 0.491256 4.28076 -1.17019 -7.15174 3.28802 0.964116 -0.572661 
9002 1 0.798041 4.00533 4.56584 -7.61851 0.423507 -0.67246 0.144656 
10001 1 1.31986 4.16464 1.79906 -7.50065 -2.36633 -2.76799 1.20103 
11001 1 3.62424 0.972028 -0.938162 -6.17111 1.85821 0.0473853 -0.798131 
11002 1 3.35027 1.3836 4.85994 -8.43956 2.45352 -0.765876 -1.32207 
9201 1 6.36903 4.12188 -1.41788 -7.06274 0.0164278 0.00217175 1.47187 
9202 1 6.33168 3.95838 4.30007 -7.38154 1.03958 -2.07045 1.06142 
7201 1 6.3678 1.32312 2.02277 -8.45318 0.843617 -0.584029 -0.68864 
4201 1 6.25974 1.37148 -0.866854 -7.73678 2.06451 -0.840546 -0.258621 
10201 1 6.4589 4.11766 1.46733 -7.46146 0.842117 -0.82744 0.548744 
4202 1 6.36046 1.32836 4.87895 -7.41983 0.0576276 -2.17375 -2.9696 
2002 2 2.25163 -0.148967 5.79324 -24.8562 -3.25945 -3.23307 1.57307 
11041 1 3.54961 6.67404 -1.06899 -7.61447 1.12432 0.0990099 -0.787343 
202 2 4.94023 -0.0699303 3.26196 -24.0554 1.62343 0.713195 -0.809541 
2001 2 2.02566 0.145316 0.29846 -25.7408 1.36079 -0.297105 1.44379 
201 2 5.07648 -0.0301697 -2.43266 -25.3279 -0.755687 0.121892 1.6809 
2201 2 7.7694 0.0645392 0.513339 -24.2993 -0.365 -0.882609 -2.03328 
442 2 10.6751 5.33875 3.16381 -24.2872 -1.25888 -0.0262356 -1.21082 
1401 2 10.787 2.73436 0.251145 -24.0084 -0.456526 0.780216 -0.848606 
1402 2 10.5731 2.56396 6.09433 -24.8896 4.66379 -1.4945 -4.50041 
2241 2 7.72923 5.49293 0.346344 -25.5453 1.83134 0.39444 -1.40541 
2242 2 8.12929 5.67378 6.18381 -25.2317 -1.64216 -1.99949 -3.03602 
3202 2 7.92879 2.7116 3.08141 -24.5712 -1.35148 0.017646 1.72447 
4401 1 12.3166 1.38803 -1.18247 -7.92355 -2.65526 -0.31469 3.04996 
4402 1 11.7508 1.13863 4.46718 -6.82197 0.567806 1.34874 0.675519 
5201 1 9.14902 3.98492 1.83994 -7.61097 1.50986 -0.506408 -1.61648 
6201 1 9.12202 4.41727 -1.15621 -6.56576 0.486858 -4.02244 0.556374 
6202 1 9.19518 4.36216 4.45123 -7.34695 0.377689 -1.94578 0.86133 
7401 1 12.4725 1.34897 1.83798 -7.55767 -4.13523 -1.40293 -3.18592 
8201 1 9.48735 1.21559 1.45708 -8.72968 -0.415212 1.82077 -0.217539 
9401 1 12.0417 4.21644 -1.10703 -7.16463 -0.881952 -1.70269 0.106302 
9402 1 12.2399 3.80917 4.51875 -8.0417 -1.79844 2.20355 0.404348 
10401 1 11.9827 4.10402 1.58011 -8.11775 -0.733241 0.0780651 1.8288 
11201 1 9.19292 1.53143 -1.30971 -7.59423 0.326012 1.12508 1.73767 
11202 1 9.04554 1.21061 4.39906 -7.22805 -0.0306028 0.238295 -1.00669 
2442 2 13.5042 5.52972 5.57032 -24.3682 -2.12532 -5.16033 3.71875 
8241 1 9.26578 6.67214 1.7807 -7.88504 0.784246 1.56333 0.173662 
3402 2 13.3448 2.65934 3.13744 -24.8848 3.99678 0.0926217 1.34591 
2441 2 13.5683 5.47959 0.557963 -25.377 0.0203266 0.279353 -2.83752 
4442 1 12.1276 6.67001 4.15737 -8.15324 -0.888693 0.808588 -1.02624 
4242 1 6.71204 6.68549 4.57921 -7.74171 -1.0222 1.38524 0.0860238 
2402 2 13.2708 -0.113567 6.06579 -25.0912 1.6814 -1.10596 -1.53241 
2202 2 7.65209 -0.217462 6.0619 -24.4044 2.90772 2.39895 -0.177718 
3401 2 13.4901 2.61586 -2.40736 -25.2393 2.05266 0.489204 -0.696858 
401 2 10.7048 0.227198 -2.33894 -25.926 0.863582 -2.89233 -0.729124 
402 2 10.6238 -0.0393979 2.81435 -25.2698 1.61844 -2.09665 3.52273 
601 2 16.1981 -0.251837 -2.40974 -25.2823 1.04215 2.26995 -1.78004 
642 2 16.4407 5.43024 3.15577 -24.8605 -2.39614 -0.136327 0.596179 
1601 2 16.162 2.52949 0.365009 -24.9939 1.07947 0.831569 0.482592 
1602 2 16.1267 2.52379 5.90897 -25.2683 1.082 0.516591 1.39029 
2641 2 19.1192 5.685 0.683042 -24.4338 0.419437 -0.563126 -2.16909 
2642 2 19.1105 5.35972 5.91874 -25.0598 1.6262 0.115084 0.691449 
3602 2 18.9933 2.81986 3.06008 -25.2722 2.03121 -2.55686 -0.0807873 
4601 1 17.9045 1.3023 -1.02575 -7.97573 -0.3688 0.759141 -1.8313 
4602 1 18.0216 1.12647 4.18427 -7.03584 -1.29728 -1.06087 1.62101 
5401 1 14.6774 4.20899 1.95061 -7.49015 1.36205 -0.0301469 1.03497 
6401 1 14.6578 3.80822 -0.617975 -7.65716 0.549709 0.992731 -2.0918 
6402 1 15.1492 4.029 4.56888 -7.08236 -1.20332 0.772672 -0.289664 
7601 1 17.6418 1.2982 1.5582 -7.3897 -0.114161 0.348663 0.611282 
8401 1 14.9696 1.27724 1.82804 -7.31011 0.921308 -0.78688 0.0349175 
9601 1 17.4916 4.21251 -0.836794 -7.32718 2.10906 -2.90633 1.50947 
9602 1 17.7664 3.90214 4.53719 -7.462 0.0900706 -0.185001 0.441343 
10601 1 17.6894 4.20276 1.69681 -8.32561 0.473285 -0.0476666 1.75675 
11401 1 15.0858 1.10684 -1.02413 -7.23385 -0.0516938 -0.844955 3.3203 
11402 1 14.7443 1.36208 4.7248 -7.34552 -1.0864 -1.28892 -0.133422 
8601 1 20.4821 1.33352 1.78007 -6.85148 -1.8288 0.0166795 -1.76586 
6602 1 20.4224 4.29719 4.20761 -7.1963 -0.826825 -0.157987 0.229635 
4642 1 17.5303 6.48138 4.7697 -7.70197 0.933427 1.38265 -0.0565837 
6601 1 20.5416 3.96009 -0.979566 -7.23943 -1.1921 -0.0392516 -0.85661 
2602 2 18.9499 -0.288192 6.0877 -24.2664 -0.0638103 -0.854126 -1.72772 
2401 2 13.6711 -0.169376 0.485566 -25.1997 -1.04392 1.02417 -1.18977 
2601 2 19.0252 0.0594436 0.281078 -25.1012 3.74739 -1.0892 1.33572 
3601 2 19.1657 2.86566 -2.25056 -24.2849 -1.2363 -1.2398 -0.833329 
641 2 16.3091 5.42277 -1.98907 -25.2906 -0.664954 3.67247 -1.65616 
1002 2 27.3776 2.68028 5.84264 -25.5556 -0.167464 -1.07116 0.980317 
2801 2 24.6423 0.018458 0.494525 -24.8498 0.309694 -1.83525 -0.273635 
11601 1 20.9412 1.10572 -0.906633 -6.66024 -2.4573 2.66005 0.225514 
1001 2 27.5502 2.93134 0.390217 -24.7312 -0.0318727 1.10652 -3.06763 
42 2 27.5841 5.46216 3.20916 -25.9052 -2.18348 -0.800534 0.0946802 
11602 1 20.83 1.48203 4.16036 -6.36877 -0.0184868 0.884413 4.10036 
5601 1 20.724 4.26977 1.46504 -7.50091 -1.47043 0.506064 2.44453 
842 2 21.9445 5.5628 3.05978 -25.5368 -1.82411 -1.71684 1.10741 
1801 2 21.9335 2.54035 0.724664 -25.509 0.570495 1.01547 -2.90605 
1802 2 22.0681 2.72374 6.0032 -24.2156 -0.653834 -4.50653 0.170966 
2841 2 24.6816 5.11534 0.709826 -24.4543 0.28208 1.94971 -1.30769 
2842 2 24.7131 5.43781 5.82686 -24.6609 1.21854 -0.076898 1.63466 
3802 2 24.5611 2.68167 3.43752 -25.606 1.66203 -2.5136 -0.396814 
4801 1 23.5086 1.17636 -0.945866 -6.97835 1.60862 1.01181 1.06877 
4802 1 23.4791 1.11512 4.76723 -7.54107 -2.11643 0.272523 0.914519 
5801 1 26.3698 4.0638 1.82548 -7.83982 -1.17196 0.153645 -0.0950117 
6801 1 26.0796 3.78204 -0.929677 -7.10838 -3.98599 2.81718 0.266877 
6802 1 25.9242 4.15532 4.44392 -7.70127 0.748596 -0.285576 1.29369 
7801 1 23.229 1.3269 2.09033 -7.38585 -1.10697 -1.62045 -1.61871 
8801 1 25.6953 1.19535 2.09153 -6.88658 0.281315 0.713271 -2.48159 
9801 1 23.2634 4.05558 -0.755062 -7.26989 0.91493 -0.650826 -0.378648 
9802 1 23.2394 3.86342 4.77709 -7.82791 1.45156 2.56985 -0.286903 
10801 1 23.3738 3.94348 2.08993 -7.99891 0.105795 0.501812 -0.976463 
11801 1 26.426 1.30855 -1.20566 -7.09104 -0.843809 -0.511879 1.13941 
11802 1 26.0744 1.37377 4.62662 -5.86968 -1.72232 0.586526 -0.65661 
4842 1 23.2623 6.5612 4.47252 -7.61183 2.54414 1.53162 2.18876 
7841 1 23.2679 6.63456 1.80731 -7.42419 2.57648 1.99428 -1.81666 
41 2 27.3303 5.79537 -2.45291 -24.5788 1.55265 -2.28993 -0.569316 
802 2 21.886 -0.208955 3.27183 -25.7389 -0.229281 0.137401 -1.13751 
3801 2 24.8082 2.59861 -2.34369 -25.4515 -1.15696 -0.400816 -0.896423 
2 2 27.2311 -0.0837251 3.00148 -26.6445 0.430606 -1.38187 1.79186 
841 2 21.7336 5.38383 -2.25917 -24.8699 2.27265 1.18585 1.273 
4041 1 0.775202 6.89221 -0.776922 -7.38028 1.32809 -0.626441 -2.52005 
7041 1 0.710229 6.74359 1.89822 -6.59982 2.59422 2.02371 -1.12319 
4042 1 0.840528 6.70029 4.56902 -7.54707 2.27185 1.40213 0.283887 
11042 1 3.76371 6.80645 4.37534 -7.869 0.534042 0.612275 0.962237 
4241 1 6.59823 6.90522 -1.21154 -7.8119 -3.18096 -1.117 1.79923 
8041 1 3.55248 7.13751 1.71592 -7.40164 0.693863 -0.701453 -0.863059 
7241 1 6.466 6.874 1.77403 -7.86125 -0.500255 -0.124784 -0.264181 
282 2 5.06866 10.8286 2.97438 -25.6195 0.157529 2.72064 0.439677 
1241 2 5.02486 8.25055 0.365956 -24.8513 0.910872 0.472803 -0.336577 
1242 2 5.17904 8.2298 5.95153 -24.7977 0.435153 -0.54267 -0.124252 
2081 2 2.13605 11.11 0.171064 -24.7629 1.01386 -1.73244 3.36472 
2082 2 2.52168 11.2646 5.97188 -24.9485 0.13371 -1.47888 -0.228444 
3042 2 2.34745 8.31156 3.13998 -25.0049 -0.813709 -0.0491799 0.0091752 
4081 1 0.840177 12.5922 -0.880506 -8.51311 1.20724 -1.26584 -2.93559 
4082 1 1.12808 12.4921 4.66717 -8.19911 0.154655 1.05983 -0.759769 
5041 1 3.68346 9.85852 1.50205 -7.27881 1.69976 -1.26891 -0.139544 
6041 1 3.90035 9.39962 -1.33378 -7.94795 0.459288 0.389266 0.0497544 
6042 1 3.59913 9.8495 4.42011 -7.52013 -0.227818 -1.76342 -1.12634 
7081 1 0.887329 12.4122 1.8708 -8.1916 0.300637 0.795252 -0.564474 
8081 1 3.69217 12.4937 1.83449 -6.61563 -0.139874 1.57667 0.249041 
9041 1 0.985597 9.57979 -1.09598 -8.06016 0.114731 1.35721 -0.397638 
9042 1 0.852343 9.72697 4.5299 -7.7966 -0.923476 -1.22468 -0.391517 
10041 1 1.17948 9.61402 1.67548 -7.58656 -2.81551 0.280741 0.432756 
11081 1 3.634 12.2325 -0.810276 -7.64426 1.17045 0.702224 -2.29445 
11082 1 4.07962 12.5141 4.53689 -7.19643 -3.23426 -0.550845 0.40239 
7281 1 6.46492 12.2339 1.07284 -6.96848 0.620889 0.852714 1.66258 
4281 1 6.68549 12.1904 -1.64217 -6.74957 -0.926137 0.446572 -0.527513 
4282 1 6.58815 12.1353 4.17371 -7.05074 1.54326 0.865171 -1.72665 
9242 1 6.44262 9.60644 4.84346 -7.42169 0.0439421 -1.42865 -2.60461 
10241 1 6.61795 9.53438 1.91408 -7.3242 -0.814827 -0.270836 0.975401 
1042 2 -0.264392 8.10903 5.90277 -25.3737 -0.578325 0.417254 1.94043 
7441 1 12.2041 6.9625 1.36063 -8.16348 -0.542235 0.835529 2.66757 
9241 1 6.93899 9.52148 -0.849549 -6.74212 -2.76133 -0.712695 0.102641 
11241 1 9.18735 6.74077 -1.1458 -6.56235 1.86175 2.83832 1.13718 
4441 1 12.4038 6.79429 -1.30197 -6.78111 -1.12804 0.795612 -0.346597 
11242 1 9.35169 6.95949 4.69652 -7.51775 0.193578 -0.220378 -1.95545 
482 2 10.9312 11.0179 3.06541 -24.8513 -2.94099 2.64835 -1.35189 
1441 2 10.7155 8.13775 0.366681 -24.6074 -1.87394 0.570069 -2.41559 
1442 2 10.8102 8.23669 5.6263 -25.6272 -0.179615 -0.167314 3.5849 
2281 2 8.25528 11.0244 -0.00037031 -25.7906 -2.2985 -0.809061 1.27764 
2282 2 7.8963 11.1354 5.59352 -26.2464 1.4967 -0.0609443 3.77373 
3242 2 7.97579 8.23864 3.19855 -24.7843 0.0378781 -0.331141 0.0528831 
4481 1 12.1547 12.5334 -1.16196 -7.75377 0.522878 -0.797832 0.810044 
4482 1 12.2719 12.4359 4.35573 -8.17005 -0.0904945 -0.132392 0.826355 
5241 1 9.55103 9.65645 1.72804 -7.80771 0.564163 -1.6558 0.265615 
6241 1 9.47075 9.46132 -1.19087 -6.60164 -0.856968 0.377388 0.646021 
6242 1 9.26773 9.63835 4.70581 -7.06336 -0.738227 0.383561 -3.70213 
7481 1 12.1901 12.8063 1.68491 -7.73562 -0.321777 -0.731019 -1.03292 
8281 1 9.28747 12.2932 1.50873 -7.38403 0.674167 1.70136 0.0107959 
9441 1 11.7948 9.65297 -0.858065 -6.78093 2.32538 0.740174 0.078465 
9442 1 11.8815 9.5494 4.27405 -8.04475 2.52419 -0.800168 1.08777 
10441 1 12.5659 10.0736 1.95451 -7.39342 -2.14637 -0.274472 -1.62103 
11281 1 9.38599 12.4834 -1.10542 -7.33656 1.19341 -0.559165 -0.416972 
11282 1 9.5276 12.4448 4.08168 -7.11821 -0.482698 -0.522171 1.2145 
3442 2 13.4703 8.30566 2.97653 -25.1419 1.76971 -0.125217 0.54585 
2482 2 13.4109 11.0209 5.75721 -24.5499 2.02529 1.06069 -1.2038 
2481 2 13.5906 11.2462 0.356911 -24.6934 -0.770325 -0.908341 -1.2115 
3241 2 7.89219 8.17086 -2.3659 -25.5237 2.19362 1.87498 -1.42594 
7442 1 12.13 6.73934 6.83155 -7.35013 0.805899 -0.233103 0.803606 
3282 2 7.92015 13.6412 2.84953 -25.4155 0.0990037 0.419466 0.574764 
11442 1 14.6788 6.77268 4.5991 -7.26237 4.01366 3.66101 -2.7344 
4641 1 17.7851 6.94227 -0.670379 -6.79046 0.829344 -1.99921 0.704697 
11641 1 20.3825 6.86881 -0.927167 -7.61535 0.251066 -0.483901 0.4064 
11441 1 15.125 6.89313 -0.794184 -7.22624 -0.654593 -0.716376 -0.43384 
7641 1 17.6612 7.08431 1.99133 -8.40903 2.3211 -1.15019 1.04505 
8441 1 14.9789 7.11188 1.8403 -7.24981 -0.0402141 -1.78534 0.370302 
682 2 16.2697 11.1092 2.8889 -24.799 0.567411 -0.857963 1.48504 
1641 2 16.5039 8.28119 0.46675 -25.3343 -2.04193 0.884876 -0.0307544 
1642 2 16.3881 8.32285 5.76148 -24.7484 -2.15263 -0.868343 1.0714 
2681 2 19.2369 11.0563 0.173509 -25.2969 -1.03499 1.62863 0.977652 
2682 2 19.1821 10.9421 5.79618 -25.5281 -1.28942 0.557888 1.27652 
3642 2 19.2497 8.36714 3.14664 -24.1061 1.18371 0.161386 0.232008 
4681 1 17.6714 12.2545 -1.09122 -6.90996 0.0238328 0.11041 0.0232995 
4682 1 17.6414 11.9796 4.31906 -7.49843 1.44148 1.76987 1.01612 
5441 1 14.932 9.78945 1.7018 -7.16292 2.00874 0.386594 -2.14787 
6441 1 14.3756 9.6631 -1.25566 -7.26416 3.04341 2.53092 1.27438 
6442 1 14.9868 9.57367 4.33174 -7.42344 -1.30591 1.04679 0.566556 
7681 1 17.8566 12.6844 1.61889 -6.72188 -1.7341 -2.12941 -0.258116 
8481 1 14.9766 12.6181 1.80593 -8.69395 1.01921 -1.87779 -2.88558 
9641 1 17.9197 9.45523 -1.00556 -7.1657 -0.619319 1.52665 -0.518363 
9642 1 17.6776 9.25751 4.51041 -7.68285 3.5308 1.59949 -2.03098 
10641 1 17.6971 9.84957 1.65484 -7.96479 1.70655 0.0150407 0.414224 
11481 1 14.9502 12.4617 -1.18015 -8.32969 -0.613418 0.111525 0.0193387 
11482 1 14.9772 12.7758 4.42818 -7.53994 1.85201 -2.09652 1.47369 
8681 1 20.4246 12.7319 1.82099 -6.35135 0.471341 -0.353738 -0.506665 
11682 1 20.5632 12.3958 4.56454 -6.93238 -1.5644 1.05744 0.599844 
6642 1 20.5498 9.83767 4.62396 -6.986 -0.979651 -2.1215 -2.65464 
3641 2 19.1776 8.15342 -2.36518 -25.1747 -0.922753 2.52149 2.38782 
82 2 27.5767 11.0345 3.03097 -23.8768 -0.320396 -0.405828 1.12164 
6641 1 20.7264 9.83176 -0.866927 -6.93226 -0.551784 -0.684682 -0.507872 
8641 1 20.7134 7.11117 1.77694 -7.70819 -3.16845 -1.81309 0.271719 
11642 1 20.7472 6.95366 4.429 -6.96898 -2.62404 1.05803 0.807463 
11841 1 26.0288 6.98508 -1.12494 -8.24942 -0.85608 -0.125746 0.434167 
1041 2 27.4393 8.26079 0.258797 -25.3336 0.498125 -0.452156 0.606422 
11842 1 26.0959 6.82517 4.57666 -7.14428 -0.797718 1.69304 -0.445675 
8841 1 26.1121 6.81951 1.83259 -6.50227 -2.03764 -1.47843 -0.516905 
5641 1 20.9175 9.60007 1.71483 -7.51744 -3.7675 0.426253 0.0904526 
11681 1 20.6727 12.5788 -0.985579 -7.87784 -1.62473 0.574806 -1.25739 
4841 1 23.0229 6.75553 -0.971241 -7.41717 2.16385 -0.188591 -1.12404 
882 2 21.9624 10.8572 2.99934 -25.4304 0.497685 3.05374 2.27066 
1841 2 21.9651 8.15258 0.263021 -25.5708 0.387957 2.18621 0.0998075 
1842 2 22.2486 8.04287 6.07042 -25.3137 -3.68758 -0.000646213 0.551611 
2881 2 24.706 11.1338 0.362939 -25.7621 -0.398398 -0.5412 -2.34588 
2882 2 24.6767 11.1791 5.85263 -24.1261 -1.85682 -0.993236 0.50969 
3842 2 24.7131 8.3803 3.09351 -24.7255 0.121908 -2.55535 0.0894633 
4881 1 23.3579 12.4178 -1.05912 -6.92271 -0.108551 -0.000986538 -0.171938 
4882 1 23.2209 12.1932 4.31903 -7.84414 2.7971 0.805475 0.948942 
5841 1 26.1466 9.29437 1.55061 -7.59481 -0.157061 4.04145 2.28756 
6841 1 26.156 10.1038 -1.087 -5.87948 0.978163 -3.82717 1.21175 
6842 1 25.7682 9.76949 4.57904 -8.31346 1.64034 0.325774 -0.809846 
7881 1 23.1383 12.4447 1.6787 -7.19013 1.69692 0.0020263 -0.326099 
8881 1 26.1194 12.3497 1.67722 -7.84121 -0.340791 -1.59171 0.353128 
9841 1 23.3452 9.60955 -1.29547 -6.19297 0.210902 -0.800075 2.92716 
9842 1 23.0847 9.43011 4.67739 -7.34272 2.4554 0.157504 -2.13004 
10841 1 23.5154 9.67434 1.65269 -7.93032 0.169661 -0.456231 0.679029 
11881 1 26.0039 12.3961 -1.15477 -6.97221 1.03641 4.30751 -0.570967 
11882 1 26.2571 12.8083 4.40873 -8.25266 -0.27427 -1.90091 1.35806 
1882 2 21.9867 13.6259 5.79873 -25.2805 -0.931328 1.1574 -0.820268 
3841 2 24.5914 8.11042 -2.41608 -25.5481 -0.392998 3.15887 -0.562951 
7002 1 0.954688 1.28785 7.34585 -7.35471 0.981813 1.10049 -1.82932 
2003 2 2.4232 -0.267649 11.3392 -25.4783 0.596944 0.315003 -1.00868 
5002 1 3.6994 4.04217 7.34388 -7.78137 1.06014 0.566074 -1.37673 
243 2 5.05165 5.59437 8.66283 -25.0919 2.00948 -1.46183 -0.228583 
244 2 5.30287 5.24198 14.3172 -24.7565 0.0663152 1.90339 -0.258924 
1203 2 5.19489 2.62549 11.4141 -24.8971 1.17032 0.870766 0.700275 
2043 2 2.6062 5.59152 11.6128 -24.4172 -1.49477 -1.63154 -0.604129 
3003 2 2.60668 2.56735 8.64554 -25.1805 -1.27177 0.784325 1.06029 
3004 2 2.30228 2.5313 14.0114 -24.1474 1.42328 -0.593781 2.6696 
4003 1 1.17612 1.06879 9.8215 -7.63257 0.303723 1.46009 2.53145 
5003 1 4.0738 4.05644 12.9833 -7.93449 -2.08254 -1.39103 -1.73898 
6003 1 4.12341 3.90955 9.92712 -7.06425 -1.47372 0.939861 0.788349 
7003 1 1.00579 1.17387 12.7898 -8.27699 -0.00427285 1.6888 -0.759592 
8002 1 4.09552 1.31289 7.56749 -8.06148 -0.922865 -0.873954 -1.44618 
8003 1 3.809 1.20648 12.8081 -7.76182 -0.172848 -0.113443 0.804647 
9003 1 1.3828 3.91391 10.2202 -7.83597 -0.753197 -0.563991 0.648159 
10002 1 0.949139 4.27576 7.33318 -7.53177 0.23093 -2.14577 -0.960413 
10003 1 1.0808 4.12486 13.1096 -8.52065 0.195391 0.450853 -0.908913 
11003 1 3.90107 1.29464 10.2265 -7.80653 -0.000374894 -2.24135 -0.913278 
4044 1 1.08192 6.6339 15.4455 -8.57879 -3.05818 2.80914 -1.72869 
11004 1 3.78682 0.99794 15.6609 -7.44405 -0.510346 0.386981 -0.510402 
203 2 5.29881 -0.103718 8.71567 -23.6049 -0.82205 -0.810632 1.08791 
10202 1 6.65779 4.31128 7.12062 -7.54317 -1.55529 -1.50453 0.933359 
4043 1 1.37301 6.59982 9.70167 -7.15282 -1.03214 -1.28927 3.04187 
4004 1 0.843852 1.29607 15.7402 -6.93842 1.22185 -0.721544 -1.67897 
9203 1 6.65007 3.98474 10.0891 -7.13908 1.72762 -0.182971 -0.604077 
7203 1 6.55736 0.821341 12.8634 -8.71223 0.750472 1.04105 0.016293 
9004 1 0.614799 3.77934 15.934 -7.19869 0.87538 3.96992 -3.09051 
6004 1 3.51673 3.87052 15.6168 -8.25105 1.20253 -0.154543 0.258055 
43 2 -0.208493 5.37682 8.72416 -25.4692 -1.81262 1.70651 0.11101 
1003 2 -0.152853 2.63833 11.3296 -24.3036 -1.48493 -0.113413 0.610461 
4244 1 6.51021 6.5798 15.7843 -7.76063 1.31586 -0.923827 -0.0429347 
9204 1 6.58299 3.65894 15.8276 -8.34416 2.35907 3.81989 -2.81802 
4204 1 6.51284 1.07116 15.6364 -7.70193 0.816616 -0.743417 -1.3618 
4444 1 12.4358 6.56401 15.505 -6.93437 -0.857703 -0.481693 -1.61313 
403 2 10.688 -0.196867 8.76103 -24.8741 0.582583 -0.37547 -0.505808 
2203 2 7.82379 -0.0789503 11.3905 -22.8191 3.41809 -1.69056 -0.534125 
10203 1 6.73145 3.86823 12.8207 -7.8022 0.503101 -1.46507 1.41092 
4203 1 6.80773 1.29295 10.0432 -8.4603 -1.41813 -1.22246 0.413031 
7243 1 6.72785 6.57631 12.7336 -7.7364 0.238957 1.71515 1.42833 
7202 1 6.72225 1.27205 7.42857 -8.27941 -0.477191 -0.377502 0.587901 
10402 1 12.0069 3.96286 7.30579 -7.28587 0.661634 -0.43274 0.273076 
443 2 11.0434 5.45776 8.59684 -25.2047 -0.724294 0.511557 -0.185472 
444 2 10.8208 5.32399 14.2573 -24.7898 1.66772 -1.54634 1.1047 
1403 2 10.9525 2.45585 11.464 -25.2948 -0.912918 2.68119 1.03905 
2243 2 8.06872 5.18404 11.4034 -25.3849 0.172367 1.16995 -0.436879 
3203 2 8.06879 2.59742 8.60278 -25.0043 0.433915 1.55571 1.57348 
3204 2 8.05822 2.47997 14.3726 -23.3377 -1.43186 1.77926 -1.53358 
4403 1 12.1409 1.21102 10.0868 -8.31476 1.24473 0.400557 -1.27476 
5202 1 9.2765 3.70998 7.13398 -7.18525 -2.2212 4.31059 0.861694 
5203 1 9.50284 3.81833 12.7279 -7.54509 -1.72946 -0.961993 0.404639 
6203 1 9.70076 4.10375 9.70711 -7.14838 -1.1264 0.480173 1.71327 
7402 1 12.0087 1.07625 7.32247 -7.49276 0.254324 0.798257 0.712935 
7403 1 12.1711 1.21583 12.8815 -7.07263 0.83151 1.90018 0.527269 
8202 1 9.42855 1.18962 7.17705 -7.31597 -2.23646 -2.71592 2.40107 
8203 1 9.67167 0.789083 12.4927 -7.45717 -2.78475 0.322441 1.93029 
9403 1 12.5132 4.21949 10.1183 -7.98097 0.494856 -0.645746 -0.355391 
10403 1 12.0592 4.0265 12.8106 -6.75621 0.665366 -0.130559 1.05536 
11203 1 9.52643 1.49305 10.1208 -7.39119 -1.89494 -2.01299 -2.63509 
3403 2 13.6498 2.76272 8.94071 -24.2597 0.421094 -1.2012 -2.18218 
3404 2 13.6559 2.61449 14.2493 -25.8187 -0.922673 -0.651966 -0.297395 
8243 1 9.71819 6.55409 12.9288 -7.9996 -0.376785 1.89905 -1.19776 
11204 1 9.37563 1.27125 15.5358 -8.21111 -0.334075 0.478608 -0.986341 
404 2 10.718 -0.270783 14.1662 -25.6706 2.79887 0.163786 0.0625087 
4404 1 12.1611 0.947718 15.6407 -6.8071 0.242756 0.94471 0.548539 
9404 1 12.2148 3.76507 15.7514 -7.4085 0.271435 -0.0996842 -1.68408 
6204 1 9.61689 4.04863 15.6664 -7.86162 -2.91592 -0.242204 -0.995442 
2403 2 13.4377 -0.0259563 11.3958 -25.1921 0.202753 -2.31156 1.93082 
4604 1 17.8699 0.91104 15.2644 -7.02444 0.134265 0.546268 2.92801 
2443 2 14.1005 5.45496 11.2497 -24.7687 -2.22559 1.96593 1.24356 
11404 1 15.1797 1.43112 15.4856 -6.97578 -0.384134 -0.899873 0.520114 
643 2 16.4819 5.30986 8.56423 -24.6472 0.123645 0.865977 0.299408 
644 2 16.3537 5.3397 14.2016 -25.3808 -0.909141 -0.369635 -0.616128 
1603 2 16.5976 2.45918 11.4188 -24.7963 -1.76206 1.54332 -0.136865 
2643 2 19.2712 5.25807 11.395 -24.8792 -0.393974 0.193944 0.0337511 
3603 2 19.3012 2.52714 8.73838 -24.627 -1.25599 2.50108 1.6573 
3604 2 19.0464 2.3976 14.0778 -25.9886 2.78118 -0.571753 3.02487 
4603 1 17.9112 1.24452 9.96046 -8.18073 -0.372717 -1.9399 -0.339495 
5402 1 14.7857 4.16511 7.27635 -7.69065 0.741971 0.709542 1.11527 
5403 1 14.7752 4.15704 12.9147 -7.65531 1.54812 -0.613978 -0.292694 
6403 1 15.4206 4.00206 10.1697 -8.42605 -2.07577 0.587899 -1.20771 
7602 1 17.3648 0.860705 7.10852 -7.34508 0.593519 0.755554 -0.584504 
7603 1 17.5755 1.06569 12.6387 -6.94449 1.10182 0.427216 -0.446089 
8402 1 14.8279 1.32233 7.62574 -7.11736 -0.737597 0.421375 0.11425 
8403 1 14.8666 1.06337 12.8416 -6.66839 -0.202571 1.2377 1.63056 
9603 1 17.9189 3.85456 10.2024 -7.49453 1.65714 0.83746 -0.0498582 
10602 1 17.6951 3.6779 7.40976 -7.97718 0.502815 0.972926 -0.421924 
10603 1 17.7023 3.65151 13.163 -7.70428 -3.11137 3.03668 -2.03829 
11403 1 14.9498 1.28237 10.4687 -7.65184 0.258826 -0.161274 -3.77284 
8602 1 20.0897 1.06574 7.54575 -7.88407 1.48136 -2.67867 -3.08033 
8603 1 20.3339 0.907468 13.0366 -7.4162 0.72258 -0.0792738 -1.88723 
6604 1 20.3957 3.96612 15.3331 -6.31212 3.31138 -0.0431849 0.426833 
6404 1 14.9237 3.93863 15.6013 -7.20857 1.18023 1.83293 1.0643 
5603 1 20.4175 3.75609 12.6629 -7.27956 0.629311 0.1786 -1.13127 
4643 1 17.6563 6.63095 10.2811 -7.65428 2.26064 -0.982394 -2.18329 
604 2 16.2368 -0.175813 14.2081 -26.1046 0.0518219 1.65677 1.6807 
9604 1 18.0826 3.81459 16.0077 -6.49387 -4.32982 -2.41597 -1.29241 
4644 1 17.6169 6.55218 15.438 -7.52038 3.08162 1.5098 2.38829 
7643 1 17.9361 6.5949 12.8669 -6.99361 -0.488324 -1.07912 -0.355886 
11604 1 20.5707 1.06708 15.6093 -7.00226 -0.449497 0.0826099 -0.858682 
2603 2 19.0882 -0.278886 11.4331 -25.062 1.70827 1.07839 1.55519 
11804 1 26.1757 0.876351 15.3064 -7.72554 -2.79366 2.85541 2.08467 
4 2 27.5641 -0.207323 14.0874 -26.1769 0.950362 -1.31381 -1.04958 
9804 1 23.3706 4.17975 15.4656 -6.6632 -3.00832 -1.6883 0.182718 
5602 1 20.8542 4.01561 7.03091 -7.49554 -3.2679 0.0128544 1.44554 
11603 1 20.8002 1.33223 10.2028 -7.18168 -2.26986 -1.96375 0.353006 
6603 1 20.6875 3.89435 9.90148 -7.9104 1.10564 1.4063 0.296428 
7802 1 22.9176 1.18115 7.68315 -7.16229 0.798046 -1.17536 -3.8938 
44 2 27.5245 5.42653 14.3727 -24.1 -2.69668 -1.21131 -1.22416 
843 2 22.1941 5.29586 8.73638 -25.4328 -2.00598 1.76903 -1.0106 
844 2 22.0115 5.54221 14.2179 -25.0476 0.205914 -1.56022 0.326008 
1803 2 22.1165 2.58594 11.3783 -24.192 -1.31901 1.10706 1.13637 
2843 2 24.7816 5.41146 11.576 -24.6392 2.03833 1.81748 1.94826 
3803 2 24.6669 2.44082 8.82942 -24.8529 2.13699 0.936669 -0.344574 
3804 2 24.6565 2.40608 14.1944 -24.7892 1.16685 1.30033 -0.24126 
4803 1 23.2819 1.22226 10.0206 -7.97127 3.06036 -1.82524 3.21612 
5802 1 25.9121 3.6999 7.45309 -6.89253 2.49169 -0.044676 -2.20126 
5803 1 26.1467 3.91499 13.114 -7.54003 -0.0201268 0.558035 -0.66571 
6803 1 26.3685 4.1396 10.1158 -7.21294 1.81208 0.904259 1.59305 
7803 1 23.2486 1.06213 12.7825 -8.13971 -0.0267732 1.72004 -0.916706 
8802 1 26.0954 0.784578 7.05188 -6.91942 -0.809177 0.970475 3.51018 
8803 1 26.0922 1.12369 12.7199 -7.06284 -0.308108 -0.523352 -0.67632 
9803 1 23.791 4.42713 10.0605 -7.67714 -2.93595 -1.86577 0.454987 
10802 1 23.4351 3.71419 7.72736 -6.90007 -2.73081 2.04931 -3.76713 
10803 1 23.1719 4.18916 12.7477 -7.85966 0.388113 -2.10098 -0.813468 
11803 1 26.2707 1.48865 10.0639 -8.00462 -0.186821 -2.11185 -1.11368 
8842 1 26.4556 6.549 7.13909 -6.86696 -0.941642 -0.715143 0.300285 
4804 1 23.3056 1.05602 15.5067 -8.18839 0.812489 0.522373 -0.184595 
11844 1 26.0552 6.62081 15.8606 -7.17567 2.29971 0.813331 -1.84665 
8642 1 20.7851 6.54928 7.31024 -6.09742 -0.171561 0.438624 -1.4745 
3 2 27.5707 -0.0794634 8.68299 -25.33 0.511722 -0.189745 -2.40926 
6804 1 25.7079 3.80352 15.9126 -7.18964 2.37082 -1.51414 0.896288 
804 2 21.9451 -0.257941 14.0699 -24.9522 0.110147 -0.623084 0.95685 
4284 1 6.26339 12.2647 15.6859 -7.15233 2.94168 0.498273 -0.454789 
9044 1 0.848071 9.39144 15.7586 -7.9447 -0.571574 1.55226 0.184863 
8043 1 3.90603 6.74433 12.9518 -7.19156 -0.00109149 1.06828 -1.5472 
8042 1 3.8555 6.92564 7.20638 -7.63787 0.993274 -0.202901 0.839116 
7042 1 1.28949 7.05217 7.20045 -6.31986 -0.612504 0.691297 -0.743544 
7043 1 1.003 7.06203 12.5571 -7.66514 0.502908 -0.510488 0.333808 
7242 1 6.6059 6.96616 7.37276 -7.62153 -1.02102 -0.107866 -0.797432 
6044 1 3.62086 9.21487 15.791 -7.05498 -1.41719 3.43253 -0.561578 
11043 1 3.94673 6.71341 10.2529 -8.35002 0.810646 1.95843 -0.37487 
283 2 5.392 11.0328 8.63498 -25.1167 0.306524 -0.808233 -1.1632 
284 2 4.96819 11.1169 14.3573 -25.1441 0.371607 -2.71319 0.021159 
1243 2 5.36876 8.21401 11.5971 -24.385 0.152442 -1.98905 -0.383681 
2083 2 2.59905 11.0956 11.7628 -23.8065 -2.1339 0.0390329 -2.10046 
3043 2 2.44139 8.27554 9.0683 -24.3805 -0.147191 0.644872 -3.91017 
3044 2 2.33115 8.34183 14.2004 -24.9552 0.820566 -2.02862 0.378251 
4083 1 1.06223 12.4516 10.2749 -7.72955 0.0265625 -2.08813 -0.336325 
5042 1 4.28458 9.93788 6.96505 -7.4318 -1.07433 0.824611 1.60955 
5043 1 3.99785 9.54079 12.7157 -8.424 -2.45931 1.14556 0.673128 
6043 1 4.0104 9.60581 9.8563 -8.09997 -0.699704 -0.00266216 0.68712 
7082 1 0.555639 12.632 7.22471 -7.52265 1.76805 -1.11117 1.7212 
7083 1 0.723907 12.4037 13.0904 -7.71683 -0.0122639 -0.25951 -0.31007 
8082 1 3.79544 12.8172 7.49508 -8.17379 -0.915576 -1.84911 -1.08684 
8083 1 3.4855 12.4737 13.1475 -7.80518 0.0205499 -0.774771 0.590725 
9043 1 0.899893 9.51308 10.2196 -7.88158 3.51965 2.04899 -1.28444 
10042 1 1.33371 10.0625 7.45049 -6.79186 1.48469 0.0667669 0.552111 
10043 1 1.08898 9.72366 12.9871 -7.9211 -0.0341639 0.83594 -0.291748 
11083 1 3.93572 12.4522 10.3305 -7.97467 -0.633614 -1.43423 -0.465742 
11044 1 3.7805 6.77601 15.3752 -6.5647 -0.0863501 -2.27346 1.6651 
4283 1 6.62662 12.2915 9.95514 -8.43224 0.669076 0.454928 2.20565 
7283 1 6.20395 12.2473 13.0058 -7.3576 1.38733 1.80902 -2.60077 
7282 1 6.66882 12.374 7.23772 -7.04985 -0.504124 0.515908 -0.388418 
10243 1 6.51721 9.78139 13.1289 -7.34163 -0.886978 -3.40111 0.0345497 
4084 1 0.963239 12.5975 15.8208 -8.2833 0.732026 -2.48311 -0.536745 
11084 1 3.7808 11.9566 15.9466 -7.34531 -2.31075 0.633311 0.979084 
83 2 -0.246682 11.3863 8.80428 -24.5299 -1.14813 -3.67528 -0.0204815 
9244 1 6.32474 9.23853 15.5748 -7.14867 0.612189 1.64216 1.80253 
3284 2 7.96519 13.5323 14.222 -24.568 -1.50398 1.95008 1.00859 
3283 2 8.03276 13.5997 8.78676 -25.2547 1.54294 0.00507616 -3.94267 
4484 1 11.9064 12.0395 15.7544 -6.54318 1.73341 0.235154 -0.546847 
9444 1 11.8478 9.16432 15.2631 -7.09708 -0.184565 0.480597 1.02761 
4243 1 6.86017 6.76245 10.0007 -6.72783 -2.98575 -0.571223 0.757153 
4443 1 12.3627 6.90207 9.66662 -7.22507 -1.20007 -1.26399 0.579458 
7443 1 12.7845 6.9965 12.4004 -7.48127 -1.66023 -0.403592 0.69491 
11243 1 9.30659 6.95773 10.0666 -7.04771 3.52876 -1.12163 2.29386 
10242 1 7.07007 9.64585 7.50861 -6.11246 -2.3316 0.910965 -0.108881 
9243 1 6.71172 9.52337 10.2555 -7.84579 -1.91923 -1.84429 -1.16286 
11284 1 9.28009 12.2073 15.4917 -7.99905 -1.58529 0.564424 -1.37234 
8242 1 9.47136 6.69686 7.4006 -7.38017 1.21418 -0.30355 1.23901 
483 2 11.0789 10.8518 8.54382 -26.197 -4.70718 -0.453518 -1.49516 
484 2 10.4545 10.7192 14.2534 -24.9987 3.10641 2.33559 -0.231458 
1443 2 11.0021 7.89875 11.4541 -24.3816 -0.891865 0.966354 -1.8337 
2283 2 7.68586 10.6638 11.642 -23.9481 3.41646 4.84633 -1.25438 
3243 2 8.06846 8.08046 8.66731 -26.6163 1.69882 2.87779 -0.0758986 
3244 2 7.87296 8.19945 14.4368 -23.8961 -1.11317 -1.87097 -1.30335 
4483 1 12.218 12.0138 10.0029 -7.68809 1.90583 1.12972 1.4461 
5242 1 9.63906 9.36637 7.17074 -5.33898 1.80415 -0.12805 0.972064 
5243 1 9.05128 9.58641 12.9346 -8.06576 1.03057 -1.90117 0.442534 
6243 1 9.53045 9.77235 9.78635 -5.99019 -0.303141 -1.05441 2.18887 
7482 1 12.1514 12.3111 7.13866 -8.00256 1.19597 0.571738 0.706699 
7483 1 12.0058 12.4252 13.0359 -6.45806 -1.15096 -0.0553678 -0.917981 
8282 1 9.51637 12.2215 6.95557 -5.88549 -0.401953 -0.888251 -0.666232 
8283 1 8.88456 12.4057 12.5676 -7.83261 1.02567 -0.237933 -0.0242382 
9443 1 12.3567 9.42204 9.67734 -7.27795 -1.77303 1.97612 3.8456 
10442 1 12.4476 9.47898 6.92064 -7.5018 -1.56652 -0.312495 0.757402 
10443 1 11.7917 9.51101 12.8695 -7.51375 1.64052 0.0877345 -3.01525 
11283 1 9.65094 12.5038 9.76471 -6.55854 -0.340575 -0.444533 0.128834 