LAMMPS data file via write_data, version 22 Dec 2022, timestep = 28

2 atoms
2 atom types

0.04323833908575808 3.386761660914244 xlo xhi
0.04323833908575808 3.386761660914244 ylo yhi
0.04323833908575808 3.386761660914244 zlo zhi

Masses

1 92.90600000000001
2 91.22

Atoms # atomic

2 2 1.7150000000000003 1.7150000000000003 1.7150000000000003 0 0 0
1 1 3.3867616609142437 0.04323833908575825 0.04323833908575825 -1 0 0

Velocities

2 0 0 0
1 0 0 0
