LAMMPS data file via write_data, version 22 Dec 2022, timestep = 79

12 atoms
3 atom types

0.05369705907224199 3.399520940927761 xlo xhi
0.07294483221897406 4.618083167781027 ylo yhi
0.22526865584255065 14.26159134415742 zlo zhi

Masses

1 50.942
2 47.88
3 91.22

Atoms # atomic

6 2 3.3995209409277605 2.3455139999999997 2.3605378789216913 -1 0 0
10 1 1.7266090000000007 2.3455139999999997 0.28290656623721305 0 0 0
2 3 1.7266090000000007 2.345513999999999 5.050536902790739 0 0 0
8 2 1.726609000000001 2.3455139999999997 9.378699223079124 0 0 0
12 1 3.3995209409277605 2.3455139999999997 7.3010679103946465 -1 0 0
4 3 3.3995209409277605 2.345513999999999 12.068698246948173 -1 0 0
7 2 1.7266090000000007 4.618083167781026 2.3605378789216913 0 -1 0
11 1 3.3995209409277605 4.618083167781026 0.2829065662372131 -1 -1 0
3 3 3.3995209409277605 4.618083167781026 5.050536902790739 -1 -1 0
5 2 3.3995209409277605 4.618083167781026 9.378699223079124 -1 -1 0
9 1 1.726609000000001 4.618083167781026 7.3010679103946465 0 -1 0
1 3 1.726609000000001 4.618083167781026 12.068698246948173 0 -1 0

Velocities

6 0 0 0
10 0 0 0
2 0 0 0
8 0 0 0
12 0 0 0
4 0 0 0
7 0 0 0
11 0 0 0
3 0 0 0
5 0 0 0
9 0 0 0
1 0 0 0
