LAMMPS data file via write_data, version 22 Dec 2022, timestep = 54

12 atoms
3 atom types

0.05821529439643228 3.3950027056035723 xlo xhi
0.07908263423910881 4.611945365760894 ylo yhi
0.2442234518005816 14.242636548199393 zlo zhi

Masses

1 50.942
2 47.88
3 91.22

Atoms # atomic

7 2 1.7266090000000016 0.07908263423910888 2.409619028118287 0 0 0
11 1 3.395002705603572 0.07908263423910888 0.3892871511920361 -1 0 0
6 2 3.395002705603572 2.345514000000001 2.409619028118287 -1 0 0
3 3 3.395002705603572 0.07908263423910926 4.932984722645965 -1 0 0
5 2 3.395002705603572 0.07908263423910888 9.408825576317675 -1 0 0
9 1 1.7266090000000016 0.07908263423910888 7.388493699391425 0 0 0
8 2 1.7266090000000016 2.345514000000001 9.408825576317673 0 0 0
1 3 1.7266090000000016 0.07908263423910931 11.932191270845369 0 0 0
10 1 1.7266090000000016 2.3455140000000014 0.38928715119203766 0 0 0
2 3 1.7266090000000016 2.3455140000000014 4.932984722645966 0 0 0
12 1 3.395002705603572 2.3455140000000014 7.388493699391424 -1 0 0
4 3 3.395002705603572 2.3455140000000014 11.932191270845369 -1 0 0

Velocities

7 0 0 0
11 0 0 0
6 0 0 0
3 0 0 0
5 0 0 0
9 0 0 0
8 0 0 0
1 0 0 0
10 0 0 0
2 0 0 0
12 0 0 0
4 0 0 0
