LAMMPS (22 Dec 2022)
  using 1 OpenMP thread(s) per MPI task
Loaded 1 plugins from C:\Program Files\LAMMPS 64-bit 23Jun2022\plugins
Loaded 0 plugins from C:\Program Files\LAMMPS 64-bit 23Jun2022-MPI\plugins
Loaded 1 plugins from C:\Program Files\LAMMPS 64-bit 22Dec2022-MSMPI\plugins
Loaded 1 plugins from C:\Program Files\LAMMPS 64-bit 28Mar2023-MPI\plugins
# Compute elastic constant tensor for a crystal
#
# Written by Aidan Thompson (Sandia, athomps@sandia.gov)
#
#  This script uses the following three include files.
#
#   init.mod      (must be modified for different crystal structures)
# 	       	  Define units, deformation parameters and initial
#		  configuration of the atoms and simulation cell.
#
#
#   potential.mod    (must be modified for different pair styles)
# 		     Define pair style and other attributes
#		     not stored in restart file
#
#
#   displace.mod    (displace.mod should not need to be modified)
# 		    Perform positive and negative box displacements
# 		    in direction ${dir} and size ${up}.
# 		    It uses the resultant changes
#		    in stress to compute one
# 		    row of the elastic stiffness tensor
#
#		    Inputs variables:
#		    	   dir = the Voigt deformation component
#		    		    (1,2,3,4,5,6)
#		    Global constants:
#       	    	   up = the deformation magnitude (strain units)
#       		   cfac = conversion from LAMMPS pressure units to
#               	   output units for elastic constants
#
#
#  To run this on a different system, it should only be necessary to
#  modify the files init.mod and potential.mod. In order to calculate
#  the elastic constants correctly, care must be taken to specify
#  the correct units in init.mod (units, cfac and cunits). It is also
#  important to verify that the minimization of energy w.r.t atom
#  positions in the deformed cell is fully converged.
#  One indication of this is that the elastic constants are insensitive
#  to the choice of the variable ${up} in init.mod. Another is to check
#  the final max and two-norm forces reported in the log file. If you know
#  that minimization is not required, you can set maxiter = 0.0 in
#  init.mod.
#

include init.mod
# NOTE: This script can be modified for different atomic structures,
# units, etc. See in.elastic for more info.
#

# Define the finite deformation size. Try several values of this
# variable to verify that results do not depend on it.
variable up equal 1.0e-6

# Define the amount of random jiggle for atoms
# This prevents atoms from staying on saddle points
variable atomjiggle equal 1.0e-5

# Uncomment one of these blocks, depending on what units
# you are using in LAMMPS and for output

# metal units, elastic constants in eV/A^3
#units		metal
#variable cfac equal 6.2414e-7
#variable cunits string eV/A^3

# metal units, elastic constants in GPa
units		metal
variable cfac equal 1.0e-4
variable cunits string GPa

# real units, elastic constants in GPa
#units		real
#variable cfac equal 1.01325e-4
#variable cunits string GPa

# Define minimization parameters
variable etol equal 0.0
variable ftol equal 1.0e-10
variable maxiter equal 1000
variable maxeval equal 100000
variable dmax equal 1.0e-2

# generate the box and atom positions using a diamond lattice

dimension    3
boundary     p p p
read_data    data.in
Reading data file ...
  orthogonal box = (0.043238339 0.043238339 0.043238339) to (3.3867617 3.3867617 3.3867617)
  1 by 2 by 2 MPI processor grid
  reading atoms ...
  2 atoms
  reading velocities ...
  2 velocities
  read_data CPU = 0.001 seconds
#replicate    2 3 4
replicate    2 3 4
Replication is creating a 2x3x4 = 24 times larger system...
  orthogonal box = (0.043238339 0.043238339 0.043238339) to (6.730285 10.073808 13.417332)
  1 by 2 by 2 MPI processor grid
  48 atoms
  replicate CPU = 0.000 seconds
change_box   all triclinic
Changing box ...
  triclinic box = (0.043238339 0.043238339 0.043238339) to (6.730285 10.073808 13.417332) with tilt (0 0 0)

# Need to set mass to something, just to satisfy LAMMPS
mass 1 1.0e-20

include potential.mod
# NOTE: This script can be modified for different pair styles
# See in.elastic for more info.

# Choose potential
#-----------------------
#pair_style	sw
#pair_coeff * * Si.sw Si
#-----------------------
#pair_style morse	2.83994742	# D0[eV] a[1/A] r0[A] rc[A], 1NN for BCC
#pair_coeff 1 1	2.1173	1.0202	2.4595	2.6497	#	Fe-Fe
#-----------------------
#pair_style smatb # R0(A)   p       q     A(eV)   xi(eV)  Rcs(A)   Rc(A), 4NN: Rcs=4NN, Rc=(4NN+5NN)/2
#pair_coeff 1 1	2.4802	7.0149	2.3779	0.3144	3.0551	4.033	4.176	#	Co	Co
#-----------------------
#pair_style eam/alloy
#pair_coeff * * AlCrFeCoNi_Zhou04.eam.alloy Fe
#-----------------------
pair_style meam
#pair_coeff * * ./../../library.meam V Nb Ta Ti Zr ./../../VNbTaTiZr.meam V Nb
#pair_coeff * * ./../../library.meam V Nb Ta Ti Zr ./../../VNbTaTiZr.meam V Ta
#pair_coeff * * ./../../library.meam V Nb Ta Ti Zr ./../../VNbTaTiZr.meam V Ti
#pair_coeff * * ./../../library.meam V Nb Ta Ti Zr ./../../VNbTaTiZr.meam V Zr
#pair_coeff * * ./../../library.meam V Nb Ta Ti Zr ./../../VNbTaTiZr.meam Nb Ta
#pair_coeff * * ./../../library.meam V Nb Ta Ti Zr ./../../VNbTaTiZr.meam Nb Ti
pair_coeff * * ./../../library.meam V Nb Ta Ti Zr ./../../VNbTaTiZr.meam Nb Zr
#pair_coeff * * ./../../library.meam V Nb Ta Ti Zr ./../../VNbTaTiZr.meam Ta Ti
#pair_coeff * * ./../../library.meam V Nb Ta Ti Zr ./../../VNbTaTiZr.meam Ta Zr
#pair_coeff * * ./../../library.meam V Nb Ta Ti Zr ./../../VNbTaTiZr.meam Ti Zr
#-----------------------

# Setup neighbor style
neighbor 1.0 nsq
neigh_modify once no every 1 delay 0 check yes

# Setup minimization style
min_style	     cg
min_modify	     dmax ${dmax} line quadratic
min_modify	     dmax 0.01 line quadratic

# Setup output
thermo		1
thermo_style custom step temp pe press pxx pyy pzz pxy pxz pyz lx ly lz vol
thermo_modify norm no

# Compute initial state
fix 3 all box/relax  aniso 0.0
minimize ${etol} ${ftol} ${maxiter} ${maxeval}
minimize 0 ${ftol} ${maxiter} ${maxeval}
minimize 0 1e-10 ${maxiter} ${maxeval}
minimize 0 1e-10 1000 ${maxeval}
minimize 0 1e-10 1000 100000
Neighbor list info ...
  update: every = 1 steps, delay = 0 steps, check = yes
  max neighbors/atom: 2000, page size: 100000
  master list distance cutoff = 6.8
  ghost atom cutoff = 6.8
  2 neighbor lists, perpetual/occasional/extra = 2 0 0
  (1) pair meam, perpetual
      attributes: full, newton on
      pair build: full/nsq
      stencil: none
      bin: none
  (2) pair meam, perpetual, half/full from (1)
      attributes: half, newton on
      pair build: halffull/newton
      stencil: none
      bin: none
Per MPI rank memory allocation (min/avg/max) = 9.709 | 9.712 | 9.715 Mbytes
   Step          Temp          PotEng         Press           Pxx            Pyy            Pzz            Pxy            Pxz            Pyz             Lx             Ly             Lz           Volume    
         0   0             -292.91419     -0.0089445661  -0.0089445661  -0.0089445661  -0.0089445661   1.5082802e-11  2.900539e-11  -3.4806467e-11  6.6870466      10.03057       13.374093      897.06583    
         1   0             -292.91419     -1.9694468e-07 -1.9693474e-07 -1.9697767e-07 -1.9692165e-07  2.1961223e-11 -1.6823126e-11 -3.4060614e-11  6.6870466      10.03057       13.374093      897.06582    
         2   0             -292.91419      3.5400386e-10  3.5966682e-10  3.4309231e-10  3.5925246e-10 -2.7347938e-11  1.9143557e-11  9.8618322e-12  6.6870466      10.03057       13.374093      897.06582    
Loop time of 0.00116925 on 4 procs for 2 steps with 48 atoms

0.0% CPU use with 4 MPI tasks x 1 OpenMP threads

Minimization stats:
  Stopping criterion = force tolerance
  Energy initial, next-to-last, final = 
     -292.914193015038  -292.914193015038  -292.914193015038
  Force two-norm initial, final = 8.6742884e-06 3.5067594e-13
  Force max component initial, final = 5.0081028e-06 2.0137907e-13
  Final line search alpha, max atom move = 1 2.0137907e-13
  Iterations, force evaluations = 2 4

MPI task timing breakdown:
Section |  min time  |  avg time  |  max time  |%varavg| %total
---------------------------------------------------------------
Pair    | 0.0009     | 0.00091225 | 0.000927   |   0.0 | 78.02
Neigh   | 0          | 0          | 0          |   0.0 |  0.00
Comm    | 6.7e-05    | 8e-05      | 9.1e-05    |   0.0 |  6.84
Output  | 1.2e-05    | 1.3e-05    | 1.4e-05    |   0.0 |  1.11
Modify  | 0          | 0          | 0          |   0.0 |  0.00
Other   |            | 0.000164   |            |       | 14.03

Nlocal:             12 ave          16 max           8 min
Histogram: 2 0 0 0 0 0 0 0 0 2
Nghost:            498 ave         502 max         494 min
Histogram: 2 0 0 0 0 0 0 0 0 2
Neighs:            384 ave         512 max         256 min
Histogram: 2 0 0 0 0 0 0 0 0 2
FullNghs:          768 ave        1024 max         512 min
Histogram: 2 0 0 0 0 0 0 0 0 2

Total # of neighbors = 3072
Ave neighs/atom = 64
Neighbor list builds = 0
Dangerous builds = 0

variable tmp equal pxx
variable pxx0 equal ${tmp}
variable pxx0 equal 3.59666821316809e-10
variable tmp equal pyy
variable pyy0 equal ${tmp}
variable pyy0 equal 3.43092313422025e-10
variable tmp equal pzz
variable pzz0 equal ${tmp}
variable pzz0 equal 3.59252458619439e-10
variable tmp equal pyz
variable pyz0 equal ${tmp}
variable pyz0 equal 9.86183219739625e-12
variable tmp equal pxz
variable pxz0 equal ${tmp}
variable pxz0 equal 1.91435566184755e-11
variable tmp equal pxy
variable pxy0 equal ${tmp}
variable pxy0 equal -2.73479380263933e-11

variable tmp equal lx
variable lx0 equal ${tmp}
variable lx0 equal 6.68704662542284
variable tmp equal ly
variable ly0 equal ${tmp}
variable ly0 equal 10.0305699381343
variable tmp equal lz
variable lz0 equal ${tmp}
variable lz0 equal 13.3740932508457

# These formulas define the derivatives w.r.t. strain components
# Constants uses $, variables use v_
variable d1 equal -(v_pxx1-${pxx0})/(v_delta/v_len0)*${cfac}
variable d1 equal -(v_pxx1-3.59666821316809e-10)/(v_delta/v_len0)*${cfac}
variable d1 equal -(v_pxx1-3.59666821316809e-10)/(v_delta/v_len0)*0.0001
variable d2 equal -(v_pyy1-${pyy0})/(v_delta/v_len0)*${cfac}
variable d2 equal -(v_pyy1-3.43092313422025e-10)/(v_delta/v_len0)*${cfac}
variable d2 equal -(v_pyy1-3.43092313422025e-10)/(v_delta/v_len0)*0.0001
variable d3 equal -(v_pzz1-${pzz0})/(v_delta/v_len0)*${cfac}
variable d3 equal -(v_pzz1-3.59252458619439e-10)/(v_delta/v_len0)*${cfac}
variable d3 equal -(v_pzz1-3.59252458619439e-10)/(v_delta/v_len0)*0.0001
variable d4 equal -(v_pyz1-${pyz0})/(v_delta/v_len0)*${cfac}
variable d4 equal -(v_pyz1-9.86183219739625e-12)/(v_delta/v_len0)*${cfac}
variable d4 equal -(v_pyz1-9.86183219739625e-12)/(v_delta/v_len0)*0.0001
variable d5 equal -(v_pxz1-${pxz0})/(v_delta/v_len0)*${cfac}
variable d5 equal -(v_pxz1-1.91435566184755e-11)/(v_delta/v_len0)*${cfac}
variable d5 equal -(v_pxz1-1.91435566184755e-11)/(v_delta/v_len0)*0.0001
variable d6 equal -(v_pxy1-${pxy0})/(v_delta/v_len0)*${cfac}
variable d6 equal -(v_pxy1--2.73479380263933e-11)/(v_delta/v_len0)*${cfac}
variable d6 equal -(v_pxy1--2.73479380263933e-11)/(v_delta/v_len0)*0.0001

displace_atoms all random ${atomjiggle} ${atomjiggle} ${atomjiggle} 87287 units box
displace_atoms all random 1e-05 ${atomjiggle} ${atomjiggle} 87287 units box
displace_atoms all random 1e-05 1e-05 ${atomjiggle} 87287 units box
displace_atoms all random 1e-05 1e-05 1e-05 87287 units box
Displacing atoms ...

# Write restart
unfix 3
write_restart restart.equil
System init for write_restart ...

# uxx Perturbation

variable dir equal 1
include displace.mod
# NOTE: This script should not need to be
# modified. See in.elastic for more info.
#
# Find which reference length to use

if "${dir} == 1" then    "variable len0 equal ${lx0}"
variable len0 equal ${lx0}
variable len0 equal 6.68704662542284
if "${dir} == 2" then    "variable len0 equal ${ly0}"
if "${dir} == 3" then    "variable len0 equal ${lz0}"
if "${dir} == 4" then    "variable len0 equal ${lz0}"
if "${dir} == 5" then    "variable len0 equal ${lz0}"
if "${dir} == 6" then    "variable len0 equal ${ly0}"

# Reset box and simulation parameters

clear
  using 1 OpenMP thread(s) per MPI task
Loaded 1 plugins from C:\Program Files\LAMMPS 64-bit 23Jun2022\plugins
Loaded 0 plugins from C:\Program Files\LAMMPS 64-bit 23Jun2022-MPI\plugins
Loaded 1 plugins from C:\Program Files\LAMMPS 64-bit 22Dec2022-MSMPI\plugins
Loaded 1 plugins from C:\Program Files\LAMMPS 64-bit 28Mar2023-MPI\plugins
box tilt large

The 'box' command has been removed and will be ignored

read_restart restart.equil
Reading restart file ...
  restart file = 22 Dec 2022, LAMMPS = 22 Dec 2022
  restoring atom style atomic from restart
  triclinic box = (0.043238348 0.043238353 0.043238357) to (6.730285 10.073808 13.417332) with tilt (0 0 0)
  1 by 2 by 2 MPI processor grid
  pair style meam stores no restart info
  48 atoms
  read_restart CPU = 0.000 seconds
include potential.mod
# NOTE: This script can be modified for different pair styles
# See in.elastic for more info.

# Choose potential
#-----------------------
#pair_style	sw
#pair_coeff * * Si.sw Si
#-----------------------
#pair_style morse	2.83994742	# D0[eV] a[1/A] r0[A] rc[A], 1NN for BCC
#pair_coeff 1 1	2.1173	1.0202	2.4595	2.6497	#	Fe-Fe
#-----------------------
#pair_style smatb # R0(A)   p       q     A(eV)   xi(eV)  Rcs(A)   Rc(A), 4NN: Rcs=4NN, Rc=(4NN+5NN)/2
#pair_coeff 1 1	2.4802	7.0149	2.3779	0.3144	3.0551	4.033	4.176	#	Co	Co
#-----------------------
#pair_style eam/alloy
#pair_coeff * * AlCrFeCoNi_Zhou04.eam.alloy Fe
#-----------------------
pair_style meam
#pair_coeff * * ./../../library.meam V Nb Ta Ti Zr ./../../VNbTaTiZr.meam V Nb
#pair_coeff * * ./../../library.meam V Nb Ta Ti Zr ./../../VNbTaTiZr.meam V Ta
#pair_coeff * * ./../../library.meam V Nb Ta Ti Zr ./../../VNbTaTiZr.meam V Ti
#pair_coeff * * ./../../library.meam V Nb Ta Ti Zr ./../../VNbTaTiZr.meam V Zr
#pair_coeff * * ./../../library.meam V Nb Ta Ti Zr ./../../VNbTaTiZr.meam Nb Ta
#pair_coeff * * ./../../library.meam V Nb Ta Ti Zr ./../../VNbTaTiZr.meam Nb Ti
pair_coeff * * ./../../library.meam V Nb Ta Ti Zr ./../../VNbTaTiZr.meam Nb Zr
#pair_coeff * * ./../../library.meam V Nb Ta Ti Zr ./../../VNbTaTiZr.meam Ta Ti
#pair_coeff * * ./../../library.meam V Nb Ta Ti Zr ./../../VNbTaTiZr.meam Ta Zr
#pair_coeff * * ./../../library.meam V Nb Ta Ti Zr ./../../VNbTaTiZr.meam Ti Zr
#-----------------------

# Setup neighbor style
neighbor 1.0 nsq
neigh_modify once no every 1 delay 0 check yes

# Setup minimization style
min_style	     cg
min_modify	     dmax ${dmax} line quadratic
min_modify	     dmax 0.01 line quadratic

# Setup output
thermo		1
thermo_style custom step temp pe press pxx pyy pzz pxy pxz pyz lx ly lz vol
thermo_modify norm no

# Negative deformation

variable delta equal -${up}*${len0}
variable delta equal -1e-06*${len0}
variable delta equal -1e-06*6.68704662542284
variable deltaxy equal -${up}*xy
variable deltaxy equal -1e-06*xy
variable deltaxz equal -${up}*xz
variable deltaxz equal -1e-06*xz
variable deltayz equal -${up}*yz
variable deltayz equal -1e-06*yz
if "${dir} == 1" then    "change_box all x delta 0 ${delta} xy delta ${deltaxy} xz delta ${deltaxz} remap units box"
change_box all x delta 0 ${delta} xy delta ${deltaxy} xz delta ${deltaxz} remap units box
change_box all x delta 0 -6.68704662542284e-06 xy delta ${deltaxy} xz delta ${deltaxz} remap units box
change_box all x delta 0 -6.68704662542284e-06 xy delta -0 xz delta ${deltaxz} remap units box
change_box all x delta 0 -6.68704662542284e-06 xy delta -0 xz delta -0 remap units box
Changing box ...
  triclinic box = (0.043238348 0.043238353 0.043238357) to (6.7302783 10.073808 13.417332) with tilt (0 0 0)
  triclinic box = (0.043238348 0.043238353 0.043238357) to (6.7302783 10.073808 13.417332) with tilt (0 0 0)
  triclinic box = (0.043238348 0.043238353 0.043238357) to (6.7302783 10.073808 13.417332) with tilt (0 0 0)
if "${dir} == 2" then    "change_box all y delta 0 ${delta} yz delta ${deltayz} remap units box"
if "${dir} == 3" then    "change_box all z delta 0 ${delta} remap units box"
if "${dir} == 4" then    "change_box all yz delta ${delta} remap units box"
if "${dir} == 5" then    "change_box all xz delta ${delta} remap units box"
if "${dir} == 6" then    "change_box all xy delta ${delta} remap units box"

# Relax atoms positions

minimize ${etol} ${ftol} ${maxiter} ${maxeval}
minimize 0 ${ftol} ${maxiter} ${maxeval}
minimize 0 1e-10 ${maxiter} ${maxeval}
minimize 0 1e-10 1000 ${maxeval}
minimize 0 1e-10 1000 100000
Neighbor list info ...
  update: every = 1 steps, delay = 0 steps, check = yes
  max neighbors/atom: 2000, page size: 100000
  master list distance cutoff = 6.8
  ghost atom cutoff = 6.8
  2 neighbor lists, perpetual/occasional/extra = 2 0 0
  (1) pair meam, perpetual
      attributes: full, newton on
      pair build: full/nsq
      stencil: none
      bin: none
  (2) pair meam, perpetual, half/full from (1)
      attributes: half, newton on
      pair build: halffull/newton
      stencil: none
      bin: none
Per MPI rank memory allocation (min/avg/max) = 9.71 | 9.712 | 9.714 Mbytes
   Step          Temp          PotEng         Press           Pxx            Pyy            Pzz            Pxy            Pxz            Pyz             Lx             Ly             Lz           Volume    
         2   0             -292.91419      1.0934719      1.2236748      1.0283768      1.0283641     -7.9290009e-06  6.642629e-06   4.9688718e-06  6.6870399      10.03057       13.374093      897.06492    
         3   0             -292.91419      1.0934222      1.2236288      1.0283196      1.0283183      1.6121888e-07 -5.776278e-07   1.206322e-06   6.6870399      10.03057       13.374093      897.06492    
         4   0             -292.91419      1.0934211      1.223627       1.0283183      1.028318      -2.8543062e-07 -1.5444589e-07  1.1096527e-06  6.6870399      10.03057       13.374093      897.06492    
         5   0             -292.91419      1.0934216      1.2236276      1.0283188      1.0283185     -3.5831213e-07  7.6595962e-08  6.6574236e-07  6.6870399      10.03057       13.374093      897.06492    
         6   0             -292.91419      1.0934221      1.2236281      1.0283191      1.0283189     -2.312412e-07   7.8018362e-08  4.1697649e-07  6.6870399      10.03057       13.374093      897.06492    
         7   0             -292.91419      1.0934224      1.2236285      1.0283194      1.0283193     -1.0696931e-07  9.7883828e-08  2.6426611e-07  6.6870399      10.03057       13.374093      897.06492    
         8   0             -292.91419      1.0934226      1.2236287      1.0283196      1.0283196     -1.5471908e-08  1.8350188e-07  8.5247411e-08  6.6870399      10.03057       13.374093      897.06492    
         9   0             -292.91419      1.0934225      1.2236286      1.0283194      1.0283195     -4.9079538e-09  3.4503958e-07  2.6794762e-08  6.6870399      10.03057       13.374093      897.06492    
        10   0             -292.91419      1.0934215      1.2236277      1.0283183      1.0283184     -5.6167368e-08  9.8351219e-07  8.001785e-08   6.6870399      10.03057       13.374093      897.06492    
        11   0             -292.91419      1.0934089      1.2236159      1.028305       1.0283058     -5.2389961e-07  8.0041248e-06  1.2892439e-06  6.6870399      10.03057       13.374093      897.06492    
        12   0             -292.91419      1.0926738      1.2229358      1.0275197      1.027566      -2.3318915e-05  0.00042177349  6.5782794e-05  6.6870399      10.03057       13.374093      897.06492    
        13   0             -292.9142       0.36767479     0.55457031     0.25166058     0.29679347    -0.021358363    0.41209486     0.059612915    6.6870399      10.03057       13.374093      897.06492    
        14   0             -292.91469     -36.355572     -33.579569     -37.451347     -38.0358       -1.0982041      21.288639      3.0562369      6.6870399      10.03057       13.374093      897.06492    
        15   0             -292.9161      -128.30354     -137.2825      -55.329304     -192.2988      -4.4621545      75.094344      11.07314       6.6870399      10.03057       13.374093      897.06492    
        16   0             -292.92067     -271.99325     -476.65118      482.75074     -822.07932     -15.761445      178.05245      29.430122      6.6870399      10.03057       13.374093      897.06492    
        17   0             -292.93814     -451.41353     -1632.7073      2967.8374     -2689.3708     -52.564134      396.36508      77.448962      6.6870399      10.03057       13.374093      897.06492    
        18   0             -292.99173     -624.73433     -4748.6521      9362.5121     -6488.063      -145.24547      875.99455      193.22628      6.6870399      10.03057       13.374093      897.06492    
        19   0             -293.11913     -715.23757     -11295.429      21261.959     -12112.243     -325.9714       1826.8077      425.22712      6.6870399      10.03057       13.374093      897.06492    
        20   0             -293.36559     -613.22571     -22451.271      38945.969     -18334.374     -609.59198      3455.28        814.10212      6.6870399      10.03057       13.374093      897.06492    
        21   0             -293.77207     -190.89706     -38355.506      61040.677     -23257.862     -978.20672      5881.1883      1377.0647      6.6870399      10.03057       13.374093      897.06492    
        22   0             -294.36425      672.51598     -57653.325      84935.381     -25264.508     -1380.537       9084.5006      2103.5879      6.6870399      10.03057       13.374093      897.06492    
        23   0             -295.14679      2062.8789     -77660.532      107626.86     -23777.687     -1747.4463      12905.44       2960.0885      6.6870399      10.03057       13.374093      897.06492    
        24   0             -296.10406      4011.0817     -95121.266      126531.31     -19376.802     -2014.4329      17089.126      3895.9695      6.6870399      10.03057       13.374093      897.06492    
        25   0             -297.20622      6490.5967     -107173.16      139982.56     -13337.611     -2139.2042      21351.189      4847.9372      6.6870399      10.03057       13.374093      897.06492    
        26   0             -298.42837      9460.561      -112013.09      147372.87     -6978.0921     -2106.7044      25459.783      5746.366       6.6870399      10.03057       13.374093      897.06492    
        27   0             -299.90026      13283.264     -107692.92      148674.07     -1131.3539     -1901.4189      29485.788      6509.8542      6.6870399      10.03057       13.374093      897.06492    
        28   0             -301.37014      17338.896     -94550.875      144982.68      1584.8846     -1610.1722      32459.713      6774.8243      6.6870399      10.03057       13.374093      897.06492    
        29   0             -302.84275      21624.997     -76388.595      138188.95      3074.6314     -1265.6859      34801.678      6772.112       6.6870399      10.03057       13.374093      897.06492    
        30   0             -304.29243      26049.494     -56676.132      130099.84      4724.7744     -845.30981      36567.022      6542.8024      6.6870399      10.03057       13.374093      897.06492    
        31   0             -305.57488      30112.849     -39683.591      122841.57      7180.5625     -354.74211      37724.06       6117.7391      6.6870399      10.03057       13.374093      897.06492    
        32   0             -306.77321      34016.575     -24891.343      116318.17      10622.894      228.45776      38487.557      5499.4868      6.6870399      10.03057       13.374093      897.06492    
        33   0             -307.87605      37678.413     -12108.509      110630.17      14513.575      841.1716       38954.207      4740.8787      6.6870399      10.03057       13.374093      897.06492    
        34   0             -308.90751      41147.416     -334.41864      105351.73      18424.934      1388.2692      39160.728      3896.9091      6.6870399      10.03057       13.374093      897.06492    
        35   0             -309.83935      44309.199      10505.976      100148.75      22272.867      1751.4463      39070.238      3068.5259      6.6870399      10.03057       13.374093      897.06492    
        36   0             -310.63489      47026.848      19901.561      94947.995      26230.989      1894.6672      38702.894      2356.6866      6.6870399      10.03057       13.374093      897.06492    
        37   0             -311.36278      49532.739      28610.709      89340.536      30646.973      1869.0888      38100.024      1741.8754      6.6870399      10.03057       13.374093      897.06492    
        38   0             -312.06349      51968.746      37326.168      83219.887      35360.184      1712.6088      37292.033      1217.1277      6.6870399      10.03057       13.374093      897.06492    
        39   0             -312.7726       54469.178      46784.287      76383.386      40239.862      1473.6381      36262.065      784.72216      6.6870399      10.03057       13.374093      897.06492    
        40   0             -313.31654      56414.584      54283.133      70543.882      44416.738      1329.3077      35297.972      533.09372      6.6870399      10.03057       13.374093      897.06492    
        41   0             -313.76206      58045.825      60081.477      64921.548      49134.449      1340.9204      34298.675      387.85811      6.6870399      10.03057       13.374093      897.06492    
        42   0             -314.15664      59542.435      64670.524      59079.668      54877.113      1514.0788      33226.743      313.54648      6.6870399      10.03057       13.374093      897.06492    
        43   0             -314.5272       61012.511      68479.673      53012.144      61545.716      1833.2418      32125.351      299.90861      6.6870399      10.03057       13.374093      897.06492    
        44   0             -314.89849      62556.004      71812.578      47007.149      68848.285      2272.051       31078.149      343.98264      6.6870399      10.03057       13.374093      897.06492    
        45   0             -315.30625      64310.359      74628.666      41973.46       76328.952      2784.6125      30165.408      427.07841      6.6870399      10.03057       13.374093      897.06492    
        46   0             -315.64675      65770.482      75853.453      40576.361      80881.633      3123.2665      29639.083      454.72041      6.6870399      10.03057       13.374093      897.06492    
        47   0             -315.93781      67013.844      76246.531      41992.264      82802.738      3283.9425      29219.41       408.922        6.6870399      10.03057       13.374093      897.06492    
        48   0             -316.20832      68206.412      77080.122      44996.604      82542.51       3330.9073      28721.414      347.75126      6.6870399      10.03057       13.374093      897.06492    
        49   0             -316.42119      69203.545      79115.832      47845.161      80649.643      3332.7507      28225.779      338.68582      6.6870399      10.03057       13.374093      897.06492    
        50   0             -316.60356      70129.047      82359.566      50328.675      77698.9        3325.3945      27767.431      371.14078      6.6870399      10.03057       13.374093      897.06492    
        51   0             -316.77532      71069.063      86651.883      52713.889      73841.416      3310.568       27436.534      416.48411      6.6870399      10.03057       13.374093      897.06492    
        52   0             -316.9272       71920.916      91063.214      54848.512      69851.022      3285.8863      27387.091      444.31418      6.6870399      10.03057       13.374093      897.06492    
        53   0             -317.04075      72530.446      94289.322      56217.985      67084.032      3257.4414      27520.272      464.277        6.6870399      10.03057       13.374093      897.06492    
        54   0             -317.14138      73051.682      96615.875      56958.335      65580.837      3211.4825      27629.7        523.19017      6.6870399      10.03057       13.374093      897.06492    
        55   0             -317.23507      73534.255      98052.63       57125.602      65424.533      3141.0659      27599.76       642.64087      6.6870399      10.03057       13.374093      897.06492    
        56   0             -317.32279      74002.065      98672.343      56802.417      66531.434      3041.6338      27401.598      827.51519      6.6870399      10.03057       13.374093      897.06492    
        57   0             -317.40392      74469.007      98624.706      56147.078      68635.236      2912.1013      27055.56       1070.0138      6.6870399      10.03057       13.374093      897.06492    
        58   0             -317.47849      74950.882      98103.147      55382.648      71366.851      2752.8951      26606.749      1356.7868      6.6870399      10.03057       13.374093      897.06492    
        59   0             -317.54922      75481.3        97298.678      54801.781      74343.44       2560.3565      26101.644      1679.3212      6.6870399      10.03057       13.374093      897.06492    
        60   0             -317.62418      76139.988      96362.962      54826.505      77230.496      2316.4717      25577.201      2048.5653      6.6870399      10.03057       13.374093      897.06492    
        61   0             -317.70005      76876.977      95735.473      55872.861      79022.597      2060.0309      25222.791      2397.1299      6.6870399      10.03057       13.374093      897.06492    
        62   0             -317.7679       77516.628      95920.569      56952.465      79676.85       1860.691       25235.49       2660.3077      6.6870399      10.03057       13.374093      897.06492    
        63   0             -317.83057      77996.963      97596.929      56909.306      79484.655      1783.0874      25883.297      2848.0447      6.6870399      10.03057       13.374093      897.06492    
        64   0             -317.87465      78216.747      100210.91      56378.311      78061.021      1907.9547      26869.131      2885.1787      6.6870399      10.03057       13.374093      897.06492    
        65   0             -317.92248      78405.96       103192.27      55954.015      76071.592      2113.3246      27951.877      2868.723       6.6870399      10.03057       13.374093      897.06492    
        66   0             -317.97908      78610.149      106121.27      55535.36       74173.812      2334.3692      28984.926      2851.1451      6.6870399      10.03057       13.374093      897.06492    
        67   0             -318.04424      78843.046      108607.63      54892.332      73029.178      2517.3052      29840.592      2878.8006      6.6870399      10.03057       13.374093      897.06492    
        68   0             -318.115        79107.016      110414.02      53795.79       73111.239      2624.3504      30456.63       2980.4055      6.6870399      10.03057       13.374093      897.06492    
        69   0             -318.18752      79402.164      111508.18      52113.029      74585.28       2639.7433      30840.218      3163.138       6.6870399      10.03057       13.374093      897.06492    
        70   0             -318.2586       79732.699      112017.57      49869.935      77310.592      2570.4234      31043.372      3419.5948      6.6870399      10.03057       13.374093      897.06492    
        71   0             -318.32746      80118.209      112191.02      47183.557      80980.045      2433.4548      31165.845      3729.8302      6.6870399      10.03057       13.374093      897.06492    
        72   0             -318.39967      80629.928      112325.15      44306.193      85258.441      2247.2473      31329.77       4073.9686      6.6870399      10.03057       13.374093      897.06492    
        73   0             -318.47201      81263.407      112606.23      42490.995      88692.99       2082.2307      31596.614      4347.2899      6.6870399      10.03057       13.374093      897.06492    
        74   0             -318.54009      81932.611      112791.13      42308.839      90697.862      1966.8483      31850.872      4513.6119      6.6870399      10.03057       13.374093      897.06492    
        75   0             -318.60203      82585.82       112650.27      43323.852      91783.34       1873.7213      32012.869      4617.8252      6.6870399      10.03057       13.374093      897.06492    
        76   0             -318.65572      83191.202      112160.21      45111.433      92301.963      1787.9353      32076.314      4687.9463      6.6870399      10.03057       13.374093      897.06492    
        77   0             -318.70218      83758.674      111378.22      47406.862      92490.942      1700.5592      32064.418      4736.2099      6.6870399      10.03057       13.374093      897.06492    
        78   0             -318.74247      84297.197      110401.9       49960.982      92528.712      1605.5607      32005.6        4759.9794      6.6870399      10.03057       13.374093      897.06492    
        79   0             -318.78034      84828.834      109392.1       52426.174      92668.228      1488.5182      31947.811      4737.7686      6.6870399      10.03057       13.374093      897.06492    
        80   0             -318.81674      85196.09       109211.59      52925.718      93450.962      1354.578       32062.279      4614.2196      6.6870399      10.03057       13.374093      897.06492    
        81   0             -318.85478      85347.588      110412.92      50423.447      95206.397      1171.7         32514.758      4412.3868      6.6870399      10.03057       13.374093      897.06492    
        82   0             -318.89197      85448.531      111940.16      47326.838      97078.592      972.45716      33038.585      4240.3563      6.6870399      10.03057       13.374093      897.06492    
        83   0             -318.93376      85547.477      113402.87      44467.828      98771.735      786.09827      33524.355      4113.869       6.6870399      10.03057       13.374093      897.06492    
        84   0             -318.97883      85659.565      114529.41      42410.189      100039.09      638.19391      33906.523      4062.075       6.6870399      10.03057       13.374093      897.06492    
        85   0             -319.02541      85794.211      115288.14      41222.377      100872.12      538.68825      34190.599      4099.9636      6.6870399      10.03057       13.374093      897.06492    
        86   0             -319.07301      85958.618      115850.29      40565.864      101459.7       487.82568      34433.666      4233.8261      6.6870399      10.03057       13.374093      897.06492    
        87   0             -319.12538      86165.948      116539.8       39828.817      102129.23      479.39896      34732.496      4476.3863      6.6870399      10.03057       13.374093      897.06492    
        88   0             -319.18497      86410.111      117560.38      38613.302      103056.66      502.99939      35138.041      4806.2709      6.6870399      10.03057       13.374093      897.06492    
        89   0             -319.2435       86654.286      118498.07      37642.735      103822.05      539.95876      35545.307      5114.5622      6.6870399      10.03057       13.374093      897.06492    
        90   0             -319.30345      86929.741      119123.84      37478.477      104186.91      593.5783       35887.301      5387.1479      6.6870399      10.03057       13.374093      897.06492    
        91   0             -319.36419      87259.798      119392.99      38268.138      104118.27      669.50742      36154.998      5613.6297      6.6870399      10.03057       13.374093      897.06492    
        92   0             -319.4251       87661.675      119333.35      39980.64       103671.04      767.95055      36338.557      5771.9975      6.6870399      10.03057       13.374093      897.06492    
        93   0             -319.47722      88067.812      119035.92      42128.711      103038.81      867.48638      36409.067      5816.8324      6.6870399      10.03057       13.374093      897.06492    
        94   0             -319.51976      88438.901      118601.98      44357.386      102357.34      956.98954      36381.402      5757.3357      6.6870399      10.03057       13.374093      897.06492    
        95   0             -319.55522      88768.585      118123.77      46468.877      101713.11      1040.5356      36290.674      5612.4262      6.6870399      10.03057       13.374093      897.06492    
        96   0             -319.58684      89055.351      117768.31      48126.683      101271.06      1134.5256      36186.34       5387.2661      6.6870399      10.03057       13.374093      897.06492    
        97   0             -319.62645      89310.915      118110.82      48266.74       101555.19      1305.9632      36226.169      5066.6598      6.6870399      10.03057       13.374093      897.06492    
        98   0             -319.65906      89405.541      119117.57      46728.723      102370.33      1469.9988      36487.696      4934.2566      6.6870399      10.03057       13.374093      897.06492    
        99   0             -319.69514      89481.7        120078.53      45305.873      103060.7       1623.029       36741.498      4842.9445      6.6870399      10.03057       13.374093      897.06492    
       100   0             -319.73389      89564.974      120713.61      44608.286      103373.03      1751.3337      36895.912      4741.1812      6.6870399      10.03057       13.374093      897.06492    
       101   0             -319.77245      89665.119      120917.95      44843.464      103233.94      1849.3107      36917.924      4606.6653      6.6870399      10.03057       13.374093      897.06492    
       102   0             -319.8078       89783.45       120731.15      45900.93       102718.27      1920.6039      36820.927      4437.0525      6.6870399      10.03057       13.374093      897.06492    
       103   0             -319.83766      89914.482      120279.63      47477.841      101985.98      1974.8141      36649.116      4243.3668      6.6870399      10.03057       13.374093      897.06492    
       104   0             -319.86131      90050.229      119695.55      49236.633      101218.51      2019.8974      36453.087      4039.0421      6.6870399      10.03057       13.374093      897.06492    
       105   0             -319.87985      90183.036      119059.57      50919.914      100569.62      2054.8433      36273.012      3832.5912      6.6870399      10.03057       13.374093      897.06492    
       106   0             -319.89664      90305.089      118362.42      52420.964      100131.88      2053.1508      36137.806      3620.381       6.6870399      10.03057       13.374093      897.06492    
       107   0             -319.91275      90353.704      117739.91      53417.143      99904.059      1940.1201      36105.753      3442.3011      6.6870399      10.03057       13.374093      897.06492    
       108   0             -319.92606      90327.382      117168.59      54323.58       99489.977      1844.6075      36061.236      3134.0759      6.6870399      10.03057       13.374093      897.06492    
       109   0             -319.93026      90301.594      116958.17      54136.994      99809.621      1668.8148      36083.101      3141.2148      6.6870399      10.03057       13.374093      897.06492    
       110   0             -319.93606      90266.13       116849.5       54957.223      98991.664      1680.0216      35834.787      2862.0649      6.6870399      10.03057       13.374093      897.06492    
       111   0             -319.93872      90198.349      117433.32      53636.603      99525.129      1682.8359      36415.017      2705.6033      6.6870399      10.03057       13.374093      897.06492    
       112   0             -319.94563      90160.493      118504.82      51468.88       100507.77      1683.8053      37182.557      2545.333       6.6870399      10.03057       13.374093      897.06492    
       113   0             -319.96331      90159.036      119805.3       48934.457      101737.35      1706.7395      37989.506      2386.9875      6.6870399      10.03057       13.374093      897.06492    
       114   0             -319.99146      90196.942      120982.87      46767.837      102840.12      1738.8827      38644.778      2263.9264      6.6870399      10.03057       13.374093      897.06492    
       115   0             -320.02591      90270.375      121798.71      45474.421      103537.99      1757.9929      39052.306      2197.7031      6.6870399      10.03057       13.374093      897.06492    
       116   0             -320.06161      90370.305      122180.18      45198.331      103732.4       1751.6644      39207.904      2189.6676      6.6870399      10.03057       13.374093      897.06492    
       117   0             -320.09471      90490.228      122176.77      45804.958      103488.96      1726.7185      39140.727      2231.517       6.6870399      10.03057       13.374093      897.06492    
       118   0             -320.12246      90626.047      121909.52      47003.361      102965.26      1697.5649      38907.419      2309.2777      6.6870399      10.03057       13.374093      897.06492    
       119   0             -320.14342      90771.644      121515.73      48450.559      102348.64      1681.1619      38587.158      2403.1874      6.6870399      10.03057       13.374093      897.06492    
       120   0             -320.15768      90921.529      121094.16      49855.112      101815.31      1697.5288      38245.018      2494.6705      6.6870399      10.03057       13.374093      897.06492    
       121   0             -320.16664      91073.113      120671.54      51028.094      101519.7       1773.6336      37916.006      2569.6635      6.6870399      10.03057       13.374093      897.06492    
       122   0             -320.17255      91220.411      120089.85      51942.701      101628.69      1966.9495      37620.964      2639.3612      6.6870399      10.03057       13.374093      897.06492    
       123   0             -320.17544      91141.782      119834.69      52336.117      101254.54      1990.5408      37666.189      2667.3648      6.6870399      10.03057       13.374093      897.06492    
       124   0             -320.17636      91077.383      119853.36      51920.895      101457.9       1999.4079      37707.493      2695.7287      6.6870399      10.03057       13.374093      897.06492    
       125   0             -320.17693      91048.671      119902.98      52079.813      101163.22      1998.4086      37633.615      2682.248       6.6870399      10.03057       13.374093      897.06492    
       126   0             -320.1771       91061.272      119778.38      52333.539      101071.9       2003.2494      37611.969      2691.6818      6.6870399      10.03057       13.374093      897.06492    
       127   0             -320.17719      91063.543      119758.62      52288.48       101143.53      2015.8521      37563.854      2671.7008      6.6870399      10.03057       13.374093      897.06492    
       128   0             -320.17723      91049.633      119797.8       52202.911      101148.19      1995.4237      37578.928      2678.0821      6.6870399      10.03057       13.374093      897.06492    
       129   0             -320.17725      91050.728      119775.57      52285.976      101090.64      1997.0055      37574.015      2672.3973      6.6870399      10.03057       13.374093      897.06492    
       130   0             -320.17726      91047.27       119769.07      52251.15       101121.59      1998.6397      37585.094      2670.8564      6.6870399      10.03057       13.374093      897.06492    
       131   0             -320.17726      91046.568      119774.86      52260.792      101104.05      1995.6796      37585.087      2678.0946      6.6870399      10.03057       13.374093      897.06492    
       132   0             -320.17726      91051.348      119763.5       52291.256      101099.29      1993.2162      37577.673      2680.4665      6.6870399      10.03057       13.374093      897.06492    
       133   0             -320.17727      91049.948      119770.32      52283.781      101095.74      1993.1323      37577.459      2682.2599      6.6870399      10.03057       13.374093      897.06492    
       134   0             -320.17727      91049.437      119772.23      52284.581      101091.5       1988.0928      37580.19       2689.8292      6.6870399      10.03057       13.374093      897.06492    
       135   0             -320.17727      91050.984      119768.41      52294.49       101090.06      1989.1365      37575.816      2690.7366      6.6870399      10.03057       13.374093      897.06492    
       136   0             -320.17727      91051.459      119766.37      52290.914      101097.09      1988.5193      37576.787      2693.0535      6.6870399      10.03057       13.374093      897.06492    
       137   0             -320.17727      91051.716      119766.81      52294.022      101094.32      1987.8155      37575.937      2693.8203      6.6870399      10.03057       13.374093      897.06492    
       138   0             -320.17727      91052.008      119767.2       52295.702      101093.12      1987.8165      37576.435      2693.4496      6.6870399      10.03057       13.374093      897.06492    
       139   0             -320.17727      91051.992      119767.08      52292.899      101095.99      1987.4117      37576.419      2694.0273      6.6870399      10.03057       13.374093      897.06492    
       140   0             -320.17727      91052.111      119766.41      52295.057      101094.86      1987.0479      37576.514      2694.601       6.6870399      10.03057       13.374093      897.06492    
       141   0             -320.17727      91052.132      119766.52      52295.447      101094.43      1987.2788      37576.228      2694.2847      6.6870399      10.03057       13.374093      897.06492    
       142   0             -320.17727      91052.08       119766.78      52295.14       101094.32      1987.4676      37576.502      2694.0723      6.6870399      10.03057       13.374093      897.06492    
       143   0             -320.17727      91052.074      119766.99      52295.656      101093.57      1987.512       37576.44       2694.0582      6.6870399      10.03057       13.374093      897.06492    
       144   0             -320.17727      91052.055      119766.82      52294.972      101094.37      1987.3956      37576.522      2694.251       6.6870399      10.03057       13.374093      897.06492    
       145   0             -320.17727      91052.076      119766.74      52295.325      101094.16      1987.4317      37576.474      2694.1852      6.6870399      10.03057       13.374093      897.06492    
       146   0             -320.17727      91052.052      119766.84      52295.245      101094.07      1987.441       37576.438      2694.1916      6.6870399      10.03057       13.374093      897.06492    
       147   0             -320.17727      91052.037      119766.82      52295.328      101093.96      1987.4695      37576.419      2694.1725      6.6870399      10.03057       13.374093      897.06492    
       148   0             -320.17727      91052.037      119766.79      52295.293      101094.03      1987.4781      37576.42       2694.1673      6.6870399      10.03057       13.374093      897.06492    
       149   0             -320.17727      91052.038      119766.8       52295.288      101094.03      1987.4828      37576.393      2694.1641      6.6870399      10.03057       13.374093      897.06492    
       150   0             -320.17727      91052.04       119766.79      52295.224      101094.1       1987.4704      37576.412      2694.1783      6.6870399      10.03057       13.374093      897.06492    
       151   0             -320.17727      91052.039      119766.82      52295.237      101094.06      1987.4865      37576.412      2694.1569      6.6870399      10.03057       13.374093      897.06492    
       152   0             -320.17727      91052.037      119766.82      52295.257      101094.03      1987.4983      37576.416      2694.1455      6.6870399      10.03057       13.374093      897.06492    
       153   0             -320.17727      91052.037      119766.82      52295.227      101094.07      1987.4968      37576.41       2694.1491      6.6870399      10.03057       13.374093      897.06492    
       154   0             -320.17727      91052.039      119766.82      52295.245      101094.06      1987.4959      37576.415      2694.1476      6.6870399      10.03057       13.374093      897.06492    
       155   0             -320.17727      91052.038      119766.82      52295.24       101094.05      1987.4939      37576.417      2694.144       6.6870399      10.03057       13.374093      897.06492    
       156   0             -320.17727      91052.037      119766.82      52295.227      101094.06      1987.4932      37576.419      2694.1437      6.6870399      10.03057       13.374093      897.06492    
       157   0             -320.17727      91052.038      119766.82      52295.236      101094.06      1987.4954      37576.415      2694.1417      6.6870399      10.03057       13.374093      897.06492    
       158   0             -320.17727      91052.038      119766.82      52295.233      101094.06      1987.4957      37576.416      2694.1416      6.6870399      10.03057       13.374093      897.06492    
       159   0             -320.17727      91052.038      119766.82      52295.231      101094.06      1987.4956      37576.417      2694.1416      6.6870399      10.03057       13.374093      897.06492    
       160   0             -320.17727      91052.038      119766.82      52295.231      101094.06      1987.4955      37576.417      2694.1413      6.6870399      10.03057       13.374093      897.06492    
       161   0             -320.17727      91052.038      119766.82      52295.23       101094.06      1987.4954      37576.417      2694.1414      6.6870399      10.03057       13.374093      897.06492    
       162   0             -320.17727      91052.038      119766.82      52295.231      101094.06      1987.4953      37576.417      2694.1415      6.6870399      10.03057       13.374093      897.06492    
       163   0             -320.17727      91052.038      119766.82      52295.231      101094.06      1987.4954      37576.417      2694.1414      6.6870399      10.03057       13.374093      897.06492    
       164   0             -320.17727      91052.038      119766.82      52295.231      101094.06      1987.4954      37576.417      2694.1413      6.6870399      10.03057       13.374093      897.06492    
       165   0             -320.17727      91052.038      119766.82      52295.231      101094.06      1987.4954      37576.417      2694.1413      6.6870399      10.03057       13.374093      897.06492    
       166   0             -320.17727      91052.038      119766.82      52295.231      101094.06      1987.4954      37576.417      2694.1413      6.6870399      10.03057       13.374093      897.06492    
       167   0             -320.17727      91052.038      119766.82      52295.231      101094.06      1987.4954      37576.417      2694.1413      6.6870399      10.03057       13.374093      897.06492    
       168   0             -320.17727      91052.038      119766.82      52295.231      101094.06      1987.4954      37576.417      2694.1413      6.6870399      10.03057       13.374093      897.06492    
       169   0             -320.17727      91052.038      119766.82      52295.231      101094.06      1987.4954      37576.417      2694.1413      6.6870399      10.03057       13.374093      897.06492    
       170   0             -320.17727      91052.038      119766.82      52295.231      101094.06      1987.4954      37576.417      2694.1413      6.6870399      10.03057       13.374093      897.06492    
       171   0             -320.17727      91052.038      119766.82      52295.231      101094.06      1987.4954      37576.417      2694.1413      6.6870399      10.03057       13.374093      897.06492    
       172   0             -320.17727      91052.038      119766.82      52295.231      101094.06      1987.4954      37576.417      2694.1413      6.6870399      10.03057       13.374093      897.06492    
       173   0             -320.17727      91052.038      119766.82      52295.231      101094.06      1987.4954      37576.417      2694.1413      6.6870399      10.03057       13.374093      897.06492    
       174   0             -320.17727      91052.038      119766.82      52295.231      101094.06      1987.4954      37576.417      2694.1413      6.6870399      10.03057       13.374093      897.06492    
       175   0             -320.17727      91052.038      119766.82      52295.231      101094.06      1987.4954      37576.417      2694.1413      6.6870399      10.03057       13.374093      897.06492    
       176   0             -320.17727      91052.038      119766.82      52295.231      101094.06      1987.4954      37576.417      2694.1413      6.6870399      10.03057       13.374093      897.06492    
       177   0             -320.17727      91052.038      119766.82      52295.231      101094.06      1987.4954      37576.417      2694.1413      6.6870399      10.03057       13.374093      897.06492    
       178   0             -320.17727      91052.038      119766.82      52295.231      101094.06      1987.4954      37576.417      2694.1413      6.6870399      10.03057       13.374093      897.06492    
       179   0             -320.17727      91052.038      119766.82      52295.231      101094.06      1987.4954      37576.417      2694.1413      6.6870399      10.03057       13.374093      897.06492    
       180   0             -320.17727      91052.038      119766.82      52295.231      101094.06      1987.4954      37576.417      2694.1413      6.6870399      10.03057       13.374093      897.06492    
       181   0             -320.17727      91052.038      119766.82      52295.231      101094.06      1987.4954      37576.417      2694.1413      6.6870399      10.03057       13.374093      897.06492    
Loop time of 0.0426818 on 4 procs for 179 steps with 48 atoms

45.8% CPU use with 4 MPI tasks x 1 OpenMP threads

Minimization stats:
  Stopping criterion = force tolerance
  Energy initial, next-to-last, final = 
     -292.914193002156  -320.177270243415  -320.177270243415
  Force two-norm initial, final = 0.0004179269 9.2022888e-11
  Force max component initial, final = 8.4725881e-05 2.4578908e-11
  Final line search alpha, max atom move = 1 2.4578908e-11
  Iterations, force evaluations = 179 247

MPI task timing breakdown:
Section |  min time  |  avg time  |  max time  |%varavg| %total
---------------------------------------------------------------
Pair    | 0.034929   | 0.035639   | 0.036531   |   0.4 | 83.50
Neigh   | 0          | 0          | 0          |   0.0 |  0.00
Comm    | 0.002948   | 0.003829   | 0.004528   |   1.1 |  8.97
Output  | 0.001673   | 0.001764   | 0.001972   |   0.3 |  4.13
Modify  | 0          | 0          | 0          |   0.0 |  0.00
Other   |            | 0.00145    |            |       |  3.40

Nlocal:             12 ave          15 max           9 min
Histogram: 1 1 0 0 0 0 0 0 1 1
Nghost:            498 ave         501 max         495 min
Histogram: 1 1 0 0 0 0 0 0 1 1
Neighs:            384 ave         475 max         279 min
Histogram: 1 0 1 0 0 0 0 0 0 2
FullNghs:          768 ave         960 max         576 min
Histogram: 1 1 0 0 0 0 0 0 1 1

Total # of neighbors = 3072
Ave neighs/atom = 64
Neighbor list builds = 0
Dangerous builds = 0

# Obtain new stress tensor

variable tmp equal pxx
variable pxx1 equal ${tmp}
variable pxx1 equal 119766.82001393
variable tmp equal pyy
variable pyy1 equal ${tmp}
variable pyy1 equal 52295.2305554495
variable tmp equal pzz
variable pzz1 equal ${tmp}
variable pzz1 equal 101094.062407747
variable tmp equal pxy
variable pxy1 equal ${tmp}
variable pxy1 equal 1987.49542158776
variable tmp equal pxz
variable pxz1 equal ${tmp}
variable pxz1 equal 37576.4169251094
variable tmp equal pyz
variable pyz1 equal ${tmp}
variable pyz1 equal 2694.14127347262

# Compute elastic constant from pressure tensor

variable C1neg equal ${d1}
variable C1neg equal 11976682.001393
variable C2neg equal ${d2}
variable C2neg equal 5229523.05554492
variable C3neg equal ${d3}
variable C3neg equal 10109406.2407747
variable C4neg equal ${d4}
variable C4neg equal 269414.127347261
variable C5neg equal ${d5}
variable C5neg equal 3757641.69251094
variable C6neg equal ${d6}
variable C6neg equal 198749.542158779

# Reset box and simulation parameters

clear
  using 1 OpenMP thread(s) per MPI task
Loaded 1 plugins from C:\Program Files\LAMMPS 64-bit 23Jun2022\plugins
Loaded 0 plugins from C:\Program Files\LAMMPS 64-bit 23Jun2022-MPI\plugins
Loaded 1 plugins from C:\Program Files\LAMMPS 64-bit 22Dec2022-MSMPI\plugins
Loaded 1 plugins from C:\Program Files\LAMMPS 64-bit 28Mar2023-MPI\plugins
box tilt large

The 'box' command has been removed and will be ignored

read_restart restart.equil
Reading restart file ...
  restart file = 22 Dec 2022, LAMMPS = 22 Dec 2022
  restoring atom style atomic from restart
  triclinic box = (0.043238348 0.043238353 0.043238357) to (6.730285 10.073808 13.417332) with tilt (0 0 0)
  1 by 2 by 2 MPI processor grid
  pair style meam stores no restart info
  48 atoms
  read_restart CPU = 0.000 seconds
include potential.mod
# NOTE: This script can be modified for different pair styles
# See in.elastic for more info.

# Choose potential
#-----------------------
#pair_style	sw
#pair_coeff * * Si.sw Si
#-----------------------
#pair_style morse	2.83994742	# D0[eV] a[1/A] r0[A] rc[A], 1NN for BCC
#pair_coeff 1 1	2.1173	1.0202	2.4595	2.6497	#	Fe-Fe
#-----------------------
#pair_style smatb # R0(A)   p       q     A(eV)   xi(eV)  Rcs(A)   Rc(A), 4NN: Rcs=4NN, Rc=(4NN+5NN)/2
#pair_coeff 1 1	2.4802	7.0149	2.3779	0.3144	3.0551	4.033	4.176	#	Co	Co
#-----------------------
#pair_style eam/alloy
#pair_coeff * * AlCrFeCoNi_Zhou04.eam.alloy Fe
#-----------------------
pair_style meam
#pair_coeff * * ./../../library.meam V Nb Ta Ti Zr ./../../VNbTaTiZr.meam V Nb
#pair_coeff * * ./../../library.meam V Nb Ta Ti Zr ./../../VNbTaTiZr.meam V Ta
#pair_coeff * * ./../../library.meam V Nb Ta Ti Zr ./../../VNbTaTiZr.meam V Ti
#pair_coeff * * ./../../library.meam V Nb Ta Ti Zr ./../../VNbTaTiZr.meam V Zr
#pair_coeff * * ./../../library.meam V Nb Ta Ti Zr ./../../VNbTaTiZr.meam Nb Ta
#pair_coeff * * ./../../library.meam V Nb Ta Ti Zr ./../../VNbTaTiZr.meam Nb Ti
pair_coeff * * ./../../library.meam V Nb Ta Ti Zr ./../../VNbTaTiZr.meam Nb Zr
#pair_coeff * * ./../../library.meam V Nb Ta Ti Zr ./../../VNbTaTiZr.meam Ta Ti
#pair_coeff * * ./../../library.meam V Nb Ta Ti Zr ./../../VNbTaTiZr.meam Ta Zr
#pair_coeff * * ./../../library.meam V Nb Ta Ti Zr ./../../VNbTaTiZr.meam Ti Zr
#-----------------------

# Setup neighbor style
neighbor 1.0 nsq
neigh_modify once no every 1 delay 0 check yes

# Setup minimization style
min_style	     cg
min_modify	     dmax ${dmax} line quadratic
min_modify	     dmax 0.01 line quadratic

# Setup output
thermo		1
thermo_style custom step temp pe press pxx pyy pzz pxy pxz pyz lx ly lz vol
thermo_modify norm no

# Positive deformation

variable delta equal ${up}*${len0}
variable delta equal 1e-06*${len0}
variable delta equal 1e-06*6.68704662542284
variable deltaxy equal ${up}*xy
variable deltaxy equal 1e-06*xy
variable deltaxz equal ${up}*xz
variable deltaxz equal 1e-06*xz
variable deltayz equal ${up}*yz
variable deltayz equal 1e-06*yz
if "${dir} == 1" then    "change_box all x delta 0 ${delta} xy delta ${deltaxy} xz delta ${deltaxz} remap units box"
change_box all x delta 0 ${delta} xy delta ${deltaxy} xz delta ${deltaxz} remap units box
change_box all x delta 0 6.68704662542284e-06 xy delta ${deltaxy} xz delta ${deltaxz} remap units box
change_box all x delta 0 6.68704662542284e-06 xy delta 0 xz delta ${deltaxz} remap units box
change_box all x delta 0 6.68704662542284e-06 xy delta 0 xz delta 0 remap units box
Changing box ...
  triclinic box = (0.043238348 0.043238353 0.043238357) to (6.7302917 10.073808 13.417332) with tilt (0 0 0)
  triclinic box = (0.043238348 0.043238353 0.043238357) to (6.7302917 10.073808 13.417332) with tilt (0 0 0)
  triclinic box = (0.043238348 0.043238353 0.043238357) to (6.7302917 10.073808 13.417332) with tilt (0 0 0)
if "${dir} == 2" then    "change_box all y delta 0 ${delta} yz delta ${deltayz} remap units box"
if "${dir} == 3" then    "change_box all z delta 0 ${delta} remap units box"
if "${dir} == 4" then    "change_box all yz delta ${delta} remap units box"
if "${dir} == 5" then    "change_box all xz delta ${delta} remap units box"
if "${dir} == 6" then    "change_box all xy delta ${delta} remap units box"

# Relax atoms positions

minimize ${etol} ${ftol} ${maxiter} ${maxeval}
minimize 0 ${ftol} ${maxiter} ${maxeval}
minimize 0 1e-10 ${maxiter} ${maxeval}
minimize 0 1e-10 1000 ${maxeval}
minimize 0 1e-10 1000 100000
Neighbor list info ...
  update: every = 1 steps, delay = 0 steps, check = yes
  max neighbors/atom: 2000, page size: 100000
  master list distance cutoff = 6.8
  ghost atom cutoff = 6.8
  2 neighbor lists, perpetual/occasional/extra = 2 0 0
  (1) pair meam, perpetual
      attributes: full, newton on
      pair build: full/nsq
      stencil: none
      bin: none
  (2) pair meam, perpetual, half/full from (1)
      attributes: half, newton on
      pair build: halffull/newton
      stencil: none
      bin: none
Per MPI rank memory allocation (min/avg/max) = 9.71 | 9.712 | 9.714 Mbytes
   Step          Temp          PotEng         Press           Pxx            Pyy            Pzz            Pxy            Pxz            Pyz             Lx             Ly             Lz           Volume    
         2   0             -292.91419     -1.0933702     -1.2235819     -1.028258      -1.0282707     -7.9290484e-06  6.6426898e-06  4.9688304e-06  6.6870533      10.03057       13.374093      897.06672    
         3   0             -292.91419     -1.0934199     -1.2236279     -1.0283152     -1.0283165      1.6121419e-07 -5.7757548e-07  1.2062884e-06  6.6870533      10.03057       13.374093      897.06672    
         4   0             -292.91419     -1.093421      -1.2236297     -1.0283165     -1.0283168     -2.8542108e-07 -1.5443744e-07  1.1096314e-06  6.6870533      10.03057       13.374093      897.06672    
         5   0             -292.91419     -1.0934205     -1.223629      -1.0283161     -1.0283164     -3.5830298e-07  7.6598622e-08  6.6572604e-07  6.6870533      10.03057       13.374093      897.06672    
         6   0             -292.91419     -1.09342       -1.2236286     -1.0283157     -1.0283159     -2.3123054e-07  7.8015063e-08  4.1698498e-07  6.6870533      10.03057       13.374093      897.06672    
         7   0             -292.91419     -1.0934197     -1.2236282     -1.0283154     -1.0283155     -1.0696458e-07  9.7913023e-08  2.6425533e-07  6.6870533      10.03057       13.374093      897.06672    
         8   0             -292.91419     -1.0934195     -1.223628      -1.0283152     -1.0283152     -1.546158e-08   1.8346768e-07  8.5240472e-08  6.6870533      10.03057       13.374093      897.06672    
         9   0             -292.91419     -1.0934196     -1.2236281     -1.0283154     -1.0283153     -4.9175165e-09  3.449592e-07   2.681433e-08   6.6870533      10.03057       13.374093      897.06672    
        10   0             -292.91419     -1.0934206     -1.223629      -1.0283165     -1.0283164     -5.6158788e-08  9.8328236e-07  7.9997941e-08  6.6870533      10.03057       13.374093      897.06672    
        11   0             -292.91419     -1.0934332     -1.2236408     -1.0283298     -1.028329      -5.2351564e-07  8.0006397e-06  1.288519e-06   6.6870533      10.03057       13.374093      897.06672    
        12   0             -292.91419     -1.0941678     -1.2243204     -1.0291147     -1.0290684     -2.3300084e-05  0.00042153433  6.5739174e-05  6.6870533      10.03057       13.374093      897.06672    
        13   0             -292.9142      -1.8185085     -1.8920755     -1.8042718     -1.7591784     -0.021334155    0.41172389     0.0595535      6.6870533      10.03057       13.374093      897.06672    
        14   0             -292.91469     -38.537814     -36.019069     -39.504291     -40.090083     -1.0978198      21.286172      3.0555756      6.6870533      10.03057       13.374093      897.06672    
        15   0             -292.9161      -130.4822      -139.63123     -57.407239     -194.40812     -4.4607816      75.089598      11.071218      6.6870533      10.03057       13.374093      897.06672    
        16   0             -292.92067     -274.16971     -478.52085      480.52136     -824.50963     -15.75638       178.04155      29.424796      6.6870533      10.03057       13.374093      897.06672    
        17   0             -292.93813     -453.5922      -1633.2953      2965.2042     -2692.6855     -52.547022      396.335        77.434305      6.6870533      10.03057       13.374093      897.06672    
        18   0             -292.99172     -626.92498     -4746.9754      9359.1896     -6492.9892     -145.19974      875.92082      193.19014      6.6870533      10.03057       13.374093      897.06672    
        19   0             -293.11911     -717.45624     -11290.797      21257.803     -12119.374     -325.8738       1826.6602      425.15013      6.6870533      10.03057       13.374093      897.06672    
        20   0             -293.36554     -615.49342     -22443.72       38941.131     -18343.891     -609.41886      3455.0366      813.95954      6.6870533      10.03057       13.374093      897.06672    
        21   0             -293.772       -193.23672     -38345.945      61035.66      -23269.424     -977.94234      5880.8504      1376.8316      6.6870533      10.03057       13.374093      897.06672    
        22   0             -294.36415      670.08317     -57643.327      84930.945     -25277.369     -1380.1801      9084.1036      2103.2462      6.6870533      10.03057       13.374093      897.06672    
        23   0             -295.14666      2060.3365     -77651.871      107623.83     -23790.947     -1747.012       12905.052      2959.6336      6.6870533      10.03057       13.374093      897.06672    
        24   0             -296.1039       4008.4196     -95115.422      126530.35     -19389.667     -2013.9495      17088.835      3895.4131      6.6870533      10.03057       13.374093      897.06672    
        25   0             -297.20603      6487.8109     -107170.98      139983.96     -13349.546     -2138.7073      21351.083      4847.307       6.6870533      10.03057       13.374093      897.06672    
        26   0             -298.42817      9457.6388     -112014.74      147376.52     -6988.8597     -2106.2325      25459.923      5745.7006      6.6870533      10.03057       13.374093      897.06672    
        27   0             -299.89998      13279.966     -107698.83      148679.72     -1140.9974     -1901.0383      29486.106      6509.2022      6.6870533      10.03057       13.374093      897.06672    
        28   0             -301.36991      17335.571     -94558.702      144988.97      1576.4457     -1609.9106      32460.458      6774.2591      6.6870533      10.03057       13.374093      897.06672    
        29   0             -302.84256      21621.627     -76396.931      138194.55      3067.2598     -1265.5596      34802.742      6771.6362      6.6870533      10.03057       13.374093      897.06672    
        30   0             -304.29228      26046.067     -56684.255      130103.98      4718.4739     -845.30992      36568.364      6542.456       6.6870533      10.03057       13.374093      897.06672    
        31   0             -305.57478      30109.449     -39690.832      122844.16      7175.0184     -354.82213      37725.656      6117.5211      6.6870533      10.03057       13.374093      897.06672    
        32   0             -306.77318      34013.267     -24897.24       116319.45      10617.59       228.34055      38489.366      5499.3711      6.6870533      10.03057       13.374093      897.06672    
        33   0             -307.87609      37675.233     -12112.574      110630.41      14507.862      841.0498       38956.165      4740.8249      6.6870533      10.03057       13.374093      897.06672    
        34   0             -308.90763      41144.41      -336.04861      105350.89      18418.392      1388.1623      39162.745      3896.8746      6.6870533      10.03057       13.374093      897.06672    
        35   0             -309.83957      44306.48       10507.11       100146.42      22265.912      1751.361       39072.18       3068.4485      6.6870533      10.03057       13.374093      897.06672    
        36   0             -310.63517      47024.243      19904.095      94944.338      26224.295      1894.5717      38704.67       2356.5748      6.6870533      10.03057       13.374093      897.06672    
        37   0             -311.36307      49530.131      28613.427      89335.881      30641.084      1868.9779      38101.635      1741.7168      6.6870533      10.03057       13.374093      897.06672    
        38   0             -312.06376      51966.047      37328.155      83214.799      35355.187      1712.5029      37293.517      1216.8998      6.6870533      10.03057       13.374093      897.06672    
        39   0             -312.77284      54466.324      46784.887      76378.372      40235.714      1473.592       36263.486      784.41988      6.6870533      10.03057       13.374093      897.06672    
        40   0             -313.31674      56411.572      54282.342      70539.087      44413.288      1329.3635      35299.351      532.7595       6.6870533      10.03057       13.374093      897.06672    
        41   0             -313.76225      58042.757      60079.986      64916.639      49131.646      1341.0789      34299.965      387.51483      6.6870533      10.03057       13.374093      897.06672    
        42   0             -314.15683      59539.36       64668.95       59074.495      54874.636      1514.335       33227.949      313.21227      6.6870533      10.03057       13.374093      897.06672    
        43   0             -314.52739      61009.463      68478.621      53006.664      61543.103      1833.5934      32126.516      299.59564      6.6870533      10.03057       13.374093      897.06672    
        44   0             -314.8987       62553.022      71812.677      47001.406      68844.981      2272.5063      31079.362      343.69674      6.6870533      10.03057       13.374093      897.06672    
        45   0             -315.3065       64307.517      74630.554      41967.798      76324.198      2785.1886      30166.812      426.81226      6.6870533      10.03057       13.374093      897.06672    
        46   0             -315.64699      65767.545      75856.77       40571.58       80874.285      3123.8678      29640.873      454.4443       6.6870533      10.03057       13.374093      897.06672    
        47   0             -315.93807      67010.939      76251.331      41988.113      82793.374      3284.559       29221.519      408.65279      6.6870533      10.03057       13.374093      897.06672    
        48   0             -316.20862      68203.652      77086.567      44993.061      82531.328      3331.5035      28723.804      347.5178       6.6870533      10.03057       13.374093      897.06672    
        49   0             -316.4215       69200.825      79123.526      47841.514      80637.435      3333.2784      28228.468      338.50759      6.6870533      10.03057       13.374093      897.06672    
        50   0             -316.6039       70126.43       82367.971      50324.852      77686.467      3325.7995      27770.319      371.0175       6.6870533      10.03057       13.374093      897.06672    
        51   0             -316.77571      71066.681      86660.612      52709.789      73829.641      3310.7664      27439.588      416.3883       6.6870533      10.03057       13.374093      897.06672    
        52   0             -316.92749      71918.017      91067.418      54842.122      69844.51       3285.9238      27390.195      444.20467      6.6870533      10.03057       13.374093      897.06672    
        53   0             -317.04103      72527.515      94290.653      56210.153      67081.739      3257.3651      27522.943      464.26883      6.6870533      10.03057       13.374093      897.06672    
        54   0             -317.14165      73048.831      96614.414      56949.438      65582.641      3211.3138      27631.554      523.34886      6.6870533      10.03057       13.374093      897.06672    
        55   0             -317.23534      73531.524      98048.552      57115.768      65430.251      3140.8046      27600.74       642.99398      6.6870533      10.03057       13.374093      897.06672    
        56   0             -317.32304      73999.475      98666.069      56792.051      66540.305      3041.2821      27401.79       828.0493       6.6870533      10.03057       13.374093      897.06672    
        57   0             -317.40416      74466.578      98616.871      56136.845      68646.018      2911.6715      27055.145      1070.6857      6.6870533      10.03057       13.374093      897.06672    
        58   0             -317.47873      74948.681      98094.471      55373.472      71378.099      2752.3934      26605.924      1357.5572      6.6870533      10.03057       13.374093      897.06672    
        59   0             -317.54947      75479.492      97289.835      54794.902      74353.74       2559.7624      26100.577      1680.1918      6.6870533      10.03057       13.374093      897.06672    
        60   0             -317.62448      76138.998      96354.503      54823.977      77238.515      2315.6826      25575.997      2049.6562      6.6870533      10.03057       13.374093      897.06672    
        61   0             -317.70035      76875.932      95730.001      55874.167      79023.628      2059.4496      25222.623      2397.9286      6.6870533      10.03057       13.374093      897.06672    
        62   0             -317.76817      77514.988      95919.391      56951.01       79674.563      1860.4757      25236.964      2660.8656      6.6870533      10.03057       13.374093      897.06672    
        63   0             -317.83075      77993.923      97600.154      56904.521      79477.095      1783.8067      25886.368      2847.9841      6.6870533      10.03057       13.374093      897.06672    
        64   0             -317.87483      78213.668      100215.64      56374.876      78050.49       1909.0094      26872.656      2885.0059      6.6870533      10.03057       13.374093      897.06672    
        65   0             -317.9227       78402.973      103197.31      55951.812      76059.8        2114.5382      27955.415      2868.56        6.6870533      10.03057       13.374093      897.06672    
        66   0             -317.97934      78607.298      106125.19      55533.656      74163.047      2335.5598      28987.985      2851.1369      6.6870533      10.03057       13.374093      897.06672    
        67   0             -318.04453      78840.337      108609.25      54890.361      73021.398      2518.3217      29842.794      2879.0637      6.6870533      10.03057       13.374093      897.06672    
        68   0             -318.11531      79104.443      110412.94      53792.815      73107.577      2625.0864      30457.964      2980.9652      6.6870533      10.03057       13.374093      897.06672    
        69   0             -318.18783      79399.724      111504.33      52109.415      74585.426      2640.2009      30840.619      3163.9837      6.6870533      10.03057       13.374093      897.06672    
        70   0             -318.25889      79730.405      112011.4       49866.458      77313.361      2570.6544      31043.046      3420.6472      6.6870533      10.03057       13.374093      897.06672    
        71   0             -318.32773      80116.138      112182.99      47181.896      80983.53       2433.5385      31164.934      3730.9553      6.6870533      10.03057       13.374093      897.06672    
        72   0             -318.39994      80628.301      112315.45      44309.111      85260.341      2247.2746      31328.354      4074.9809      6.6870533      10.03057       13.374093      897.06672    
        73   0             -318.47211      81260.654      112594.85      42504.556      88682.553      2082.7648      31593.998      4347.244       6.6870533      10.03057       13.374093      897.06672    
        74   0             -318.54006      81928.835      112780.15      42321.686      90684.665      1967.5524      31847.566      4513.0346      6.6870533      10.03057       13.374093      897.06672    
        75   0             -318.60197      82581.572      112642.74      43328.908      91773.064      1874.412       32009.96       4617.0349      6.6870533      10.03057       13.374093      897.06672    
        76   0             -318.6556       83186.062      112157.59      45105.067      92295.536      1788.6402      32074.238      4687.0477      6.6870533      10.03057       13.374093      897.06672    
        77   0             -318.70204      83752.553      111380.49      47388.875      92488.294      1701.2787      32063.367      4735.3628      6.6870533      10.03057       13.374093      897.06672    
        78   0             -318.74231      84290.012      110408.2       49933.261      92528.573      1606.3238      32005.594      4759.3844      6.6870533      10.03057       13.374093      897.06672    
        79   0             -318.78009      84820.143      109400.34      52393.374      92666.714      1489.563       31948.431      4737.9298      6.6870533      10.03057       13.374093      897.06672    
        80   0             -318.81653      85190.746      109205.47      52925.145      93441.625      1355.1887      32060.873      4615.496       6.6870533      10.03057       13.374093      897.06672    
        81   0             -318.85462      85343.237      110401.98      50433.313      95194.414      1172.399       32512.179      4413.1715      6.6870533      10.03057       13.374093      897.06672    
[...]
       143   0             -320.17734      91050.53       119764.27      52294.671      101092.64      1986.5154      37576.263      2694.0581      6.6870466      10.03057       13.374093      897.06582    
       144   0             -320.17734      91050.516      119764.09      52294.002      101093.46      1986.4071      37576.331      2694.2474      6.6870466      10.03057       13.374093      897.06582    
       145   0             -320.17734      91050.538      119764.01      52294.342      101093.27      1986.4509      37576.282      2694.1743      6.6870466      10.03057       13.374093      897.06582    
       146   0             -320.17734      91050.512      119764.11      52294.28       101093.15      1986.4527      37576.251      2694.1883      6.6870466      10.03057       13.374093      897.06582    
       147   0             -320.17734      91050.496      119764.1       52294.335      101093.05      1986.479       37576.239      2694.1703      6.6870466      10.03057       13.374093      897.06582    
       148   0             -320.17734      91050.497      119764.06      52294.301      101093.13      1986.4904      37576.236      2694.1623      6.6870466      10.03057       13.374093      897.06582    
       149   0             -320.17734      91050.499      119764.07      52294.315      101093.11      1986.494       37576.207      2694.1612      6.6870466      10.03057       13.374093      897.06582    
       150   0             -320.17734      91050.501      119764.06      52294.245      101093.2       1986.4814      37576.226      2694.1761      6.6870466      10.03057       13.374093      897.06582    
       151   0             -320.17734      91050.5        119764.09      52294.255      101093.16      1986.4978      37576.227      2694.1544      6.6870466      10.03057       13.374093      897.06582    
       152   0             -320.17734      91050.497      119764.09      52294.277      101093.12      1986.5087      37576.231      2694.1435      6.6870466      10.03057       13.374093      897.06582    
       153   0             -320.17734      91050.498      119764.09      52294.245      101093.16      1986.5073      37576.226      2694.1472      6.6870466      10.03057       13.374093      897.06582    
       154   0             -320.17734      91050.5        119764.09      52294.266      101093.15      1986.5069      37576.229      2694.1456      6.6870466      10.03057       13.374093      897.06582    
       155   0             -320.17734      91050.5        119764.09      52294.261      101093.14      1986.5048      37576.231      2694.1423      6.6870466      10.03057       13.374093      897.06582    
       156   0             -320.17734      91050.498      119764.1       52294.247      101093.15      1986.5039      37576.233      2694.142       6.6870466      10.03057       13.374093      897.06582    
       157   0             -320.17734      91050.499      119764.09      52294.256      101093.15      1986.5061      37576.23       2694.14        6.6870466      10.03057       13.374093      897.06582    
       158   0             -320.17734      91050.499      119764.09      52294.253      101093.15      1986.5065      37576.231      2694.1398      6.6870466      10.03057       13.374093      897.06582    
       159   0             -320.17734      91050.499      119764.09      52294.251      101093.15      1986.5065      37576.232      2694.1398      6.6870466      10.03057       13.374093      897.06582    
       160   0             -320.17734      91050.499      119764.09      52294.252      101093.15      1986.5063      37576.231      2694.1396      6.6870466      10.03057       13.374093      897.06582    
       161   0             -320.17734      91050.499      119764.09      52294.251      101093.15      1986.5062      37576.231      2694.1397      6.6870466      10.03057       13.374093      897.06582    
       162   0             -320.17734      91050.499      119764.09      52294.251      101093.15      1986.5062      37576.231      2694.1397      6.6870466      10.03057       13.374093      897.06582    
       163   0             -320.17734      91050.499      119764.09      52294.251      101093.15      1986.5062      37576.231      2694.1396      6.6870466      10.03057       13.374093      897.06582    
       164   0             -320.17734      91050.499      119764.09      52294.251      101093.15      1986.5062      37576.232      2694.1395      6.6870466      10.03057       13.374093      897.06582    
       165   0             -320.17734      91050.499      119764.09      52294.251      101093.15      1986.5062      37576.231      2694.1395      6.6870466      10.03057       13.374093      897.06582    
       166   0             -320.17734      91050.499      119764.09      52294.251      101093.15      1986.5062      37576.232      2694.1395      6.6870466      10.03057       13.374093      897.06582    
       167   0             -320.17734      91050.499      119764.09      52294.251      101093.15      1986.5063      37576.232      2694.1395      6.6870466      10.03057       13.374093      897.06582    
       168   0             -320.17734      91050.499      119764.09      52294.251      101093.15      1986.5063      37576.231      2694.1395      6.6870466      10.03057       13.374093      897.06582    
       169   0             -320.17734      91050.499      119764.09      52294.251      101093.15      1986.5062      37576.231      2694.1395      6.6870466      10.03057       13.374093      897.06582    
       170   0             -320.17734      91050.499      119764.09      52294.251      101093.15      1986.5062      37576.231      2694.1395      6.6870466      10.03057       13.374093      897.06582    
       171   0             -320.17734      91050.499      119764.09      52294.251      101093.15      1986.5063      37576.231      2694.1395      6.6870466      10.03057       13.374093      897.06582    
       172   0             -320.17734      91050.499      119764.09      52294.251      101093.15      1986.5063      37576.231      2694.1395      6.6870466      10.03057       13.374093      897.06582    
       173   0             -320.17734      91050.499      119764.09      52294.251      101093.15      1986.5063      37576.231      2694.1395      6.6870466      10.03057       13.374093      897.06582    
       174   0             -320.17734      91050.499      119764.09      52294.251      101093.15      1986.5063      37576.231      2694.1395      6.6870466      10.03057       13.374093      897.06582    
       175   0             -320.17734      91050.499      119764.09      52294.251      101093.15      1986.5063      37576.231      2694.1395      6.6870466      10.03057       13.374093      897.06582    
       176   0             -320.17734      91050.499      119764.09      52294.251      101093.15      1986.5063      37576.231      2694.1395      6.6870466      10.03057       13.374093      897.06582    
       177   0             -320.17734      91050.499      119764.09      52294.251      101093.15      1986.5063      37576.231      2694.1395      6.6870466      10.03057       13.374093      897.06582    
       178   0             -320.17734      91050.499      119764.09      52294.251      101093.15      1986.5063      37576.231      2694.1395      6.6870466      10.03057       13.374093      897.06582    
       179   0             -320.17734      91050.499      119764.09      52294.251      101093.15      1986.5063      37576.231      2694.1395      6.6870466      10.03057       13.374093      897.06582    
       180   0             -320.17734      91050.499      119764.09      52294.251      101093.15      1986.5063      37576.231      2694.1395      6.6870466      10.03057       13.374093      897.06582    
       181   0             -320.17734      91050.499      119764.09      52294.251      101093.15      1986.5063      37576.231      2694.1395      6.6870466      10.03057       13.374093      897.06582    
Loop time of 0.043206 on 4 procs for 179 steps with 48 atoms

54.2% CPU use with 4 MPI tasks x 1 OpenMP threads

Minimization stats:
  Stopping criterion = force tolerance
  Energy initial, next-to-last, final = 
     -292.914193002313  -320.177338413162  -320.177338413162
  Force two-norm initial, final = 0.00041792597 8.8859577e-11
  Force max component initial, final = 8.4725686e-05 2.4351132e-11
  Final line search alpha, max atom move = 1 2.4351132e-11
  Iterations, force evaluations = 179 247

MPI task timing breakdown:
Section |  min time  |  avg time  |  max time  |%varavg| %total
---------------------------------------------------------------
Pair    | 0.034866   | 0.035733   | 0.036569   |   0.4 | 82.70
Neigh   | 0          | 0          | 0          |   0.0 |  0.00
Comm    | 0.003048   | 0.0038717  | 0.004787   |   1.1 |  8.96
Output  | 0.00177    | 0.0018967  | 0.002237   |   0.5 |  4.39
Modify  | 0          | 0          | 0          |   0.0 |  0.00
Other   |            | 0.001705   |            |       |  3.95

Nlocal:             12 ave          15 max           9 min
Histogram: 1 1 0 0 0 0 0 0 1 1
Nghost:            498 ave         501 max         495 min
Histogram: 1 1 0 0 0 0 0 0 1 1
Neighs:            384 ave         475 max         279 min
Histogram: 1 0 1 0 0 0 0 0 0 2
FullNghs:          768 ave         960 max         576 min
Histogram: 1 1 0 0 0 0 0 0 1 1

Total # of neighbors = 3072
Ave neighs/atom = 64
Neighbor list builds = 0
Dangerous builds = 0

# Obtain new stress tensor

variable tmp equal pe
variable e1 equal ${tmp}
variable e1 equal -320.177338413162
variable tmp equal press
variable p1 equal ${tmp}
variable p1 equal 91050.4988226411
variable tmp equal pxx
variable pxx1 equal ${tmp}
variable pxx1 equal 119764.092262154
variable tmp equal pyy
variable pyy1 equal ${tmp}
variable pyy1 equal 52294.2509495274
variable tmp equal pzz
variable pzz1 equal ${tmp}
variable pzz1 equal 101093.153256242
variable tmp equal pxy
variable pxy1 equal ${tmp}
variable pxy1 equal 1986.50625575938
variable tmp equal pxz
variable pxz1 equal ${tmp}
variable pxz1 equal 37576.2314766438
variable tmp equal pyz
variable pyz1 equal ${tmp}
variable pyz1 equal 2694.13949135026

# Compute elastic constant from pressure tensor

variable C1pos equal ${d1}
variable C1pos equal -11976409.2262154
variable C2pos equal ${d2}
variable C2pos equal -5229425.09495271
variable C3pos equal ${d3}
variable C3pos equal -10109315.3256242
variable C4pos equal ${d4}
variable C4pos equal -269413.949135025
variable C5pos equal ${d5}
variable C5pos equal -3757623.14766438
variable C6pos equal ${d6}
variable C6pos equal -198650.625575941

# Combine positive and negative

variable C1${dir} equal 0.5*(${C1neg}+${C1pos})
variable C16 equal 0.5*(${C1neg}+${C1pos})
variable C16 equal 0.5*(11976422.0179132+${C1pos})
variable C16 equal 0.5*(11976422.0179132+-11976409.2262154)
variable C2${dir} equal 0.5*(${C2neg}+${C2pos})
variable C26 equal 0.5*(${C2neg}+${C2pos})
variable C26 equal 0.5*(5229419.93852662+${C2pos})
variable C26 equal 0.5*(5229419.93852662+-5229425.09495271)
variable C3${dir} equal 0.5*(${C3neg}+${C3pos})
variable C36 equal 0.5*(${C3neg}+${C3pos})
variable C36 equal 0.5*(10109304.2689728+${C3pos})
variable C36 equal 0.5*(10109304.2689728+-10109315.3256242)
variable C4${dir} equal 0.5*(${C4neg}+${C4pos})
variable C46 equal 0.5*(${C4neg}+${C4pos})
variable C46 equal 0.5*(269414.222433392+${C4pos})
variable C46 equal 0.5*(269414.222433392+-269413.949135025)
variable C5${dir} equal 0.5*(${C5neg}+${C5pos})
variable C56 equal 0.5*(${C5neg}+${C5pos})
variable C56 equal 0.5*(3757634.17602496+${C5pos})
variable C56 equal 0.5*(3757634.17602496+-3757623.14766438)
variable C6${dir} equal 0.5*(${C6neg}+${C6pos})
variable C66 equal 0.5*(${C6neg}+${C6pos})
variable C66 equal 0.5*(198834.871715848+${C6pos})
variable C66 equal 0.5*(198834.871715848+-198650.625575941)

# Delete dir to make sure it is not reused

variable dir delete

# Output final values

variable C11all equal ${C11}
variable C11all equal 266.378525150008
variable C22all equal ${C22}
variable C22all equal 172.784139054827
variable C33all equal ${C33}
variable C33all equal 244.917337750085

variable C12all equal 0.5*(${C12}+${C21})
variable C12all equal 0.5*(107.286103200167+${C21})
variable C12all equal 0.5*(107.286103200167+100.539094520267)
variable C13all equal 0.5*(${C13}+${C31})
variable C13all equal 0.5*(98.3105108998716+${C31})
variable C13all equal 0.5*(98.3105108998716+96.4434144003317)
variable C23all equal 0.5*(${C23}+${C32})
variable C23all equal 0.5*(116.169583030045+${C32})
variable C23all equal 0.5*(116.169583030045+121.049487799406)

variable C44all equal ${C44}
variable C44all equal 74.0189742824878
variable C55all equal ${C55}
variable C55all equal 103.804651594954
variable C66all equal ${C66}
variable C66all equal 92.1230699535081

variable C14all equal 0.5*(${C14}+${C41})
variable C14all equal 0.5*(-0.227753650397062+${C41})
variable C14all equal 0.5*(-0.227753650397062+0.0416609834937844)
variable C15all equal 0.5*(${C15}+${C51})
variable C15all equal 0.5*(5.51514870021492+${C51})
variable C15all equal 0.5*(5.51514870021492+13.0304062999785)
variable C16all equal 0.5*(${C16}+${C61})
variable C16all equal 0.5*(6.39584890007973+${C61})
variable C16all equal 0.5*(6.39584890007973+6.79333582699473)

variable C24all equal 0.5*(${C24}+${C42})
variable C24all equal 0.5*(-5.1204634802416+${C42})
variable C24all equal 0.5*(-5.1204634802416+-4.58164548751665)
variable C25all equal 0.5*(${C25}+${C52})
variable C25all equal 0.5*(-16.5389988650568+${C52})
variable C25all equal 0.5*(-16.5389988650568+-12.7813719699625)
variable C26all equal 0.5*(${C26}+${C62})
variable C26all equal 0.5*(-2.5782130449079+${C62})
variable C26all equal 0.5*(-2.5782130449079+-2.57821701798821)

variable C34all equal 0.5*(${C34}+${C43})
variable C34all equal 0.5*(4.53643650002778+${C43})
variable C34all equal 0.5*(4.53643650002778+4.53644254049868)
variable C35all equal 0.5*(${C35}+${C53})
variable C35all equal 0.5*(2.99910559970886+${C53})
variable C35all equal 0.5*(2.99910559970886+2.99910726002418)
variable C36all equal 0.5*(${C36}+${C63})
variable C36all equal 0.5*(-5.52832570020109+${C63})
variable C36all equal 0.5*(-5.52832570020109+-5.32957872450061)

variable C45all equal 0.5*(${C45}+${C54})
variable C45all equal 0.5*(0.330193843517918+${C54})
variable C45all equal 0.5*(0.330193843517918+0.330193730071187)
variable C46all equal 0.5*(${C46}+${C64})
variable C46all equal 0.5*(0.136649183521513+${C64})
variable C46all equal 0.5*(0.136649183521513+-3.62098016600066)
variable C56all equal 0.5*(${C56}+${C65})
variable C56all equal 0.5*(5.51418029004708+${C65})
variable C56all equal 0.5*(5.51418029004708+5.51418020950223)

# Average moduli for cubic crystals

variable C11cubic equal (${C11all}+${C22all}+${C33all})/3.0
variable C11cubic equal (266.378525150008+${C22all}+${C33all})/3.0
variable C11cubic equal (266.378525150008+172.784139054827+${C33all})/3.0
variable C11cubic equal (266.378525150008+172.784139054827+244.917337750085)/3.0
variable C12cubic equal (${C12all}+${C13all}+${C23all})/3.0
variable C12cubic equal (103.912598860217+${C13all}+${C23all})/3.0
variable C12cubic equal (103.912598860217+97.3769626501017+${C23all})/3.0
variable C12cubic equal (103.912598860217+97.3769626501017+118.609535414725)/3.0
variable C44cubic equal (${C44all}+${C55all}+${C66all})/3.0
variable C44cubic equal (74.0189742824878+${C55all}+${C66all})/3.0
variable C44cubic equal (74.0189742824878+103.804651594954+${C66all})/3.0
variable C44cubic equal (74.0189742824878+103.804651594954+92.1230699535081)/3.0

variable bulkmodulus equal (${C11cubic}+2*${C12cubic})/3.0
variable bulkmodulus equal (228.026667318307+2*${C12cubic})/3.0
variable bulkmodulus equal (228.026667318307+2*106.633032308348)/3.0
variable shearmodulus1 equal ${C44cubic}
variable shearmodulus1 equal 89.98223194365
variable shearmodulus2 equal (${C11cubic}-${C12cubic})/2.0
variable shearmodulus2 equal (228.026667318307-${C12cubic})/2.0
variable shearmodulus2 equal (228.026667318307-106.633032308348)/2.0
variable poissonratio equal 1.0/(1.0+${C11cubic}/${C12cubic})
variable poissonratio equal 1.0/(1.0+228.026667318307/${C12cubic})
variable poissonratio equal 1.0/(1.0+228.026667318307/106.633032308348)

# For Stillinger-Weber silicon, the analytical results
# are known to be (E. R. Cowley, 1988):
#               C11 = 151.4 GPa
#               C12 = 76.4 GPa
#               C44 = 56.4 GPa

print "========================================="
=========================================
print "Components of the Elastic Constant Tensor"
Components of the Elastic Constant Tensor
print "========================================="
=========================================

print "Elastic Constant C11all = ${C11all} ${cunits}"
Elastic Constant C11all = 266.378525150008 GPa
print "Elastic Constant C22all = ${C22all} ${cunits}"
Elastic Constant C22all = 172.784139054827 GPa
print "Elastic Constant C33all = ${C33all} ${cunits}"
Elastic Constant C33all = 244.917337750085 GPa

print "Elastic Constant C12all = ${C12all} ${cunits}"
Elastic Constant C12all = 103.912598860217 GPa
print "Elastic Constant C13all = ${C13all} ${cunits}"
Elastic Constant C13all = 97.3769626501017 GPa
print "Elastic Constant C23all = ${C23all} ${cunits}"
Elastic Constant C23all = 118.609535414725 GPa

print "Elastic Constant C44all = ${C44all} ${cunits}"
Elastic Constant C44all = 74.0189742824878 GPa
print "Elastic Constant C55all = ${C55all} ${cunits}"
Elastic Constant C55all = 103.804651594954 GPa
print "Elastic Constant C66all = ${C66all} ${cunits}"
Elastic Constant C66all = 92.1230699535081 GPa

print "Elastic Constant C14all = ${C14all} ${cunits}"
Elastic Constant C14all = -0.0930463334516388 GPa
print "Elastic Constant C15all = ${C15all} ${cunits}"
Elastic Constant C15all = 9.27277750009671 GPa
print "Elastic Constant C16all = ${C16all} ${cunits}"
Elastic Constant C16all = 6.59459236353723 GPa

print "Elastic Constant C24all = ${C24all} ${cunits}"
Elastic Constant C24all = -4.85105448387912 GPa
print "Elastic Constant C25all = ${C25all} ${cunits}"
Elastic Constant C25all = -14.6601854175097 GPa
print "Elastic Constant C26all = ${C26all} ${cunits}"
Elastic Constant C26all = -2.57821503144805 GPa

print "Elastic Constant C34all = ${C34all} ${cunits}"
Elastic Constant C34all = 4.53643952026323 GPa
print "Elastic Constant C35all = ${C35all} ${cunits}"
Elastic Constant C35all = 2.99910642986652 GPa
print "Elastic Constant C36all = ${C36all} ${cunits}"
Elastic Constant C36all = -5.42895221235085 GPa

print "Elastic Constant C45all = ${C45all} ${cunits}"
Elastic Constant C45all = 0.330193786794552 GPa
print "Elastic Constant C46all = ${C46all} ${cunits}"
Elastic Constant C46all = -1.74216549123957 GPa
print "Elastic Constant C56all = ${C56all} ${cunits}"
Elastic Constant C56all = 5.51418024977466 GPa

print "========================================="
=========================================
print "Average properties for a cubic crystal"
Average properties for a cubic crystal
print "========================================="
=========================================

print "Bulk Modulus = ${bulkmodulus} ${cunits}"
Bulk Modulus = 147.097577311668 GPa
print "Shear Modulus 1 = ${shearmodulus1} ${cunits}"
Shear Modulus 1 = 89.98223194365 GPa
print "Shear Modulus 2 = ${shearmodulus2} ${cunits}"
Shear Modulus 2 = 60.6968175049795 GPa
print "Poisson Ratio = ${poissonratio}"
Poisson Ratio = 0.318631231747675
Total wall time: 0:00:00
