LAMMPS (22 Dec 2022)
  using 1 OpenMP thread(s) per MPI task
Loaded 1 plugins from C:\Program Files\LAMMPS 64-bit 23Jun2022\plugins
Loaded 0 plugins from C:\Program Files\LAMMPS 64-bit 23Jun2022-MPI\plugins
Loaded 1 plugins from C:\Program Files\LAMMPS 64-bit 22Dec2022-MSMPI\plugins
Loaded 1 plugins from C:\Program Files\LAMMPS 64-bit 28Mar2023-MPI\plugins
# Compute elastic constant tensor for a crystal
#
# Written by Aidan Thompson (Sandia, athomps@sandia.gov)
#
#  This script uses the following three include files.
#
#   init.mod      (must be modified for different crystal structures)
# 	       	  Define units, deformation parameters and initial
#		  configuration of the atoms and simulation cell.
#
#
#   potential.mod    (must be modified for different pair styles)
# 		     Define pair style and other attributes
#		     not stored in restart file
#
#
#   displace.mod    (displace.mod should not need to be modified)
# 		    Perform positive and negative box displacements
# 		    in direction ${dir} and size ${up}.
# 		    It uses the resultant changes
#		    in stress to compute one
# 		    row of the elastic stiffness tensor
#
#		    Inputs variables:
#		    	   dir = the Voigt deformation component
#		    		    (1,2,3,4,5,6)
#		    Global constants:
#       	    	   up = the deformation magnitude (strain units)
#       		   cfac = conversion from LAMMPS pressure units to
#               	   output units for elastic constants
#
#
#  To run this on a different system, it should only be necessary to
#  modify the files init.mod and potential.mod. In order to calculate
#  the elastic constants correctly, care must be taken to specify
#  the correct units in init.mod (units, cfac and cunits). It is also
#  important to verify that the minimization of energy w.r.t atom
#  positions in the deformed cell is fully converged.
#  One indication of this is that the elastic constants are insensitive
#  to the choice of the variable ${up} in init.mod. Another is to check
#  the final max and two-norm forces reported in the log file. If you know
#  that minimization is not required, you can set maxiter = 0.0 in
#  init.mod.
#

include init.mod
# NOTE: This script can be modified for different atomic structures,
# units, etc. See in.elastic for more info.
#

# Define the finite deformation size. Try several values of this
# variable to verify that results do not depend on it.
variable up equal 1.0e-6

# Define the amount of random jiggle for atoms
# This prevents atoms from staying on saddle points
variable atomjiggle equal 1.0e-5

# Uncomment one of these blocks, depending on what units
# you are using in LAMMPS and for output

# metal units, elastic constants in eV/A^3
#units		metal
#variable cfac equal 6.2414e-7
#variable cunits string eV/A^3

# metal units, elastic constants in GPa
units		metal
variable cfac equal 1.0e-4
variable cunits string GPa

# real units, elastic constants in GPa
#units		real
#variable cfac equal 1.01325e-4
#variable cunits string GPa

# Define minimization parameters
variable etol equal 0.0
variable ftol equal 1.0e-10
variable maxiter equal 1000
variable maxeval equal 100000
variable dmax equal 1.0e-2

# generate the box and atom positions using a diamond lattice

dimension    3
boundary     p p p
read_data    data.in
Reading data file ...
  orthogonal box = (0.053697059 0.072944832 0.22526866) to (3.3995209 4.6180832 14.261591)
  1 by 1 by 4 MPI processor grid
  reading atoms ...
  12 atoms
  reading velocities ...
  12 velocities
  read_data CPU = 0.001 seconds
#replicate    2 3 4
replicate    2 3 4
Replication is creating a 2x3x4 = 24 times larger system...
  orthogonal box = (0.053697059 0.072944832 0.22526866) to (6.7453448 13.70836 56.370559)
  1 by 1 by 4 MPI processor grid
  288 atoms
  replicate CPU = 0.000 seconds
change_box   all triclinic
Changing box ...
  triclinic box = (0.053697059 0.072944832 0.22526866) to (6.7453448 13.70836 56.370559) with tilt (0 0 0)

# Need to set mass to something, just to satisfy LAMMPS
mass 1 1.0e-20

include potential.mod
# NOTE: This script can be modified for different pair styles
# See in.elastic for more info.

# Choose potential
#-----------------------
#pair_style	sw
#pair_coeff * * Si.sw Si
#-----------------------
#pair_style morse	2.83994742	# D0[eV] a[1/A] r0[A] rc[A], 1NN for BCC
#pair_coeff 1 1	2.1173	1.0202	2.4595	2.6497	#	Fe-Fe
#-----------------------
#pair_style smatb # R0(A)   p       q     A(eV)   xi(eV)  Rcs(A)   Rc(A), 4NN: Rcs=4NN, Rc=(4NN+5NN)/2
#pair_coeff 1 1	2.4802	7.0149	2.3779	0.3144	3.0551	4.033	4.176	#	Co	Co
#-----------------------
#pair_style eam/alloy
#pair_coeff * * AlCrFeCoNi_Zhou04.eam.alloy Fe
#-----------------------
pair_style meam
#pair_coeff * * ./../../library.meam V Nb Ta Ti Zr ./../../VNbTaTiZr.meam V Nb
#pair_coeff * * ./../../library.meam V Nb Ta Ti Zr ./../../VNbTaTiZr.meam V Ta
#pair_coeff * * ./../../library.meam V Nb Ta Ti Zr ./../../VNbTaTiZr.meam V Ti
#pair_coeff * * ./../../library.meam V Nb Ta Ti Zr ./../../VNbTaTiZr.meam V Zr
#pair_coeff * * ./../../library.meam V Nb Ta Ti Zr ./../../VNbTaTiZr.meam Nb Ta
#pair_coeff * * ./../../library.meam V Nb Ta Ti Zr ./../../VNbTaTiZr.meam Nb Ti
#pair_coeff * * ./../../library.meam V Nb Ta Ti Zr ./../../VNbTaTiZr.meam Nb Zr
#pair_coeff * * ./../../library.meam V Nb Ta Ti Zr ./../../VNbTaTiZr.meam Ta Ti
#pair_coeff * * ./../../library.meam V Nb Ta Ti Zr ./../../VNbTaTiZr.meam Ta Zr
#pair_coeff * * ./../../library.meam V Nb Ta Ti Zr ./../../VNbTaTiZr.meam Ti Zr
pair_coeff * * ./../../library.meam V Nb Ta Ti Zr ./../../VNbTaTiZr.meam Nb Ti Zr
#-----------------------

# Setup neighbor style
neighbor 1.0 nsq
neigh_modify once no every 1 delay 0 check yes

# Setup minimization style
min_style	     cg
min_modify	     dmax ${dmax} line quadratic
min_modify	     dmax 0.01 line quadratic

# Setup output
thermo		1
thermo_style custom step temp pe press pxx pyy pzz pxy pxz pyz lx ly lz vol
thermo_modify norm no

# Compute initial state
fix 3 all box/relax  aniso 0.0
minimize ${etol} ${ftol} ${maxiter} ${maxeval}
minimize 0 ${ftol} ${maxiter} ${maxeval}
minimize 0 1e-10 ${maxiter} ${maxeval}
minimize 0 1e-10 1000 ${maxeval}
minimize 0 1e-10 1000 100000
Neighbor list info ...
  update: every = 1 steps, delay = 0 steps, check = yes
  max neighbors/atom: 2000, page size: 100000
  master list distance cutoff = 5.8
  ghost atom cutoff = 5.8
  2 neighbor lists, perpetual/occasional/extra = 2 0 0
  (1) pair meam, perpetual
      attributes: full, newton on
      pair build: full/nsq
      stencil: none
      bin: none
  (2) pair meam, perpetual, half/full from (1)
      attributes: half, newton on
      pair build: halffull/newton
      stencil: none
      bin: none
Per MPI rank memory allocation (min/avg/max) = 9.872 | 9.872 | 9.872 Mbytes
   Step          Temp          PotEng         Press           Pxx            Pyy            Pzz            Pxy            Pxz            Pyz             Lx             Ly             Lz           Volume    
         0   0             -1640.6595      98675.533      103507.56      131549.88      60969.156     -3.6692565e-11 -1.946607e-11   1.6503842e-11  6.6916478      13.635415      56.145291      5122.8869    
         1   0             -1640.7366      98448.006      103247.88      131175.44      60920.701      1.5421816e-11  9.6288719e-12 -1.4779602e-11  6.6921743      13.636779      56.147893      5124.0398    
         2   0             -1640.8135      98220.334      102988.66      130801.22      60871.123      1.6116812e-11  2.3340095e-12  1.3535519e-11  6.692701       13.638142      56.150501      5125.1935    
         3   0             -1640.8902      97992.495      102729.9       130427.23      60820.353     -2.6752654e-11  1.783944e-11   4.7526299e-11  6.6932279      13.639506      56.153114      5126.348     
         4   0             -1640.9668      97764.464      102471.6       130053.47      60768.319     -6.4039264e-11 -2.1894247e-11  3.5868146e-11  6.693755       13.640869      56.155732      5127.5033    
         5   0             -1641.0433      97536.217      102213.76      129679.94      60714.951      1.829095e-11  -1.7146411e-11 -2.5916876e-11  6.6942823      13.642233      56.158356      5128.6595    
         6   0             -1641.1196      97307.73       101956.38      129306.63      60660.174      2.1550626e-11 -1.165953e-12   1.9350919e-11  6.6948098      13.643596      56.160986      5129.8164    
         7   0             -1641.1958      97078.977      101699.46      128933.56      60603.914      1.0634212e-11 -6.1361226e-12  3.439002e-11   6.6953375      13.64496       56.16362       5130.9742    
         8   0             -1641.2718      96849.933      101442.99      128560.71      60546.094      1.2252145e-11  2.4374317e-11  1.6851032e-11  6.6958654      13.646323      56.16626       5132.1327    
         9   0             -1641.3476      96620.571      101186.99      128188.09      60486.635      3.7280903e-11  7.2032232e-12  1.6396754e-11  6.6963935      13.647687      56.168906      5133.2921    
        10   0             -1641.4233      96390.865      100931.43      127815.7       60425.458      7.1552594e-11  2.0158405e-11 -2.6188604e-11  6.6969218      13.64905       56.171556      5134.4523    
        11   0             -1641.4988      96160.786      100676.34      127443.54      60362.479     -1.5785377e-11 -2.5305959e-11  8.3581102e-12  6.6974503      13.650414      56.174212      5135.6132    
        12   0             -1641.5742      95930.306      100421.69      127071.61      60297.617     -3.806506e-11   5.5348865e-11  2.4328482e-11  6.6979791      13.651778      56.176873      5136.775     
        13   0             -1641.6494      95699.397      100167.5       126699.9       60230.785      1.3004278e-11  1.4337163e-11 -5.2817709e-12  6.698508       13.653141      56.179539      5137.9376    
        14   0             -1641.7245      95468.028      99913.761      126328.43      60161.898     -6.3185187e-11  1.1409158e-11  1.5796297e-11  6.6990372      13.654505      56.18221       5139.101     
        15   0             -1641.7994      95236.171      99660.471      125957.18      60090.866      5.1184674e-11  1.2440389e-11 -1.7302349e-14  6.6995666      13.655868      56.184885      5140.2651    
        16   0             -1641.8742      95003.795      99407.629      125586.16      60017.599     -5.2954815e-11 -5.967093e-11  -6.3160888e-12  6.7000962      13.657232      56.187566      5141.4301    
        17   0             -1641.9488      94770.868      99155.235      125215.36      59942.005      6.662709e-12   2.1631105e-11 -7.1188516e-12  6.7006261      13.658595      56.190251      5142.5958    
        18   0             -1642.0232      94537.359      98903.286      124844.8       59863.991      1.4900162e-11  3.1486156e-11 -1.2527029e-11  6.7011562      13.659959      56.192942      5143.7623    
        19   0             -1642.0975      94303.236      98651.78       124474.47      59783.462      8.7902679e-12  2.2878898e-11  1.2835347e-12  6.7016865      13.661322      56.195636      5144.9296    
        20   0             -1642.1716      94068.467      98400.716      124104.36      59700.321     -1.4664404e-11  7.3278813e-12 -1.3623119e-11  6.702217       13.662686      56.198336      5146.0977    
        21   0             -1642.2456      93833.017      98150.091      123734.49      59614.47      -3.4695859e-11 -7.7625074e-12 -2.6328593e-11  6.7027478      13.664049      56.201039      5147.2665    
        22   0             -1642.3194      93596.854      97899.904      123364.85      59525.809     -2.3454981e-11 -1.4623194e-11 -2.1537468e-11  6.7032789      13.665413      56.203747      5148.436     
        23   0             -1642.393       93359.942      97650.151      122995.44      59434.236     -2.1744143e-11 -6.4282526e-11 -2.2739382e-11  6.7038102      13.666776      56.20646       5149.6063    
        24   0             -1642.4665      93122.247      97400.83       122626.26      59339.648     -9.0263435e-12 -1.9977962e-11  5.9355439e-12  6.7043417      13.66814       56.209176      5150.7773    
        25   0             -1642.5399      92883.733      97151.94       122257.32      59241.942      2.6455715e-12  1.8553527e-11 -3.1492228e-11  6.7048735      13.669504      56.211896      5151.9491    
        26   0             -1642.613       92644.365      96903.476      121888.61      59141.011     -3.4829029e-11 -3.3789163e-11  1.5457755e-11  6.7054055      13.670867      56.214621      5153.1216    
        27   0             -1642.686       92404.106      96655.436      121520.13      59036.748     -9.520586e-12  -1.5257958e-11  2.1459064e-11  6.7059378      13.672231      56.217348      5154.2948    
        28   0             -1642.7589      92162.919      96407.816      121151.89      58929.045      1.4133147e-11  4.3214567e-12 -1.0316292e-11  6.7064703      13.673594      56.22008       5155.4687    
        29   0             -1642.8315      91920.767      96160.614      120783.89      58817.793     -6.0236526e-12 -9.7878966e-12 -2.4620656e-11  6.7070031      13.674958      56.222815      5156.6432    
        30   0             -1642.904       91677.611      95913.826      120416.13      58702.88      -1.6114018e-11  3.2478066e-11 -1.3693467e-11  6.7075362      13.676321      56.225553      5157.8185    
        31   0             -1642.9764      91433.415      95667.447      120048.6       58584.194     -1.1149669e-11 -3.5151411e-11 -1.5580229e-12  6.7080695      13.677685      56.228295      5158.9944    
        32   0             -1643.0486      91188.139      95421.475      119681.32      58461.622      3.9706522e-11  9.6907182e-12 -2.5271704e-12  6.7086031      13.679048      56.231039      5160.171     
        33   0             -1643.1206      90941.743      95175.905      119314.27      58335.05      -9.5721941e-12 -4.0933838e-11 -1.1375058e-11  6.709137       13.680412      56.233786      5161.3482    
        34   0             -1643.1924      90694.189      94930.732      118947.47      58204.364      2.1401161e-11  2.9928893e-11 -1.9381209e-13  6.7096712      13.681775      56.236536      5162.526     
        35   0             -1643.2641      90445.438      94685.952      118580.91      58069.448     -3.4120367e-11 -4.0415669e-11  9.2900923e-12  6.7102056      13.683139      56.239288      5163.7045    
        36   0             -1643.3356      90195.449      94441.561      118214.6       57930.186     -2.3591232e-12  1.8636213e-11  2.6841484e-12  6.7107403      13.684503      56.242042      5164.8835    
        37   0             -1643.4069      89944.182      94197.554      117848.53      57786.46       8.3540376e-12 -1.8993492e-11 -3.4388852e-12  6.7112753      13.685866      56.244799      5166.0631    
        38   0             -1643.478       89691.598      93953.927      117482.71      57638.154      9.5311526e-12  3.4652086e-11 -1.0826357e-11  6.7118106      13.68723       56.247557      5167.2433    
        39   0             -1643.549       89437.656      93710.673      117117.14      57485.151     -2.1742411e-11 -2.2069365e-11  1.0755051e-14  6.7123461      13.688593      56.250317      5168.424     
        40   0             -1643.6198      89182.316      93467.789      116751.83      57327.331      1.4670839e-11 -1.2967628e-11 -1.9543914e-11  6.712882       13.689957      56.253079      5169.6053    
        41   0             -1643.6904      88925.537      93225.269      116386.76      57164.579     -1.4276181e-11 -1.0728636e-11  3.6759015e-11  6.7134182      13.69132       56.255841      5170.787     
        42   0             -1643.7609      88667.279      92983.108      116021.96      56996.775      5.2233718e-12  9.3590786e-12  1.3477589e-12  6.7139546      13.692684      56.258605      5171.9693    
        43   0             -1643.8311      88407.502      92741.298      115657.4       56823.803     -9.8684114e-12  1.3998875e-11  4.8783305e-13  6.7144914      13.694047      56.261369      5173.152     
        44   0             -1643.9012      88146.165      92499.836      115293.11      56645.546     -2.6109215e-11 -3.3844005e-11  1.0074565e-11  6.7150284      13.695411      56.264134      5174.3351    
        45   0             -1643.9711      87883.229      92258.714      114929.09      56461.886      7.4065162e-12  6.9769039e-12  3.0322037e-11  6.7155658      13.696774      56.266898      5175.5187    
        46   0             -1644.0408      87618.652      92017.927      114565.32      56272.709      6.1390443e-11  1.315172e-11   9.2989792e-12  6.7161034      13.698138      56.269663      5176.7027    
        47   0             -1644.1103      87352.397      91777.469      114201.82      56077.9       -9.0495087e-11  1.7606048e-13  1.9746686e-11  6.7166414      13.699501      56.272427      5177.8871    
        48   0             -1644.1796      87084.423      91537.331      113838.59      55877.344     -4.2167572e-11 -1.572161e-11   2.6038111e-12  6.7171797      13.700865      56.275191      5179.0718    
        49   0             -1644.2488      86814.691      91297.509      113475.64      55670.929      2.8435783e-11  1.2747815e-11  8.3504627e-12  6.7177183      13.702229      56.277954      5180.2568    
        50   0             -1644.3177      86543.165      91057.995      113112.95      55458.546      2.1722114e-11  3.2269912e-12 -1.8883477e-11  6.7182572      13.703592      56.280715      5181.4422    
        51   0             -1644.3865      86269.804      90818.782      112750.55      55240.084     -2.6449268e-11  1.4681167e-11  2.6000939e-11  6.7187964      13.704956      56.283475      5182.6278    
        52   0             -1644.455       85994.574      90579.863      112388.42      55015.437      2.8909535e-12  3.2263728e-11  2.2752319e-11  6.719336       13.706319      56.286233      5183.8137    
        53   0             -1644.5234      85717.435      90341.231      112026.58      54784.5       -4.922931e-12  -1.8846935e-11 -2.2170342e-12  6.7198759      13.707683      56.288989      5184.9998    
        54   0             -1644.5915      85438.355      90102.878      111665.02      54547.171     -1.9820125e-11 -1.4512465e-11  6.9561223e-12  6.7204161      13.709046      56.291742      5186.1861    
        55   0             -1644.6595      85157.296      89864.796      111303.74      54303.349     -2.1555832e-11 -8.4054459e-12  1.7209518e-12  6.7209567      13.71041       56.294492      5187.3725    
        56   0             -1644.7273      84874.226      89626.979      110942.76      54052.939     -3.1608562e-11 -7.1564939e-13 -2.9140215e-13  6.7214975      13.711773      56.297239      5188.5591    
        57   0             -1644.7948      84589.113      89389.418      110582.07      53795.846      6.6038906e-11  2.9716223e-11  3.71667e-12    6.7220387      13.713137      56.299983      5189.7458    
        58   0             -1644.8621      84301.923      89152.106      110221.68      53531.981     -2.2641874e-11 -9.8774428e-12  3.3346007e-12  6.7225803      13.7145        56.302722      5190.9325    
        59   0             -1644.9293      84012.629      88915.035      109861.59      53261.257     -3.1098696e-11 -1.7549223e-11  1.7746213e-11  6.7231222      13.715864      56.305457      5192.1193    
        60   0             -1644.9962      83721.2        88678.198      109501.81      52983.592      1.3079704e-11  1.8058982e-11  3.2924033e-12  6.7236644      13.717227      56.308187      5193.306     
        61   0             -1645.0629      83427.609      88441.586      109142.33      52698.907      2.2891743e-11  7.0113452e-12  1.9172048e-11  6.724207       13.718591      56.310912      5194.4928    
        62   0             -1645.1294      83131.829      88205.191      108783.17      52407.13      -3.5463826e-11 -3.3298423e-11  2.5259471e-11  6.7247499      13.719955      56.313632      5195.6794    
        63   0             -1645.1957      82833.838      87969.006      108424.32      52108.191      2.697579e-11   1.7417675e-11  3.685907e-12   6.7252931      13.721318      56.316345      5196.8659    
        64   0             -1645.2617      82533.612      87733.023      108065.79      51802.026     -7.2589164e-12 -3.2051303e-11 -8.7752899e-12  6.7258367      13.722682      56.319052      5198.0523    
        65   0             -1645.3275      82231.13       87497.234      107707.58      51488.579      6.6448621e-11  1.9193037e-11 -1.3644248e-11  6.7263807      13.724045      56.321753      5199.2385    
        66   0             -1645.3931      81926.374      87261.63       107349.7       51167.796      1.7427134e-11  1.4434251e-11 -2.8496528e-12  6.726925       13.725409      56.324445      5200.4245    
        67   0             -1645.4585      81619.327      87026.205      106992.15      50839.631     -3.3786229e-11 -7.4762291e-12 -1.0750552e-12  6.7274697      13.726772      56.327131      5201.6102    
        68   0             -1645.5237      81309.975      86790.95       106634.93      50504.045      3.3693059e-11  1.2756695e-11 -3.0502817e-11  6.7280147      13.728136      56.329808      5202.7956    
        69   0             -1645.5886      80998.305      86555.858      106278.05      50161.003     -3.9355162e-11 -2.7485806e-11  3.2685592e-12  6.7285601      13.729499      56.332476      5203.9807    
        70   0             -1645.6533      80684.307      86320.92       105921.52      49810.48       5.1178687e-11  4.4510635e-11  5.9098333e-12  6.7291058      13.730863      56.335136      5205.1654    
        71   0             -1645.7178      80367.973      86086.13       105565.33      49452.456      3.6779117e-11  3.3413819e-11  3.1773877e-12  6.7296519      13.732226      56.337785      5206.3496    
        72   0             -1645.782       80049.3        85851.481      105209.5       49086.919     -6.3050831e-11 -2.0161578e-11 -8.8852698e-12  6.7301984      13.73359       56.340425      5207.5334    
        73   0             -1645.846       79728.283      85616.964      104854.02      48713.865      1.214457e-11   8.5204083e-12  3.6497741e-12  6.7307452      13.734954      56.343054      5208.7166    
        74   0             -1645.9097      79404.923      85382.573      104498.9       48333.298      1.0989514e-11  2.3161202e-11 -2.6950984e-12  6.7312924      13.736317      56.345673      5209.8993    
        75   0             -1645.9732      79079.224      85148.3        104144.14      47945.229      1.5147156e-12 -8.9773567e-12  1.0398203e-11  6.7318399      13.737681      56.348279      5211.0814    
        76   0             -1646.0364      78751.192      84914.14       103789.76      47549.68       2.9639038e-11  2.2114101e-11  1.0167623e-11  6.7323878      13.739044      56.350874      5212.2628    
        77   0             -1646.0994      78420.836      84680.086      103435.74      47146.68      -4.8896749e-11 -1.4240405e-11  9.3272735e-12  6.7329361      13.740408      56.353457      5213.4435    
        78   0             -1646.1622      78088.168      84446.132      103082.1       46736.267     -1.699593e-11  -4.128314e-11  -1.8206879e-12  6.7334848      13.741771      56.356026      5214.6235    
        79   0             -1646.2247      77753.203      84212.272      102728.85      46318.488     -1.9596745e-11  1.1526996e-11 -8.0420405e-12  6.7340338      13.743135      56.358582      5215.8027    
        80   0             -1646.287       77415.96       83978.5        102375.98      45893.399     -4.9571082e-11  1.533034e-11  -2.1030737e-11  6.7345832      13.744498      56.361124      5216.9811    
        81   0             -1646.349       77076.461      83744.812      102023.5       45461.068     -2.2617482e-11  1.2399561e-12 -1.3126065e-11  6.735133       13.745862      56.363651      5218.1585    
        82   0             -1646.4107      76734.73       83511.203      101671.42      45021.569      1.6316019e-11  1.3938907e-11 -6.635039e-12   6.7356832      13.747225      56.366163      5219.3351    
        83   0             -1646.4722      76390.798      83277.667      101319.74      44574.988     -1.4595928e-11 -1.4089096e-11 -6.5803062e-12  6.7362337      13.748589      56.36866       5220.5106    
        84   0             -1646.5335      76044.695      83044.202      100968.46      44121.421     -8.5162797e-13 -7.7072331e-12  1.4317995e-11  6.7367846      13.749952      56.371141      5221.6851    
        85   0             -1646.5944      75696.457      82810.802      100617.59      43660.973     -4.470468e-11  -2.0677138e-11  4.8957606e-13  6.7373359      13.751316      56.373605      5222.8586    
        86   0             -1646.6551      75346.122      82577.465      100267.14      43193.76      -6.5375659e-12  1.3479473e-11  2.2330299e-11  6.7378875      13.75268       56.376052      5224.0309    
        87   0             -1646.7156      74993.734      82344.188      99917.108      42719.908     -1.6382804e-11 -4.2446356e-11 -2.3304007e-11  6.7384395      13.754043      56.378481      5225.2021    
        88   0             -1646.7758      74639.338      82110.967      99567.496      42239.552      4.9201225e-11 -4.4372571e-12 -1.5660156e-11  6.738992       13.755407      56.380893      5226.372     
        89   0             -1646.8357      74282.984      81877.802      99218.312      41752.838      1.4176483e-11 -9.7699912e-12  2.5218232e-11  6.7395447      13.75677       56.383285      5227.5407    
        90   0             -1646.8954      73924.724      81644.69       98869.56       41259.923      3.0787525e-12 -3.1820863e-11  9.4658881e-12  6.7400979      13.758134      56.385659      5228.7081    
        91   0             -1646.9548      73564.615      81411.63       98521.244      40760.972      8.2180962e-12 -2.5079436e-11  1.4608059e-11  6.7406515      13.759497      56.388013      5229.8741    
        92   0             -1647.0139      73202.717      81178.621      98173.368      40256.161      9.0281171e-12  2.3360891e-11  8.7242045e-12  6.7412054      13.760861      56.390347      5231.0387    
        93   0             -1647.0727      72839.093      80945.664      97825.937      39745.678      2.2450537e-11  3.5590241e-11 -1.1346381e-11  6.7417597      13.762224      56.39266       5232.2018    
        94   0             -1647.1313      72473.808      80712.757      97478.952      39229.716     -5.9799576e-11 -1.9717928e-11 -1.2609957e-11  6.7423144      13.763588      56.394953      5233.3635    
        95   0             -1647.1896      72106.935      80479.901      97132.42       38708.483     -2.7210741e-11 -1.4849946e-11 -1.1456036e-11  6.7428695      13.764951      56.397223      5234.5236    
        96   0             -1647.2477      71738.545      80247.099      96786.343      38182.192     -9.5976691e-13 -9.9331628e-12  1.233895e-11   6.7434249      13.766315      56.399472      5235.6821    
        97   0             -1647.3055      71368.715      80014.351      96440.726      37651.066      2.2048533e-11 -1.2495443e-11 -1.447824e-11   6.7439808      13.767679      56.401698      5236.839     
        98   0             -1647.363       70997.525      79781.661      96095.573      37115.34       2.7315814e-11  2.1525795e-11  3.5826801e-12  6.744537       13.769042      56.403901      5237.9942    
        99   0             -1647.4202      70625.057      79549.03       95750.887      36575.253      3.895519e-11   2.6838721e-11 -9.1159983e-12  6.7450936      13.770406      56.406081      5239.1477    
       100   0             -1647.4772      70251.397      79316.463      95406.671      36031.056     -3.2246909e-12 -1.9789419e-11 -2.5629928e-11  6.7456506      13.771769      56.408237      5240.2994    
       101   0             -1647.5339      69876.633      79083.963      95062.929      35483.006      2.9732763e-11  1.9594183e-11 -1.8654562e-11  6.746208       13.773133      56.410368      5241.4494    
       102   0             -1647.5903      69500.855      78851.534      94719.665      34931.367      3.6762327e-11  2.8169748e-11 -2.1880116e-11  6.7467657      13.774496      56.412475      5242.5975    
       103   0             -1647.6464      69124.158      78619.181      94376.881      34376.411      2.5203912e-11  2.8392563e-11 -1.566764e-12   6.7473239      13.77586       56.414557      5243.7437    
       104   0             -1647.7023      68746.636      78386.909      94034.581      33818.417     -1.4803644e-11  2.9251186e-12  3.7642885e-11  6.7478824      13.777223      56.416613      5244.888     
       105   0             -1647.7579      68368.387      78154.725      93692.767      33257.67      -8.7903983e-12 -2.4582599e-12  9.3646987e-12  6.7484413      13.778587      56.418644      5246.0303    
       106   0             -1647.8133      67989.512      77922.634      93351.442      32694.46       3.0577497e-11 -8.1910063e-12  1.0377535e-11  6.7490006      13.77995       56.420648      5247.1707    
       107   0             -1647.8684      67610.111      77690.642      93010.608      32129.082      1.1586934e-11  2.3724618e-13 -2.4127089e-12  6.7495603      13.781314      56.422625      5248.309     
       108   0             -1647.9232      67230.288      77458.757      92670.268      31561.838     -2.4799566e-11 -1.5544732e-12 -1.7234745e-11  6.7501204      13.782677      56.424576      5249.4453    
       109   0             -1647.9777      66850.147      77226.986      92330.424      30993.031      2.1207412e-11  8.6388021e-12  1.4798183e-11  6.7506809      13.784041      56.426499      5250.5795    
       110   0             -1648.032       66469.795      76995.337      91991.078      30422.97       4.953539e-12  -2.0216367e-11  5.0720853e-12  6.7512417      13.785405      56.428395      5251.7116    
       111   0             -1648.086       66089.338      76763.817      91652.232      29851.966      1.6664862e-11  1.5911408e-11 -5.5535429e-12  6.751803       13.786768      56.430263      5252.8416    
       112   0             -1648.1398      65708.885      76532.437      91313.887      29280.332     -2.8684325e-11 -1.1697178e-11  8.1465513e-13  6.7523646      13.788132      56.432102      5253.9694    
       113   0             -1648.1933      65328.543      76301.202      90976.043      28708.383      1.0014939e-11  1.9454452e-11 -4.9884295e-12  6.7529266      13.789495      56.433914      5255.095     
       114   0             -1648.2465      64948.421      76070.124      90638.702      28136.436      1.7817451e-11  3.8071476e-14  4.2957315e-12  6.7534891      13.790859      56.435696      5256.2183    
       115   0             -1648.2995      64568.628      75839.21       90301.865      27564.808      1.9852155e-11  2.6792374e-11  1.2882332e-11  6.7540519      13.792222      56.43745       5257.3395    
       116   0             -1648.3522      64189.273      75608.471      89965.532      26993.816      2.2621737e-12 -6.680812e-12  -2.3086857e-12  6.7546151      13.793586      56.439175      5258.4584    
       117   0             -1648.4047      63810.466      75377.916      89629.705      26423.777      2.9397787e-11  2.7419334e-11  2.3289101e-11  6.7551787      13.794949      56.44087       5259.575     
       118   0             -1648.4569      63432.314      75147.555      89294.382      25855.005     -9.3322641e-12 -1.3508114e-11 -6.3314002e-12  6.7557427      13.796313      56.442536      5260.6893    
       119   0             -1648.5089      63054.926      74917.398      88959.566      25287.814     -1.5702611e-11 -1.4688449e-11 -1.4625063e-11  6.756307       13.797676      56.444172      5261.8013    
       120   0             -1648.5606      62678.409      74687.456      88625.255      24722.515     -5.5154564e-11 -3.1829528e-11  1.0278901e-11  6.7568718      13.79904       56.445778      5262.9109    
       121   0             -1648.6121      62302.867      74457.738      88291.449      24159.415      1.5712893e-11  3.1763698e-11  8.2936197e-12  6.757437       13.800404      56.447355      5264.0183    
       122   0             -1648.6633      61928.407      74228.255      87958.148      23598.818     -3.5709768e-11 -9.1048085e-12 -3.4628678e-12  6.7580026      13.801767      56.448901      5265.1233    
       123   0             -1648.7143      61555.131      73999.017      87625.351      23041.024      1.8433799e-11  1.7357157e-11 -7.3781639e-12  6.7585686      13.803131      56.450418      5266.2259    
       124   0             -1648.7651      61183.139      73770.033      87293.057      22486.328     -1.2288039e-11  2.216997e-11   2.3005776e-13  6.759135       13.804494      56.451904      5267.3262    
       125   0             -1648.8156      60812.533      73541.316      86961.266      21935.018     -2.8533878e-11 -9.1581891e-13  4.9589273e-13  6.7597018      13.805858      56.453361      5268.4241    
       126   0             -1648.8659      60443.409      73312.873      86629.975      21387.38       1.8506666e-11 -3.8439519e-12  3.2068095e-12  6.760269       13.807221      56.454787      5269.5197    
       127   0             -1648.9159      60075.863      73084.716      86299.183      20843.69       2.8471406e-11  2.4775902e-11  1.497396e-11   6.7608366      13.808585      56.456183      5270.6129    
       128   0             -1648.9658      59709.987      72856.855      85968.888      20304.218     -3.0190569e-11 -1.2020554e-11 -4.2556977e-12  6.7614046      13.809948      56.457548      5271.7037    
       129   0             -1649.0153      59345.871      72629.299      85639.088      19769.227     -3.9216867e-11 -3.4746987e-11  7.4849396e-12  6.7619731      13.811312      56.458884      5272.7922    
       130   0             -1649.0647      58983.604      72402.057      85309.782      19238.972      5.2029643e-11  3.4992791e-11 -2.0700555e-12  6.7625419      13.812675      56.460189      5273.8783    
       131   0             -1649.1139      58623.269      72175.139      84980.966      18713.701     -4.0043761e-13  1.7589749e-11  4.8073589e-12  6.7631112      13.814039      56.461465      5274.9621    
       132   0             -1649.1628      58264.948      71948.555      84652.638      18193.651      4.8822304e-11  4.2231187e-11  2.3285942e-11  6.7636809      13.815402      56.46271       5276.0436    
       133   0             -1649.2115      57908.72       71722.312      84324.794      17679.053     -2.8541619e-11 -8.9113558e-12  9.0693585e-12  6.764251       13.816766      56.463926      5277.1227    
       134   0             -1649.26        57554.659      71496.419      83997.431      17170.126      1.4002508e-11  2.2629805e-11 -5.8722911e-12  6.7648215      13.81813       56.465112      5278.1995    
       135   0             -1649.3083      57202.837      71270.884      83670.547      16667.082      2.4019268e-11  1.7541689e-11  2.0131878e-12  6.7653925      13.819493      56.466269      5279.274     
       136   0             -1649.3563      56853.324      71045.716      83344.137      16170.121      6.4383664e-12  3.3181378e-12 -4.0508231e-12  6.7659639      13.820857      56.467396      5280.3462    
       137   0             -1649.4042      56506.185      70820.922      83018.198      15679.434     -2.2649702e-11 -2.9419352e-11 -1.4095019e-11  6.7665357      13.82222       56.468494      5281.4161    
       138   0             -1649.4518      56161.48       70596.51       82692.726      15195.203      1.8086635e-11 -6.8650924e-12  5.9411882e-12  6.767108       13.823584      56.469562      5282.4838    
       139   0             -1649.4993      55819.267      70372.486      82367.718      14717.597     -4.7313715e-11 -3.2673102e-11  4.4186961e-13  6.7676807      13.824947      56.470602      5283.5493    
       140   0             -1649.5465      55479.601      70148.857      82043.17       14246.777     -9.9085102e-12 -2.3317607e-11  7.6049394e-12  6.7682538      13.826311      56.471614      5284.6125    
       141   0             -1649.5936      55142.533      69925.629      81719.076      13782.893     -3.4388879e-11 -2.0650154e-11  1.3355926e-12  6.7688274      13.827674      56.472597      5285.6736    
       142   0             -1649.6405      54808.109      69702.808      81395.434      13326.084     -1.9830103e-11 -1.0085384e-11  8.1444313e-12  6.7694015      13.829038      56.473551      5286.7325    
       143   0             -1649.6871      54476.372      69480.4        81072.238      12876.477      7.4889405e-12  9.8731231e-12 -9.2066453e-12  6.769976       13.830401      56.474478      5287.7893    
       144   0             -1649.7336      54147.361      69258.409      80749.484      12434.19       1.5525627e-11  2.7074205e-12  1.1756679e-11  6.7705509      13.831765      56.475377      5288.8439    
       145   0             -1649.7799      53821.112      69036.839      80427.166      11999.332      3.6811911e-11  2.4303091e-11 -1.6043739e-11  6.7711263      13.833129      56.476249      5289.8965    
       146   0             -1649.826       53497.658      68815.696      80105.281      11571.997      5.7194638e-12 -1.2140728e-11 -1.3281679e-11  6.7717022      13.834492      56.477094      5290.947     
       147   0             -1649.8719      53177.026      68594.982      79783.823      11152.272     -3.1721819e-12 -1.9629714e-11  1.6407113e-11  6.7722786      13.835856      56.477912      5291.9955    
       148   0             -1649.9176      52859.24       68374.701      79462.788      10740.233      1.7806914e-11  8.3510606e-12  1.4885303e-11  6.7728554      13.837219      56.478704      5293.042     
       149   0             -1649.9632      52544.323      68154.856      79142.169      10335.944      3.5678201e-11  3.6740777e-11 -6.7639484e-12  6.7734327      13.838583      56.479469      5294.0866    
       150   0             -1650.0085      52232.291      67935.449      78821.962      9939.4625     -1.3563025e-11  1.1232536e-11 -7.8648748e-12  6.7740105      13.839946      56.480209      5295.1292    
       151   0             -1650.0537      51923.159      67716.484      78502.16       9550.8324      2.7662294e-11  2.180573e-11  -5.4178465e-12  6.7745888      13.84131       56.480923      5296.17      
       152   0             -1650.0988      51616.936      67497.959      78182.759      9170.0896      2.3715482e-12  1.5656415e-11  1.0136794e-11  6.7751675      13.842673      56.481613      5297.2089    
       153   0             -1650.1436      51313.63       67279.878      77863.752      8797.2604     -2.5339124e-11  7.5538958e-13  3.646853e-12   6.7757468      13.844037      56.482277      5298.2459    
       154   0             -1650.1883      51013.245      67062.241      77545.134      8432.3616     -9.8307334e-12 -1.6321619e-12  2.1518103e-11  6.7763266      13.8454        56.482917      5299.2812    
       155   0             -1650.2328      50715.782      66845.048      77226.898      8075.4012     -1.9812847e-11 -1.4179001e-11 -1.1137647e-12  6.7769068      13.846764      56.483534      5300.3148    
       156   0             -1650.2771      50421.239      66628.299      76909.04       7726.3782     -1.3446459e-11  3.3721e-12    -5.8508452e-12  6.7774876      13.848127      56.484126      5301.3466    
       157   0             -1650.3213      50129.61       66411.995      76591.553      7385.2833      3.027591e-12   1.6379184e-11  6.8519165e-12  6.7780689      13.849491      56.484696      5302.3768    
       158   0             -1650.3653      49840.888      66196.134      76274.431      7052.0989      4.461267e-11   2.2375512e-11  3.6349201e-12  6.7786508      13.850855      56.485242      5303.4054    
       159   0             -1650.4092      49555.062      65980.716      75957.669      6726.7996      2.603893e-11  -2.7497647e-11 -8.3331282e-12  6.7792331      13.852218      56.485766      5304.4323    
       160   0             -1650.4529      49272.118      65765.74       75641.261      6409.3523      1.4022766e-11  4.157377e-11   9.8276705e-13  6.779816       13.853582      56.486269      5305.4578    
       161   0             -1650.4964      48992.04       65551.203      75325.2        6099.7168     -2.0912767e-11  6.092399e-12   6.6433966e-12  6.7803994      13.854945      56.486749      5306.4817    
       162   0             -1650.5398      48714.811      65337.104      75009.482      5797.8458      1.7021079e-11  2.2027278e-11  4.0300954e-12  6.7809834      13.856309      56.487208      5307.5041    
       163   0             -1650.583       48440.409      65123.441      74694.099      5503.6854      2.2383251e-11  1.2640841e-11 -6.1277501e-12  6.7815679      13.857672      56.487646      5308.5252    
       164   0             -1650.626       48168.811      64910.211      74379.046      5217.1753     -6.3066435e-12  5.2220348e-12  6.3422387e-12  6.782153       13.859036      56.488064      5309.5448    
       165   0             -1650.6689      47899.993      64697.412      74064.318      4938.2494     -3.5157192e-11 -3.3909503e-11  8.2167427e-12  6.7827386      13.860399      56.488462      5310.5631    
       166   0             -1650.7117      47633.928      64485.04       73749.907      4666.8359      2.8708093e-11  2.9076467e-11  1.3449855e-11  6.7833248      13.861763      56.48884       5311.5801    
       167   0             -1650.7543      47370.586      64273.093      73435.808      4402.8575     -2.5534352e-11 -1.5401806e-11 -1.9488725e-11  6.7839116      13.863126      56.489199      5312.5959    
       168   0             -1650.7967      47109.938      64061.567      73122.015      4146.2321      4.3786337e-11  2.9709766e-11 -9.2163043e-12  6.7844989      13.86449       56.48954       5313.6104    
       169   0             -1650.839       46851.951      63850.458      72808.522      3896.8729     -1.4287254e-11 -8.3255158e-12  2.2424505e-12  6.7850869      13.865854      56.489861      5314.6238    
       170   0             -1650.8812      46596.592      63639.763      72495.323      3654.6887      5.7748836e-11  2.1713328e-11 -7.970477e-12   6.7856754      13.867217      56.490165      5315.6361    
       171   0             -1650.9232      46343.825      63429.477      72182.412      3419.5843     -5.3622682e-11 -1.2997917e-11 -1.773831e-11   6.7862645      13.868581      56.490451      5316.6472    
       172   0             -1650.965       46093.613      63219.597      71869.782      3191.4607     -1.643665e-11  -2.2716947e-11  6.5897125e-12  6.7868543      13.869944      56.49072       5317.6573    
       173   0             -1651.0067      45845.92       63010.117      71557.428      2970.2155      2.3979327e-11  3.3122073e-11  6.3836179e-12  6.7874446      13.871308      56.490972      5318.6664    
       174   0             -1651.0483      45600.707      62801.034      71245.343      2755.7434     -1.9377108e-11  6.1985012e-12 -2.9822189e-12  6.7880356      13.872671      56.491208      5319.6746    
       175   0             -1651.0897      45357.933      62592.342      70933.521      2547.9359     -3.5658663e-11 -9.9959596e-12 -9.8246241e-12  6.7886272      13.874035      56.491427      5320.6818    
       176   0             -1651.131       45117.559      62384.037      70621.958      2346.6823      3.502938e-11  -5.3187501e-12  6.2671839e-12  6.7892194      13.875398      56.491631      5321.6881    
       177   0             -1651.1721      44879.544      62176.115      70310.646      2151.8695      2.5235271e-11  1.9591693e-11 -4.7579827e-12  6.7898123      13.876762      56.49182       5322.6936    
       178   0             -1651.2131      44643.845      61968.571      69999.581      1963.3823      2.1818271e-11 -6.7994152e-12  2.2929232e-12  6.7904058      13.878125      56.491994      5323.6983    
       179   0             -1651.254       44410.42       61761.399      69688.757      1781.1039      2.4778945e-11  2.6491006e-11  8.4412938e-12  6.791          13.879489      56.492153      5324.7023    
       180   0             -1651.2947      44179.226      61554.594      69378.168      1604.9159      4.592468e-13  -9.8195315e-12 -1.8474246e-12  6.7915948      13.880852      56.492298      5325.7055    
       181   0             -1651.3352      43950.22       61348.152      69067.808      1434.6988     -3.0792964e-11  1.1712763e-11  1.8449898e-12  6.7921903      13.882216      56.49243       5326.7081    
       182   0             -1651.3757      43723.357      61142.067      68757.672      1270.3321      4.039434e-11   3.4672608e-11  1.4141566e-11  6.7927865      13.88358       56.492548      5327.71      
       183   0             -1651.416       43498.595      60936.335      68447.755      1111.6944      3.7486781e-11  5.1323176e-12 -6.2818732e-12  6.7933833      13.884943      56.492653      5328.7113    
       184   0             -1651.4561      43275.888      60730.95       68138.051      958.66366      2.1167878e-11  1.1835489e-11 -2.9974616e-12  6.7939809      13.886307      56.492745      5329.7121    
       185   0             -1651.4961      43055.193      60525.907      67828.554      811.11768     -3.1387148e-11 -1.7230606e-11  1.0062657e-11  6.7945791      13.88767       56.492825      5330.7123    
       186   0             -1651.536       42836.465      60321.202      67519.26       668.93396     -1.5713568e-11  4.9375967e-12  3.1902546e-13  6.7951781      13.889034      56.492893      5331.7121    
       187   0             -1651.5757      42619.66       60116.828      67210.162      531.98999     -1.8771026e-11 -4.3362654e-12 -7.211126e-12   6.7957777      13.890397      56.492949      5332.7114    
       188   0             -1651.6154      42404.734      59912.782      66901.257      400.16348     -4.1620352e-11 -2.0101496e-11 -3.9102454e-12  6.7963781      13.891761      56.492994      5333.7103    
       189   0             -1651.6548      42191.642      59709.057      66592.538      273.33247      4.7355962e-11  3.0967682e-11  2.9738144e-12  6.7969792      13.893124      56.493028      5334.7088    
       190   0             -1651.6941      41980.342      59505.649      66284          151.37547      1.8218758e-11  2.5844634e-11  9.003117e-12   6.7975811      13.894488      56.493051      5335.707     
       191   0             -1651.7333      41770.788      59302.553      65975.638      34.171669     -1.0307589e-11 -1.888197e-11   1.7309167e-11  6.7981837      13.895851      56.493064      5336.7049    
       192   0             -1651.7724      41562.937      59099.763      65667.447     -78.398978      1.1397047e-11  2.5318439e-11 -1.3454847e-12  6.7987871      13.897215      56.493067      5337.7026    
       193   0             -1651.8113      41356.746      58897.274      65359.42      -186.45561     -4.4063679e-11 -2.5355357e-11 -2.3460369e-11  6.7993912      13.898579      56.493061      5338.7       
       194   0             -1651.8501      41152.173      58695.082      65051.554     -290.11633     -1.9662555e-11 -2.7149483e-11 -1.178629e-11   6.7999961      13.899942      56.493044      5339.6972    
       195   0             -1651.8888      40949.176      58493.182      64743.843     -389.49812      4.6128851e-11  2.6436661e-11 -9.7836463e-14  6.8006018      13.901306      56.493019      5340.6943    
       196   0             -1651.9273      40747.712      58291.569      64436.282     -484.71672      1.1896358e-11  1.4060846e-11  2.8254892e-11  6.8012083      13.902669      56.492985      5341.6913    
       197   0             -1651.9657      40547.74       58090.238      64128.868     -575.88653      1.8378068e-11  1.8336451e-11 -8.2588938e-12  6.8018155      13.904033      56.492942      5342.6881    
       198   0             -1652.0039      40349.22       57889.185      63821.594     -663.1205       4.8682808e-12  2.0713078e-11 -8.5694225e-12  6.8024236      13.905396      56.492891      5343.6849    
       199   0             -1652.0421      40152.111      57688.406      63514.456     -746.53011      5.688586e-11   1.6640591e-11  2.5876119e-12  6.8030325      13.90676       56.492832      5344.6817    
       200   0             -1652.0801      39956.373      57487.894      63207.45      -826.22525      1.1937398e-11  4.4754843e-12 -4.1344158e-12  6.8036423      13.908123      56.492765      5345.6785    
       201   0             -1652.1179      39761.968      57287.648      62900.571     -902.31416      1.1843683e-11  1.0596104e-11  1.226786e-12   6.8042528      13.909487      56.49269       5346.6753    
       202   0             -1652.1556      39568.857      57087.661      62593.814     -974.90338     -1.0377922e-11 -9.0640505e-12  4.4488688e-13  6.8048642      13.91085       56.492609      5347.6722    
       203   0             -1652.1932      39377.002      56887.93       62287.175     -1044.0977      7.9565867e-12  1.6295622e-11  5.2461925e-12  6.8054765      13.912214      56.49252       5348.6692    
       204   0             -1652.2307      39186.367      56688.451      61980.649     -1110.0002      3.4638367e-11  1.8453845e-11  2.3856998e-12  6.8060896      13.913577      56.492425      5349.6663    
       205   0             -1652.268       38996.913      56489.22       61674.232     -1172.712       1.4369708e-11  6.0254704e-12 -1.3293434e-11  6.8067037      13.914941      56.492323      5350.6636    
       206   0             -1652.3052      38808.606      56290.232      61367.919     -1232.3324     -9.2234835e-13 -2.4679051e-12  9.2276382e-12  6.8073186      13.916305      56.492214      5351.661     
       207   0             -1652.3423      38621.411      56091.485      61061.706     -1288.9588      3.4477768e-12  4.0874847e-12 -5.0055072e-12  6.8079344      13.917668      56.4921        5352.6587    
       208   0             -1652.3792      38435.292      55892.974      60755.588     -1342.6866     -1.5034488e-12  2.7319576e-11 -1.1628886e-12  6.8085511      13.919032      56.49198       5353.6567    
       209   0             -1652.416       38250.216      55694.695      60449.562     -1393.6094      4.743701e-11  -6.9095925e-12  2.3253436e-13  6.8091687      13.920395      56.491854      5354.6549    
       210   0             -1652.4527      38066.149      55496.645      60143.622     -1441.8187     -6.069676e-12  -4.9902535e-12  7.4314091e-12  6.8097872      13.921759      56.491723      5355.6534    
       211   0             -1652.4893      37883.06       55298.82       59837.763     -1487.404      -3.2210604e-12 -3.0301212e-12 -8.1315171e-12  6.8104067      13.923122      56.491586      5356.6523    
       212   0             -1652.5257      37700.915      55101.217      59531.982     -1530.4529     -5.076374e-11  -1.0474794e-11 -2.1356296e-11  6.8110272      13.924486      56.491444      5357.6515    
       213   0             -1652.562       37519.685      54903.832      59226.274     -1571.0511     -1.8339918e-12 -2.3642727e-11  7.4065054e-12  6.8116486      13.925849      56.491298      5358.6511    
       214   0             -1652.5981      37339.338      54706.662      58920.634     -1609.2821     -3.6424081e-12  2.5306024e-12  8.4090673e-12  6.812271       13.927213      56.491147      5359.6511    
       215   0             -1652.6341      37159.845      54509.703      58615.059     -1645.2276     -1.2882925e-11  1.4898733e-11 -6.8603856e-12  6.8128943      13.928576      56.490991      5360.6515    
       216   0             -1652.67        36981.177      54312.953      58309.544     -1678.9672     -2.0021619e-11 -1.2457528e-11  8.5552197e-12  6.8135187      13.92994       56.490831      5361.6525    
       217   0             -1652.7058      36803.305      54116.409      58004.086     -1710.5786     -3.707537e-11  -7.5460942e-12  1.6833595e-12  6.8141441      13.931304      56.490667      5362.6539    
       218   0             -1652.7414      36626.203      53920.068      57698.679     -1740.1375     -3.6529539e-11 -1.2850836e-11 -2.4002046e-12  6.8147705      13.932667      56.490499      5363.6558    
       219   0             -1652.7769      36449.843      53723.927      57393.321     -1767.7177      6.2169847e-11  3.4077365e-11 -1.4982933e-11  6.8153979      13.934031      56.490327      5364.6583    
       220   0             -1652.8123      36274.199      53527.983      57088.005     -1793.391       1.2017257e-11 -1.3202407e-11 -4.0692918e-12  6.8160264      13.935394      56.490151      5365.6613    
       221   0             -1652.8476      36099.246      53332.234      56782.73      -1817.2274     -6.2809498e-12  6.1566566e-12  9.6617249e-12  6.8166559      13.936758      56.489972      5366.6649    
       222   0             -1652.8827      35924.958      53136.678      56477.49      -1839.2949      3.0760954e-11  2.4522603e-12  1.7107829e-12  6.8172865      13.938121      56.48979       5367.6692    
       223   0             -1652.9177      35751.311      52941.311      56172.281     -1859.6597      2.5702498e-11 -2.9819205e-13 -6.7051796e-12  6.8179182      13.939485      56.489604      5368.674     
       224   0             -1652.9525      35578.282      52746.132      55867.099     -1878.3862     -1.8476163e-11 -6.5672782e-12 -2.2484439e-12  6.818551       13.940848      56.489415      5369.6796    
       225   0             -1652.9873      35405.847      52551.139      55561.94      -1895.5369      1.7735781e-11  3.9735767e-11  3.403084e-12   6.8191849      13.942212      56.489223      5370.6858    
       226   0             -1653.0219      35233.985      52356.328      55256.8       -1911.1725      4.138401e-11   1.6134714e-11 -3.4479776e-12  6.81982        13.943575      56.489028      5371.6927    
       227   0             -1653.0564      35062.674      52161.698      54951.675     -1925.352      -2.2711827e-11 -5.2392809e-12  1.5250197e-11  6.8204561      13.944939      56.488831      5372.7004    
       228   0             -1653.0907      34891.892      51967.248      54646.56      -1938.1325     -2.4395737e-11 -1.8602991e-11  3.0701555e-12  6.8210935      13.946302      56.488631      5373.7088    
       229   0             -1653.125       34721.618      51772.974      54341.451     -1949.5698      5.0718381e-12  1.4710813e-11 -5.6551409e-12  6.821732       13.947666      56.488429      5374.718     
       230   0             -1653.1591      34551.833      51578.875      54036.343     -1959.7175     -1.4071086e-11  6.6839727e-12  1.2036114e-12  6.8223717      13.94903       56.488224      5375.7281    
       231   0             -1653.193       34382.517      51384.948      53731.231     -1968.628       2.7185752e-11  1.9452659e-11  2.295116e-12   6.8230126      13.950393      56.488017      5376.7389    
       232   0             -1653.2269      34213.651      51191.192      53426.112     -1976.3517      8.2360558e-12 -5.5899334e-12  1.4016179e-12  6.8236547      13.951757      56.487808      5377.7506    
       233   0             -1653.2606      34045.217      50997.606      53120.982     -1982.9376     -1.3120643e-11 -4.0246558e-11  4.7951939e-12  6.8242981      13.95312       56.487596      5378.7631    
       234   0             -1653.2942      33877.196      50804.186      52815.835     -1988.4333     -1.083675e-11  -1.2589146e-11 -3.174151e-12   6.8249427      13.954484      56.487383      5379.7766    
       235   0             -1653.3276      33709.572      50610.933      52510.667     -1992.8846     -3.8181805e-12 -1.499173e-11   9.2190051e-12  6.8255886      13.955847      56.487168      5380.7909    
       236   0             -1653.361       33542.328      50417.844      52205.475     -1996.3361      2.3342695e-11  1.8426269e-11 -8.8908813e-12  6.8262357      13.957211      56.486951      5381.8062    
       237   0             -1653.3942      33375.447      50224.918      51900.253     -1998.8306      8.4761357e-12  1.2152432e-11 -5.1715994e-12  6.8268842      13.958574      56.486733      5382.8225    
       238   0             -1653.4273      33208.914      50032.154      51594.998     -2000.4097     -1.615613e-11  -2.8438422e-11  4.4561513e-12  6.827534       13.959938      56.486513      5383.8397    
       239   0             -1653.4602      33042.714      49839.55       51289.704     -2001.1138      2.581519e-11   3.1389487e-11 -3.8029094e-12  6.8281851      13.961301      56.486291      5384.8579    
       240   0             -1653.4931      32876.831      49647.106      50984.368     -2000.9815     -1.1055661e-11 -2.184711e-11  -9.4621269e-12  6.8288375      13.962665      56.486069      5385.8772    
       241   0             -1653.5258      32711.251      49454.819      50678.984     -2000.0503     -1.7715426e-11 -1.6691795e-11  5.3658094e-14  6.8294914      13.964029      56.485844      5386.8975    
       242   0             -1653.5584      32545.96       49262.689      50373.549     -1998.3566     -9.7474147e-12  1.1967613e-12 -1.2925022e-11  6.8301466      13.965392      56.485619      5387.9189    
       243   0             -1653.5908      32380.945      49070.715      50068.056     -1995.9353      1.2559484e-11  1.9062029e-11 -3.3791778e-12  6.8308033      13.966756      56.485392      5388.9414    
       244   0             -1653.6232      32216.193      48878.896      49762.502     -1992.8201     -1.237559e-13  -6.9468312e-12  9.9128476e-12  6.8314614      13.968119      56.485164      5389.965     
       245   0             -1653.6554      32051.69       48687.23       49456.882     -1989.0435     -3.8480769e-11 -1.8163913e-11  6.1907432e-12  6.8321209      13.969483      56.484935      5390.9897    
       246   0             -1653.6875      31887.424      48495.718      49151.19      -1984.6369     -1.3104889e-11 -4.2061004e-12  4.2885729e-13  6.8327819      13.970846      56.484705      5392.0156    
       247   0             -1653.7194      31723.383      48304.357      48845.423     -1979.6305     -2.2015979e-11 -3.1259392e-11  6.8562871e-12  6.8334444      13.97221       56.484474      5393.0427    
       248   0             -1653.7513      31559.556      48113.147      48539.573     -1974.0535      3.0091013e-11  2.4732339e-12 -9.2787493e-12  6.8341085      13.973573      56.484243      5394.0709    
       249   0             -1653.783       31395.93       47922.087      48233.637     -1967.9339      2.1323451e-11  8.7947901e-12  1.0550451e-12  6.834774       13.974937      56.48401       5395.1005    
       250   0             -1653.8146      31232.495      47731.175      47927.607     -1961.2988      1.2963039e-11  1.5468292e-11 -6.5927724e-13  6.8354412      13.9763        56.483777      5396.1312    
       251   0             -1653.8461      31069.239      47540.412      47621.48      -1954.1742      1.9741578e-11  3.1392075e-11  4.1567721e-12  6.8361099      13.977664      56.483542      5397.1633    
       252   0             -1653.8774      30906.435      47350.125      47315.778     -1946.5985      1.0173702e-11 -5.4204824e-12 -2.895592e-12   6.836779       13.979025      56.483308      5398.1948    
       253   0             -1653.9085      30744.184      47160.446      47010.709     -1938.6036      1.4322827e-11  2.3267387e-11  6.0412843e-12  6.8374482      13.980383      56.483074      5399.2252    
       254   0             -1653.9394      30582.478      46971.376      46706.275     -1930.216       2.8080236e-12 -1.9705573e-11 -6.3654025e-12  6.8381174      13.981738      56.482839      5400.2544    
       255   0             -1653.9701      30421.311      46782.918      46402.476     -1921.4604      3.2594867e-11  2.9672115e-11 -8.0272785e-12  6.8387865      13.983089      56.482605      5401.2823    
       256   0             -1654.0006      30260.675      46595.073      46099.314     -1912.3609      4.7002101e-12 -5.3175757e-12  3.877056e-12   6.8394557      13.984437      56.482371      5402.3091    
       257   0             -1654.0309      30100.564      46407.844      45796.789     -1902.9403      1.9365141e-11  1.5414751e-11 -6.254784e-13   6.8401249      13.985781      56.482137      5403.3347    
       258   0             -1654.061       29940.972      46221.233      45494.903     -1893.2202     -2.4594745e-11 -1.4506703e-11 -1.2795192e-12  6.840794       13.987122      56.481903      5404.3591    
       259   0             -1654.0909      29781.893      46035.242      45193.658     -1883.2214     -2.8983233e-11 -2.0624742e-11 -8.2062944e-12  6.8414632      13.98846       56.481669      5405.3822    
       260   0             -1654.1206      29623.321      45849.873      44893.053     -1872.9636     -1.0906756e-11 -1.8539841e-11  7.6618731e-12  6.8421324      13.989794      56.481436      5406.4041    
       261   0             -1654.1502      29465.252      45665.13       44593.091     -1862.4658      3.4013447e-11  1.1940891e-11 -5.9375504e-12  6.8428015      13.991124      56.481202      5407.4248    
       262   0             -1654.1795      29307.681      45481.014      44293.773     -1851.7457     -5.7555427e-14  1.1264419e-12  2.7544383e-12  6.8434707      13.992451      56.48097       5408.4442    
       263   0             -1654.2087      29150.603      45297.528      43995.101     -1840.8206      3.1000095e-11  1.5043801e-11 -2.5812861e-12  6.8441399      13.993775      56.480737      5409.4624    
       264   0             -1654.2376      28994.014      45114.674      43697.074     -1829.7066     -9.7149895e-12 -1.0536901e-11  2.5273767e-11  6.844809       13.995094      56.480505      5410.4793    
       265   0             -1654.2664      28837.911      44932.456      43399.696     -1818.4191     -7.4697699e-12  5.9166494e-12  9.4337688e-12  6.8454782      13.996411      56.480274      5411.4949    
       266   0             -1654.295       28682.29       44750.875      43102.967     -1806.973      -2.7030734e-12 -2.3169201e-12  5.755328e-12   6.8461473      13.997723      56.480043      5412.5093    
       267   0             -1654.3234      28527.147      44569.934      42806.889     -1795.3822      1.234638e-11   9.3645197e-13 -1.1270282e-11  6.8468165      13.999032      56.479812      5413.5224    
       268   0             -1654.3516      28372.479      44389.636      42511.461     -1783.66       -2.2749888e-12 -7.0385033e-12 -2.422822e-13   6.8474857      14.000337      56.479582      5414.5342    
       269   0             -1654.3796      28218.284      44209.984      42216.686     -1771.819       1.909156e-11   1.0650216e-11  1.3006895e-11  6.8481548      14.001639      56.479353      5415.5447    
       270   0             -1654.4074      28064.558      44030.98       41922.566     -1759.8713      4.0589714e-11  3.3077661e-11  1.3603794e-11  6.848824       14.002936      56.479124      5416.5539    
       271   0             -1654.435       27911.3        43852.627      41629.101     -1747.8282     -4.8511445e-12  1.3231886e-11  1.7114444e-12  6.8494932      14.00423       56.478895      5417.5617    
       272   0             -1654.4625      27758.507      43674.93       41336.293     -1735.7005     -1.314736e-11  -2.3627497e-11 -1.501852e-11   6.8501623      14.00552       56.478668      5418.5683    
       273   0             -1654.4898      27606.179      43497.89       41044.145     -1723.4986      7.9345438e-12  5.5878225e-12  9.4073987e-12  6.8508315      14.006806      56.478441      5419.5734    
       274   0             -1654.5168      27454.312      43321.51       40752.656     -1711.2321     -2.8819949e-11 -2.3060881e-11 -5.2012091e-12  6.8515007      14.008089      56.478214      5420.5773    
       275   0             -1654.5437      27302.905      43145.795      40461.83      -1698.9103     -4.2569848e-12  1.3377923e-11  2.9528218e-13  6.8521698      14.009367      56.477988      5421.5798    
       276   0             -1654.5705      27151.958      42970.747      40171.668     -1686.542      -2.4569503e-11 -1.995247e-11  -1.2670188e-11  6.852839       14.010641      56.477763      5422.5809    
       277   0             -1654.597       27001.468      42796.369      39882.171     -1674.1353      5.5426977e-12 -4.9523512e-12  1.7029857e-11  6.8535082      14.011912      56.477539      5423.5806    
       278   0             -1654.6233      26851.436      42622.665      39593.341     -1661.6983     -3.1200629e-11 -1.89286e-11   -7.1935239e-12  6.8541773      14.013178      56.477315      5424.5789    
       279   0             -1654.6495      26701.86       42449.638      39305.18      -1649.2382      1.0368246e-11  1.7261285e-11  1.764241e-11   6.8548465      14.014441      56.477092      5425.5758    
       280   0             -1654.6755      26552.74       42277.291      39017.69      -1636.7622      2.0372119e-11  2.5542999e-11 -9.3870725e-12  6.8555157      14.015699      56.47687       5426.5713    
       281   0             -1654.7013      26404.074      42105.628      38730.871     -1624.2768     -5.0142612e-12 -6.8249666e-12  6.2268603e-13  6.8561848      14.016953      56.476649      5427.5654    
       282   0             -1654.7269      26255.864      41934.652      38444.727     -1611.7885     -1.1198107e-11 -2.6713261e-11 -1.1345559e-11  6.856854       14.018204      56.476428      5428.558     
       283   0             -1654.7523      26108.108      41764.367      38159.259     -1599.303      -1.2039658e-12 -7.9117754e-12 -1.4373878e-11  6.8575231      14.019449      56.476209      5429.5492    
       284   0             -1654.7776      25960.806      41594.777      37874.467     -1586.8261     -2.4934747e-11 -3.8077692e-11 -7.3002715e-12  6.8581923      14.020691      56.475989      5430.5389    
       285   0             -1654.8027      25813.959      41425.884      37590.356     -1574.363       6.0012623e-12 -2.3988675e-12 -2.2609121e-11  6.8588615      14.021929      56.475771      5431.5272    
       286   0             -1654.8276      25667.567      41257.694      37306.925     -1561.9188     -2.2715523e-11 -2.5285856e-11 -1.2024902e-11  6.8595306      14.023162      56.475554      5432.5139    
       287   0             -1654.8523      25521.629      41090.208      37024.177     -1549.498      -5.8599514e-12 -1.4134268e-11 -1.011169e-11   6.8601998      14.024391      56.475337      5433.4992    
       288   0             -1654.8769      25376.146      40923.432      36742.112     -1537.1052      4.9505989e-12  2.7093278e-11 -4.688749e-12   6.860869       14.025616      56.475121      5434.4829    
       289   0             -1654.9013      25231.119      40757.368      36460.733     -1524.7446     -7.8049883e-12  5.5796667e-12 -6.9950367e-13  6.8615381      14.026836      56.474906      5435.4652    
       290   0             -1654.9255      25086.547      40592.02       36180.042     -1512.42        6.8383576e-12  2.400787e-11   2.9488372e-12  6.8622073      14.028052      56.474692      5436.4458    
       291   0             -1654.9495      24942.433      40427.393      35900.041     -1500.1352      8.5464078e-12 -1.0877246e-12 -2.4739601e-12  6.8628765      14.029263      56.474479      5437.425     
       292   0             -1654.9734      24798.776      40263.49       35620.73      -1487.8936     -2.2453796e-11 -2.9068917e-11 -2.9028033e-13  6.8635456      14.03047       56.474267      5438.4025    
       293   0             -1654.997       24655.577      40100.316      35342.114     -1475.6985     -9.2300756e-12  1.2402148e-11 -3.2252124e-12  6.8642148      14.031673      56.474055      5439.3785    
       294   0             -1655.0206      24512.838      39937.874      35064.192     -1463.553       1.8121712e-11  2.3344884e-11 -8.8605934e-12  6.864884       14.03287       56.473844      5440.3529    
       295   0             -1655.0439      24370.559      39776.168      34786.968     -1451.4601     -7.6004416e-12  1.4138456e-12 -1.8837654e-12  6.8655531      14.034064      56.473635      5441.3257    
       296   0             -1655.0671      24228.741      39615.203      34510.443     -1439.4223     -2.0158004e-11 -3.1474921e-11 -1.5047006e-11  6.8662223      14.035253      56.473426      5442.2968    
       297   0             -1655.0901      24087.386      39454.982      34234.619     -1427.4422     -1.7139829e-11 -1.65026e-11   -1.7405342e-11  6.8668915      14.036437      56.473217      5443.2663    
       298   0             -1655.1129      23946.495      39295.511      33959.498     -1415.5222      1.0602261e-11  1.5478647e-11 -1.4469881e-11  6.8675606      14.037616      56.47301       5444.2342    
       299   0             -1655.1356      23806.07       39136.792      33685.082     -1403.6645      1.2960557e-11 -3.8791836e-12 -7.6971169e-12  6.8682298      14.038791      56.472804      5445.2004    
       300   0             -1655.1581      23666.111      38978.83       33411.373     -1391.8712      8.3448916e-12  1.8543296e-11  5.201268e-12   6.8688989      14.039961      56.472598      5446.165     
       301   0             -1655.1804      23526.62       38821.631      33138.373     -1380.144      -5.2901506e-12 -8.6618052e-12 -1.4221362e-11  6.8695681      14.041126      56.472394      5447.1278    
       302   0             -1655.2026      23387.599      38665.197      32866.085     -1368.4849      3.5302261e-11  2.6364463e-11  3.2241371e-13  6.8702373      14.042286      56.47219       5448.089     
       303   0             -1655.2246      23249.049      38509.535      32594.509     -1356.8956      4.3252957e-13 -3.8274786e-12  1.3126864e-11  6.8709064      14.043442      56.471987      5449.0484    
       304   0             -1655.2464      23110.973      38354.647      32323.649     -1345.3775      1.3308146e-11  2.192458e-11   8.9836108e-12  6.8715756      14.044592      56.471785      5450.0061    
       305   0             -1655.2681      22973.371      38200.539      32053.506     -1333.932      -2.210837e-12  -1.0344433e-11  2.2854834e-11  6.8722448      14.045738      56.471584      5450.962     
       306   0             -1655.2896      22836.245      38047.215      31784.081     -1322.5607      1.6827153e-11  2.8238296e-11  1.1586511e-11  6.8729139      14.046879      56.471384      5451.9162    
       307   0             -1655.311       22699.598      37894.68       31515.378     -1311.2646     -1.8357395e-11 -2.2051709e-11  1.2265448e-11  6.8735831      14.048014      56.471185      5452.8686    
       308   0             -1655.3322      22563.43       37742.937      31247.397     -1300.0449      1.7122972e-13  2.9777664e-11  1.026563e-11   6.8742523      14.049145      56.470986      5453.8192    
       309   0             -1655.3532      22427.744      37591.993      30980.141     -1288.9028     -1.2473139e-12 -1.4918852e-12  5.4987791e-12  6.8749214      14.050271      56.470789      5454.7679    
       310   0             -1655.3741      22292.541      37441.85       30713.611     -1277.8391      1.2837767e-11 -1.4019657e-12  2.4167606e-12  6.8755906      14.051391      56.470592      5455.7149    
       311   0             -1655.3948      22157.823      37292.515      30447.81      -1266.8548     -2.5638489e-11 -1.0569968e-11  7.538335e-13   6.8762598      14.052506      56.470396      5456.66      
       312   0             -1655.4153      22023.593      37143.992      30182.739     -1255.9506      9.1422163e-12  2.1999986e-11 -1.0168882e-11  6.8769289      14.053616      56.470202      5457.6033    
       313   0             -1655.4357      21889.853      36996.285      29918.401     -1245.1274     -6.6151509e-12 -1.1991998e-11 -7.9227023e-12  6.8775981      14.054721      56.470008      5458.5447    
       314   0             -1655.456       21756.604      36849.4        29654.798     -1234.3858      1.2218004e-12  6.5651405e-12 -1.1851463e-11  6.8782673      14.055821      56.469814      5459.4842    
       315   0             -1655.476       21623.849      36703.341      29391.932     -1223.7264     -1.9822343e-11 -4.2837109e-12  2.0196964e-12  6.8789364      14.056915      56.469622      5460.4217    
       316   0             -1655.496       21491.59       36558.114      29129.804     -1213.1498      1.7685601e-11  1.745761e-11   1.2091675e-12  6.8796056      14.058004      56.469431      5461.3574    
       317   0             -1655.5158      21359.828      36413.723      28868.418     -1202.6564     -2.0043511e-11 -2.3853569e-11  5.8860514e-12  6.8802747      14.059087      56.46924       5462.2911    
       318   0             -1655.5354      21228.567      36270.175      28607.775     -1192.2469     -2.8000779e-12  4.8024592e-12  1.8965644e-12  6.8809439      14.060165      56.469051      5463.2229    
       319   0             -1655.5548      21097.809      36127.473      28347.876     -1181.9215     -2.1843402e-11 -1.0384568e-11 -1.6732502e-11  6.8816131      14.061237      56.468862      5464.1527    
       320   0             -1655.5742      20967.556      35985.623      28088.725     -1171.6806      2.786107e-11   2.0309939e-11  5.0449367e-12  6.8822822      14.062304      56.468674      5465.0805    
       321   0             -1655.5933      20837.81       35844.63       27830.323     -1161.5245     -8.2332438e-12 -2.2014978e-11  6.1423904e-12  6.8829514      14.063366      56.468487      5466.0063    
       322   0             -1655.6124      20708.573      35704.5        27572.673     -1151.4536      1.4918199e-11  1.3925822e-11  6.3121715e-12  6.8836206      14.064422      56.468301      5466.9301    
       323   0             -1655.6312      20579.848      35565.238      27315.775     -1141.468       4.961051e-12  -1.1223361e-11  2.5455884e-12  6.8842897      14.065472      56.468116      5467.8519    
       324   0             -1655.65        20451.638      35426.848      27059.633     -1131.568      -9.9041703e-12  6.2612571e-12  1.1782547e-11  6.8849589      14.066516      56.467932      5468.7716    
       325   0             -1655.6685      20323.944      35289.337      26804.249     -1121.7538     -2.0683072e-11 -2.5300991e-11 -5.0569461e-12  6.8856281      14.067555      56.467748      5469.6892    
       326   0             -1655.687       20196.769      35152.71       26549.623     -1112.0254      7.4459605e-12  1.7298039e-11  1.1794857e-11  6.8862972      14.068588      56.467566      5470.6048    
       327   0             -1655.7053      20070.116      35016.972      26295.76      -1102.3831     -2.3845853e-11 -3.5077948e-11  9.8260518e-12  6.8869664      14.069615      56.467384      5471.5182    
       328   0             -1655.7234      19943.987      34882.128      26042.659     -1092.8269      1.3570532e-11  1.0758913e-11 -9.6700201e-12  6.8876356      14.070636      56.467203      5472.4295    
       329   0             -1655.7414      19818.384      34748.185      25790.323     -1083.3569     -1.9661816e-12 -1.7939376e-11 -9.2296791e-12  6.8883047      14.071652      56.467023      5473.3387    
       330   0             -1655.7593      19693.309      34615.146      25538.754     -1073.9731      1.7124067e-11  8.2370985e-12  4.199783e-12   6.8889739      14.072661      56.466844      5474.2457    
       331   0             -1655.777       19568.766      34483.019      25287.954     -1064.6755      2.9369256e-11  3.2910461e-11  9.1778926e-13  6.8896431      14.073665      56.466666      5475.1506    
       332   0             -1655.7945      19444.756      34351.808      25037.924     -1055.4641      1.7800553e-11  8.2343797e-12  8.015121e-12   6.8903122      14.074662      56.466488      5476.0533    
       333   0             -1655.812       19321.282      34221.519      24788.666     -1046.3389     -1.586522e-11  -2.4617884e-11 -5.0745968e-12  6.8909814      14.075654      56.466312      5476.9537    
       334   0             -1655.8293      19198.347      34092.159      24540.184     -1037.2999     -1.1316525e-11 -4.3999688e-12 -1.8265553e-12  6.8916506      14.076639      56.466136      5477.8519    
       335   0             -1655.8464      19075.954      33963.732      24292.477     -1028.347      -1.8019065e-11 -1.8571e-11    -3.2547951e-12  6.8923197      14.077618      56.465961      5478.7479    
       336   0             -1655.8635      18954.105      33836.245      24045.549     -1019.4802     -3.8466864e-12  2.1749197e-12 -1.5841206e-11  6.8929889      14.078591      56.465787      5479.6416    
       337   0             -1655.8804      18832.802      33709.704      23799.401     -1010.6993      2.0057937e-11  1.035353e-11  -5.3633884e-12  6.893658       14.079558      56.465614      5480.5331    
       338   0             -1655.8971      18712.048      33584.114      23554.035     -1002.0042      2.7096538e-12 -6.4901887e-13 -4.9082052e-12  6.8943272      14.080518      56.465441      5481.4222    
       339   0             -1655.9137      18591.846      33459.481      23309.452     -993.39493      4.1157363e-11  3.8334588e-11  1.6417521e-11  6.8949964      14.081472      56.46527       5482.3091    
       340   0             -1655.9302      18472.199      33335.811      23065.656     -984.87127      4.0388373e-12  4.3794621e-13  9.8943404e-13  6.8956655      14.08242       56.465099      5483.1936    
       341   0             -1655.9466      18353.108      33213.111      22822.647     -976.43312      2.276954e-11   1.2828138e-11  2.4326432e-13  6.8963347      14.083362      56.464929      5484.0757    
       342   0             -1655.9628      18234.577      33091.385      22580.427     -968.08033      6.1779225e-12 -2.6916933e-12  8.4399178e-12  6.8970039      14.084296      56.46476       5484.9555    
       343   0             -1655.9789      18116.609      32970.641      22338.998     -959.81276     -1.2272807e-11 -2.4999561e-11  2.007909e-11   6.897673       14.085225      56.464591      5485.8329    
       344   0             -1655.9949      17999.206      32850.884      22098.362     -951.63024      1.5204831e-11 -1.3535217e-11  2.1883285e-13  6.8983422      14.086147      56.464424      5486.7079    
       345   0             -1656.0107      17882.37       32732.121      21858.521     -943.53262      3.07938e-12    1.7487637e-11 -4.9756298e-12  6.8990114      14.087062      56.464257      5487.5805    
       346   0             -1656.0264      17766.104      32614.357      21619.476     -935.51972     -5.7040522e-12 -8.4912595e-12  1.0452027e-12  6.8996805      14.087971      56.464091      5488.4507    
       347   0             -1656.042       17650.412      32497.599      21381.228     -927.59137     -2.0123048e-11 -1.3480174e-11  3.1270115e-12  6.9003497      14.088873      56.463926      5489.3184    
       348   0             -1656.0575      17535.295      32381.853      21143.78      -919.7474      -1.0205735e-12  2.5271343e-12 -3.9769966e-12  6.9010189      14.089768      56.463762      5490.1836    
       349   0             -1656.0728      17420.756      32267.125      20907.132     -911.98766      1.0690042e-11  3.2523643e-11  7.2157785e-12  6.901688       14.090657      56.463598      5491.0463    
[...]
      1143   0             -1700.142       16893.751      188252.33     -49265.001     -88306.079     -2.4893356      6.8335546e-08  1.2537887e-05  7.3373143      13.793417      56.306264      5698.5676    
      1144   0             -1700.142       16893.751      188252.33     -49265.001     -88306.079     -2.4893356      9.0531351e-08 -6.3039574e-06  7.3373143      13.793417      56.306264      5698.5676    
      1145   0             -1700.142       16893.751      188252.33     -49265.001     -88306.079     -2.4893356      1.1331339e-07 -1.1125715e-05  7.3373143      13.793417      56.306264      5698.5676    
      1146   0             -1700.142       16893.751      188252.33     -49265.001     -88306.079     -2.4893356      1.1150338e-07  5.7560026e-06  7.3373143      13.793417      56.306264      5698.5676    
      1147   0             -1700.142       16893.751      188252.33     -49265.001     -88306.079     -2.4893356      8.9598393e-08 -5.6523512e-06  7.3373143      13.793417      56.306264      5698.5676    
      1148   0             -1700.142       16893.751      188252.33     -49265.001     -88306.079     -2.4893356      3.2618424e-08 -2.6236313e-06  7.3373143      13.793417      56.306264      5698.5676    
      1149   0             -1700.142       16893.751      188252.33     -49265.001     -88306.079     -2.4893356      1.7330231e-10  2.5059818e-06  7.3373143      13.793417      56.306264      5698.5676    
      1150   0             -1700.142       16893.751      188252.33     -49265.001     -88306.079     -2.4893356     -2.0433478e-08 -2.8991255e-06  7.3373143      13.793417      56.306264      5698.5676    
      1151   0             -1700.142       16893.751      188252.33     -49265.001     -88306.079     -2.4893356     -4.0236788e-08 -2.8405379e-06  7.3373143      13.793417      56.306264      5698.5676    
      1152   0             -1700.142       16893.751      188252.33     -49265.001     -88306.079     -2.4893356     -5.1669244e-08  2.7168654e-06  7.3373143      13.793417      56.306264      5698.5676    
      1153   0             -1700.142       16893.751      188252.33     -49265.001     -88306.079     -2.4893356     -6.4241121e-08  4.7868741e-07  7.3373143      13.793417      56.306264      5698.5676    
      1154   0             -1700.142       16893.751      188252.33     -49265.001     -88306.079     -2.4893356     -6.922899e-08  -2.7818636e-06  7.3373143      13.793417      56.306264      5698.5676    
      1155   0             -1700.142       16893.751      188252.33     -49265.001     -88306.079     -2.4893356     -5.8478095e-08  4.08942e-06    7.3373143      13.793417      56.306264      5698.5676    
      1156   0             -1700.142       16893.751      188252.33     -49265.001     -88306.079     -2.4893356     -2.8051887e-08  7.7283808e-07  7.3373143      13.793417      56.306264      5698.5676    
      1157   0             -1700.142       16893.751      188252.33     -49265.001     -88306.079     -2.4893356     -1.0718876e-09 -1.6702672e-06  7.3373143      13.793417      56.306264      5698.5676    
      1158   0             -1700.142       16893.751      188252.33     -49265.001     -88306.079     -2.4893356      1.2909478e-08  3.4095515e-06  7.3373143      13.793417      56.306264      5698.5676    
      1159   0             -1700.142       16893.751      188252.33     -49265.001     -88306.079     -2.4893356      2.1612919e-08 -1.6697366e-07  7.3373143      13.793417      56.306264      5698.5676    
      1160   0             -1700.142       16893.751      188252.33     -49265.001     -88306.079     -2.4893356      3.4547482e-08  1.8983075e-07  7.3373143      13.793417      56.306264      5698.5676    
      1161   0             -1700.142       16893.751      188252.33     -49265.001     -88306.079     -2.4893356      4.6871626e-08  1.6707614e-06  7.3373143      13.793417      56.306264      5698.5676    
      1162   0             -1700.142       16893.751      188252.33     -49265.001     -88306.079     -2.4893356      5.1854089e-08 -7.2900649e-07  7.3373143      13.793417      56.306264      5698.5676    
      1163   0             -1700.142       16893.751      188252.33     -49265.001     -88306.079     -2.4893356      5.0201182e-08  4.2734056e-08  7.3373143      13.793417      56.306264      5698.5676    
      1164   0             -1700.142       16893.751      188252.33     -49265.001     -88306.079     -2.4893356      3.7430211e-08  1.9256555e-06  7.3373143      13.793417      56.306264      5698.5676    
      1165   0             -1700.142       16893.751      188252.33     -49265.001     -88306.079     -2.4893356      2.1557931e-08 -1.0851707e-06  7.3373143      13.793417      56.306264      5698.5676    
      1166   0             -1700.142       16893.751      188252.33     -49265.001     -88306.079     -2.4893356      5.2214226e-09  1.1696322e-06  7.3373143      13.793417      56.306264      5698.5676    
      1167   0             -1700.142       16893.751      188252.33     -49265.001     -88306.079     -2.4893356     -3.4258907e-09  6.032221e-08   7.3373143      13.793417      56.306264      5698.5676    
      1168   0             -1700.142       16893.751      188252.33     -49265.001     -88306.079     -2.4893356     -5.1476503e-09 -3.5633834e-07  7.3373143      13.793417      56.306264      5698.5676    
      1169   0             -1700.142       16893.751      188252.33     -49265.001     -88306.079     -2.4893356     -5.9356303e-09  3.4504188e-07  7.3373143      13.793417      56.306264      5698.5676    
      1170   0             -1700.142       16893.751      188252.33     -49265.001     -88306.079     -2.4893356     -6.9813173e-09 -2.2604891e-08  7.3373143      13.793417      56.306264      5698.5676    
      1171   0             -1700.142       16893.751      188252.33     -49265.001     -88306.079     -2.4893356     -8.2242227e-09 -2.1962935e-07  7.3373143      13.793417      56.306264      5698.5676    
      1172   0             -1700.142       16893.751      188252.33     -49265.001     -88306.079     -2.4893356     -7.9713549e-09  7.5910549e-08  7.3373143      13.793417      56.306264      5698.5676    
      1173   0             -1700.142       16893.751      188252.33     -49265.001     -88306.079     -2.4893356     -5.2191537e-09  1.5412122e-07  7.3373143      13.793417      56.306264      5698.5676    
      1174   0             -1700.142       16893.751      188252.33     -49265.001     -88306.079     -2.4893356     -3.1109717e-09 -3.3321012e-07  7.3373143      13.793417      56.306264      5698.5676    
      1175   0             -1700.142       16893.751      188252.33     -49265.001     -88306.079     -2.4893356     -1.4738919e-09  2.3550379e-07  7.3373143      13.793417      56.306264      5698.5676    
      1176   0             -1700.142       16893.751      188252.33     -49265.001     -88306.079     -2.4893356     -2.0883209e-10 -2.2821254e-08  7.3373143      13.793417      56.306264      5698.5676    
      1177   0             -1700.142       16893.751      188252.33     -49265.001     -88306.079     -2.4893356      2.558751e-10  -1.1846336e-07  7.3373143      13.793417      56.306264      5698.5676    
      1178   0             -1700.142       16893.751      188252.33     -49265.001     -88306.079     -2.4893356      4.3395223e-10  9.7580356e-09  7.3373143      13.793417      56.306264      5698.5676    
      1179   0             -1700.142       16893.751      188252.33     -49265.001     -88306.079     -2.4893356      4.505778e-10   2.6001358e-08  7.3373143      13.793417      56.306264      5698.5676    
      1180   0             -1700.142       16893.751      188252.33     -49265.001     -88306.079     -2.4893356      5.1352065e-10 -3.4267428e-08  7.3373143      13.793417      56.306264      5698.5676    
Loop time of 0.150191 on 4 procs for 180 steps with 288 atoms

49.4% CPU use with 4 MPI tasks x 1 OpenMP threads

Minimization stats:
  Stopping criterion = force tolerance
  Energy initial, next-to-last, final = 
      -1679.0711854505    -1700.142036102    -1700.142036102
  Force two-norm initial, final = 32.949317 7.8764691e-11
  Force max component initial, final = 2.5601289 7.9341533e-12
  Final line search alpha, max atom move = 1 7.9341533e-12
  Iterations, force evaluations = 180 348

MPI task timing breakdown:
Section |  min time  |  avg time  |  max time  |%varavg| %total
---------------------------------------------------------------
Pair    | 0.13917    | 0.1393     | 0.13945    |   0.0 | 92.75
Neigh   | 0          | 0          | 0          |   0.0 |  0.00
Comm    | 0.005538   | 0.0057108  | 0.005947   |   0.2 |  3.80
Output  | 0.001854   | 0.0019925  | 0.002365   |   0.5 |  1.33
Modify  | 0          | 0          | 0          |   0.0 |  0.00
Other   |            | 0.003191   |            |       |  2.12

Nlocal:             72 ave          72 max          72 min
Histogram: 4 0 0 0 0 0 0 0 0 0
Nghost:            593 ave         593 max         593 min
Histogram: 4 0 0 0 0 0 0 0 0 0
Neighs:           1560 ave        1560 max        1560 min
Histogram: 4 0 0 0 0 0 0 0 0 0
FullNghs:         3120 ave        3120 max        3120 min
Histogram: 4 0 0 0 0 0 0 0 0 0

Total # of neighbors = 12480
Ave neighs/atom = 43.333333
Neighbor list builds = 0
Dangerous builds = 0

# Obtain new stress tensor

variable tmp equal pe
variable e1 equal ${tmp}
variable e1 equal -1700.142036102
variable tmp equal press
variable p1 equal ${tmp}
variable p1 equal 16893.7510871445
variable tmp equal pxx
variable pxx1 equal ${tmp}
variable pxx1 equal 188252.333093858
variable tmp equal pyy
variable pyy1 equal ${tmp}
variable pyy1 equal -49265.0006354353
variable tmp equal pzz
variable pzz1 equal ${tmp}
variable pzz1 equal -88306.079196989
variable tmp equal pxy
variable pxy1 equal ${tmp}
variable pxy1 equal -2.4893355792165
variable tmp equal pxz
variable pxz1 equal ${tmp}
variable pxz1 equal 5.13520646112875e-10
variable tmp equal pyz
variable pyz1 equal ${tmp}
variable pyz1 equal -3.42674280123461e-08

# Compute elastic constant from pressure tensor

variable C1pos equal ${d1}
variable C1pos equal -24886.0293983016
variable C2pos equal ${d2}
variable C2pos equal -4770546.16218209
variable C3pos equal ${d3}
variable C3pos equal 7333292.04825739
variable C4pos equal ${d4}
variable C4pos equal 3.41950106225572e-06
variable C5pos equal ${d5}
variable C5pos equal -3.7218187845591e-08
variable C6pos equal ${d6}
variable C6pos equal 248.933557925521

# Combine positive and negative

variable C1${dir} equal 0.5*(${C1neg}+${C1pos})
variable C16 equal 0.5*(${C1neg}+${C1pos})
variable C16 equal 0.5*(24886.0293983016+${C1pos})
variable C16 equal 0.5*(24886.0293983016+-24886.0293983016)
variable C2${dir} equal 0.5*(${C2neg}+${C2pos})
variable C26 equal 0.5*(${C2neg}+${C2pos})
variable C26 equal 0.5*(4770546.16218203+${C2pos})
variable C26 equal 0.5*(4770546.16218203+-4770546.16218209)
variable C3${dir} equal 0.5*(${C3neg}+${C3pos})
variable C36 equal 0.5*(${C3neg}+${C3pos})
variable C36 equal 0.5*(-7333292.04825765+${C3pos})
variable C36 equal 0.5*(-7333292.04825765+7333292.04825739)
variable C4${dir} equal 0.5*(${C4neg}+${C4pos})
variable C46 equal 0.5*(${C4neg}+${C4pos})
variable C46 equal 0.5*(-3.44449175880512e-06+${C4pos})
variable C46 equal 0.5*(-3.44449175880512e-06+3.41950106225572e-06)
variable C5${dir} equal 0.5*(${C5neg}+${C5pos})
variable C56 equal 0.5*(${C5neg}+${C5pos})
variable C56 equal 0.5*(3.91893767098881e-08+${C5pos})
variable C56 equal 0.5*(3.91893767098881e-08+-3.7218187845591e-08)
variable C6${dir} equal 0.5*(${C6neg}+${C6pos})
variable C66 equal 0.5*(${C6neg}+${C6pos})
variable C66 equal 0.5*(248.933557917901+${C6pos})
variable C66 equal 0.5*(248.933557917901+248.933557925521)

# Delete dir to make sure it is not reused

variable dir delete

# Output final values

variable C11all equal ${C11}
variable C11all equal 234.717465400199
variable C22all equal ${C22}
variable C22all equal 134.714745330159
variable C33all equal ${C33}
variable C33all equal 214.873312755022

variable C12all equal 0.5*(${C12}+${C21})
variable C12all equal 0.5*(68.8668228496499+${C21})
variable C12all equal 0.5*(68.8668228496499+45.1150895301253)
variable C13all equal 0.5*(${C13}+${C31})
variable C13all equal 0.5*(65.3639651500489+${C31})
variable C13all equal 0.5*(65.3639651500489+37.7081243600696)
variable C23all equal 0.5*(${C23}+${C32})
variable C23all equal 0.5*(51.6056519751437+${C32})
variable C23all equal 0.5*(51.6056519751437+47.7015442452393)

variable C44all equal ${C44}
variable C44all equal 21.7916775053351
variable C55all equal ${C55}
variable C55all equal 47.0004242930222
variable C66all equal ${C66}
variable C66all equal 248.933557921711

variable C14all equal 0.5*(${C14}+${C41})
variable C14all equal 0.5*(0+${C41})
variable C14all equal 0.5*(0+4.54665615342601e-08)
variable C15all equal 0.5*(${C15}+${C51})
variable C15all equal 0.5*(4.95001586386934e-08+${C51})
variable C15all equal 0.5*(4.95001586386934e-08+1.3566144565974e-09)
variable C16all equal 0.5*(${C16}+${C61})
variable C16all equal 0.5*(0+${C61})
variable C16all equal 0.5*(0+1.10108796793743e-09)

variable C24all equal 0.5*(${C24}+${C42})
variable C24all equal 0.5*(-8.98726284503937e-08+${C42})
variable C24all equal 0.5*(-8.98726284503937e-08+1.317033509537e-08)
variable C25all equal 0.5*(${C25}+${C52})
variable C25all equal 0.5*(-9.77888703346252e-09+${C52})
variable C25all equal 0.5*(-9.77888703346252e-09+8.98007313211302e-10)
variable C26all equal 0.5*(${C26}+${C62})
variable C26all equal 0.5*(-2.98023223876953e-08+${C62})
variable C26all equal 0.5*(-2.98023223876953e-08+6.1570577753958e-10)

variable C34all equal 0.5*(${C34}+${C43})
variable C34all equal 0.5*(6.24917447566986e-07+${C43})
variable C34all equal 0.5*(6.24917447566986e-07+2.69487200681e-08)
variable C35all equal 0.5*(${C35}+${C53})
variable C35all equal 0.5*(-1.89989805221558e-07+${C53})
variable C35all equal 0.5*(-1.89989805221558e-07+-3.2199552856153e-09)
variable C36all equal 0.5*(${C36}+${C63})
variable C36all equal 0.5*(-1.29919499158859e-07+${C63})
variable C36all equal 0.5*(-1.29919499158859e-07+1.17444207198117e-09)

variable C45all equal 0.5*(${C45}+${C54})
variable C45all equal 0.5*(-1.66224350350451e-08+${C54})
variable C45all equal 0.5*(-1.66224350350451e-08+-5.06360844913375e-09)
variable C46all equal 0.5*(${C46}+${C64})
variable C46all equal 0.5*(-1.24953482746999e-08+${C64})
variable C46all equal 0.5*(-1.24953482746999e-08+1.18536654191105e-09)
variable C56all equal 0.5*(${C56}+${C65})
variable C56all equal 0.5*(9.85594432148549e-10+${C65})
variable C56all equal 0.5*(9.85594432148549e-10+5.485929420431e-10)

# Average moduli for cubic crystals

variable C11cubic equal (${C11all}+${C22all}+${C33all})/3.0
variable C11cubic equal (234.717465400199+${C22all}+${C33all})/3.0
variable C11cubic equal (234.717465400199+134.714745330159+${C33all})/3.0
variable C11cubic equal (234.717465400199+134.714745330159+214.873312755022)/3.0
variable C12cubic equal (${C12all}+${C13all}+${C23all})/3.0
variable C12cubic equal (56.9909561898876+${C13all}+${C23all})/3.0
variable C12cubic equal (56.9909561898876+51.5360447550593+${C23all})/3.0
variable C12cubic equal (56.9909561898876+51.5360447550593+49.6535981101915)/3.0
variable C44cubic equal (${C44all}+${C55all}+${C66all})/3.0
variable C44cubic equal (21.7916775053351+${C55all}+${C66all})/3.0
variable C44cubic equal (21.7916775053351+47.0004242930222+${C66all})/3.0
variable C44cubic equal (21.7916775053351+47.0004242930222+248.933557921711)/3.0

variable bulkmodulus equal (${C11cubic}+2*${C12cubic})/3.0
variable bulkmodulus equal (194.76850782846+2*${C12cubic})/3.0
variable bulkmodulus equal (194.76850782846+2*52.7268663517128)/3.0
variable shearmodulus1 equal ${C44cubic}
variable shearmodulus1 equal 105.908553240023
variable shearmodulus2 equal (${C11cubic}-${C12cubic})/2.0
variable shearmodulus2 equal (194.76850782846-${C12cubic})/2.0
variable shearmodulus2 equal (194.76850782846-52.7268663517128)/2.0
variable poissonratio equal 1.0/(1.0+${C11cubic}/${C12cubic})
variable poissonratio equal 1.0/(1.0+194.76850782846/${C12cubic})
variable poissonratio equal 1.0/(1.0+194.76850782846/52.7268663517128)

# For Stillinger-Weber silicon, the analytical results
# are known to be (E. R. Cowley, 1988):
#               C11 = 151.4 GPa
#               C12 = 76.4 GPa
#               C44 = 56.4 GPa

print "========================================="
=========================================
print "Components of the Elastic Constant Tensor"
Components of the Elastic Constant Tensor
print "========================================="
=========================================

print "Elastic Constant C11all = ${C11all} ${cunits}"
Elastic Constant C11all = 234.717465400199 GPa
print "Elastic Constant C22all = ${C22all} ${cunits}"
Elastic Constant C22all = 134.714745330159 GPa
print "Elastic Constant C33all = ${C33all} ${cunits}"
Elastic Constant C33all = 214.873312755022 GPa

print "Elastic Constant C12all = ${C12all} ${cunits}"
Elastic Constant C12all = 56.9909561898876 GPa
print "Elastic Constant C13all = ${C13all} ${cunits}"
Elastic Constant C13all = 51.5360447550593 GPa
print "Elastic Constant C23all = ${C23all} ${cunits}"
Elastic Constant C23all = 49.6535981101915 GPa

print "Elastic Constant C44all = ${C44all} ${cunits}"
Elastic Constant C44all = 21.7916775053351 GPa
print "Elastic Constant C55all = ${C55all} ${cunits}"
Elastic Constant C55all = 47.0004242930222 GPa
print "Elastic Constant C66all = ${C66all} ${cunits}"
Elastic Constant C66all = 248.933557921711 GPa

print "Elastic Constant C14all = ${C14all} ${cunits}"
Elastic Constant C14all = 2.273328076713e-08 GPa
print "Elastic Constant C15all = ${C15all} ${cunits}"
Elastic Constant C15all = 2.54283865476454e-08 GPa
print "Elastic Constant C16all = ${C16all} ${cunits}"
Elastic Constant C16all = 5.50543983968715e-10 GPa

print "Elastic Constant C24all = ${C24all} ${cunits}"
Elastic Constant C24all = -3.83511466775119e-08 GPa
print "Elastic Constant C25all = ${C25all} ${cunits}"
Elastic Constant C25all = -4.44043986012561e-09 GPa
print "Elastic Constant C26all = ${C26all} ${cunits}"
Elastic Constant C26all = -1.45933083050779e-08 GPa

print "Elastic Constant C34all = ${C34all} ${cunits}"
Elastic Constant C34all = 3.25933083817543e-07 GPa
print "Elastic Constant C35all = ${C35all} ${cunits}"
Elastic Constant C35all = -9.66048802535866e-08 GPa
print "Elastic Constant C36all = ${C36all} ${cunits}"
Elastic Constant C36all = -6.43725285434389e-08 GPa

print "Elastic Constant C45all = ${C45all} ${cunits}"
Elastic Constant C45all = -1.08430217420894e-08 GPa
print "Elastic Constant C46all = ${C46all} ${cunits}"
Elastic Constant C46all = -5.65499086639443e-09 GPa
print "Elastic Constant C56all = ${C56all} ${cunits}"
Elastic Constant C56all = 7.67093687095824e-10 GPa

print "========================================="
=========================================
print "Average properties for a cubic crystal"
Average properties for a cubic crystal
print "========================================="
=========================================

print "Bulk Modulus = ${bulkmodulus} ${cunits}"
Bulk Modulus = 100.074080177295 GPa
print "Shear Modulus 1 = ${shearmodulus1} ${cunits}"
Shear Modulus 1 = 105.908553240023 GPa
print "Shear Modulus 2 = ${shearmodulus2} ${cunits}"
Shear Modulus 2 = 71.0208207383736 GPa
print "Poisson Ratio = ${poissonratio}"
Poisson Ratio = 0.213041825635611
Total wall time: 0:00:02
