LAMMPS (22 Dec 2022)
  using 1 OpenMP thread(s) per MPI task
Loaded 1 plugins from C:\Program Files\LAMMPS 64-bit 23Jun2022\plugins
Loaded 0 plugins from C:\Program Files\LAMMPS 64-bit 23Jun2022-MPI\plugins
Loaded 1 plugins from C:\Program Files\LAMMPS 64-bit 22Dec2022-MSMPI\plugins
Loaded 1 plugins from C:\Program Files\LAMMPS 64-bit 28Mar2023-MPI\plugins
# Compute elastic constant tensor for a crystal
#
# Written by Aidan Thompson (Sandia, athomps@sandia.gov)
#
#  This script uses the following three include files.
#
#   init.mod      (must be modified for different crystal structures)
# 	       	  Define units, deformation parameters and initial
#		  configuration of the atoms and simulation cell.
#
#
#   potential.mod    (must be modified for different pair styles)
# 		     Define pair style and other attributes
#		     not stored in restart file
#
#
#   displace.mod    (displace.mod should not need to be modified)
# 		    Perform positive and negative box displacements
# 		    in direction ${dir} and size ${up}.
# 		    It uses the resultant changes
#		    in stress to compute one
# 		    row of the elastic stiffness tensor
#
#		    Inputs variables:
#		    	   dir = the Voigt deformation component
#		    		    (1,2,3,4,5,6)
#		    Global constants:
#       	    	   up = the deformation magnitude (strain units)
#       		   cfac = conversion from LAMMPS pressure units to
#               	   output units for elastic constants
#
#
#  To run this on a different system, it should only be necessary to
#  modify the files init.mod and potential.mod. In order to calculate
#  the elastic constants correctly, care must be taken to specify
#  the correct units in init.mod (units, cfac and cunits). It is also
#  important to verify that the minimization of energy w.r.t atom
#  positions in the deformed cell is fully converged.
#  One indication of this is that the elastic constants are insensitive
#  to the choice of the variable ${up} in init.mod. Another is to check
#  the final max and two-norm forces reported in the log file. If you know
#  that minimization is not required, you can set maxiter = 0.0 in
#  init.mod.
#

include init.mod
# NOTE: This script can be modified for different atomic structures,
# units, etc. See in.elastic for more info.
#

# Define the finite deformation size. Try several values of this
# variable to verify that results do not depend on it.
variable up equal 1.0e-6

# Define the amount of random jiggle for atoms
# This prevents atoms from staying on saddle points
variable atomjiggle equal 1.0e-5

# Uncomment one of these blocks, depending on what units
# you are using in LAMMPS and for output

# metal units, elastic constants in eV/A^3
#units		metal
#variable cfac equal 6.2414e-7
#variable cunits string eV/A^3

# metal units, elastic constants in GPa
units		metal
variable cfac equal 1.0e-4
variable cunits string GPa

# real units, elastic constants in GPa
#units		real
#variable cfac equal 1.01325e-4
#variable cunits string GPa

# Define minimization parameters
variable etol equal 0.0
variable ftol equal 1.0e-10
variable maxiter equal 1000
variable maxeval equal 100000
variable dmax equal 1.0e-2

# generate the box and atom positions using a diamond lattice

dimension    3
boundary     p p p
read_data    data.in
Reading data file ...
  orthogonal box = (0.058215294 0.079082634 0.24422345) to (3.3950027 4.6119454 14.242637)
  1 by 1 by 4 MPI processor grid
  reading atoms ...
  12 atoms
  reading velocities ...
  12 velocities
  read_data CPU = 0.001 seconds
#replicate    2 3 4
replicate    2 3 4
Replication is creating a 2x3x4 = 24 times larger system...
  orthogonal box = (0.058215294 0.079082634 0.24422345) to (6.7317901 13.677671 56.237876)
  1 by 1 by 4 MPI processor grid
  288 atoms
  replicate CPU = 0.000 seconds
change_box   all triclinic
Changing box ...
  triclinic box = (0.058215294 0.079082634 0.24422345) to (6.7317901 13.677671 56.237876) with tilt (0 0 0)

# Need to set mass to something, just to satisfy LAMMPS
mass 1 1.0e-20

include potential.mod
# NOTE: This script can be modified for different pair styles
# See in.elastic for more info.

# Choose potential
#-----------------------
#pair_style	sw
#pair_coeff * * Si.sw Si
#-----------------------
#pair_style morse	2.83994742	# D0[eV] a[1/A] r0[A] rc[A], 1NN for BCC
#pair_coeff 1 1	2.1173	1.0202	2.4595	2.6497	#	Fe-Fe
#-----------------------
#pair_style smatb # R0(A)   p       q     A(eV)   xi(eV)  Rcs(A)   Rc(A), 4NN: Rcs=4NN, Rc=(4NN+5NN)/2
#pair_coeff 1 1	2.4802	7.0149	2.3779	0.3144	3.0551	4.033	4.176	#	Co	Co
#-----------------------
#pair_style eam/alloy
#pair_coeff * * AlCrFeCoNi_Zhou04.eam.alloy Fe
#-----------------------
pair_style meam
#pair_coeff * * ./../../library.meam V Nb Ta Ti Zr ./../../VNbTaTiZr.meam V Nb
#pair_coeff * * ./../../library.meam V Nb Ta Ti Zr ./../../VNbTaTiZr.meam V Ta
#pair_coeff * * ./../../library.meam V Nb Ta Ti Zr ./../../VNbTaTiZr.meam V Ti
#pair_coeff * * ./../../library.meam V Nb Ta Ti Zr ./../../VNbTaTiZr.meam V Zr
#pair_coeff * * ./../../library.meam V Nb Ta Ti Zr ./../../VNbTaTiZr.meam Nb Ta
#pair_coeff * * ./../../library.meam V Nb Ta Ti Zr ./../../VNbTaTiZr.meam Nb Ti
#pair_coeff * * ./../../library.meam V Nb Ta Ti Zr ./../../VNbTaTiZr.meam Nb Zr
#pair_coeff * * ./../../library.meam V Nb Ta Ti Zr ./../../VNbTaTiZr.meam Ta Ti
#pair_coeff * * ./../../library.meam V Nb Ta Ti Zr ./../../VNbTaTiZr.meam Ta Zr
#pair_coeff * * ./../../library.meam V Nb Ta Ti Zr ./../../VNbTaTiZr.meam Ti Zr
pair_coeff * * ./../../library.meam V Nb Ta Ti Zr ./../../VNbTaTiZr.meam V Ti Zr
#pair_coeff * * ./../../library.meam V Nb Ta Ti Zr ./../../VNbTaTiZr.meam Nb Ti Zr
#-----------------------

# Setup neighbor style
neighbor 1.0 nsq
neigh_modify once no every 1 delay 0 check yes

# Setup minimization style
min_style	     cg
min_modify	     dmax ${dmax} line quadratic
min_modify	     dmax 0.01 line quadratic

# Setup output
thermo		1
thermo_style custom step temp pe press pxx pyy pzz pxy pxz pyz lx ly lz vol
thermo_modify norm no

# Compute initial state
fix 3 all box/relax  aniso 0.0
minimize ${etol} ${ftol} ${maxiter} ${maxeval}
minimize 0 ${ftol} ${maxiter} ${maxeval}
minimize 0 1e-10 ${maxiter} ${maxeval}
minimize 0 1e-10 1000 ${maxeval}
minimize 0 1e-10 1000 100000
Neighbor list info ...
  update: every = 1 steps, delay = 0 steps, check = yes
  max neighbors/atom: 2000, page size: 100000
  master list distance cutoff = 6
  ghost atom cutoff = 6
  2 neighbor lists, perpetual/occasional/extra = 2 0 0
  (1) pair meam, perpetual
      attributes: full, newton on
      pair build: full/nsq
      stencil: none
      bin: none
  (2) pair meam, perpetual, half/full from (1)
      attributes: half, newton on
      pair build: halffull/newton
      stencil: none
      bin: none
Per MPI rank memory allocation (min/avg/max) = 9.874 | 9.874 | 9.874 Mbytes
   Step          Temp          PotEng         Press           Pxx            Pyy            Pzz            Pxy            Pxz            Pyz             Lx             Ly             Lz           Volume    
         0   0             -1771.7316      5.222681e-05  -62884.166      32897.61       29986.556     -1.0897016e-11 -1.6286666e-11 -1.9522686e-12  6.6735748      13.598588      55.993652      5081.4909    
         1   0             -1771.7615      1.5838231     -63108.075      32864.818      30248.009      6.8854166e-12  2.4137787e-11 -4.5988808e-12  6.6729075      13.5993        55.996322      5081.4909    
         2   0             -1771.7916      3.3221464     -63330.078      32832.523      30507.522      1.4166363e-11  1.837445e-11  -1.6781307e-11  6.6722401      13.600008      55.999006      5081.4907    
         3   0             -1771.8218      5.2134187     -63550.153      32800.718      30765.075     -8.0968694e-12  2.153261e-12   8.1402019e-12  6.6715727      13.600712      56.001702      5081.4905    
         4   0             -1771.8521      7.2559017     -63768.277      32769.397      31020.647     -1.8178379e-11 -3.9484367e-12  7.2175008e-12  6.6709054      13.601414      56.004412      5081.4901    
         5   0             -1771.8825      9.4478665     -63984.425      32738.551      31274.218     -4.5965394e-12 -3.6630035e-12 -3.3335184e-12  6.670238       13.602112      56.007134      5081.4896    
         6   0             -1771.9131      11.787594     -64198.576      32708.172      31525.766      6.7449832e-12  4.5259852e-12  3.2697283e-11  6.6695707      13.602808      56.009869      5081.489     
         7   0             -1771.9437      14.273375     -64410.705      32678.254      31775.271     -6.7615151e-13  1.6594917e-11 -5.4431733e-12  6.6689033      13.6035        56.012616      5081.4884    
         8   0             -1771.9744      16.903511     -64620.792      32648.789      32022.714      1.5005992e-11  5.1001019e-13 -1.978888e-11   6.668236       13.604189      56.015375      5081.4876    
         9   0             -1772.0052      19.67631      -64828.814      32619.77       32268.073     -5.4369948e-12 -4.9648686e-12  3.695435e-12   6.6675686      13.604875      56.018147      5081.4867    
        10   0             -1772.0361      22.59009      -65034.749      32591.189      32511.33      -8.2374781e-12 -1.2938887e-11 -1.436589e-11   6.6669012      13.605559      56.02093       5081.4858    
        11   0             -1772.0671      25.643165     -65238.575      32563.039      32752.466     -6.4173052e-12  6.9486616e-13  1.1506015e-11  6.6662339      13.606239      56.023725      5081.4848    
        12   0             -1772.0982      28.833832     -65440.272      32535.314      32991.459      1.108511e-11  -1.4261486e-11 -1.5896907e-11  6.6655665      13.606917      56.026531      5081.4836    
        13   0             -1772.1294      32.160469     -65639.817      32508.006      33228.292     -2.7769543e-12  5.9638433e-12 -6.9206621e-13  6.6648992      13.607592      56.029349      5081.4824    
        14   0             -1772.1607      35.621432     -65837.191      32481.109      33462.945     -1.1738322e-11 -3.9163283e-13 -1.1576636e-11  6.6642318      13.608264      56.032178      5081.4812    
        15   0             -1772.1921      39.215072     -66032.371      32454.616      33695.4       -3.757262e-12   7.3786432e-12  3.1663588e-11  6.6635645      13.608933      56.035018      5081.4798    
        16   0             -1772.2236      42.939712     -66225.34       32428.52       33925.638     -4.8775096e-12  1.7602122e-11  3.0657147e-11  6.6628971      13.6096        56.037869      5081.4784    
        17   0             -1772.2552      46.793715     -66416.075      32402.815      34153.641     -4.4575342e-12  1.6173553e-12 -2.4214102e-12  6.6622297      13.610264      56.040731      5081.4769    
        18   0             -1772.2869      50.775463     -66604.558      32377.494      34379.391      4.7837154e-12  1.9249662e-12 -1.2674153e-11  6.6615624      13.610926      56.043603      5081.4754    
        19   0             -1772.3187      54.88334      -66790.769      32352.55       34602.869      2.1306024e-11  9.0558805e-12  6.2071312e-12  6.660895       13.611585      56.046485      5081.4737    
        20   0             -1772.3506      59.115739     -66974.689      32327.979      34824.058     -2.1260227e-11  1.856124e-12  -1.1517929e-12  6.6602277      13.612242      56.049378      5081.472     
        21   0             -1772.3826      63.471058     -67156.299      32303.772      35042.94      -1.2859095e-11 -2.6531846e-11  1.8993111e-11  6.6595603      13.612897      56.05228       5081.4703    
        22   0             -1772.4147      67.947703     -67335.58       32279.924      35259.499      1.422896e-12   2.3667229e-12  3.0578402e-11  6.658893       13.613549      56.055193      5081.4685    
        23   0             -1772.4468      72.544083     -67512.514      32256.429      35473.717      2.9630386e-12  5.507131e-12   1.8412168e-11  6.6582256      13.614199      56.058115      5081.4666    
        24   0             -1772.4791      77.258615     -67687.082      32233.282      35685.577      1.220431e-11   1.705652e-11   8.4415467e-12  6.6575582      13.614846      56.061047      5081.4647    
        25   0             -1772.5114      82.089719     -67859.268      32210.475      35895.062      1.1364105e-11  3.9668407e-11  2.9989585e-11  6.6568909      13.615491      56.063989      5081.4628    
        26   0             -1772.5439      87.035822     -68029.052      32188.003      36102.157     -1.3139582e-11  1.1653722e-11 -5.331512e-12   6.6562235      13.616134      56.06694       5081.4608    
        27   0             -1772.5764      92.095356     -68196.418      32165.86       36306.844     -1.2299546e-11 -1.5723338e-12  8.4482621e-12  6.6555562      13.616775      56.069899      5081.4587    
        28   0             -1772.609       97.26676      -68361.349      32144.041      36509.109     -2.3581608e-12 -1.9024127e-11  1.2348923e-11  6.6548888      13.617414      56.072868      5081.4566    
        29   0             -1772.6417      102.54852     -68523.828      32122.539      36708.934      2.1224192e-12  1.5727087e-12 -4.9675634e-12  6.6542215      13.618051      56.075846      5081.4544    
        30   0             -1772.6745      107.9391      -68683.837      32101.35       36906.305     -1.1799711e-13 -3.3533622e-12  3.6146286e-12  6.6535541      13.618686      56.078833      5081.4523    
        31   0             -1772.7074      113.43695     -68841.362      32080.467      37101.206      5.2027146e-12 -2.4018547e-12  6.503371e-12   6.6528867      13.619318      56.081828      5081.45      
        32   0             -1772.7403      119.04053     -68996.385      32059.885      37293.621     -1.4820366e-11 -1.713853e-11   7.1113884e-12  6.6522194      13.619949      56.084831      5081.4478    
        33   0             -1772.7734      124.74831     -69148.891      32039.599      37483.537     -3.898816e-12  -2.89943e-11   -6.3736885e-12  6.651552       13.620578      56.087843      5081.4455    
        34   0             -1772.8065      130.55874     -69298.864      32019.603      37670.938      8.4229561e-12 -1.9168125e-11  2.0139453e-11  6.6508847      13.621205      56.090863      5081.4431    
        35   0             -1772.8397      136.4703      -69446.29       31999.892      37855.809      1.0663215e-11  5.4770463e-13  1.2943327e-11  6.6502173      13.62183       56.093892      5081.4408    
        36   0             -1772.873       142.48145     -69591.152      31980.46       38038.136     -8.1860376e-13  1.0534953e-11  1.0403163e-11  6.64955        13.622453      56.096928      5081.4384    
        37   0             -1772.9063      148.59063     -69733.437      31961.303      38217.906      5.2022288e-12  6.9916577e-12 -1.1379561e-11  6.6488826      13.623075      56.099972      5081.4359    
        38   0             -1772.9398      154.79633     -69873.129      31942.414      38395.104      1.4215705e-12 -1.0232756e-11 -6.9182695e-12  6.6482152      13.623695      56.103023      5081.4335    
        39   0             -1772.9733      161.09703     -70010.216      31923.79       38569.717     -1.4680978e-11 -3.1450555e-11  1.8579386e-11  6.6475479      13.624313      56.106082      5081.431     
        40   0             -1773.0069      167.49123     -70144.681      31905.424      38741.73       5.3420082e-12  2.1886602e-11  3.4050704e-11  6.6468805      13.62493       56.109149      5081.4285    
        41   0             -1773.0406      173.97741     -70276.513      31887.313      38911.132      1.108281e-11  -1.5731977e-11 -2.1614241e-11  6.6462132      13.625544      56.112223      5081.426     
        42   0             -1773.0743      180.55409     -70405.696      31869.45       39077.909      4.4108898e-13  1.2186133e-11  1.3880818e-11  6.6455458      13.626158      56.115304      5081.4234    
        43   0             -1773.1081      187.21976     -70532.219      31851.831      39242.048     -1.7061708e-11 -1.3341635e-11  1.5320361e-11  6.6448785      13.626769      56.118392      5081.4209    
        44   0             -1773.142       193.97288     -70656.069      31834.451      39403.536     -4.739882e-12   3.8990583e-12  4.2871321e-12  6.6442111      13.62738       56.121487      5081.4183    
        45   0             -1773.176       200.81196     -70777.231      31817.305      39562.362     -1.2581193e-11  1.3269339e-11 -1.9086458e-12  6.6435437      13.627988      56.124589      5081.4157    
        46   0             -1773.21        207.73556     -70895.695      31800.389      39718.513     -7.4004715e-12 -1.9017792e-12 -9.9551479e-13  6.6428764      13.628596      56.127697      5081.4131    
        47   0             -1773.2441      214.74222     -71011.447      31783.697      39871.977     -3.3399189e-12 -6.6828901e-12 -6.5309903e-12  6.642209       13.629201      56.130812      5081.4104    
        48   0             -1773.2783      221.83044     -71124.476      31767.225      40022.743      2.1303884e-11  1.7157671e-11  3.666962e-11   6.6415417      13.629806      56.133934      5081.4078    
        49   0             -1773.3125      228.99871     -71234.77       31750.968      40170.799     -2.0422791e-11  4.9852057e-12 -1.0963243e-11  6.6408743      13.630409      56.137062      5081.4051    
        50   0             -1773.3468      236.24556     -71342.318      31734.922      40316.133     -1.3981861e-11 -3.4542099e-11  7.4759777e-12  6.6402069      13.631011      56.140196      5081.4025    
        51   0             -1773.3811      243.56952     -71447.109      31719.081      40458.736     -5.300569e-12  -8.0769639e-13 -1.6783555e-11  6.6395396      13.631611      56.143336      5081.3998    
        52   0             -1773.4156      250.96914     -71549.131      31703.442      40598.596     -9.2212821e-12  3.2375289e-12 -1.9272131e-12  6.6388722      13.63221       56.146482      5081.3971    
        53   0             -1773.45        258.44296     -71648.374      31688          40735.703     -2.2202465e-12  1.3675016e-11  7.6894214e-12  6.6382049      13.632808      56.149634      5081.3945    
        54   0             -1773.4846      265.98953     -71744.828      31672.75       40870.046      2.4663994e-11  2.9957755e-12 -1.5440642e-11  6.6375375      13.633405      56.152792      5081.3918    
        55   0             -1773.5192      273.60739     -71838.483      31657.689      41001.616     -8.5214305e-12 -9.6837027e-12 -1.5522832e-11  6.6368702      13.634         56.155956      5081.3891    
        56   0             -1773.5538      281.29511     -71929.328      31642.811      41130.402      2.5402739e-12  7.7261104e-12  1.2220174e-11  6.6362028      13.634595      56.159125      5081.3864    
        57   0             -1773.5885      289.05124     -72017.354      31628.112      41256.396     -4.1808997e-12  3.2173689e-12 -1.6988935e-11  6.6355354      13.635188      56.162299      5081.3837    
        58   0             -1773.6233      296.87435     -72102.552      31613.588      41379.587      9.9613215e-12  1.3376317e-11 -1.8898662e-12  6.6348681      13.63578       56.165479      5081.381     
        59   0             -1773.6581      304.763       -72184.913      31599.235      41499.967      1.4301955e-11 -8.7181469e-12  1.303419e-11   6.6342007      13.636372      56.168664      5081.3783    
        60   0             -1773.693       312.71577     -72264.427      31585.048      41617.527     -5.3013343e-12  2.2220869e-11  8.2359979e-12  6.6335334      13.636962      56.171854      5081.3756    
        61   0             -1773.7279      320.73122     -72341.087      31571.023      41732.258     -7.5417882e-12 -1.7110242e-11  1.089e-11      6.632866       13.637551      56.17505       5081.373     
        62   0             -1773.7629      328.808       -72414.883      31557.156      41844.151     -1.0342335e-11 -5.5748693e-12 -6.8574182e-12  6.6321987      13.638139      56.17825       5081.3703    
        63   0             -1773.7979      336.94471     -72485.809      31543.443      41953.2       -9.6086888e-13  6.1995834e-13  6.779374e-13   6.6315313      13.638726      56.181455      5081.3676    
        64   0             -1773.8329      345.13993     -72553.855      31529.88       42059.395     -2.3611836e-12 -9.446033e-12   2.6354437e-11  6.6308639      13.639313      56.184664      5081.365     
        65   0             -1773.868       353.39226     -72619.014      31516.462      42162.729      1.419364e-12   1.2143015e-12  1.342882e-11   6.6301966      13.639898      56.187878      5081.3623    
        66   0             -1773.9032      361.70028     -72681.279      31503.186      42263.195      1.2341109e-11  4.8030297e-12 -1.3420304e-12  6.6295292      13.640483      56.191097      5081.3597    
        67   0             -1773.9384      370.0626      -72740.644      31490.047      42360.785      2.8194388e-12 -1.572681e-11   2.6326821e-12  6.6288619      13.641066      56.19432       5081.357     
        68   0             -1773.9736      378.47783     -72797.1        31477.041      42455.493      3.7995236e-12 -2.4411229e-12  1.1768954e-11  6.6281945      13.641649      56.197548      5081.3544    
        69   0             -1774.0089      386.94456     -72850.642      31464.165      42547.311     -7.4024449e-12  9.5852812e-16  6.4764585e-12  6.6275272      13.642231      56.200779      5081.3518    
        70   0             -1774.0442      395.46141     -72901.264      31451.414      42636.234      9.4003151e-12  3.9373322e-13  3.5427624e-11  6.6268598      13.642813      56.204015      5081.3492    
        71   0             -1774.0795      404.02699     -72948.959      31438.785      42722.255      8.0000006e-12  1.3905233e-11 -1.6754859e-11  6.6261924      13.643393      56.207254      5081.3466    
        72   0             -1774.1149      412.63993     -72993.722      31426.273      42805.369     -1.1883459e-11 -9.7921514e-12  5.6951967e-12  6.6255251      13.643973      56.210498      5081.3441    
        73   0             -1774.1503      421.29881     -73035.547      31413.875      42885.568     -4.0422071e-12  2.2729368e-13  1.1778861e-11  6.6248577      13.644553      56.213745      5081.3415    
        74   0             -1774.1857      430.00224     -73074.429      31401.586      42962.849     -1.2161843e-13  6.3792324e-12 -1.0798632e-11  6.6241904      13.645131      56.216997      5081.339     
        75   0             -1774.2212      438.74884     -73110.362      31389.404      43037.205      3.9389997e-12 -9.5699952e-12  6.2961088e-12  6.623523       13.645709      56.220251      5081.3365    
        76   0             -1774.2567      447.5372      -73143.343      31377.323      43108.632      1.8781478e-11 -5.5491903e-12 -1.2263374e-13  6.6228557      13.646287      56.223509      5081.334     
        77   0             -1774.2922      456.36595     -73173.367      31365.34       43177.125      1.4184091e-12 -8.6306919e-12  2.8833618e-12  6.6221883      13.646864      56.226771      5081.3315    
        78   0             -1774.3278      465.23375     -73200.43       31353.452      43242.679     -3.3424949e-12  2.5787943e-12  2.7755044e-11  6.6215209      13.64744       56.230036      5081.3291    
        79   0             -1774.3634      474.13932     -73224.526      31341.654      43305.291     -4.1827212e-12 -1.6073627e-11  2.1615464e-11  6.6208536      13.648016      56.233304      5081.3266    
        80   0             -1774.399       483.0813      -73245.654      31329.943      43364.955      9.9809979e-13 -6.2058112e-12 -2.9516808e-11  6.6201862      13.648591      56.236576      5081.3242    
        81   0             -1774.4346      492.0583      -73263.809      31318.314      43421.669      5.6188275e-12 -1.7628575e-12 -1.7782154e-11  6.6195189      13.649166      56.23985       5081.3218    
        82   0             -1774.4702      501.06898     -73278.987      31306.765      43475.429      1.0939683e-11 -9.7413125e-13 -2.2365031e-11  6.6188515      13.649741      56.243127      5081.3195    
        83   0             -1774.5059      510.11201     -73291.187      31295.292      43526.231      9.2593141e-12  3.8439549e-11  3.5079346e-11  6.6181842      13.650315      56.246407      5081.3172    
        84   0             -1774.5415      519.18604     -73300.406      31283.89       43574.074     -1.7205418e-11 -3.7948284e-11 -8.1407374e-12  6.6175168      13.650888      56.24969       5081.3149    
        85   0             -1774.5772      528.28977     -73306.64       31272.557      43618.953     -1.9428116e-12 -9.6271789e-12 -2.7820612e-13  6.6168494      13.651462      56.252976      5081.3126    
        86   0             -1774.6129      537.42186     -73309.889      31261.288      43660.866     -1.2427676e-12 -7.7178275e-12 -1.483378e-11   6.6161821      13.652035      56.256264      5081.3104    
        87   0             -1774.6487      546.581       -73310.149      31250.079      43699.812     -6.827477e-13  -3.1207797e-12  2.1965931e-11  6.6155147      13.652607      56.259555      5081.3081    
        88   0             -1774.6844      555.76587     -73307.42       31238.929      43735.789      1.1639364e-11 -2.7013544e-12 -9.6460572e-12  6.6148474      13.65318       56.262848      5081.306     
        89   0             -1774.7201      564.97518     -73301.7        31227.831      43768.794      2.6061861e-11  1.1893572e-11  1.0075698e-11  6.61418        13.653752      56.266143      5081.3038    
        90   0             -1774.7559      574.20762     -73292.987      31216.784      43798.826     -3.3434582e-12 -1.8263635e-11  1.0513014e-11  6.6135126      13.654324      56.269441      5081.3017    
        91   0             -1774.7916      583.46189     -73281.282      31205.783      43825.885     -6.8306058e-13 -8.887135e-12   2.329996e-11   6.6128453      13.654895      56.272741      5081.2996    
        92   0             -1774.8274      592.73669     -73266.583      31194.825      43849.968      6.0380667e-12 -2.0806826e-12  1.1793454e-11  6.6121779      13.655467      56.276042      5081.2976    
        93   0             -1774.8631      602.03074     -73248.89       31183.906      43871.076     -4.8839717e-12  6.0166435e-12  1.6112729e-11  6.6115106      13.656038      56.279346      5081.2956    
        94   0             -1774.8989      611.34276     -73228.204      31173.023      43889.209      1.9771848e-12  5.4905536e-12 -8.9847039e-12  6.6108432      13.656609      56.282652      5081.2936    
        95   0             -1774.9346      620.67152     -73204.523      31162.172      43904.365      1.1078752e-11  1.93245e-11    1.8863895e-11  6.6101759      13.65718       56.285959      5081.2916    
        96   0             -1774.9704      630.01579     -73177.848      31151.35       43916.545     -5.8643865e-12 -5.3481107e-12 -1.2785277e-12  6.6095085      13.657751      56.289268      5081.2897    
        97   0             -1775.0061      639.37428     -73148.18       31140.553      43925.75      -1.0205253e-11 -1.7058505e-11  1.5354642e-11  6.6088411      13.658322      56.292579      5081.2879    
        98   0             -1775.0419      648.74573     -73115.52       31129.778      43931.979     -6.8360322e-13  9.6324086e-13  2.9589985e-11  6.6081738      13.658893      56.295891      5081.2861    
        99   0             -1775.0776      658.12888     -73079.869      31119.021      43935.235     -2.6360358e-13  8.2454158e-12 -2.6834136e-11  6.6075064      13.659463      56.299204      5081.2843    
       100   0             -1775.1134      667.52248     -73041.228      31108.278      43935.518      5.6173929e-12  1.3431589e-11 -1.3433219e-11  6.6068391      13.660034      56.302519      5081.2826    
       101   0             -1775.1491      676.92526     -72999.6        31097.546      43932.829      1.2338546e-11  1.2444972e-11 -1.9756898e-12  6.6061717      13.660605      56.305835      5081.2809    
       102   0             -1775.1848      686.33599     -72954.986      31086.823      43927.171     -6.4249598e-12 -3.6142517e-11 -8.4446943e-12  6.6055044      13.661176      56.309153      5081.2792    
       103   0             -1775.2205      695.75342     -72907.388      31076.103      43918.545     -1.6786937e-11 -2.781907e-11  -1.6745405e-11  6.604837       13.661747      56.312471      5081.2776    
       104   0             -1775.2562      705.17631     -72856.808      31065.384      43906.953     -5.4403602e-13  1.2899045e-11 -1.259042e-11   6.6041696      13.662318      56.31579       5081.276     
       105   0             -1775.2918      714.60343     -72803.25       31054.662      43892.398     -1.0625966e-11  9.7142629e-12  5.0097628e-12  6.6035023      13.662889      56.319111      5081.2745    
       106   0             -1775.3275      724.03355     -72746.717      31043.934      43874.883      1.4161738e-12  8.3262129e-12  1.1229848e-11  6.6028349      13.66346       56.322432      5081.2731    
       107   0             -1775.3631      733.46541     -72687.211      31033.197      43854.411     -4.1849347e-12 -1.3438133e-11 -1.8096657e-11  6.6021676      13.664032      56.325754      5081.2716    
       108   0             -1775.3987      742.89775     -72624.736      31022.446      43830.984     -4.7451143e-12 -5.6228907e-12  2.5865914e-11  6.6015002      13.664603      56.329076      5081.2703    
       109   0             -1775.4343      752.32935     -72559.296      31011.678      43804.606     -1.5807238e-11 -6.9231949e-12 -1.477976e-11   6.6008329      13.665175      56.332399      5081.2689    
       110   0             -1775.4699      761.75897     -72490.895      31000.89       43775.281      1.975979e-12   5.1098879e-12  2.9495588e-11  6.6001655      13.665747      56.335722      5081.2677    
       111   0             -1775.5054      771.18542     -72419.536      30990.079      43743.014     -1.1046671e-12  1.3448417e-12 -2.534587e-11   6.5994981      13.666319      56.339046      5081.2664    
       112   0             -1775.541       780.60757     -72345.225      30979.24       43707.808     -9.6471579e-13  1.4272302e-11  8.2022441e-12  6.5988308      13.666892      56.34237       5081.2653    
       113   0             -1775.5765      790.02418     -72267.966      30968.371      43669.667     -2.1268566e-11 -2.9214441e-11  7.0521895e-12  6.5981634      13.667465      56.345695      5081.2642    
       114   0             -1775.6119      799.43406     -72187.763      30957.467      43628.598     -2.7852033e-12 -1.0201376e-11 -2.2655274e-12  6.5974961      13.668038      56.349019      5081.2631    
       115   0             -1775.6473      808.83601     -72104.623      30946.526      43584.604      3.795949e-12  -1.1072758e-12  3.4598963e-12  6.5968287      13.668612      56.352343      5081.2621    
       116   0             -1775.6827      818.22885     -72018.55       30935.545      43537.692     -5.8659265e-12 -4.1665051e-12  6.6606368e-12  6.5961614      13.669186      56.355668      5081.2612    
       117   0             -1775.7181      827.6114      -71929.55       30924.518      43487.866     -5.5859492e-12  4.4960514e-12  2.1926965e-11  6.595494       13.66976       56.358992      5081.2603    
       118   0             -1775.7534      836.9825      -71837.63       30913.444      43435.133      1.5023504e-14  3.1024803e-12  3.7526243e-11  6.5948266      13.670335      56.362316      5081.2594    
       119   0             -1775.7887      846.34098     -71742.795      30902.319      43379.499     -2.1829136e-11 -1.4165596e-11  8.7548708e-12  6.5941593      13.67091       56.36564       5081.2587    
       120   0             -1775.8239      855.68567     -71645.052      30891.139      43320.971      6.8761612e-12 -7.8313872e-12 -2.7758875e-12  6.5934919      13.671486      56.368963      5081.258     
       121   0             -1775.8591      865.01542     -71544.408      30879.9        43259.554      4.3488237e-13 -4.1118306e-12  4.8456078e-11  6.5928246      13.672062      56.372286      5081.2573    
       122   0             -1775.8943      874.32908     -71440.87       30868.6        43195.257     -4.6061349e-12 -8.1763944e-12  7.4304204e-12  6.5921572      13.672639      56.375608      5081.2567    
       123   0             -1775.9294      883.6255      -71334.444      30857.235      43128.086     -1.1055513e-12  8.4718456e-12 -8.2194811e-12  6.5914899      13.673216      56.37893       5081.2562    
       124   0             -1775.9645      892.90353     -71225.139      30845.801      43058.048      1.3457108e-11  9.2414984e-12 -1.3233616e-11  6.5908225      13.673794      56.382251      5081.2557    
       125   0             -1775.9995      902.16203     -71112.962      30834.295      42985.153     -1.3428009e-11 -2.931761e-11   4.3553875e-12  6.5901551      13.674372      56.385571      5081.2553    
       126   0             -1776.0345      911.39988     -70997.921      30822.714      42909.406     -4.0463201e-12 -1.4539216e-11  1.1103945e-11  6.5894878      13.674951      56.38889       5081.255     
       127   0             -1776.0694      920.61594     -70880.024      30811.053      42830.818     -4.1864189e-12  2.0797712e-12  1.8196843e-11  6.5888204      13.675531      56.392208      5081.2547    
       128   0             -1776.1043      929.80918     -70759.279      30799.311      42749.396     -7.2670691e-12  4.2441811e-12  2.3444912e-11  6.5881531      13.676111      56.395525      5081.2545    
       129   0             -1776.1392      938.97848     -70635.696      30787.482      42665.15       7.2955951e-12  1.3749981e-11  1.0594256e-11  6.5874857      13.676692      56.39884       5081.2544    
       130   0             -1776.1739      948.12275     -70509.282      30775.563      42578.087      5.8952608e-12  2.3412358e-12  1.8143374e-12  6.5868183      13.677274      56.402155      5081.2543    
       131   0             -1776.2086      957.24086     -70380.048      30763.552      42488.219      2.6745846e-12 -1.770382e-11  -1.1226276e-11  6.586151       13.677857      56.405468      5081.2544    
       132   0             -1776.2433      966.33171     -70248.002      30751.444      42395.553     -1.6663018e-12 -1.6453072e-11 -1.0668169e-11  6.5854836      13.67844       56.40878       5081.2544    
       133   0             -1776.2779      975.3942      -70113.154      30739.236      42300.101      3.5146006e-12 -1.4310469e-11  1.1925594e-11  6.5848163      13.679024      56.41209       5081.2546    
       134   0             -1776.3125      984.42724     -69975.515      30726.924      42201.872      1.0095766e-11  1.5280255e-11 -9.0535872e-12  6.5841489      13.679609      56.415398      5081.2548    
       135   0             -1776.3469      993.42972     -69835.093      30714.505      42100.877      1.2056063e-11 -4.0157203e-12  6.689568e-12   6.5834816      13.680194      56.418705      5081.2551    
       136   0             -1776.3814      1002.4006     -69691.9        30701.976      41997.126      1.9897464e-11 -7.0436643e-12 -1.5974784e-11  6.5828142      13.680781      56.42201       5081.2555    
       137   0             -1776.4157      1011.3387     -69545.947      30689.332      41890.631     -4.8872566e-12 -4.2128023e-12 -2.1592529e-11  6.5821468      13.681368      56.425313      5081.256     
       138   0             -1776.45        1020.243      -69397.243      30676.571      41781.402     -1.2168691e-11 -1.9795589e-11 -2.5923764e-13  6.5814795      13.681956      56.428614      5081.2565    
       139   0             -1776.4842      1029.1123     -69245.801      30663.687      41669.45      -8.3880503e-12  1.5467084e-11  3.6574131e-11  6.5808121      13.682546      56.431913      5081.2571    
       140   0             -1776.5184      1037.9457     -69091.631      30650.679      41554.789      9.2551843e-12  1.1398341e-11  5.3119885e-13  6.5801448      13.683136      56.43521       5081.2578    
       141   0             -1776.5524      1046.7419     -68934.745      30637.542      41437.428      1.9337e-11     3.8688272e-12  1.9017664e-12  6.5794774      13.683727      56.438505      5081.2586    
       142   0             -1776.5865      1055.5        -68775.154      30624.273      41317.382     -1.1328804e-11 -1.0025034e-11  1.398168e-11   6.5788101      13.684319      56.441797      5081.2594    
       143   0             -1776.6204      1064.2189     -68612.872      30610.867      41194.661     -1.3870141e-12 -1.624071e-11  -7.9366155e-12  6.5781427      13.684912      56.445087      5081.2604    
       144   0             -1776.6543      1072.8975     -68447.909      30597.322      41069.28      -1.1070302e-12 -1.1050196e-11  4.5558504e-12  6.5774753      13.685506      56.448374      5081.2614    
       145   0             -1776.688       1081.5349     -68280.279      30583.633      40941.25       6.0342322e-12 -1.4953608e-12  1.6074128e-11  6.576808       13.686102      56.451659      5081.2625    
       146   0             -1776.7218      1090.13       -68109.993      30569.797      40810.586     -9.9288071e-12 -1.0817811e-12  1.779654e-11   6.5761406      13.686698      56.454941      5081.2637    
       147   0             -1776.7554      1098.6816     -67937.065      30555.811      40677.3        1.6396019e-11  4.9157045e-12  6.4374938e-12  6.5754733      13.687296      56.45822       5081.265     
       148   0             -1776.7889      1107.1889     -67761.508      30541.669      40541.406     -2.2671301e-11 -2.997217e-11  -8.3053142e-13  6.5748059      13.687894      56.461496      5081.2664    
       149   0             -1776.8224      1115.6507     -67583.336      30527.369      40402.919     -7.828613e-12  -2.4954886e-11 -7.5751441e-12  6.5741386      13.688494      56.464769      5081.2679    
       150   0             -1776.8558      1124.0659     -67402.561      30512.907      40261.852     -5.0281601e-12 -9.0893663e-12  1.7183098e-12  6.5734712      13.689095      56.468039      5081.2694    
       151   0             -1776.8891      1132.4337     -67219.198      30498.279      40118.22       1.9730672e-12 -9.4809122e-12  7.4973739e-12  6.5728038      13.689698      56.471306      5081.2711    
       152   0             -1776.9223      1140.753      -67033.261      30483.481      39972.039      8.5542121e-12 -1.6524891e-12 -3.7714224e-12  6.5721365      13.690301      56.474569      5081.2728    
       153   0             -1776.9555      1149.0226     -66844.764      30468.51       39823.322      5.8936532e-12  2.5498847e-12 -5.8202222e-12  6.5714691      13.690906      56.477829      5081.2747    
       154   0             -1776.9885      1157.2417     -66653.722      30453.361      39672.086     -1.9311041e-11  8.9086815e-12  9.3929232e-12  6.5708018      13.691513      56.481086      5081.2766    
       155   0             -1777.0215      1165.4093     -66460.149      30438.031      39518.346     -8.5291251e-12 -4.5095756e-12 -9.5012891e-12  6.5701344      13.69212       56.484339      5081.2786    
       156   0             -1777.0543      1173.5243     -66264.06       30422.515      39362.118     -6.2887782e-12  9.2127853e-12  1.8060843e-11  6.5694671      13.692729      56.487589      5081.2808    
       157   0             -1777.0871      1181.5856     -66065.471      30406.811      39203.417      8.1337871e-12 -7.387398e-12   2.1580137e-12  6.5687997      13.69334       56.490834      5081.283     
       158   0             -1777.1198      1189.5924     -65864.397      30390.913      39042.261     -5.3087259e-12  4.3991229e-12 -1.0478979e-11  6.5681323      13.693951      56.494076      5081.2853    
       159   0             -1777.1524      1197.5437     -65660.853      30374.819      38878.665      1.2054359e-11  7.5902468e-12  1.4271643e-11  6.567465       13.694565      56.497314      5081.2878    
       160   0             -1777.1849      1205.4383     -65454.855      30358.524      38712.646     -9.7896615e-12 -1.6045421e-11  1.7415662e-12  6.5667976      13.695179      56.500547      5081.2903    
       161   0             -1777.2173      1213.2756     -65246.419      30342.023      38544.223     -2.4772422e-11 -1.2019622e-11  2.279033e-11   6.5661303      13.695796      56.503777      5081.293     
       162   0             -1777.2496      1221.0544     -65035.561      30325.314      38373.411     -9.6497558e-12  1.1585471e-13 -4.7498966e-12  6.5654629      13.696413      56.507002      5081.2957    
       163   0             -1777.2818      1228.7738     -64822.298      30308.391      38200.228      9.9536977e-12 -1.4823861e-13  1.8412099e-12  6.5647956      13.697033      56.510223      5081.2986    
       164   0             -1777.3139      1236.4328     -64606.646      30291.252      38024.693      1.0093653e-11  1.5754819e-11  4.5852654e-12  6.5641282      13.697654      56.513439      5081.3016    
       165   0             -1777.3459      1244.0305     -64388.623      30273.891      37846.823      1.7514903e-11  2.4144451e-11 -1.0617157e-11  6.5634608      13.698276      56.516651      5081.3047    
       166   0             -1777.3778      1251.5659     -64168.244      30256.305      37666.637      2.532171e-12  -2.3113226e-12 -1.0989189e-11  6.5627935      13.6989        56.519858      5081.3079    
       167   0             -1777.4096      1259.0381     -63945.528      30238.489      37484.153      1.1318583e-12 -1.6010858e-12 -9.7802984e-12  6.5621261      13.699526      56.52306       5081.3112    
       168   0             -1777.4413      1266.4459     -63720.492      30220.44       37299.389      3.5122132e-12  3.7931984e-13  2.2383542e-11  6.5614588      13.700154      56.526257      5081.3146    
       169   0             -1777.4729      1273.7886     -63493.153      30202.153      37112.366      5.8925648e-12  1.4748029e-11  1.7236851e-11  6.5607914      13.700783      56.529449      5081.3182    
       170   0             -1777.5044      1281.0651     -63263.53       30183.623      36923.102      3.7257974e-11 -1.3802526e-11  6.5778928e-12  6.5601241      13.701415      56.532636      5081.3218    
       171   0             -1777.5357      1288.2743     -63031.64       30164.846      36731.617     -1.861183e-11  -1.0933892e-11  3.0740603e-12  6.5594567      13.702048      56.535818      5081.3256    
       172   0             -1777.567       1295.4154     -62797.502      30145.819      36537.93      -5.0295277e-12 -2.0567399e-11  1.1433653e-11  6.5587893      13.702682      56.538995      5081.3295    
       173   0             -1777.5981      1302.4875     -62561.135      30126.536      36342.061     -2.8553639e-11  4.3879964e-12  1.799316e-11   6.558122       13.703319      56.542166      5081.3335    
       174   0             -1777.6292      1309.4895     -62322.557      30106.994      36144.031      1.7934294e-11 -4.4523554e-12 -4.0197286e-12  6.5574546      13.703958      56.545331      5081.3377    
       175   0             -1777.6601      1316.4205     -62081.786      30087.187      35943.861      3.0396344e-11  7.0856119e-12 -1.252365e-11   6.5567873      13.704598      56.548491      5081.342     
       176   0             -1777.6909      1323.2797     -61838.843      30067.112      35741.57       6.0321191e-12  1.389468e-11   1.4450922e-11  6.5561199      13.705241      56.551645      5081.3464    
       177   0             -1777.7216      1330.0659     -61593.746      30046.764      35537.18      -2.6901207e-13 -1.1690805e-11  4.1799332e-12  6.5554525      13.705885      56.554793      5081.3509    
       178   0             -1777.7522      1336.7785     -61346.514      30026.138      35330.711      8.5111525e-13 -3.8563262e-13  1.0618192e-11  6.5547852      13.706532      56.557935      5081.3555    
       179   0             -1777.7827      1343.4164     -61097.167      30005.229      35122.187     -7.1302799e-12  7.0508095e-12  7.3227641e-12  6.5541178      13.70718       56.561071      5081.3603    
       180   0             -1777.813       1349.9788     -60845.724      29984.034      34911.627      1.5087523e-13 -1.1401516e-11  7.0701762e-12  6.5534505      13.707831      56.5642        5081.3653    
       181   0             -1777.8433      1356.4647     -60592.207      29962.547      34699.054     -6.7103181e-12  1.4956199e-11  8.3170309e-12  6.5527831      13.708484      56.567323      5081.3703    
       182   0             -1777.8734      1362.8731     -60336.635      29940.764      34484.49       2.6615095e-11  1.1726892e-11 -1.902674e-11   6.5521158      13.709139      56.57044       5081.3755    
       183   0             -1777.9034      1369.2031     -60079.028      29918.679      34267.958     -3.7699454e-12 -3.5107338e-11  1.9503101e-11  6.5514484      13.709796      56.57355       5081.3809    
       184   0             -1777.9332      1375.4538     -59819.408      29896.289      34049.48      -4.8901827e-12  3.0505817e-12 -1.2162848e-11  6.550781       13.710455      56.576653      5081.3863    
       185   0             -1777.963       1381.6243     -59557.794      29873.588      33829.079      5.0513617e-12  2.5837353e-12  5.3020673e-12  6.5501137      13.711117      56.579749      5081.392     
       186   0             -1777.9926      1387.7136     -59294.208      29850.571      33606.777      2.110827e-12  -1.6418835e-11 -7.6874474e-12  6.5494463      13.711781      56.582838      5081.3977    
       187   0             -1778.0221      1393.7209     -59028.67       29827.234      33382.599      3.3709651e-12  7.2702304e-12 -4.0029868e-12  6.548779       13.712447      56.585921      5081.4036    
       188   0             -1778.0515      1399.6453     -58761.203      29803.572      33156.568      1.219229e-11   4.8246633e-12  1.3514056e-11  6.5481116      13.713116      56.588995      5081.4097    
       189   0             -1778.0808      1405.4858     -58491.828      29779.578      32928.707     -1.8892636e-11 -1.0355952e-11 -6.6682408e-12  6.5474443      13.713787      56.592063      5081.4159    
       190   0             -1778.1099      1411.2415     -58220.566      29755.25       32699.041     -2.4213495e-11  9.4864508e-13 -4.3194293e-12  6.5467769      13.714461      56.595123      5081.4223    
       191   0             -1778.1389      1416.9116     -57947.44       29730.581      32467.594      1.0197632e-14 -6.7952736e-12 -2.0463537e-12  6.5461095      13.715137      56.598175      5081.4288    
       192   0             -1778.1678      1422.4951     -57672.47       29705.566      32234.39       4.4908218e-12  7.7001651e-13  1.4135754e-11  6.5454422      13.715815      56.60122       5081.4354    
       193   0             -1778.1965      1427.9912     -57395.68       29680.2        31999.454     -4.1905524e-12  3.0319275e-13  4.0853936e-12  6.5447748      13.716496      56.604256      5081.4422    
       194   0             -1778.2251      1433.399      -57117.091      29654.477      31762.811     -5.3107717e-12  1.4725222e-11  1.3818679e-11  6.5441075      13.71718       56.607285      5081.4492    
       195   0             -1778.2536      1438.7177     -56836.727      29628.394      31524.486     -2.8134203e-11 -1.3060796e-11 -2.2640265e-11  6.5434401      13.717866      56.610305      5081.4563    
       196   0             -1778.282       1443.9464     -56554.608      29601.943      31284.504     -5.7309329e-12  2.2078718e-12  2.1200521e-11  6.5427728      13.718556      56.613317      5081.4636    
       197   0             -1778.3102      1449.0841     -56270.759      29575.12       31042.892      8.4110726e-12  2.8863798e-12 -8.2241527e-12  6.5421054      13.719247      56.616321      5081.4711    
       198   0             -1778.3383      1454.1301     -55985.203      29547.919      30799.675      6.3107013e-12  1.2003838e-12  1.0755851e-11  6.541438       13.719942      56.619315      5081.4787    
       199   0             -1778.3663      1459.0834     -55697.962      29520.335      30554.878      1.1071312e-11 -1.158181e-11  -4.1003156e-12  6.5407707      13.720639      56.622301      5081.4865    
       200   0             -1778.3941      1463.9432     -55409.061      29492.361      30308.529      1.4098799e-12 -1.4353715e-11 -4.3825113e-12  6.5401033      13.721339      56.625279      5081.4945    
       201   0             -1778.4218      1468.7084     -55118.522      29463.994      30060.653      9.9510092e-12 -1.9003129e-11  2.9345431e-11  6.539436       13.722042      56.628247      5081.5026    
       202   0             -1778.4494      1473.3782     -54826.369      29435.225      29811.278      5.75036e-12   -9.5618745e-13 -1.4353796e-11  6.5387686      13.722748      56.631206      5081.5109    
       203   0             -1778.4768      1477.9517     -54532.626      29406.051      29560.43       4.4901238e-12  4.7135705e-12 -1.5533092e-11  6.5381013      13.723457      56.634155      5081.5194    
       204   0             -1778.5041      1482.4281     -54237.317      29376.464      29308.137      3.6499482e-12  3.5753132e-11 -6.2558098e-12  6.5374339      13.724169      56.637095      5081.5281    
       205   0             -1778.5312      1486.8064     -53940.466      29346.46       29054.426     -9.7072444e-13  5.1399557e-11 -1.2593046e-11  6.5367665      13.724884      56.640025      5081.5369    
       206   0             -1778.5582      1491.0858     -53642.098      29316.031      28799.324     -5.8714171e-12 -1.0950566e-11 -9.68682e-12    6.5360992      13.725602      56.642946      5081.5459    
       207   0             -1778.5851      1495.2655     -53342.236      29285.173      28542.86       6.3101068e-12 -9.9294229e-12 -6.8295808e-12  6.5354318      13.726323      56.645856      5081.5551    
       208   0             -1778.6119      1499.3444     -53040.907      29253.878      28285.061     -4.471327e-12   6.7293371e-12  4.5625179e-11  6.5347645      13.727047      56.648757      5081.5645    
       209   0             -1778.6385      1503.3217     -52738.133      29222.142      28025.957     -2.9311802e-12 -4.6132647e-12 -2.5045763e-11  6.5340971      13.727775      56.651647      5081.5741    
       210   0             -1778.6649      1507.1966     -52433.941      29189.956      27765.574      5.7498399e-12  1.5030466e-11  1.6492537e-11  6.5334298      13.728505      56.654526      5081.5839    
       211   0             -1778.6913      1510.9684     -52128.355      29157.316      27503.943     -3.631361e-12  -2.2256291e-11  2.0494439e-11  6.5327624      13.72924       56.657395      5081.5938    
       212   0             -1778.7174      1514.636      -51821.399      29124.215      27241.092     -4.4715073e-12  4.1687272e-12 -2.8104004e-12  6.532095       13.729977      56.660253      5081.604     
       213   0             -1778.7435      1518.1988     -51513.101      29090.646      26977.051      4.0694485e-12 -6.5474401e-12  1.4532943e-11  6.5314277      13.730718      56.663101      5081.6143    
       214   0             -1778.7694      1521.6557     -51203.484      29056.603      26711.849     -1.1052352e-11 -5.7049653e-12  1.4039416e-11  6.5307603      13.731462      56.665937      5081.6249    
       215   0             -1778.7952      1525.006      -50892.575      29022.078      26445.515     -1.2452539e-11  2.0007508e-12 -1.7318462e-11  6.530093       13.73221       56.668761      5081.6356    
       216   0             -1778.8208      1528.2488     -50580.4        28987.067      26178.08       2.101114e-11   1.2806659e-11  9.696544e-12   6.5294256      13.732962      56.671574      5081.6466    
       217   0             -1778.8463      1531.3832     -50266.984      28951.561      25909.573     -4.7517536e-12 -6.1103067e-12 -2.4995766e-12  6.5287582      13.733717      56.674376      5081.6578    
       218   0             -1778.8716      1534.4082     -49952.354      28915.553      25640.025      1.4872591e-13  9.0971302e-12 -5.4019299e-12  6.5280909      13.734475      56.677165      5081.6691    
       219   0             -1778.8968      1537.3231     -49636.535      28879.038      25369.467      1.1349839e-11 -1.0145816e-11 -1.4270483e-12  6.5274235      13.735238      56.679943      5081.6807    
       220   0             -1778.9219      1540.127      -49319.555      28842.007      25097.929      4.7690919e-12  1.4279385e-12  1.1806423e-11  6.5267562      13.736004      56.682708      5081.6925    
       221   0             -1778.9468      1542.819      -49001.44       28804.454      24825.443      6.7292241e-12  9.7830215e-12 -5.2331355e-12  6.5260888      13.736774      56.685461      5081.7045    
       222   0             -1778.9715      1545.3984     -48682.216      28766.371      24552.04      -2.6874099e-11 -2.1596402e-11  2.3771064e-12  6.5254215      13.737548      56.688201      5081.7168    
       223   0             -1778.9962      1547.8641     -48361.91       28727.751      24277.751     -1.2516641e-12 -4.8368826e-12 -7.1509731e-12  6.5247541      13.738325      56.690929      5081.7292    
       224   0             -1779.0207      1550.2155     -48040.549      28688.587      24002.608     -1.1052613e-11 -8.685957e-12   1.5085839e-11  6.5240867      13.739107      56.693643      5081.7419    
       225   0             -1779.045       1552.4515     -47718.161      28648.872      23726.644      2.367047e-11  -2.2913266e-12  2.3967416e-11  6.5234194      13.739893      56.696344      5081.7548    
       226   0             -1779.0692      1554.5715     -47394.772      28608.597      23449.889      2.4230408e-11 -3.8344178e-12 -7.9466079e-12  6.522752       13.740683      56.699032      5081.7679    
       227   0             -1779.0933      1556.5746     -47070.41       28567.756      23172.378     -3.4920403e-12 -1.0000265e-11 -2.3456448e-12  6.5220847      13.741477      56.701706      5081.7812    
       228   0             -1779.1172      1558.4601     -46745.102      28526.339      22894.142     -1.1612743e-11  8.1693964e-12 -1.2472934e-11  6.5214173      13.742275      56.704367      5081.7948    
       229   0             -1779.1409      1560.227      -46418.875      28484.341      22615.215      1.5129348e-11  6.6756622e-12 -7.2658468e-13  6.52075        13.743077      56.707013      5081.8087    
       230   0             -1779.1646      1561.8746     -46091.757      28441.751      22335.63      -2.1413523e-11 -4.3342476e-12  2.0210645e-12  6.5200826      13.743884      56.709645      5081.8227    
       231   0             -1779.188       1563.402      -45763.777      28398.563      22055.42      -2.5121266e-12 -1.0450308e-11  1.5877804e-11  6.5194152      13.744695      56.712262      5081.837     
       232   0             -1779.2114      1564.8083     -45434.962      28354.769      21774.618     -3.2194257e-11 -1.6524408e-11 -1.2413337e-11  6.5187479      13.745511      56.714865      5081.8516    
       233   0             -1779.2346      1566.0927     -45105.34       28310.359      21493.26       1.1348726e-11  3.9651203e-12 -3.1128872e-11  6.5180805      13.746331      56.717453      5081.8663    
       234   0             -1779.2576      1567.2543     -44774.941      28265.326      21211.378     -1.8753297e-11  5.6718607e-12  5.0694459e-11  6.5174132      13.747156      56.720026      5081.8814    
       235   0             -1779.2805      1568.2923     -44443.791      28219.661      20929.007     -4.6124187e-12  1.557933e-12   3.3977394e-12  6.5167458      13.747985      56.722583      5081.8967    
       236   0             -1779.3033      1569.2059     -44111.92       28173.355      20646.183      2.142907e-11  -1.6721951e-11  9.2364261e-12  6.5160785      13.748819      56.725125      5081.9122    
       237   0             -1779.3259      1569.9942     -43779.357      28126.4        20362.939      1.0088329e-11  1.0966495e-11 -3.551697e-12   6.5154111      13.749658      56.727651      5081.928     
       238   0             -1779.3484      1570.6564     -43446.129      28078.787      20079.312     -1.3993007e-11 -2.3720682e-11 -1.718621e-12   6.5147437      13.750501      56.730161      5081.9441    
       239   0             -1779.3707      1571.1917     -43112.268      28030.507      19795.336     -5.5925972e-12 -1.7506352e-11 -6.5057379e-12  6.5140764      13.75135       56.732654      5081.9604    
       240   0             -1779.3929      1571.5992     -42777.8        27981.55       19511.047      1.0648117e-11  4.6306657e-12  1.248747e-11   6.513409       13.752203      56.735131      5081.977     
       241   0             -1779.415       1571.8781     -42442.756      27931.909      19226.482      1.288813e-11   7.1803886e-12  1.156926e-12   6.5127417      13.753062      56.737591      5081.9938    
       242   0             -1779.4369      1572.0275     -42107.165      27881.572      18941.675     -1.8125327e-12  6.1996839e-12  5.0774051e-12  6.5120743      13.753925      56.740034      5082.0109    
       243   0             -1779.4586      1572.0468     -41771.056      27830.531      18656.665     -2.5893429e-11 -1.9474402e-11  2.8301289e-11  6.511407       13.754794      56.742459      5082.0283    
       244   0             -1779.4803      1571.9352     -41434.459      27778.777      18371.487     -9.5128587e-12 -3.8813217e-12  4.3881915e-12  6.5107396      13.755668      56.744867      5082.046     
       245   0             -1779.5017      1571.692      -41097.403      27726.299      18086.179     -1.2592958e-11 -1.0199937e-11  2.6325724e-12  6.5100722      13.756547      56.747257      5082.0639    
       246   0             -1779.5231      1571.3162     -40759.918      27673.088      17800.778     -5.0327691e-12  1.6750933e-12  2.0717537e-11  6.5094049      13.757432      56.749629      5082.0822    
       247   0             -1779.5443      1570.8072     -40422.034      27619.134      17515.322      9.6675186e-12  7.9135211e-12  1.3672287e-11  6.5087375      13.758322      56.751983      5082.1007    
       248   0             -1779.5653      1570.1641     -40083.782      27564.426      17229.848      3.2207837e-11  4.9631492e-12 -1.1769679e-11  6.5080702      13.759218      56.754317      5082.1195    
       249   0             -1779.5862      1569.3861     -39745.191      27508.955      16944.394     -2.0433061e-11 -1.3056959e-11  6.0044075e-11  6.5074028      13.760119      56.756633      5082.1386    
       250   0             -1779.607       1568.4725     -39406.292      27452.71       16658.999     -1.4412966e-11  7.5461655e-12  4.1763131e-12  6.5067355      13.761026      56.75893       5082.158     
       251   0             -1779.6277      1567.4223     -39067.116      27395.681      16373.702     -9.9329259e-12 -3.9843385e-13 -7.3165872e-12  6.5060681      13.761939      56.761206      5082.1776    
       252   0             -1779.6482      1566.2349     -38727.693      27337.856      16088.542      1.5967129e-11  1.6110873e-11  2.7670577e-11  6.5054007      13.762857      56.763463      5082.1976    
       253   0             -1779.6685      1564.9095     -38388.053      27279.225      15803.557      1.5827022e-11  5.9551882e-12  3.731472e-11   6.5047334      13.763782      56.7657        5082.2179    
       254   0             -1779.6887      1563.4453     -38048.229      27219.777      15518.788      1.4700565e-13 -1.0893715e-11  3.8828233e-12  6.504066       13.764712      56.767916      5082.2385    
       255   0             -1779.7088      1561.8416     -37708.25       27159.501      15234.274     -9.2329451e-12  4.6031425e-12  2.7887638e-11  6.5033987      13.765649      56.770112      5082.2594    
       256   0             -1779.7288      1560.0977     -37368.149      27098.386      14950.056      1.1066766e-11  1.1369308e-11 -3.6079631e-12  6.5027313      13.766592      56.772286      5082.2806    
       257   0             -1779.7486      1558.2127     -37027.956      27036.42       14666.174      1.8626539e-11  1.459533e-12   6.6660106e-12  6.5020639      13.767541      56.774439      5082.3021    
       258   0             -1779.7683      1556.1859     -36687.703      26973.592      14382.668      6.8666827e-12 -1.2836019e-12  3.3559975e-11  6.5013966      13.768497      56.77657       5082.3239    
       259   0             -1779.7878      1554.0168     -36347.421      26909.89       14099.581     -2.5192526e-11 -8.3426491e-12  6.5097299e-12  6.5007292      13.769459      56.778679      5082.346     
       260   0             -1779.8072      1551.7045     -36007.142      26845.302      13816.953     -5.8730612e-12 -1.6153647e-11 -1.7140278e-11  6.5000619      13.770427      56.780766      5082.3685    
       261   0             -1779.8265      1549.2486     -35666.897      26779.816      13534.826     -9.9329305e-12 -1.2114585e-11  1.1651977e-11  6.4993945      13.771402      56.782829      5082.3913    
       262   0             -1779.8456      1546.6483     -35326.718      26713.42       13253.243      4.7664806e-12 -8.491949e-12   4.0923928e-11  6.4987272      13.772384      56.78487       5082.4144    
       263   0             -1779.8646      1543.9027     -34986.638      26646.101      12972.245     -4.3331726e-12  2.5341526e-11  3.4095392e-12  6.4980598      13.773373      56.786887      5082.4379    
       264   0             -1779.8835      1541.0113     -34646.689      26577.848      12691.875     -3.1491844e-11 -6.3748107e-12  8.5171718e-12  6.4973924      13.774369      56.78888       5082.4616    
       265   0             -1779.9022      1537.9735     -34306.903      26508.646      12412.177     -1.2312778e-11  3.9584654e-12  1.847216e-11   6.4967251      13.775371      56.790849      5082.4858    
       266   0             -1779.9209      1534.7884     -33967.312      26438.483      12133.194      7.1460894e-12  9.4225351e-12 -9.088185e-12   6.4960577      13.776381      56.792794      5082.5102    
       267   0             -1779.9393      1531.4556     -33627.949      26367.347      11854.969     -4.6132312e-12  8.1539596e-12  6.882742e-12   6.4953904      13.777398      56.794713      5082.535     
       268   0             -1779.9577      1527.9743     -33288.847      26295.223      11577.547      1.7085254e-11 -1.0364459e-12 -3.5635051e-12  6.494723       13.778422      56.796608      5082.5601    
       269   0             -1779.9759      1524.3441     -32950.039      26222.099      11300.972      1.2745451e-11 -1.0548907e-12 -4.714143e-12   6.4940557      13.779454      56.798476      5082.5856    
       270   0             -1779.994       1520.5642     -32611.557      26147.961      11025.289     -1.091278e-11  -2.3865234e-11  3.7441957e-12  6.4933883      13.780493      56.800318      5082.6115    
       271   0             -1780.012       1516.634      -32273.436      26072.796      10750.542     -6.8531043e-12 -1.1550348e-11  2.0123468e-11  6.4927209      13.78154       56.802134      5082.6377    
       272   0             -1780.0299      1512.5531     -31935.707      25996.588      10476.779     -6.9365797e-13 -2.5650718e-13  1.6935952e-11  6.4920536      13.782595      56.803923      5082.6642    
       273   0             -1780.0476      1508.3207     -31598.405      25919.324      10204.043      4.4858168e-12 -1.4574653e-12  7.8355641e-13  6.4913862      13.783657      56.805684      5082.6911    
       274   0             -1780.0652      1503.9365     -31261.563      25840.99       9932.3828      2.8563343e-11  8.9697269e-12  4.1343702e-12  6.4907189      13.784728      56.807418      5082.7184    
       275   0             -1780.0827      1499.3999     -30925.215      25761.571      9661.8434     -2.0936116e-12  4.1216118e-12  2.0058897e-11  6.4900515      13.785806      56.809124      5082.746     
       276   0             -1780.1         1494.7105     -30589.394      25681.053      9392.4723      1.4144559e-11 -2.883575e-12   8.1862384e-12  6.4893842      13.786893      56.8108        5082.774     
       277   0             -1780.1173      1489.868      -30254.133      25599.421      9124.3167     -1.0912633e-11 -7.6913855e-12 -1.3976446e-11  6.4887168      13.787988      56.812448      5082.8024    
       278   0             -1780.1344      1484.8718     -29919.468      25516.659      8857.4245      1.2464532e-11 -2.7883592e-12  2.7417753e-11  6.4880494      13.789091      56.814066      5082.8311    
       279   0             -1780.1514      1479.7217     -29585.431      25432.753      8591.8438      6.0252492e-12  1.034776e-11  -9.7306291e-12  6.4873821      13.790203      56.815655      5082.8602    
       280   0             -1780.1683      1474.4171     -29252.058      25347.686      8327.6231      2.6042498e-11  2.1185117e-12  4.4990636e-12  6.4867147      13.791324      56.817213      5082.8897    
       281   0             -1780.185       1468.9577     -28919.382      25261.444      8064.8112     -5.8732298e-12 -3.2811274e-12  3.130862e-13   6.4860474      13.792453      56.81874       5082.9195    
       282   0             -1780.2017      1463.3432     -28587.439      25174.011      7803.4573      2.8587235e-13  3.8251402e-12  4.3164689e-12  6.48538        13.793592      56.820235      5082.9498    
       283   0             -1780.2182      1457.5732     -28256.262      25085.37       7543.6112      7.0577184e-13  7.0047324e-12 -1.4586977e-12  6.4847127      13.794739      56.821699      5082.9804    
       284   0             -1780.2346      1451.6474     -27925.886      24995.506      7285.3227      1.5403413e-11 -1.226381e-14   7.3629877e-12  6.4840453      13.795895      56.82313       5083.0114    
       285   0             -1780.251       1445.5656     -27596.347      24904.401      7028.6424      2.7021378e-11  9.598159e-12   7.8006531e-12  6.4833779      13.797061      56.824529      5083.0428    
       286   0             -1780.2672      1439.3276     -27267.679      24812.041      6773.6211     -2.3370246e-11  1.2446025e-12 -1.2671852e-11  6.4827106      13.798236      56.825894      5083.0746    
       287   0             -1780.2833      1432.9333     -26939.917      24718.407      6520.3099     -2.01507e-11   -1.2915385e-11 -6.0243564e-12  6.4820432      13.799421      56.827225      5083.1067    
       288   0             -1780.2992      1426.3824     -26613.096      24623.483      6268.7605     -9.7925003e-12  6.8782046e-12  1.990507e-11   6.4813759      13.800615      56.828522      5083.1393    
       289   0             -1780.3151      1419.6748     -26287.253      24527.252      6019.0247      8.4551415e-13  6.703809e-12   2.2110133e-11  6.4807085      13.801819      56.829785      5083.1722    
       290   0             -1780.3309      1412.8106     -25962.421      24429.697      5771.155       1.6522402e-11  9.5268287e-12 -2.0585653e-11  6.4800412      13.803033      56.831011      5083.2056    
       291   0             -1780.3466      1405.7897     -25638.636      24330.801      5525.2041     -1.5951159e-11 -1.0991046e-11  6.1064166e-12  6.4793738      13.804257      56.832202      5083.2393    
       292   0             -1780.3621      1398.6122     -25315.934      24230.545      5281.2251     -4.7534288e-12 -4.0126673e-12  3.6189506e-11  6.4787064      13.805491      56.833356      5083.2735    
       293   0             -1780.3776      1391.2782     -24994.35       24128.913      5039.2714     -1.0212249e-11  3.7418596e-12 -7.6636229e-12  6.4780391      13.806736      56.834474      5083.308     
       294   0             -1780.393       1383.7879     -24673.919      24025.886      4799.3967     -1.4691211e-11 -1.1234905e-11  2.1421016e-12  6.4773717      13.807991      56.835553      5083.3429    
       295   0             -1780.4082      1376.1413     -24354.677      23921.446      4561.6551      7.9836436e-12  6.8457502e-12 -3.3603842e-11  6.4767044      13.809257      56.836595      5083.3783    
       296   0             -1780.4234      1368.3389     -24036.661      23815.576      4326.1014     -2.0569675e-11 -1.2861497e-11 -2.8132864e-11  6.476037       13.810533      56.837597      5083.414     
       297   0             -1780.4384      1360.3807     -23719.904      23708.256      4092.7902     -3.2137978e-12 -1.4676939e-11  1.2543275e-11  6.4753697      13.811821      56.838561      5083.4501    
       298   0             -1780.4534      1352.2673     -23404.444      23599.469      3861.7767      9.6629579e-12 -4.4373185e-12 -1.4554781e-11  6.4747023      13.813119      56.839484      5083.4867    
       299   0             -1780.4683      1343.9989     -23090.317      23489.197      3633.1166     -1.2731351e-11  4.5839547e-12  2.7744051e-11  6.4740349      13.814429      56.840367      5083.5236    
       300   0             -1780.4831      1335.576      -22777.557      23377.419      3406.8654      3.6443567e-12  1.2983012e-11 -6.9018608e-12  6.4733676      13.81575       56.841209      5083.561     
       301   0             -1780.4977      1326.9993     -22466.201      23264.119      3183.0795      1.6940664e-11  8.0652658e-12  1.3107361e-11  6.4727002      13.817082      56.84201       5083.5987    
       302   0             -1780.5123      1318.2691     -22156.284      23149.276      2961.815      -1.2591197e-11 -6.6958577e-12  2.672052e-12   6.4720329      13.818426      56.842768      5083.6369    
       303   0             -1780.5269      1309.3863     -21847.842      23032.873      2743.1287     -1.5670242e-11 -6.2229461e-12 -4.8013366e-11  6.4713655      13.819782      56.843483      5083.6754    
       304   0             -1780.5412      1300.4048     -21542.723      22915.585      2528.3526     -6.7128041e-12 -4.2341914e-12  4.3475021e-11  6.4707021      13.821142      56.84415       5083.7142    
       305   0             -1780.5553      1291.3535     -21241.781      22797.754      2318.0874     -9.6518885e-12 -1.4287766e-11  1.701466e-13   6.4700444      13.822502      56.844769      5083.7529    
       306   0             -1780.5692      1282.236      -20944.973      22679.388      2112.2927     -5.5467524e-13  3.4395006e-13 -1.2334808e-11  6.4693925      13.823862      56.845339      5083.7918    
       307   0             -1780.5829      1273.056      -20652.256      22560.496      1910.9279     -2.7426126e-11 -1.6148737e-11  3.5560746e-11  6.4687462      13.825222      56.845861      5083.8306    
       308   0             -1780.5965      1263.8169     -20363.586      22441.085      1713.9517      1.6845477e-12  1.718478e-12   5.2994607e-12  6.4681055      13.826582      56.846336      5083.8695    
       309   0             -1780.6098      1254.5222     -20078.921      22321.166      1521.322       1.3020718e-11  1.8450531e-11  7.4461461e-13  6.4674702      13.827942      56.846764      5083.9084    
       310   0             -1780.6229      1245.1755     -19798.215      22200.745      1332.9968     -1.0351414e-11 -6.5016201e-12  4.3055014e-11  6.4668403      13.829301      56.847147      5083.9474    
       311   0             -1780.6359      1235.7801     -19521.423      22079.831      1148.9332      2.1042849e-12  1.3402092e-12  3.425583e-11   6.4662157      13.830661      56.847483      5083.9864    
       312   0             -1780.6487      1226.3391     -19248.502      21958.432      969.08802     -1.9028205e-11 -7.2229361e-12 -3.6226698e-11  6.4655963      13.832021      56.847775      5084.0253    
       313   0             -1780.6613      1216.8558     -18979.406      21836.556      793.4179      -1.9543152e-12 -7.1663918e-12  6.5815039e-12  6.4649822      13.833381      56.848023      5084.0643    
       314   0             -1780.6737      1207.3332     -18714.09       21714.211      621.87906     -4.3334374e-12  8.7332426e-12  5.7465084e-12  6.4643731      13.834741      56.848227      5084.1033    
       315   0             -1780.686       1197.7745     -18452.509      21591.405      454.42751      1.5678961e-11  1.8460058e-12 -6.4607977e-13  6.463769       13.836101      56.848387      5084.1422    
       316   0             -1780.6981      1188.1826     -18194.617      21468.146      291.01904      8.4016413e-12  8.5256005e-12 -8.9347748e-12  6.4631699      13.837461      56.848505      5084.1812    
       317   0             -1780.7101      1178.5605     -17940.369      21344.442      131.60922      7.1420527e-12  1.5746788e-11  2.4859347e-11  6.4625756      13.83882       56.848582      5084.2201    
       318   0             -1780.7219      1168.9111     -17689.719      21220.299     -23.846501     -7.2722105e-12  1.2373104e-11 -2.6916163e-11  6.4619861      13.84018       56.848616      5084.259     
       319   0             -1780.7335      1159.237      -17442.622      21095.726     -175.39285     -1.7767863e-11 -2.5578662e-12 -2.2361357e-11  6.4614014      13.84154       56.84861       5084.2979    
       320   0             -1780.745       1149.5411     -17199.033      20970.73      -323.07464     -6.4324939e-12 -3.8280337e-12  3.0516101e-12  6.4608213      13.8429        56.848563      5084.3367    
       321   0             -1780.7564      1139.8261     -16958.904      20845.319     -466.93676      1.7497334e-11  9.508291e-12   2.6435607e-11  6.4602458      13.84426       56.848477      5084.3755    
       322   0             -1780.7676      1130.0946     -16722.192      20719.5       -607.02416     -2.2105637e-11 -2.028245e-11  -1.3738102e-11  6.4596748      13.84562       56.848351      5084.4142    
       323   0             -1780.7787      1120.3493     -16488.849      20593.279     -743.38183      9.5205487e-12 -6.5639772e-12  2.8619553e-11  6.4591082      13.84698       56.848186      5084.4529    
       324   0             -1780.7896      1110.5927     -16258.832      20466.665     -876.05473      3.7830332e-12  7.2351884e-12  3.448139e-12   6.458546       13.848339      56.847984      5084.4915    
       325   0             -1780.8004      1100.8273     -16032.095      20339.664     -1005.0878     -2.2342671e-12 -3.623033e-12  -2.3465534e-11  6.4579882      13.849699      56.847743      5084.5301    
       326   0             -1780.8111      1091.0556     -15808.591      20212.284     -1130.5261      3.9228725e-12  2.5758979e-11 -5.1032559e-12  6.4574346      13.851059      56.847466      5084.5686    
       327   0             -1780.8216      1081.2799     -15588.277      20084.531     -1252.4144      2.7431733e-11  2.6674915e-12  5.2256596e-13  6.4568851      13.852419      56.847151      5084.607     
       328   0             -1780.832       1071.5025     -15371.107      19956.412     -1370.7975      9.3801604e-12  1.2779812e-12  2.5583675e-11  6.4563398      13.853779      56.846801      5084.6453    
       329   0             -1780.8423      1061.726      -15157.036      19827.934     -1485.7202      3.9227288e-12 -7.6886005e-12 -2.5712482e-11  6.4557985      13.855139      56.846415      5084.6835    
       330   0             -1780.8525      1051.9524     -14946.02       19699.104     -1597.2271     -1.7206873e-11 -6.6948153e-12 -2.6521264e-12  6.4552612      13.856499      56.845994      5084.7217    
       331   0             -1780.8626      1042.1839     -14738.014      19569.928     -1705.3627     -2.9380652e-11 -1.2920547e-11 -4.7729172e-12  6.4547278      13.857859      56.845538      5084.7598    
       332   0             -1780.8725      1032.4226     -14532.974      19440.413     -1810.1712     -2.0005224e-11 -6.4804494e-12  1.2904053e-11  6.4541983      13.859218      56.845049      5084.7977    
       333   0             -1780.8823      1022.6707     -14330.857      19310.566     -1911.6971     -2.7528782e-13  1.0203789e-11  3.2854584e-11  6.4536725      13.860578      56.844525      5084.8356    
       334   0             -1780.8921      1012.9301     -14131.617      19180.392     -2009.9841      1.6935676e-11  2.670522e-11   2.2497582e-12  6.4531505      13.861938      56.843969      5084.8734    
       335   0             -1780.9017      1003.2028     -13935.213      19049.898     -2105.0764     -2.0943491e-12 -1.5916539e-12  9.2919353e-13  6.4526322      13.863298      56.843379      5084.911     
       336   0             -1780.9112      993.4907      -13741.601      18919.09      -2197.0175     -1.1148774e-12  8.3736116e-13  1.0437499e-11  6.4521175      13.864658      56.842758      5084.9486    
       337   0             -1780.9206      983.79566     -13550.737      18787.975     -2285.851       2.9428984e-12 -1.6069345e-13  2.4748978e-12  6.4516063      13.866018      56.842105      5084.986     
       338   0             -1780.9298      974.11948     -13362.58       18656.559     -2371.6203     -6.7117926e-12 -6.5326329e-12 -9.9279404e-12  6.4510986      13.867378      56.841421      5085.0233    
       339   0             -1780.939       964.46393     -13177.086      18524.847     -2454.3683      1.7494661e-11  2.1054907e-11  2.6801527e-11  6.4505944      13.868737      56.840706      5085.0604    
       340   0             -1780.9481      954.83074     -12994.215      18392.845     -2534.1381      1.1058177e-11  2.3994177e-11  1.478566e-11   6.4500935      13.870097      56.83996       5085.0975    
       341   0             -1780.9571      945.22157     -12813.923      18260.56      -2610.9722      2.1032367e-12  6.3794532e-12  1.0012987e-11  6.449596       13.871457      56.839185      5085.1344    
       342   0             -1780.966       935.63806     -12636.17       18127.997     -2684.913      -6.4318184e-12 -2.240335e-11  -2.0941858e-11  6.4491017      13.872817      56.838381      5085.1712    
       343   0             -1780.9748      926.08179     -12460.914      17995.162     -2756.0027     -3.3536021e-12  9.7614282e-13  9.1383583e-12  6.4486106      13.874177      56.837547      5085.2078    
       344   0             -1780.9835      916.55429     -12288.114      17862.06      -2824.2832     -1.2028411e-11 -5.7322018e-12  7.1073181e-12  6.4481226      13.875537      56.836685      5085.2443    
       345   0             -1780.9921      907.05704     -12117.73       17728.697     -2889.7962     -5.7321434e-12  6.9116043e-12  7.8265201e-12  6.4476378      13.876897      56.835795      5085.2806    
       346   0             -1781.0006      897.59147     -11949.722      17595.079     -2952.5832     -7.6909179e-12 -8.4823134e-12  3.0999795e-11  6.447156       13.878256      56.834878      5085.3168    
       347   0             -1781.009       888.15894     -11784.049      17461.211     -3012.6852     -1.188828e-11  -3.2835939e-12 -1.6872688e-11  6.4466772      13.879616      56.833933      5085.3529    
       348   0             -1781.0173      878.76083     -11620.673      17327.099     -3070.1432      4.2408861e-13  2.2505139e-11  1.9294804e-11  6.4462014      13.880976      56.832962      5085.3888    
[...]
       804   0             -1781.8344      1.7266987e-06  1.7975616e-05  2.8504239e-06 -1.5645944e-05 -0.84982885     2.1876085e-06  2.3527996e-05  6.3725861      14.064707      56.683206      5080.4339    
       805   0             -1781.8344      1.5657178e-06  1.1848569e-05  2.5040424e-06 -9.6554584e-06 -0.84982885     1.9094686e-06  1.5280472e-05  6.3725861      14.064707      56.683206      5080.4339    
       806   0             -1781.8344     -9.1394089e-07 -1.7157843e-05  6.7666451e-07  1.3739356e-05 -0.84982885     1.0301194e-06  1.2638815e-05  6.3725861      14.064707      56.683206      5080.4339    
       807   0             -1781.8344     -1.8248751e-06 -2.5378046e-05  1.3603858e-07  1.9767382e-05 -0.84982885    -8.9335976e-07  9.0149205e-06  6.3725861      14.064707      56.683206      5080.4339    
       808   0             -1781.8344      5.0153432e-06  5.528775e-05   5.2118462e-06 -4.5453567e-05 -0.84982885    -1.5184693e-06  7.3222291e-06  6.3725861      14.064707      56.683206      5080.4339    
       809   0             -1781.8344     -4.4050607e-07 -1.1322259e-05  1.0415172e-06  8.9592233e-06 -0.84982885    -1.4222343e-06  5.1988701e-06  6.3725861      14.064707      56.683206      5080.4339    
       810   0             -1781.8344     -2.2906668e-07 -6.5423712e-06  1.3211278e-06  4.5340434e-06 -0.84982885     2.5778269e-07 -6.1928813e-07  6.3725861      14.064707      56.683206      5080.4339    
       811   0             -1781.8344      1.398381e-06   1.2008965e-05  2.4943958e-06 -1.0308218e-05 -0.84982885     8.1253839e-07 -4.2254433e-06  6.3725861      14.064707      56.683206      5080.4339    
       812   0             -1781.8344      2.9842572e-07 -2.6330381e-06  1.5884877e-06  1.9398276e-06 -0.84982885     1.0459735e-06 -8.9289358e-06  6.3725861      14.064707      56.683206      5080.4339    
       813   0             -1781.8344      1.4614675e-07 -3.9508705e-06  1.5011504e-06  2.8881603e-06 -0.84982885     8.3289736e-07 -1.034626e-05   6.3725861      14.064707      56.683206      5080.4339    
       814   0             -1781.8344      8.0932027e-07  6.0578106e-06  2.1106523e-06 -5.7405021e-06 -0.84982885     5.3114377e-09 -1.1306011e-05  6.3725861      14.064707      56.683206      5080.4339    
       815   0             -1781.8344     -1.1687817e-07 -5.8811091e-06  1.3688516e-06  4.161623e-06  -0.84982885    -3.7686336e-07 -1.0023077e-05  6.3725861      14.064707      56.683206      5080.4339    
       816   0             -1781.8344      4.4504042e-07 -7.2067141e-07  1.7071573e-06  3.4863536e-07 -0.84982885    -5.2631584e-07 -7.04709e-06    6.3725861      14.064707      56.683206      5080.4339    
       817   0             -1781.8344      7.6137229e-07  3.5244608e-06  1.9694962e-06 -3.2098401e-06 -0.84982885    -4.0311833e-07 -4.6933489e-06  6.3725861      14.064707      56.683206      5080.4339    
       818   0             -1781.8344      5.022851e-07   1.4878942e-06  1.8319157e-06 -1.8129546e-06 -0.84982885    -1.4816561e-07 -1.8219792e-06  6.3725861      14.064707      56.683206      5080.4339    
       819   0             -1781.8344     -2.1612108e-07 -7.541258e-06   1.2689107e-06  5.623984e-06  -0.84982885     1.0799322e-07 -1.3797855e-07  6.3725861      14.064707      56.683206      5080.4339    
       820   0             -1781.8344      5.5185937e-07  1.4128948e-06  1.8333051e-06 -1.5906218e-06 -0.84982885     1.8538255e-07  4.2044364e-07  6.3725861      14.064707      56.683206      5080.4339    
       821   0             -1781.8344      6.25205e-07    2.4080055e-06  1.8947024e-06 -2.4270929e-06 -0.84982885     1.5378018e-07  4.7053698e-07  6.3725861      14.064707      56.683206      5080.4339    
       822   0             -1781.8344      3.0897935e-07 -1.2005106e-06  1.6664959e-06  4.6095268e-07 -0.84982885     8.1541184e-08  3.8634132e-07  6.3725861      14.064707      56.683206      5080.4339    
       823   0             -1781.8344      4.6206111e-07  5.003519e-07   1.7745595e-06 -8.8872806e-07 -0.84982885    -6.2252939e-08  1.3902675e-07  6.3725861      14.064707      56.683206      5080.4339    
       824   0             -1781.8344      3.5811482e-07 -7.5066817e-07  1.6960274e-06  1.2898524e-07 -0.84982885    -9.6577507e-08  1.0631935e-07  6.3725861      14.064707      56.683206      5080.4339    
       825   0             -1781.8344      3.3459383e-07 -9.8697458e-07  1.6808052e-06  3.0995089e-07 -0.84982885    -9.6366445e-08  1.6348367e-07  6.3725861      14.064707      56.683206      5080.4339    
       826   0             -1781.8344      4.1092577e-07 -5.5015263e-08  1.7391343e-06 -4.5134173e-07 -0.84982885    -7.2328415e-08  2.4158404e-07  6.3725861      14.064707      56.683206      5080.4339    
       827   0             -1781.8344      4.5992456e-07  4.9835383e-07  1.7741566e-06 -8.9273678e-07 -0.84982885     4.0432778e-08  5.0550638e-07  6.3725861      14.064707      56.683206      5080.4339    
       828   0             -1781.8344      2.4009044e-07 -2.1211869e-06  1.6096021e-06  1.2318561e-06 -0.84982885     5.6582786e-08  4.9950331e-07  6.3725861      14.064707      56.683206      5080.4339    
       829   0             -1781.8344      3.7293952e-07 -5.2577258e-07  1.709724e-06  -6.5132831e-08 -0.84982885     5.015576e-08   4.1688392e-07  6.3725861      14.064707      56.683206      5080.4339    
       830   0             -1781.8344      4.7894883e-07  7.3799269e-07  1.7891376e-06 -1.0902838e-06 -0.84982885     3.1813015e-08  3.0857147e-07  6.3725861      14.064707      56.683206      5080.4339    
       831   0             -1781.8344      3.8643214e-07 -3.7502811e-07  1.7192907e-06 -1.8496619e-07 -0.84982885    -7.4619825e-09  8.2142557e-08  6.3725861      14.064707      56.683206      5080.4339    
       832   0             -1781.8344      3.8279789e-07 -4.1212696e-07  1.7168628e-06 -1.5634212e-07 -0.84982885    -2.1600866e-08 -7.2796007e-08  6.3725861      14.064707      56.683206      5080.4339    
       833   0             -1781.8344      4.062495e-07  -1.3266169e-07  1.7344946e-06 -3.8308442e-07 -0.84982885    -1.7877771e-08 -9.5644243e-08  6.3725861      14.064707      56.683206      5080.4339    
       834   0             -1781.8344      4.0549294e-07 -1.4385145e-07  1.7337757e-06 -3.734454e-07  -0.84982885    -7.1577213e-09 -9.8518618e-08  6.3725861      14.064707      56.683206      5080.4339    
       835   0             -1781.8344      3.9114646e-07 -3.1625738e-07  1.7229305e-06 -2.3323374e-07 -0.84982885     7.5815293e-10 -8.7597264e-08  6.3725861      14.064707      56.683206      5080.4339    
       836   0             -1781.8344      3.9745433e-07 -2.3761338e-07  1.7278255e-06 -2.9784911e-07 -0.84982885     1.0258086e-08 -4.2205778e-08  6.3725861      14.064707      56.683206      5080.4339    
       837   0             -1781.8344      3.9627117e-07 -2.5302372e-07  1.7268972e-06 -2.8505995e-07 -0.84982885     8.6287276e-09 -2.1836817e-08  6.3725861      14.064707      56.683206      5080.4339    
       838   0             -1781.8344      3.9536861e-07 -2.6425027e-07  1.7261659e-06 -2.7580982e-07 -0.84982885     5.1797406e-09 -7.1533787e-09  6.3725861      14.064707      56.683206      5080.4339    
       839   0             -1781.8344      3.9740947e-07 -2.3978814e-07  1.7277399e-06 -2.9572335e-07 -0.84982885     1.0891941e-09 -4.0150093e-09  6.3725861      14.064707      56.683206      5080.4339    
       840   0             -1781.8344      3.9631676e-07 -2.5268426e-07  1.726964e-06  -2.8532948e-07 -0.84982885    -2.8855144e-09 -5.197651e-09   6.3725861      14.064707      56.683206      5080.4339    
Loop time of 0.162236 on 4 procs for 117 steps with 288 atoms

69.8% CPU use with 4 MPI tasks x 1 OpenMP threads

Minimization stats:
  Stopping criterion = force tolerance
  Energy initial, next-to-last, final = 
     -1781.83441693859  -1781.83441712058  -1781.83441712058
  Force two-norm initial, final = 0.0031468564 8.2228283e-11
  Force max component initial, final = 0.0005265389 9.5632391e-12
  Final line search alpha, max atom move = 1 9.5632391e-12
  Iterations, force evaluations = 117 234

MPI task timing breakdown:
Section |  min time  |  avg time  |  max time  |%varavg| %total
---------------------------------------------------------------
Pair    | 0.15138    | 0.15261    | 0.15554    |   0.4 | 94.07
Neigh   | 0          | 0          | 0          |   0.0 |  0.00
Comm    | 0.003615   | 0.0054763  | 0.007254   |   2.3 |  3.38
Output  | 0.001212   | 0.0012765  | 0.001395   |   0.2 |  0.79
Modify  | 0          | 0          | 0          |   0.0 |  0.00
Other   |            | 0.002871   |            |       |  1.77

Nlocal:             72 ave          72 max          72 min
Histogram: 4 0 0 0 0 0 0 0 0 0
Nghost:            593 ave         593 max         593 min
Histogram: 4 0 0 0 0 0 0 0 0 0
Neighs:           2088 ave        2088 max        2088 min
Histogram: 4 0 0 0 0 0 0 0 0 0
FullNghs:         4176 ave        4176 max        4176 min
Histogram: 4 0 0 0 0 0 0 0 0 0

Total # of neighbors = 16704
Ave neighs/atom = 58
Neighbor list builds = 0
Dangerous builds = 0

# Obtain new stress tensor

variable tmp equal pe
variable e1 equal ${tmp}
variable e1 equal -1781.83441712058
variable tmp equal press
variable p1 equal ${tmp}
variable p1 equal 3.96316763745367e-07
variable tmp equal pxx
variable pxx1 equal ${tmp}
variable pxx1 equal -2.52684259493801e-07
variable tmp equal pyy
variable pyy1 equal ${tmp}
variable pyy1 equal 1.72696402587142e-06
variable tmp equal pzz
variable pzz1 equal ${tmp}
variable pzz1 equal -2.85329475141515e-07
variable tmp equal pxy
variable pxy1 equal ${tmp}
variable pxy1 equal -0.849828852269326
variable tmp equal pxz
variable pxz1 equal ${tmp}
variable pxz1 equal -2.88551438461949e-09
variable tmp equal pyz
variable pyz1 equal ${tmp}
variable pyz1 equal -5.19765100901608e-09

# Compute elastic constant from pressure tensor

variable C1pos equal ${d1}
variable C1pos equal 2.49175993610223e-05
variable C2pos equal ${d2}
variable C2pos equal -0.000171995244453759
variable C3pos equal ${d3}
variable C3pos equal 2.83812657781363e-05
variable C4pos equal ${d4}
variable C4pos equal 5.30010336054378e-07
variable C5pos equal ${d5}
variable C5pos equal 2.87975377855365e-07
variable C6pos equal ${d6}
variable C6pos equal 84.9828852265173

# Combine positive and negative

variable C1${dir} equal 0.5*(${C1neg}+${C1pos})
variable C16 equal 0.5*(${C1neg}+${C1pos})
variable C16 equal 0.5*(-2.48617082899475e-05+${C1pos})
variable C16 equal 0.5*(-2.48617082899475e-05+2.49175993610223e-05)
variable C2${dir} equal 0.5*(${C2neg}+${C2pos})
variable C26 equal 0.5*(${C2neg}+${C2pos})
variable C26 equal 0.5*(0.000171996000054824+${C2pos})
variable C26 equal 0.5*(0.000171996000054824+-0.000171995244453759)
variable C3${dir} equal 0.5*(${C3neg}+${C3pos})
variable C36 equal 0.5*(${C3neg}+${C3pos})
variable C36 equal 0.5*(-2.84256860686311e-05+${C3pos})
variable C36 equal 0.5*(-2.84256860686311e-05+2.83812657781363e-05)
variable C4${dir} equal 0.5*(${C4neg}+${C4pos})
variable C46 equal 0.5*(${C4neg}+${C4pos})
variable C46 equal 0.5*(-5.31126156012441e-07+${C4pos})
variable C46 equal 0.5*(-5.31126156012441e-07+5.30010336054378e-07)
variable C5${dir} equal 0.5*(${C5neg}+${C5pos})
variable C56 equal 0.5*(${C5neg}+${C5pos})
variable C56 equal 0.5*(-2.87516225275018e-07+${C5pos})
variable C56 equal 0.5*(-2.87516225275018e-07+2.87975377855365e-07)
variable C6${dir} equal 0.5*(${C6neg}+${C6pos})
variable C66 equal 0.5*(${C6neg}+${C6pos})
variable C66 equal 0.5*(84.9828852296592+${C6pos})
variable C66 equal 0.5*(84.9828852296592+84.9828852265173)

# Delete dir to make sure it is not reused

variable dir delete

# Output final values

variable C11all equal ${C11}
variable C11all equal 296.97700858122
variable C22all equal ${C22}
variable C22all equal 225.643820588036
variable C33all equal ${C33}
variable C33all equal 396.066488877493

variable C12all equal 0.5*(${C12}+${C21})
variable C12all equal 0.5*(100.949115286795+${C21})
variable C12all equal 0.5*(100.949115286795+100.949115322135)
variable C13all equal 0.5*(${C13}+${C31})
variable C13all equal 0.5*(-46.4014547075519+${C31})
variable C13all equal 0.5*(-46.4014547075519+-46.4014549042457)
variable C23all equal 0.5*(${C23}+${C32})
variable C23all equal 0.5*(49.209062129994+${C32})
variable C23all equal 0.5*(49.209062129994+49.2090621224376)

variable C44all equal ${C44}
variable C44all equal 28.1397462027781
variable C55all equal ${C55}
variable C55all equal 80.5894561828386
variable C66all equal ${C66}
variable C66all equal 84.9828852280883

variable C14all equal 0.5*(${C14}+${C41})
variable C14all equal 0.5*(-3.7769300695951e-08+${C41})
variable C14all equal 0.5*(-3.7769300695951e-08+-3.5412302798759e-08)
variable C15all equal 0.5*(${C15}+${C51})
variable C15all equal 0.5*(-3.49394057404999e-08+${C51})
variable C15all equal 0.5*(-3.49394057404999e-08+-4.08223978076899e-09)
variable C16all equal 0.5*(${C16}+${C61})
variable C16all equal 0.5*(2.79455355373991e-08+${C61})
variable C16all equal 0.5*(2.79455355373991e-08+1.86225967146919e-10)

variable C24all equal 0.5*(${C24}+${C42})
variable C24all equal 0.5*(6.82834678448867e-10+${C42})
variable C24all equal 0.5*(6.82834678448867e-10+1.582582159908e-09)
variable C25all equal 0.5*(${C25}+${C52})
variable C25all equal 0.5*(-1.0957178197749e-09+${C52})
variable C25all equal 0.5*(-1.0957178197749e-09+-5.88229758064963e-11)
variable C26all equal 0.5*(${C26}+${C62})
variable C26all equal 0.5*(3.77800532503324e-10+${C62})
variable C26all equal 0.5*(3.77800532503324e-10+4.53433137435829e-10)

variable C34all equal 0.5*(${C34}+${C43})
variable C34all equal 0.5*(2.56405779535968e-08+${C43})
variable C34all equal 0.5*(2.56405779535968e-08+-1.2713584702361e-08)
variable C35all equal 0.5*(${C35}+${C53})
variable C35all equal 0.5*(1.60002748209997e-08+${C53})
variable C35all equal 0.5*(1.60002748209997e-08+-1.0435167916254e-08)
variable C36all equal 0.5*(${C36}+${C63})
variable C36all equal 0.5*(-2.22101452474008e-08+${C63})
variable C36all equal 0.5*(-2.22101452474008e-08+-1.10944468831093e-09)

variable C45all equal 0.5*(${C45}+${C54})
variable C45all equal 0.5*(-4.47441006307997e-09+${C54})
variable C45all equal 0.5*(-4.47441006307997e-09+-1.09287258653545e-08)
variable C46all equal 0.5*(${C46}+${C64})
variable C46all equal 0.5*(-5.57909979031529e-10+${C64})
variable C46all equal 0.5*(-5.57909979031529e-10+-1.50645922009311e-09)
variable C56all equal 0.5*(${C56}+${C65})
variable C56all equal 0.5*(2.29576290173523e-10+${C65})
variable C56all equal 0.5*(2.29576290173523e-10+-4.13001879402607e-10)

# Average moduli for cubic crystals

variable C11cubic equal (${C11all}+${C22all}+${C33all})/3.0
variable C11cubic equal (296.97700858122+${C22all}+${C33all})/3.0
variable C11cubic equal (296.97700858122+225.643820588036+${C33all})/3.0
variable C11cubic equal (296.97700858122+225.643820588036+396.066488877493)/3.0
variable C12cubic equal (${C12all}+${C13all}+${C23all})/3.0
variable C12cubic equal (100.949115304465+${C13all}+${C23all})/3.0
variable C12cubic equal (100.949115304465+-46.4014548058988+${C23all})/3.0
variable C12cubic equal (100.949115304465+-46.4014548058988+49.2090621262158)/3.0
variable C44cubic equal (${C44all}+${C55all}+${C66all})/3.0
variable C44cubic equal (28.1397462027781+${C55all}+${C66all})/3.0
variable C44cubic equal (28.1397462027781+80.5894561828386+${C66all})/3.0
variable C44cubic equal (28.1397462027781+80.5894561828386+84.9828852280883)/3.0

variable bulkmodulus equal (${C11cubic}+2*${C12cubic})/3.0
variable bulkmodulus equal (306.229106015583+2*${C12cubic})/3.0
variable bulkmodulus equal (306.229106015583+2*34.5855742082607)/3.0
variable shearmodulus1 equal ${C44cubic}
variable shearmodulus1 equal 64.570695871235
variable shearmodulus2 equal (${C11cubic}-${C12cubic})/2.0
variable shearmodulus2 equal (306.229106015583-${C12cubic})/2.0
variable shearmodulus2 equal (306.229106015583-34.5855742082607)/2.0
variable poissonratio equal 1.0/(1.0+${C11cubic}/${C12cubic})
variable poissonratio equal 1.0/(1.0+306.229106015583/${C12cubic})
variable poissonratio equal 1.0/(1.0+306.229106015583/34.5855742082607)

# For Stillinger-Weber silicon, the analytical results
# are known to be (E. R. Cowley, 1988):
#               C11 = 151.4 GPa
#               C12 = 76.4 GPa
#               C44 = 56.4 GPa

print "========================================="
=========================================
print "Components of the Elastic Constant Tensor"
Components of the Elastic Constant Tensor
print "========================================="
=========================================

print "Elastic Constant C11all = ${C11all} ${cunits}"
Elastic Constant C11all = 296.97700858122 GPa
print "Elastic Constant C22all = ${C22all} ${cunits}"
Elastic Constant C22all = 225.643820588036 GPa
print "Elastic Constant C33all = ${C33all} ${cunits}"
Elastic Constant C33all = 396.066488877493 GPa

print "Elastic Constant C12all = ${C12all} ${cunits}"
Elastic Constant C12all = 100.949115304465 GPa
print "Elastic Constant C13all = ${C13all} ${cunits}"
Elastic Constant C13all = -46.4014548058988 GPa
print "Elastic Constant C23all = ${C23all} ${cunits}"
Elastic Constant C23all = 49.2090621262158 GPa

print "Elastic Constant C44all = ${C44all} ${cunits}"
Elastic Constant C44all = 28.1397462027781 GPa
print "Elastic Constant C55all = ${C55all} ${cunits}"
Elastic Constant C55all = 80.5894561828386 GPa
print "Elastic Constant C66all = ${C66all} ${cunits}"
Elastic Constant C66all = 84.9828852280883 GPa

print "Elastic Constant C14all = ${C14all} ${cunits}"
Elastic Constant C14all = -3.6590801747355e-08 GPa
print "Elastic Constant C15all = ${C15all} ${cunits}"
Elastic Constant C15all = -1.95108227606344e-08 GPa
print "Elastic Constant C16all = ${C16all} ${cunits}"
Elastic Constant C16all = 1.4065880752273e-08 GPa

print "Elastic Constant C24all = ${C24all} ${cunits}"
Elastic Constant C24all = 1.13270841917843e-09 GPa
print "Elastic Constant C25all = ${C25all} ${cunits}"
Elastic Constant C25all = -5.77270397790698e-10 GPa
print "Elastic Constant C26all = ${C26all} ${cunits}"
Elastic Constant C26all = 4.15616834969577e-10 GPa

print "Elastic Constant C34all = ${C34all} ${cunits}"
Elastic Constant C34all = 6.4634966256179e-09 GPa
print "Elastic Constant C35all = ${C35all} ${cunits}"
Elastic Constant C35all = 2.78255345237285e-09 GPa
print "Elastic Constant C36all = ${C36all} ${cunits}"
Elastic Constant C36all = -1.16597949678559e-08 GPa

print "Elastic Constant C45all = ${C45all} ${cunits}"
Elastic Constant C45all = -7.70156796421724e-09 GPa
print "Elastic Constant C46all = ${C46all} ${cunits}"
Elastic Constant C46all = -1.03218459956232e-09 GPa
print "Elastic Constant C56all = ${C56all} ${cunits}"
Elastic Constant C56all = -9.1712794614542e-11 GPa

print "========================================="
=========================================
print "Average properties for a cubic crystal"
Average properties for a cubic crystal
print "========================================="
=========================================

print "Bulk Modulus = ${bulkmodulus} ${cunits}"
Bulk Modulus = 125.133418144035 GPa
print "Shear Modulus 1 = ${shearmodulus1} ${cunits}"
Shear Modulus 1 = 64.570695871235 GPa
print "Shear Modulus 2 = ${shearmodulus2} ${cunits}"
Shear Modulus 2 = 135.821765903661 GPa
print "Poisson Ratio = ${poissonratio}"
Poisson Ratio = 0.101479121103426
Total wall time: 0:00:02
