ITEM: TIMESTEP
0
ITEM: NUMBER OF ATOMS
6000
ITEM: BOX BOUNDS pp pp pp
-4.3935683457048569e-02 2.7384935683456689e+01
-5.0860032985314163e-02 2.7391860032985743e+01
-2.6968644468139047e-01 1.0963368644468073e+02
ITEM: ATOMS id type x y z c_peratom fx fy fz 
122 3 5.69801 4.82308 5.04254 -28.2083 0.759506 1.6196 -1.75322 
601 3 5.8206 2.7 2.2888 -27.6844 -1.64348 -1.12544 1.52562 
602 2 5.61876 1.88859 8.30355 -24.9995 -5.05865 2.63966 0.383991 
1021 3 3.10145 5.40233 3.04582 -27.732 -2.28566 0.643396 0.908559 
1022 2 2.21344 5.21676 8.23568 -25.3999 1.82065 1.5365 0.79523 
1502 2 2.87433 2.48384 5.96088 -25.1108 1.73854 0.830693 -0.946872 
4018 1 4.77563 1.81361 4.97633 -6.71088 0.752586 1.9639 -0.204064 
3022 1 3.23876 6.7921 7.00518 -6.59565 0.595739 -1.0085 -0.280202 
4040 1 3.75959 4.38146 5.06118 -7.12369 -2.63391 -2.51416 -0.460525 
4603 1 4.21427 6.70269 1.19988 -8.35927 -1.0942 3.0193 3.11405 
5101 1 4.71087 6.4484 4.27609 -7.49299 0.971494 2.87354 -2.99951 
5458 1 2.7814 2.46672 1.9999 -7.59105 -1.13781 -0.65539 0.812048 
5321 1 1.52531 1.33143 7.15378 -8.19538 -1.27438 -1.76649 0.151625 
2940 1 3.47971 3.15109 7.99559 -6.8274 1.72277 0.273407 -1.09743 
3001 1 1.41156 1.9617 4.46135 -7.47764 -0.984723 0.578452 -0.616821 
5080 1 0.165445 1.65429 0.92485 -7.44583 -1.90697 2.00368 1.88935 
5701 1 4.98262 1.79469 0.319075 -8.13309 0.514235 2.30926 -1.25066 
4643 1 1.59488 4.81137 1.34059 -7.19107 0.803442 -0.546511 -0.259346 
4101 1 4.63005 4.30949 2.41703 -8.2325 1.39675 0.266766 -0.601242 
2082 1 4.90131 0.466145 2.65898 -7.30655 1.37614 -0.249897 -0.323078 
22 3 0.0357307 5.61859 5.68147 -28.6213 0.783147 3.59399 -2.05211 
501 3 0.747436 2.8331 2.63526 -27.3905 0.482327 0.40101 -0.498196 
4824 1 6.21852 4.42812 6.68089 -6.93137 1.48981 -1.0876 3.78225 
5622 1 1.13908 4.19559 6.68807 -8.12238 -0.845882 -2.52492 -2.03308 
5900 1 0.523824 4.76813 3.73589 -7.14862 -1.02677 -3.09398 0.0159605 
3481 1 2.35326 0.945067 -0.209443 -7.66839 0.0225343 -3.05198 -1.60119 
121 2 5.68317 5.54982 0.268361 -23.9901 2.10968 -1.01022 -0.60284 
5903 1 0.181544 6.21826 7.8116 -7.44879 -0.941073 -0.74516 -0.779114 
1501 2 2.75461 3.04068 -0.134296 -24.425 -1.32677 0.307814 1.64802 
5019 1 4.47582 0.229008 7.00672 -7.749 -0.841775 -1.45248 1.40393 
3182 1 7.7196 0.621576 4.36132 -8.34568 -2.12813 0.255396 1.13669 
3080 1 7.00239 6.64034 2.16035 -7.22116 -2.66207 0.385159 -1.27428 
3821 1 12.818 0.966132 3.94854 -7.19697 -0.476632 1.07436 -0.347852 
222 2 11.1601 5.1654 5.28112 -24.4955 -2.22505 1.12852 -1.4401 
701 3 10.921 2.72967 2.6643 -29.1392 1.0503 -0.396047 -2.59298 
702 2 10.9313 2.48339 8.5828 -24.3417 -0.995672 0.649314 -3.60825 
1121 3 8.74642 5.34474 2.68988 -29.5122 -3.3077 0.801487 -0.208734 
1122 2 7.68903 5.02989 8.49361 -24.4136 1.27894 -1.19509 -5.07244 
1602 3 8.58803 2.31702 5.33922 -28.131 -2.01241 2.49873 0.401026 
5361 1 9.64275 3.85756 3.90291 -8.0594 0.282113 -0.214066 2.3819 
3721 1 9.88636 1.24355 1.33689 -7.63354 -2.10937 -1.60605 0.35873 
5103 1 9.36724 4.30284 7.02593 -6.2029 -0.577658 -0.983756 -2.06246 
5502 1 12.4573 3.63042 3.92395 -8.00837 -0.958616 2.01677 -0.70354 
3201 1 12.4274 1.45346 1.25721 -7.43322 2.92354 -1.828 3.12147 
2241 1 9.55791 3.94811 1.31924 -6.61566 -1.72616 -0.816671 -0.0325401 
5682 1 10.1571 1.3926 4.03286 -8.03651 -0.689089 0.74769 -2.20204 
4182 1 9.98495 1.68268 6.44562 -7.10659 -0.33891 -0.783326 2.19797 
2142 1 7.11435 1.76085 7.0015 -7.16425 3.60683 -0.750056 -3.2775 
5742 1 7.96677 6.39405 4.622 -5.52011 -0.163638 -1.68298 -0.0534258 
5102 1 10.405 6.22792 3.23362 -7.73307 2.26749 0.636697 -1.84608 
5121 1 7.15012 4.07039 1.1561 -7.86056 -2.69056 -0.0152407 0.112986 
5200 1 7.26953 1.51682 1.65559 -8.90934 0.622744 -1.33345 -0.620889 
3040 1 7.00592 3.53813 4.00658 -8.11302 -0.464554 -0.379666 -0.440039 
2622 1 13.0574 6.7088 6.8383 -8.06076 -2.33939 -0.951753 -0.135913 
2702 1 12.1373 3.66369 6.42149 -8.08608 1.093 1.12851 2.31759 
3241 1 8.91982 6.30334 0.379873 -7.48114 2.07614 0.807118 -0.676505 
2721 1 13.0512 6.51214 4.03747 -7.60229 -5.0644 -0.306147 2.06388 
202 3 10.7066 -0.00981857 5.16634 -28.7146 2.19808 -2.48148 2.50646 
221 3 10.7772 5.38806 -0.100224 -27.9878 -0.574177 -2.11091 -1.31813 
1702 3 13.2816 2.42881 5.29316 -28.6531 1.96289 -1.94922 0.913569 
3600 1 12.3773 0.853438 6.5811 -7.18145 -0.95855 -0.346419 -1.69214 
3202 1 9.77804 6.33318 8.58743 -6.71698 0.593061 0.124261 0.141352 
1601 3 8.28768 2.62203 -0.0233818 -27.6089 1.33022 2.00315 3.06264 
1101 3 8.40031 0.13728 2.58381 -27.3503 0.66891 -1.93766 -1.43355 
3262 1 11.7711 4.13022 1.39579 -6.96557 4.00876 2.17755 -0.728001 
1701 2 13.3654 2.8367 -0.112125 -24.7327 -1.48134 -2.27777 -1.46692 
4662 1 3.79474 12.174 7.03587 -8.44292 2.10931 0.249604 -1.96586 
2102 1 1.75424 10.1544 -0.0622977 -7.80127 1.23139 0.742262 0.330606 
5501 1 0.627838 11.2967 2.82585 -6.30008 1.70756 -1.01332 -2.59121 
4501 1 1.77285 8.45781 1.96886 -7.67154 1.41095 1.22031 3.52414 
3660 1 1.66599 10.4791 5.83851 -7.19691 2.72872 0.638233 0.311696 
641 2 4.70168 13.2885 2.62067 -24.4133 4.36392 4.99674 -3.9789 
4723 1 0.927634 7.34651 -0.0870754 -6.94032 0.187643 -0.904515 -2.08017 
4121 1 6.79998 7.11932 6.8796 -7.50511 -0.678591 1.33363 3.0897 
142 2 5.32096 10.8453 4.74483 -22.6941 -0.523546 0.166669 5.73862 
621 2 5.3954 8.08901 2.80452 -23.4565 1.99783 -1.62041 -0.713789 
622 2 5.09327 8.08356 8.17609 -24.2209 -0.596883 -3.42084 -0.85821 
1041 3 2.55579 10.7925 1.94578 -27.4769 -1.64175 -2.28225 1.48834 
1042 3 2.96474 10.8206 8.31076 -26.4775 0.134401 -0.113118 0.630733 
1522 2 2.53249 8.54816 5.73907 -24.6402 0.384044 -3.48525 0.144979 
4760 1 4.0561 9.47903 3.75387 -8.91954 -2.00616 -0.653017 0.00123168 
5741 1 1.81195 6.81237 4.55257 -6.99375 0.670259 1.09758 -0.662628 
5441 1 0.992614 12.6926 6.7997 -7.86778 3.49561 -3.88361 -2.21309 
5962 1 6.47966 11.5791 3.24565 -8.30885 1.59369 0.541952 -2.30932 
521 3 -0.0387236 8.7441 2.79479 -27.8004 -0.109231 -1.61111 -0.763803 
2062 1 4.26529 9.51496 1.01677 -7.67926 1.17026 -0.664979 0.681614 
4520 1 6.16521 12.8339 0.825628 -6.84261 0.968642 -1.02672 0.847427 
2078 1 3.25733 12.1789 3.41888 -7.88871 -1.43616 -1.70889 4.87699 
1521 3 2.60724 8.17458 0.0936723 -28.0939 2.97167 1.02207 -0.0227711 
5403 1 2.99436 8.83793 8.44163 -6.55845 -1.79297 2.40962 -0.706581 
3100 1 3.47634 12.0887 0.993051 -7.79042 0.572686 1.64361 -2.70234 
4622 1 0.150981 13.1706 0.7243 -6.94906 0.928146 -1.19794 -1.69349 
2623 1 4.44781 9.34493 6.55982 -8.17597 1.76572 2.74977 -2.15215 
4080 1 5.57213 13.3145 4.80547 -7.83397 -3.07147 -1.38279 1.76231 
5023 1 0.296816 8.54434 6.15748 -7.3745 -1.5867 -0.296767 2.0543 
1742 2 13.3239 13.4217 5.18012 -24.4843 4.47188 -0.355988 4.00168 
1241 3 13.3746 10.6464 3.09464 -28.9077 3.3016 0.110543 -1.17543 
4780 1 12.0688 11.7927 7.58254 -6.46716 -2.61851 3.42087 -2.98841 
2342 1 10.3122 7.07738 5.8748 -7.40631 1.3677 0.716596 2.22456 
741 3 11.0993 13.275 2.48945 -26.3954 -0.674483 0.699512 3.19567 
4721 1 7.30409 9.77959 0.873095 -7.5514 -1.06136 0.338909 -0.30445 
5182 1 7.08341 9.09599 4.40355 -7.6812 -2.99046 0.962417 -1.48464 
241 3 11.5008 10.5587 -0.200097 -26.5035 -1.44055 1.69122 -0.540662 
4422 1 9.37798 12.2013 4.3425 -8.77689 -1.06296 -0.0126711 -0.680785 
5122 1 12.4019 9.71628 6.17903 -6.01958 -0.892167 -1.85346 0.745942 
2779 1 12.351 11.7893 1.14643 -8.56826 -1.36434 0.213713 3.13928 
242 2 10.8049 11.4503 5.85305 -23.8605 -0.400418 -3.58414 1.01876 
721 3 11.2601 7.90368 2.19792 -26.5271 0.524885 0.0426122 2.99556 
722 2 11.3571 7.85257 7.91898 -24.7876 1.12193 1.00181 0.710576 
1141 2 8.39055 10.4756 3.13808 -23.8173 0.302369 -1.41269 -0.211648 
1142 2 8.20668 10.9749 8.17702 -24.0005 1.70441 1.92818 1.84988 
1622 3 8.39366 7.98314 6.1579 -28.345 0.517265 -1.78642 -3.41572 
2641 1 9.26062 9.71077 5.53361 -7.51207 1.43046 2.02543 0.847829 
4703 1 13.0894 9.22207 1.32376 -7.63519 -2.05059 -0.0457463 -1.56846 
4743 1 9.46805 8.82821 2.21949 -7.84367 2.50072 0.982422 -0.145612 
3140 1 12.1248 11.9673 4.2861 -9.14545 -2.98039 -1.01681 -3.70341 
3801 1 9.70728 12.1327 1.57349 -8.78613 1.87671 -4.50558 2.39878 
2521 1 11.6932 7.15855 0.450865 -9.21506 0.744776 -0.849345 -0.0237204 
5522 1 7.018 11.484 6.33125 -8.56744 -0.0433314 0.523956 -0.0188925 
5262 1 9.76669 12.4877 7.42715 -7.50837 -3.18423 -0.574091 -0.0269736 
2741 1 12.3871 8.93063 3.75343 -7.09458 -2.22645 0.731987 -1.72093 
4902 1 9.42928 8.89429 8.32109 -7.71681 -0.562529 1.4877 -1.57929 
1642 3 7.75736 13.4027 5.36234 -27.2178 2.45288 -2.558 2.05907 
1641 2 8.4849 13.14 0.350352 -23.534 -6.58973 1.34772 -2.29637 
1242 3 13.2325 11.3202 8.78867 -29.0973 5.64149 -0.895445 1.60108 
5104 1 1.51654 4.24671 12.0383 -7.78806 -1.26911 1.16577 -0.0544333 
5521 1 5.90267 3.62847 9.75913 -6.97513 1.42171 -0.220388 -1.96383 
5043 1 1.36111 1.4383 15.3338 -8.30655 -0.287809 -0.569499 1.05876 
4882 1 5.7024 2.64354 15.705 -7.05068 -1.18388 4.19171 1.98695 
2003 1 4.25321 1.03927 14.4836 -6.2605 -0.0779529 -1.0982 1.35805 
4542 1 1.51989 0.835721 9.82031 -8.29676 -0.294469 1.71949 0.83928 
2844 1 0.50174 3.69817 17.5617 -7.77528 1.28105 -0.22844 0.60333 
5401 1 1.21073 3.56737 9.34438 -6.80782 2.49999 1.93404 3.27747 
4023 1 0.953437 1.06073 12.5482 -8.28551 -0.152958 0.59527 0.473343 
123 2 5.20767 5.36134 10.9552 -24.5045 -0.990683 -1.48922 4.34625 
124 3 4.57522 5.39668 16.1816 -27.6634 3.67519 0.0526826 -0.506743 
603 2 5.54406 3.0155 13.4525 -24.4218 -1.56155 -1.53271 2.47696 
1023 2 2.52781 5.47544 13.583 -24.495 -0.361102 -0.735907 1.06141 
1503 2 2.63389 2.19242 11.3628 -24.4817 -2.31937 0.132322 -1.45915 
1504 3 2.3632 3.27023 16.1243 -28.4375 -1.29565 -4.50794 2.97962 
5623 1 3.43897 0.426569 12.3672 -7.21826 0.177008 0.222962 -1.7158 
3002 1 6.74284 1.37762 12.1496 -8.48798 0.559122 1.75255 3.26392 
3082 1 2.68118 5.09935 16.0466 -7.13845 -1.18376 2.41092 -1.94895 
4003 1 3.07128 3.36236 14.3152 -6.3594 2.4143 -0.379444 -1.18813 
4004 1 0.118784 6.59557 14.9412 -7.65339 0.764108 1.44282 1.2777 
104 2 5.10595 0.706276 16.5338 -24.0095 -1.67284 1.19607 -3.73525 
3701 1 4.35018 0.889004 9.70286 -6.59357 -1.27399 3.14594 1.42873 
2004 1 4.13506 3.55654 11.9857 -7.99677 0.778024 0.897258 -2.21058 
3023 1 0.810192 3.97728 14.9121 -6.82041 -2.40512 -0.0697916 -1.43703 
2503 1 1.54546 6.66959 17.6266 -8.29724 -4.3463 -0.815442 2.09605 
3601 1 6.78539 5.03073 17.1444 -7.76097 0.20875 -1.91345 -0.667561 
5602 1 4.79265 5.35438 14.0244 -8.13074 0.663155 -0.141695 0.0949975 
2222 1 3.65457 5.96465 9.75332 -6.96493 -1.25675 0.172631 -2.32893 
1003 3 2.34664 -0.032677 14.1768 -28.1117 1.84846 0.721652 -1.69034 
2123 1 6.4627 6.30438 9.61969 -8.78691 2.02903 5.02106 -1.71421 
4005 1 4.324 6.31498 17.6868 -6.24207 1.0877 2.74391 3.6032 
23 2 0.184894 6.03667 11.2135 -24.0115 -1.67239 0.609696 -0.0767119 
5042 1 3.51788 1.51628 17.6866 -7.49199 1.04391 -2.21243 -0.710778 
3184 1 6.78967 1.87167 18.0092 -8.76649 0.122808 0.703529 -0.0983521 
1703 2 13.6501 2.86986 10.5167 -23.3899 1.00671 -1.28974 0.815941 
1103 3 8.25222 0.18437 13.8857 -26.1548 -0.241899 -2.97414 -1.21062 
3522 1 6.92137 4.4132 12.0089 -8.33207 0.594808 -1.34548 0.396105 
5324 1 9.29999 6.56444 17.9022 -8.8438 2.48313 0.475709 -2.13004 
2984 1 12.2682 0.892559 17.453 -7.40029 -0.792076 2.1531 1.9448 
4602 1 6.86952 0.923491 9.63741 -6.76235 2.1258 -1.51063 0.665493 
4864 1 9.35451 1.10686 17.9939 -8.04029 1.46674 1.70977 -1.79398 
203 2 10.7381 0.389531 11.239 -23.2565 5.31558 -0.278082 -1.87666 
4841 1 12.0143 6.14201 12.2785 -7.90721 1.37836 -0.0153161 1.71588 
2044 1 9.34836 1.62948 9.79364 -7.79933 0.920959 -3.04396 2.1444 
4281 1 11.3817 3.25788 11.045 -8.07068 0.75028 -1.00224 -0.869906 
5825 1 12.498 3.8868 13.8056 -7.63708 1.31225 2.09862 0.876928 
3564 1 9.80778 1.61006 12.6445 -10.0135 -4.31717 0.74037 2.21446 
5603 1 9.51156 4.4948 12.4357 -8.43458 0.366256 -0.648393 0.426786 
3703 1 9.64803 1.00731 15.3552 -9.2011 -0.29957 1.82146 -1.05516 
3122 1 12.2173 0.865662 9.54307 -8.0576 -0.807239 2.208 0.906622 
5003 1 9.02319 3.91038 9.63668 -7.62409 1.12213 1.65717 2.39291 
223 2 10.9771 5.32324 10.4771 -24.8409 -1.81212 2.89653 0.882175 
224 3 11.1142 5.65643 16.1272 -26.0177 -0.962587 -1.3594 2.13915 
703 3 10.9631 2.88809 13.7578 -26.7416 1.578 -0.730843 -0.858216 
1123 3 8.11559 5.46445 13.4415 -26.8847 -1.47142 3.11323 1.19085 
1603 3 8.44438 2.941 11.4142 -26.9276 -1.27667 -0.858892 -2.41635 
1604 2 8.1169 2.56915 16.0464 -22.4106 -1.59813 -1.05531 1.9393 
2523 1 7.45824 3.66031 14.3148 -8.67772 2.03501 -0.227499 -1.06678 
4903 1 12.4566 4.43526 9.11598 -9.28503 -0.429188 -2.39943 0.299449 
2244 1 9.92884 4.04498 15.0869 -8.95545 -0.593526 0.231707 1.46086 
5803 1 12.934 1.569 15.2099 -6.80314 -2.6831 0.945494 -1.71746 
4701 1 12.2447 6.58511 14.9935 -9.03581 1.37717 -1.03243 -1.8611 
2223 1 12.5964 1.34327 12.2892 -7.82706 1.1344 0.505541 -0.939023 
2604 1 11.5903 3.88871 17.2458 -7.99908 -1.0424 -0.0909024 -2.07328 
4683 1 6.89182 0.585059 15.3182 -8.03993 3.55658 -1.27978 -0.732024 
643 3 5.06433 12.9621 13.7323 -26.3722 6.34208 6.01336 -2.62105 
2421 1 4.32296 11.7967 9.74841 -7.08545 -3.31058 0.0559354 -3.24564 
4263 1 4.7574 9.01767 10.1179 -8.03058 -2.8333 -4.70484 0.896747 
2024 1 1.28892 7.3703 9.73779 -6.81343 -0.8747 -1.53819 1.7526 
523 2 0.0381782 8.6338 14.2004 -23.566 0.217081 -1.32488 -2.70492 
4421 1 2.05705 10.2241 10.5193 -7.59892 0.0957918 1.33188 0.964896 
3543 1 3.75858 7.3722 15.4204 -7.25717 -0.913946 -0.771918 -2.25806 
5543 1 1.25417 7.43646 12.7332 -7.90298 -0.224388 -0.892726 -0.0523585 
3643 1 6.66099 12.7188 9.02289 -7.26694 1.55296 0.91925 -2.93328 
1543 2 2.34976 13.5504 10.3086 -23.3539 1.87535 -1.60618 1.07314 
5564 1 0.575569 12.3702 9.86752 -7.9359 0.627999 -0.450144 -2.38691 
4302 1 3.84064 9.69744 17.5934 -7.40771 0.530902 -0.705446 0.608035 
3103 1 4.23783 12.1001 12.1417 -8.15068 1.22444 0.494141 1.00911 
3501 1 1.46876 12.9166 12.2434 -8.72038 0.258192 0.796831 0.737575 
4002 1 3.59882 9.40999 13.0027 -7.86526 -0.224152 -2.06581 -2.28637 
3143 1 1.04835 12.8929 15.3265 -7.83399 1.51218 -0.225123 -2.07403 
3042 1 3.52388 6.90005 12.079 -7.76995 3.09867 -1.42762 1.7746 
2923 1 1.68503 9.42635 15.5542 -8.55316 -0.952877 -0.221559 -4.25309 
5923 1 3.77667 12.0869 14.8076 -10.2889 -1.72338 -0.646763 0.705831 
143 2 5.70656 10.5588 10.883 -23.8147 2.01621 7.4622 -0.0788228 
144 2 5.17686 10.9763 16.1106 -23.8359 3.24576 3.02688 6.98094 
623 3 5.12295 7.96224 13.7085 -29.3958 0.838216 -1.42456 -0.780502 
1043 2 2.61339 11.1802 13.0353 -22.0451 -1.62508 0.681863 0.00868491 
1523 3 2.73633 8.42927 11.0909 -28.6531 -1.4253 -0.710194 -2.22602 
1524 3 2.46588 8.0706 16.8033 -27.9573 4.16717 0.131986 0.738728 
4625 1 5.23482 9.42349 14.943 -6.46015 1.47325 -1.73122 -0.627451 
4504 1 0.664632 10.5828 13.1736 -8.33323 -1.92747 -0.584041 1.38212 
3243 1 6.35025 9.54212 12.5498 -7.59026 1.6763 0.023929 1.19793 
3943 1 6.64479 6.98974 12.2671 -7.51314 0.43114 -0.446363 -1.41016 
44 2 0.427407 11.0285 16.2375 -22.83 -2.88355 1.866 0.572647 
5063 1 4.29235 12.404 17.7266 -7.5403 -1.21808 -1.334 0.436412 
2561 1 1.47032 12.3055 17.6959 -8.25637 -0.488407 1.22935 1.16521 
3463 1 1.18262 9.57795 17.8166 -8.45477 -2.13681 -0.115742 1.52309 
743 2 10.9888 13.5298 13.8654 -26.1828 3.76543 -4.24881 -1.75376 
3223 1 10.9173 9.39485 12.1654 -7.03833 0.211484 -2.7236 2.16879 
5743 1 12.7671 11.8249 17.0691 -6.13862 -0.752367 0.39384 3.56896 
4063 1 9.64522 11.7436 10.0052 -6.49207 0.275161 2.71013 -2.85095 
1623 2 7.9177 8.07459 10.512 -23.6946 -0.321226 -0.954737 0.220029 
4483 1 13.127 10.2918 10.9741 -6.77262 3.07073 3.20026 5.23651 
723 3 11.3681 7.96111 13.6291 -27.6222 -1.65176 1.0862 -0.887267 
4623 1 8.55295 9.98167 11.174 -6.79159 -0.862753 -1.92182 1.45507 
3723 1 9.57009 9.5106 17.5639 -7.94411 0.418122 -2.58757 -0.191137 
4264 1 9.40954 7.17486 14.9642 -8.20026 3.59464 -3.35736 -1.27063 
4222 1 12.2581 6.85777 17.5507 -8.00469 -1.36052 -0.270287 -0.73333 
4803 1 10.0406 11.8965 12.7111 -7.05957 -2.19703 0.75272 1.28804 
4240 1 12.7052 7.05824 9.96331 -6.89864 -1.43312 -0.0800928 -0.608508 
3724 1 9.59442 6.94875 11.0428 -7.2116 -0.589678 -0.411946 2.55933 
5022 1 12.4109 13.1032 9.76272 -8.11109 0.130743 1.0437 0.690169 
5422 1 7.07224 12.167 11.4659 -6.92184 0.186273 -0.532435 2.4134 
1624 2 8.13073 8.1425 16.3634 -24.553 -0.733457 1.77417 0.304651 
3722 1 12.5966 12.2203 12.3858 -6.13231 0.236867 0.352575 -2.65691 
244 2 10.8543 10.821 16.4267 -26.296 1.81698 1.1505 -2.71561 
5544 1 11.9171 9.09688 15.2559 -7.15985 -0.684423 0.248696 -0.270916 
5260 1 9.23508 9.81882 14.7678 -6.37483 -0.105012 -0.973119 -0.556098 
3645 1 7.21779 11.6151 14.888 -6.17858 -3.44805 -0.289853 -1.7911 
3762 1 9.78944 12.5844 15.5304 -6.39664 0.393752 0.598776 0.815862 
3025 1 6.90558 7.11166 14.8702 -7.17795 -0.958489 -0.751436 0.810084 
243 3 10.9583 10.979 11.2149 -29.1848 1.29729 1.04896 -1.68443 
5643 1 12.3869 9.69347 9.14895 -5.7204 -4.69886 -4.43145 -4.57522 
4744 1 6.97305 9.45019 9.08837 -8.7782 -2.01282 -0.326786 -1.59019 
1143 3 8.30194 10.7595 13.0525 -28.9172 -0.167548 1.17317 2.25569 
5144 1 12.5015 11.909 14.7445 -5.1872 -0.609625 -0.437441 -1.00366 
3124 1 6.84317 9.82615 17.5966 -7.46247 -2.96098 -2.98042 -3.46313 
5382 1 13.312 8.50484 12.9964 -8.60137 0.814187 -2.03086 -1.00177 
4842 1 12.8263 9.24953 17.6897 -6.38945 -0.762866 0.580814 2.17184 
125 2 5.46392 5.21807 22.4749 -23.1729 -5.45322 -0.321198 -3.36537 
605 2 5.42134 2.51256 24.6352 -23.6039 -2.24355 -0.213637 0.123737 
1025 3 2.47834 5.43609 24.9714 -27.5268 -1.23142 -1.27779 -1.89054 
1505 2 2.21609 2.90466 21.7845 -24.4387 1.32286 0.00838234 0.974635 
3004 1 4.10574 3.75088 25.9998 -7.42493 1.30908 1.19406 -4.04991 
3504 1 1.10203 1.0049 20.9656 -8.2242 1.64035 2.09712 0.839181 
2605 1 4.005 3.66238 23.0736 -7.68909 -0.236815 -0.955551 2.17455 
4984 1 0.669546 6.78406 20.649 -8.31627 0.496664 0.51559 -0.500221 
5605 1 6.27918 1.0902 20.6338 -8.04502 0.77141 0.976155 -0.996624 
1024 3 2.45409 5.39662 19.4904 -28.166 1.40679 0.556726 -2.00144 
4426 1 6.5072 6.23819 23.8848 -7.84762 2.13609 1.07303 3.0694 
4766 1 6.7356 1.16198 25.9783 -9.4118 1.82277 2.95637 0.467643 
5847 1 1.63536 3.75471 25.8907 -8.15131 -2.98804 0.850779 -0.147689 
2085 1 3.81368 2.4429 20.3765 -7.37107 -0.64013 -2.68929 0.743723 
3904 1 0.841404 4.14415 20.5294 -8.83264 0.89286 -0.372505 -1.62723 
2028 1 4.06405 1.02487 25.8423 -7.81437 -0.401095 0.482344 0.0582313 
126 2 5.43268 5.22448 27.004 -24.2079 1.09165 0.917214 2.91529 
604 3 5.40892 2.78714 19.181 -26.77 -3.95634 -0.317071 -0.127488 
5705 1 0.823698 3.96308 23.1723 -7.96756 -0.325369 1.29246 -0.146695 
4505 1 6.70002 4.10885 20.1128 -9.74347 -0.148655 -0.781157 1.98472 
1004 3 2.46164 0.00557809 19.5133 -27.8935 -0.54812 1.04409 -0.988661 
2005 1 6.07299 0.785399 23.2034 -8.71546 -0.382959 2.8679 2.71055 
5105 1 6.71007 3.67516 23.1783 -8.88411 1.41488 -2.25374 -1.92073 
4125 1 4.01645 6.51059 24.4768 -7.87797 2.71874 -0.476259 3.38972 
4384 1 3.95371 4.98735 20.894 -7.07217 -1.33657 1.27249 -1.26964 
5045 1 3.39264 3.93717 18.1685 -6.6075 0.78514 1.09322 0.167935 
4105 1 2.0775 1.59527 23.6939 -7.82515 -1.19577 1.29949 -0.128813 
4525 1 0.860139 0.937615 26.3145 -8.18659 2.16951 1.58349 -3.13581 
5625 1 0.973907 1.01864 18.433 -7.5144 -1.37206 -1.18427 -1.39989 
5383 1 2.11683 6.755 23.1449 -6.6598 -1.58433 0.276643 -1.6894 
505 2 0.0178904 2.52328 24.5813 -24.4702 0.505818 1.80203 1.96463 
5725 1 11.8808 1.00067 23.5677 -7.7006 -1.30344 0.718525 0.300911 
4226 1 7.22788 6.62201 27.1911 -6.88248 -2.76792 -0.096321 0.302642 
2086 1 9.27552 3.73954 23.0029 -7.61968 -0.680328 -0.889717 -3.08998 
3524 1 11.6409 2.90077 21.7602 -7.52314 -1.11637 -1.27071 -1.78217 
225 3 11.2453 5.21401 21.6161 -28.5036 0.10515 -0.984121 0.714626 
705 3 10.8736 2.75544 24.2246 -29.0944 0.794341 -0.985718 -0.471199 
1124 2 8.02481 5.1714 18.85 -22.3116 0.644902 2.2819 0.887793 
1125 3 8.38564 4.9677 24.2151 -28.2692 -0.782938 0.590083 3.20542 
1605 2 7.89185 2.57294 21.4648 -23.4764 1.18521 -1.82851 0.75416 
704 2 11.057 2.43957 18.7372 -23.6955 1.69629 -0.761555 1.17974 
3505 1 6.90678 3.94515 25.6777 -8.50182 -1.12162 -0.178458 1.36524 
2285 1 8.9497 0.774487 20.5129 -7.36222 -0.968158 1.90142 -0.430035 
2545 1 8.96926 6.62012 23.525 -7.13747 1.31226 2.43989 -1.92513 
3787 1 12.1016 0.610811 20.2715 -7.53016 2.78415 2.57271 -4.31489 
4106 1 11.9248 1.57276 26.4751 -6.88493 1.63214 0.379347 -0.0694122 
4706 1 9.03049 1.11289 23.0997 -7.67567 -0.454573 0.490726 -2.02642 
5646 1 9.51231 3.78531 25.5624 -8.30739 1.78391 -0.479131 0.496047 
5124 1 9.62446 6.29136 21.015 -7.65381 -1.85905 -0.00553408 -1.96283 
1606 2 8.15643 2.70469 27.1505 -23.6383 2.55644 -0.284685 -1.13811 
4583 1 13.6076 4.69962 22.053 -7.71621 0.400546 3.35881 -0.882535 
4826 1 9.47593 6.53284 26.0635 -6.25811 2.7286 -2.08948 0.421907 
5626 1 12.1569 6.02296 25.6413 -7.90783 0.024406 0.92283 0.883016 
3225 1 11.4815 4.72845 23.5473 -6.37558 -2.8728 3.06157 0.364419 
5906 1 13.0695 3.40974 24.4429 -6.4867 1.88052 -4.19397 2.29167 
1225 3 13.4888 5.23802 24.2996 -29.1296 -0.936506 0.152094 -0.504932 
205 2 10.772 0.552056 21.6506 -23.726 -4.31764 -1.9065 6.03713 
4704 1 9.41445 3.40909 19.7223 -8.62003 -1.64192 1.88494 0.167967 
226 3 11.113 4.94472 26.8838 -27.2163 -0.253921 0.852917 -0.335028 
2883 1 13.1758 2.83847 19.297 -7.49113 0.750319 -1.35307 0.383478 
4103 1 11.9481 5.39235 19.5934 -7.15517 -1.479 0.643663 2.79866 
2686 1 9.56776 0.938044 25.4936 -6.82496 -2.8102 3.53203 -1.02996 
1105 3 7.74046 0.0747732 24.3685 -28.1486 0.856702 -2.20013 -0.570639 
5547 1 4.42576 13.0382 20.9122 -7.74402 1.00303 -2.21987 -0.604615 
3646 1 1.22833 6.82585 25.8359 -8.37024 0.812501 -0.497759 0.861651 
5924 1 5.2772 7.26269 21.8464 -7.85627 0.599443 2.18279 -1.7732 
5525 1 2.97812 7.56617 19.6337 -7.61624 1.14838 0.9075 1.90549 
3944 1 3.99485 10.203 20.3952 -8.756 -0.0812659 0.163863 1.70275 
624 2 5.10855 8.45759 19.5383 -24.1918 -1.347 -1.82357 -2.26952 
3526 1 1.29071 12.6112 20.3785 -8.49328 -1.34691 -2.55884 0.544068 
145 2 5.41004 11.2551 21.9343 -23.4313 -2.12196 -1.31027 2.48221 
625 2 5.46453 8.10892 24.5529 -23.0658 0.176806 1.94248 -0.935968 
1044 2 2.30802 10.9958 19.2416 -23.188 4.08549 1.20248 -3.49047 
1045 3 2.39869 10.6352 24.4659 -26.9223 1.69069 1.73315 2.44275 
1525 3 2.59321 8.31663 22.0753 -26.6495 -0.633747 -2.28122 -1.90685 
2544 1 3.81941 9.34752 23.1938 -8.35485 1.14141 -0.373751 -0.616686 
2304 1 1.22442 9.62526 23.2479 -9.38731 -0.961554 0.459397 -0.426245 
4446 1 3.55453 12.4416 23.1395 -7.76639 0.895292 -3.24982 1.69349 
2045 1 4.40283 10.9544 25.0018 -7.11378 1.4449 1.6836 0.336033 
4306 1 0.579619 12.6708 23.1463 -8.06676 2.81867 -1.42272 0.332371 
5524 1 1.5025 12.3876 26.2064 -7.10413 -0.193045 -1.72154 -2.03492 
2624 1 6.60343 9.59069 20.62 -8.07202 -0.0187249 0.62909 1.30446 
2145 1 6.47311 9.25637 26.5654 -8.74306 -0.316292 0.565753 -1.34036 
5265 1 6.47421 12.2634 23.9052 -7.47238 -0.229828 -1.03097 -2.07087 
4546 1 0.79378 9.6107 26.1689 -8.14687 -2.79656 -1.78093 -4.38928 
146 2 4.96122 10.7803 26.9981 -23.9162 -0.475348 1.60718 4.18512 
5164 1 3.09639 9.42365 26.3075 -7.04115 5.49435 3.53552 -5.25657 
5823 1 1.17972 9.68054 20.3768 -8.89314 0.098524 -1.14364 3.53114 
5245 1 6.07405 13.5048 26.5159 -7.1964 -0.148248 0.922591 -1.45354 
524 2 0.0276849 8.18213 19.0753 -23.4818 -0.497155 -1.03259 1.17953 
45 2 -0.0422288 11.0335 21.6542 -23.5303 -3.3039 0.963285 1.94775 
5966 1 9.72789 11.8502 18.5981 -7.61722 0.612068 0.638126 -0.134014 
744 3 10.5518 13.2645 19.5712 -27.385 0.710045 3.32869 -0.236466 
1725 3 13.3219 8.02662 21.7779 -27.1708 0.936387 0.527219 0.453966 
4045 1 11.6627 7.42675 22.6383 -7.4067 -1.46808 -1.19808 0.0402768 
1245 3 13.5557 11.0105 24.707 -26.9318 0.214638 -0.0731837 -0.817415 
5507 1 7.27023 9.06223 23.5798 -8.72323 -0.427773 1.14298 -0.414074 
4644 1 8.60023 11.7474 26.2442 -8.35949 1.53865 1.60157 4.50818 
5723 1 10.336 9.6848 23.7269 -7.9728 -0.755984 0.873529 -2.64565 
4746 1 11.9432 9.04778 20.594 -8.45551 1.09616 0.760854 -0.34928 
2725 1 7.24549 12.0273 21.2242 -8.52816 0.731524 2.53189 -2.19478 
4104 1 13.1718 9.93717 23.1087 -8.37063 1.47446 -2.61375 -2.02208 
2224 1 9.36641 9.0701 25.991 -8.27354 -1.26952 2.88192 2.10105 
2625 1 11.9636 8.56707 26.4337 -8.25841 -1.98184 2.1452 0.00696788 
2023 1 11.6467 11.155 25.373 -8.44266 -0.189733 2.29128 0.437888 
4624 1 9.68058 11.9911 22.7881 -7.86056 -0.177079 -1.24847 0.0357862 
245 3 11.4114 10.6362 22.0609 -27.204 -0.749581 0.178594 0.434607 
724 2 10.7955 8.12845 18.928 -24.1332 0.614821 -0.231535 -0.294477 
725 2 10.6399 7.84893 24.7095 -25.1616 0.765782 -4.04157 -0.178353 
1145 2 8.45363 10.7068 24.6158 -22.943 -1.1681 -2.38821 -6.53383 
1625 2 8.01013 7.92212 21.7086 -23.7094 0.751489 0.273407 -0.313206 
1144 2 7.82506 10.8902 18.99 -24.3141 3.2274 -1.45835 3.53158 
4224 1 12.4538 12.2433 23.3149 -8.32788 -0.225709 3.55417 -1.18705 
4025 1 9.29152 9.14486 20.2506 -7.45123 -0.385871 0.292291 1.33266 
745 3 10.6941 13.3245 23.9071 -26.2682 -0.197836 0.389271 0.22823 
3685 1 11.8162 11.9215 20.3656 -8.51626 2.49208 -1.24799 0.151186 
246 3 11.0065 10.5172 26.8978 -25.8494 -3.72763 -1.66263 2.52178 
3824 1 6.97396 7.41187 19.0823 -7.18746 0.185887 -2.08568 1.08919 
5143 1 6.85256 12.5041 18.1519 -6.65133 -0.642531 1.42841 1.49097 
2527 1 3.15276 0.848123 33.6973 -8.27086 0.787853 -1.59889 -0.523377 
3105 1 3.16609 6.2164 27.7855 -7.80725 -0.650021 -0.181496 -1.24058 
507 2 0.388762 3.19078 35.6428 -24.5904 -2.5707 7.39421 2.4232 
4309 1 1.62275 6.78557 32.8404 -6.9948 -0.28102 1.30874 0.194615 
506 2 0.0586601 3.37029 30.4619 -22.684 1.59699 -3.36209 -2.68986 
7 3 0.314316 0.674146 32.8434 -27.6492 -1.60504 -0.391985 0.627145 
5006 1 1.46227 3.90953 28.6627 -8.39443 -1.06391 -0.58297 0.569886 
2505 1 4.38627 1.08054 28.7809 -8.15019 -2.32995 0.158412 -0.397703 
1506 2 2.61692 2.52437 27.4411 -24.6453 1.51809 -1.3329 -2.0015 
3007 1 4.34859 3.23064 34.3569 -6.97425 -7.23865 0.337493 -5.09387 
1027 3 3.24386 6.42035 35.4355 -28.6954 -0.849769 -4.1789 -0.158256 
4789 1 1.71488 4.54519 34.6633 -6.84501 0.911993 0.495248 -2.69854 
2007 1 0.847335 1.62457 34.6965 -7.48044 4.01769 -7.92487 -5.80412 
127 2 5.69769 5.60021 32.3232 -24.6444 4.51182 -0.598026 -1.67568 
606 2 5.42815 2.53536 30.013 -23.4875 1.1072 2.80115 -0.767443 
607 2 5.844 3.07606 35.4668 -24.5511 8.59659 -0.271998 7.84677 
1026 3 3.19914 5.33788 29.8313 -27.636 -1.34997 3.17916 -2.94916 
1507 2 2.9256 3.29078 32.764 -24.1533 0.646178 -2.46178 1.70865 
3885 1 1.8014 1.09935 28.94 -8.12945 -0.76007 -0.309788 0.415818 
4488 1 4.08643 4.30738 31.167 -9.07521 -0.365467 -0.492401 -0.0488463 
5326 1 4.1991 3.83924 28.2554 -7.57927 1.21425 -1.2992 5.71308 
5926 1 1.24044 4.27621 32.0359 -8.32166 -0.151327 -0.622242 -1.56524 
4526 1 5.58998 6.08441 29.2483 -6.85646 0.674341 -0.0481282 0.835402 
26 3 -0.0219013 5.22991 27.6125 -27.4118 2.46021 0.97145 -1.74029 
2526 1 6.66541 2.08043 33.5742 -6.87677 0.784201 -1.26837 2.15756 
2926 1 4.34791 1.60849 31.6005 -8.70838 -0.213086 -1.98219 -1.03232 
4507 1 6.71928 1.06472 28.9709 -8.78384 1.99636 1.30875 -2.7804 
5607 1 6.59634 3.66105 31.4791 -7.12046 0.388327 1.00847 -2.43046 
4487 1 1.49744 1.80123 31.5663 -7.93338 -0.0372139 0.501134 -0.0450905 
5908 1 1.00998 5.85135 29.9401 -7.05582 -0.171318 0.0746892 2.7163 
5487 1 6.26134 0.0305792 35.1844 -6.6123 -2.17163 0.261123 -0.0459871 
3048 1 4.18427 6.04383 33.5167 -7.51681 -3.15742 1.39977 3.29099 
107 3 5.38239 0.614893 33.1686 -27.3592 0.69624 1.31472 0.909672 
106 3 5.637 0.0120553 27.2293 -26.9346 -4.03792 -0.816321 0.00857024 
27 3 0.0402472 5.5118 32.8539 -28.3474 -0.851716 3.10607 3.10705 
207 2 11.3045 0.575137 32.4969 -22.9978 -0.590251 -0.127887 0.353113 
1107 2 8.64272 0.341552 35.5323 -24.9036 -1.78721 -2.10834 0.901561 
1707 3 13.6235 2.6995 32.4357 -27.5654 2.61225 1.25407 1.33608 
3745 1 12.8701 4.03869 27.7136 -6.76644 -2.11373 1.49008 -0.207666 
5708 1 13.4786 0.584417 32.1936 -8.9829 0.521075 -1.27142 -1.34121 
1227 3 13.4603 5.49181 35.8805 -28.1607 3.23273 0.527758 -4.5657 
2108 1 7.01646 4.56285 33.8654 -6.31922 -1.2853 0.783736 1.69508 
3027 1 7.21324 4.09395 28.5105 -8.16239 -1.64462 -2.31398 -0.554494 
2407 1 8.11924 0.713016 31.8339 -6.38161 1.95924 -0.80928 -1.39176 
2227 1 12.172 4.61519 33.8065 -8.21322 2.30291 -1.6125 1.68281 
4586 1 8.99468 5.6083 31.3695 -6.66719 1.66377 -0.561856 4.14011 
5286 1 11.5571 2.59686 31.7619 -7.62733 2.64099 1.11776 1.69063 
4006 1 9.2227 2.72012 30.6015 -6.7033 -1.44278 -0.529579 -1.46931 
5686 1 13.497 2.37069 29.5078 -6.5772 1.53733 -0.991923 0.660159 
1127 2 8.27781 5.95097 35.4029 -25.304 0.659307 -0.758452 0.882373 
227 2 10.9274 5.93817 32.8148 -24.6841 -2.54363 1.30489 -2.08604 
706 2 11.1204 2.79292 29.6411 -25.3472 2.4262 0.735864 -1.54002 
1126 2 8.1807 5.67193 29.5335 -23.6168 -4.77511 -3.75684 -0.209818 
1607 2 8.50389 2.96942 32.6044 -26.0055 -1.55565 1.16045 0.690374 
3725 1 9.63193 1.16608 27.9986 -7.68935 -3.27764 -0.0142579 2.08261 
4805 1 10.0541 3.75812 28.0676 -8.00796 -1.18244 2.35782 -0.19252 
707 2 11.2291 3.23504 35.4558 -24.4728 0.724201 -2.46985 -2.61137 
4807 1 10.1402 1.89447 33.8233 -8.00925 -1.61779 0.0483801 1.93775 
5386 1 9.43282 4.54653 34.2941 -7.28346 3.3984 -1.06504 -1.52689 
2225 1 11.404 5.06125 30.4533 -7.19118 1.59287 -1.10475 0.230369 
5206 1 13.0701 2.05345 34.4245 -7.24242 -1.68972 0.222812 -0.493657 
2667 1 11.6507 0.766655 29.8989 -6.91842 -0.341903 -4.40091 1.99475 
1226 2 13.4211 5.82623 30.124 -23.7112 0.775578 -0.443542 -0.173672 
1106 2 8.40146 0.046173 29.6641 -23.4419 2.09789 -0.453976 3.98499 
46 2 0.15566 11.1254 27.4007 -25.2956 -1.71349 2.70122 4.30197 
5925 1 1.0563 12.5908 29.1539 -6.96104 -0.237311 -0.435608 -0.238882 
5246 1 1.47596 11.8698 34.264 -8.04218 0.0637653 -1.34676 -1.16508 
2286 1 0.984453 11.9951 31.6042 -7.96325 2.95304 0.389373 -0.683631 