LAMMPS (11 May 2018)
# Sample LAMMPS input script for thermal conductivity of UO2
units       metal
atom_style full
boundary p p p

# Reading the input structure file
atom_modify map array
read_data U50.5x5x20.lmpstr
  orthogonal box = (0 0 0) to (27.341 27.341 109.364)
  2 by 2 by 6 MPI processor grid
  reading atoms ...
  6000 atoms
  0 = max # of 1-2 neighbors
  0 = max # of 1-3 neighbors
  0 = max # of 1-4 neighbors
  1 = max # of special neighbors

# Setting the variables to elements as they are assigned in the input structure file

variable O equal 1
variable U equal 2
variable Zr equal 3

# setting charges as these were previously unset

set type $O charge -1.1104
set type 1 charge -1.1104
  4000 settings made for charge
set type ${U} charge 2.2208
set type 2 charge 2.2208
  1000 settings made for charge
set type ${Zr} charge 2.2208
set type 3 charge 2.2208
  1000 settings made for charge

pair_style      hybrid/overlay  coul/wolf 0.275 10.96 eam/alloy
pair_coeff      * * coul/wolf
pair_coeff   *    *  eam/alloy  UZrO.eam.alloy O U Zr

compute   peratom all pe/atom pair bond
compute   pe all reduce sum c_peratom
compute   ke all ke/atom


variable    T equal 3000
variable THERMO_DAMP equal 0.100
variable BARO_DAMP equal 0.500
variable  etol equal 1.0e-8
variable  ftol equal 1.0e-10
variable  equilsteps equal 10000
variable  half_equilsteps equal v_equilsteps*0.5
variable  TCsteps equal 2500000
variable  zunits equal 20
variable  nslabs equal 20
variable  thickness equal 1.0/v_nslabs
variable  swapsteps equal 50
variable  dimension string z
variable  temp atom c_ke/0.0001292355
variable  dt equal 0.002
variable  currenttime equal ${dt}*step
variable  currenttime equal 0.002*step
variable  initialsteps equal 5000
variable  rampsteps equal 10000


timestep     ${dt}
timestep     0.002
thermo ${swapsteps}
thermo 50

velocity all create 300 164336

fix thermostat_fix1 all npt temp 300 300 ${THERMO_DAMP} aniso 0.0 0.0 ${BARO_DAMP}
fix thermostat_fix1 all npt temp 300 300 0.1 aniso 0.0 0.0 ${BARO_DAMP}
fix thermostat_fix1 all npt temp 300 300 0.1 aniso 0.0 0.0 0.5

run ${initialsteps}
run 5000
Neighbor list info ...
  update every 1 steps, delay 10 steps, check yes
  max neighbors/atom: 2000, page size: 100000
  master list distance cutoff = 12.96
  ghost atom cutoff = 12.96
  binsize = 6.48, bins = 5 5 17
  2 neighbor lists, perpetual/occasional/extra = 2 0 0
  (1) pair coul/wolf, perpetual
      attributes: half, newton on
      pair build: half/bin/newton
      stencil: half/bin/3d/newton
      bin: standard
  (2) pair eam/alloy, perpetual, copy from (1)
      attributes: half, newton on
      pair build: copy
      stencil: none
      bin: none
Per MPI rank memory allocation (min/avg/max) = 6.984 | 6.993 | 7.009 Mbytes
Step Temp E_pair E_mol TotEng Press Volume 
       0          300   -85194.804            0   -84962.175   -165299.68    81752.902 
      50    214.94416   -85503.968            0   -85337.294    902.44587     74760.22 
     100    224.42995   -85486.061            0   -85312.031    315.39872    74807.076 
     150    249.24771   -85477.844            0    -85284.57   -27.687911    74840.225 
     200    265.39273   -85462.784            0    -85256.99    76.847007    74874.282 
     250    283.42466   -85451.281            0   -85231.505    491.30576    74914.667 
     300    298.34823   -85441.604            0   -85210.256    656.29879    74931.299 
     350    307.12305   -85434.592            0   -85196.439    566.99224    74939.758 
     400    311.69398   -85435.568            0   -85193.871    45.423736    74960.797 
     450      301.521   -85436.622            0   -85202.813   -270.76177    74948.691 
     500    291.60173   -85440.076            0   -85213.959   -359.29785    74948.386 
     550     297.9141   -85447.691            0   -85216.679   -259.61177    74924.378 
     600    297.13328   -85442.741            0   -85212.335    780.72304    74908.289 
     650    301.03684   -85437.236            0   -85203.803   -190.73733    74953.552 
     700    304.58801   -85434.828            0   -85198.641    125.35289    74956.886 
     750    302.23083   -85435.151            0   -85200.791    405.70876    74940.827 
     800    298.22747   -85439.771            0   -85208.516   -8.8406312    74943.021 
     850     294.7618   -85442.587            0   -85214.019    318.09896     74934.92 
     900    299.34289   -85445.156            0   -85213.036   -405.69205     74947.62 
     950    297.85459   -85437.936            0   -85206.971    1238.8688     74907.22 
    1000    304.33696   -85437.117            0   -85201.125    251.95709    74952.967 
    1050    302.42833   -85435.247            0   -85200.734    65.305973    74972.803 
    1100    304.16863   -85441.797            0   -85205.935     153.9127    74936.301 
    1150    297.61408   -85442.613            0   -85211.834    -624.7662    74955.551 
    1200    295.15655   -85442.148            0   -85213.274    136.35816    74924.086 
    1250    294.22981   -85437.314            0   -85209.159    672.92299    74934.569 
    1300     302.6865    -85437.78            0   -85203.067   -423.43866    74960.626 
    1350    305.62898   -85438.308            0   -85201.314     244.0676    74939.311 
    1400     299.9584   -85437.654            0   -85205.056   -601.75317    74974.073 
    1450    302.92117   -85444.565            0    -85209.67    407.22009    74924.897 
    1500    300.95317   -85445.566            0   -85212.197   -357.64035    74934.338 
    1550    302.10791   -85444.636            0   -85210.372    862.56559    74904.772 
    1600    301.89499    -85439.45            0   -85205.351   -385.50993     74961.15 
    1650    304.09106   -85437.777            0   -85201.975   -947.65179    74981.502 
    1700    305.30438   -85439.754            0   -85203.011    964.64276    74906.101 
    1750    302.42476   -85442.156            0   -85207.646   -1655.1691    74993.843 
    1800    296.49768   -85441.294            0    -85211.38    1174.2114    74895.167 
    1850    300.63876   -85443.828            0   -85210.703   -496.54144    74945.485 
    1900    300.99509   -85440.452            0   -85207.051    513.14773    74922.618 
    1950    300.33706   -85436.582            0   -85203.691   -58.927048     74954.92 
    2000     301.6351    -85436.53            0   -85202.633     222.2468    74944.956 
    2050     300.3185   -85438.511            0   -85205.634   -673.35241    74964.591 
    2100    298.44501   -85441.211            0   -85209.787    343.73911    74913.015 
    2150    299.79389   -85444.266            0   -85211.796   -585.91528    74950.475 
    2200    298.62486   -85441.648            0   -85210.085    132.42272    74948.443 
    2250    300.69103   -85438.964            0   -85205.798    406.10077    74932.174 
    2300    304.25967   -85438.619            0   -85202.687    1197.6632    74919.788 
    2350    301.28126    -85437.89            0   -85204.267   -1948.9019    75021.501 
    2400    299.17717   -85439.945            0   -85207.954    985.85424    74912.219 
    2450    296.32171   -85441.038            0   -85211.261   -626.67449    74961.314 
    2500    298.83074   -85442.026            0   -85210.304    190.21798    74949.207 
    2550    302.92205   -85439.599            0   -85204.703    54.889142    74946.495 
    2600    299.47393   -85434.972            0   -85202.751   -232.95927    74957.748 
    2650    301.70413   -85437.931            0    -85203.98    572.81505    74930.326 
    2700    303.41519   -85441.353            0   -85206.076   -1588.4596    74989.624 
    2750     303.6103   -85442.894            0   -85207.465    194.01242    74934.028 
    2800    300.14493   -85440.303            0   -85207.561    593.10743     74935.48 
    2850    296.49565   -85436.971            0   -85207.059   -3.4504404    74947.433 
    2900    308.02477    -85443.05            0   -85204.198   -444.54306    74949.326 
    2950    301.60868   -85436.627            0    -85202.75    201.64402    74956.301 
    3000    302.04068   -85439.364            0   -85205.152   -846.93336    74966.173 
    3050    300.07308   -85442.385            0   -85209.698     1069.265    74899.423 
    3100    297.35586   -85441.987            0   -85211.408   -620.95652    74976.569 
    3150     302.6039   -85442.464            0   -85207.816   -108.61204    74936.613 
    3200    304.45799   -85438.156            0    -85202.07    2554.4011    74866.951 
    3250    300.49912   -85437.009            0   -85203.993   -2218.3429    75026.608 
    3300    299.45423   -85440.128            0   -85207.922    1708.7056    74879.061 
    3350    302.21458   -85444.376            0   -85210.029    336.16943    74919.389 
    3400    297.09017   -85440.205            0   -85209.832   -96.951268    74940.947 
    3450     302.9497   -85437.893            0   -85202.977    720.41595    74931.354 
    3500     303.7795   -85436.642            0   -85201.082   -1213.6688     74995.51 
    3550    300.29668   -85437.495            0   -85204.636     1620.339    74897.143 
    3600    303.91307   -85442.768            0   -85207.104   -557.00846    74959.972 
    3650    301.53351   -85442.099            0    -85208.28    141.11368    74922.104 
    3700    298.01429   -85439.661            0   -85208.571    108.21742    74932.514 
    3750    302.55231   -85440.147            0   -85205.538    254.45129    74935.108 
    3800    303.68269   -85433.996            0    -85198.51   -263.24554    74959.992 
    3850     303.0958   -85435.446            0   -85200.416   -534.67971    74971.136 
    3900    298.87044   -85437.148            0   -85205.395   -407.42655    74952.252 
    3950    302.37843   -85442.314            0    -85207.84   -1005.0623    74956.771 
    4000    300.10663   -85441.464            0   -85208.751    255.39382    74905.054 
    4050    302.63126   -85443.424            0   -85208.755   -1172.3295    74962.885 
    4100    295.46142   -85435.916            0   -85206.806    1374.2331    74912.664 
    4150    298.61934   -85434.357            0   -85202.798   -1081.6752    74993.323 
    4200    303.07928   -85437.008            0   -85201.991    585.59631    74937.302 
    4250    300.43352   -85440.541            0   -85207.575    369.00278    74944.165 
    4300    300.10758    -85442.67            0   -85209.957    574.00484    74920.639 
    4350    301.73158   -85442.674            0   -85208.702   -1244.6599    74961.885 
    4400    300.97041   -85439.771            0   -85206.389    562.91357    74932.752 
    4450    303.28678   -85438.376            0   -85203.198   -1338.5173    74997.374 
    4500    302.85901   -85432.663            0   -85197.817    -405.7745    74961.634 
    4550    306.37129    -85435.94            0    -85198.37    246.83436    74956.315 
    4600    302.74019   -85439.185            0    -85204.43   -82.187909    74956.979 
    4650    301.47226   -85441.313            0   -85207.542      643.928    74912.553 
    4700    301.60123   -85442.526            0   -85208.655   -1132.3272    74980.129 
    4750    298.67373   -85439.997            0   -85208.396    243.31016    74937.402 
    4800     298.5809    -85437.12            0   -85205.591   -1209.4058    74973.183 
    4850    300.61484   -85434.657            0    -85201.55    689.93526    74919.271 
    4900    305.58406   -85439.373            0   -85202.413   -213.13439    74951.344 
    4950    297.80195   -85439.377            0   -85208.452   -70.383286    74955.042 
    5000     298.2037   -85441.405            0   -85210.169   -9.5308224    74936.677 
Loop time of 43.1826 on 24 procs for 5000 steps with 6000 atoms

Performance: 20.008 ns/day, 1.200 hours/ns, 115.787 timesteps/s
99.5% CPU use with 24 MPI tasks x no OpenMP threads

MPI task timing breakdown:
Section |  min time  |  avg time  |  max time  |%varavg| %total
---------------------------------------------------------------
Pair    | 40.391     | 41.023     | 42.086     |   6.5 | 95.00
Bond    | 0.00059104 | 0.00091923 | 0.0019461  |   0.0 |  0.00
Neigh   | 0.0036701  | 0.003977   | 0.0042218  |   0.3 |  0.01
Comm    | 0.74215    | 1.6794     | 2.402      |  29.3 |  3.89
Output  | 0.004685   | 0.0048373  | 0.0067204  |   0.6 |  0.01
Modify  | 0.21231    | 0.36738    | 0.94237    |  42.4 |  0.85
Other   |            | 0.1032     |            |       |  0.24

Nlocal:    250 ave 264 max 236 min
Histogram: 7 1 0 1 1 1 4 2 5 2
Nghost:    5097.67 ave 5140 max 5026 min
Histogram: 8 0 0 0 0 0 0 0 4 12
Neighs:    88656.4 ave 95417 max 82273 min
Histogram: 2 5 2 2 1 3 2 1 3 3

Total # of neighbors = 2127754
Ave neighs/atom = 354.626
Ave special neighs/atom = 0
Neighbor list builds = 2
Dangerous builds = 2

unfix thermostat_fix1

fix thermostat_ramp all npt temp 300 $T ${THERMO_DAMP} aniso 0.0 0.0 ${BARO_DAMP}
fix thermostat_ramp all npt temp 300 3000 ${THERMO_DAMP} aniso 0.0 0.0 ${BARO_DAMP}
fix thermostat_ramp all npt temp 300 3000 0.1 aniso 0.0 0.0 ${BARO_DAMP}
fix thermostat_ramp all npt temp 300 3000 0.1 aniso 0.0 0.0 0.5

run ${rampsteps}
run 10000
Per MPI rank memory allocation (min/avg/max) = 6.989 | 6.996 | 7.01 Mbytes
Step Temp E_pair E_mol TotEng Press Volume 
    5000     298.2037   -85441.405            0   -85210.169   -9.5308224    74936.677 
    5050    300.88133   -85439.237            0   -85205.924    511.43845    74934.622 
    5100     308.3071   -85435.372            0   -85196.301   -577.53248    74980.013 
    5150    312.86688   -85424.872            0   -85182.265    479.71105    74966.238 
    5200    330.73694   -85421.305            0   -85164.841    786.81563     74969.52 
    5250    340.76617   -85409.144            0   -85144.904   -282.09964    75044.736 
    5300     351.5268   -85395.876            0   -85123.291    1031.0605    75039.008 
    5350    368.30723   -85385.256            0   -85099.659   -150.54233    75108.259 
    5400    381.94018   -85371.758            0    -85075.59    150.91657    75118.269 
    5450    400.87042   -85361.185            0   -85050.337   -311.34055    75169.688 
    5500    413.05661    -85345.13            0   -85024.833    -1017.882    75247.813 
    5550    432.65407   -85335.007            0   -84999.513    1573.0318    75174.918 
    5600    452.52724   -85325.128            0   -84974.224   -928.33861    75286.174 
    5650    462.90867   -85308.831            0   -84949.877    1602.0415    75249.035 
    5700     474.2779   -85293.158            0   -84925.388   -1061.2388    75361.716 
    5750    494.24168   -85284.201            0    -84900.95   -686.50768    75395.071 
    5800    502.07854   -85267.287            0    -84877.96     1567.749    75373.225 
    5850     524.5812    -85261.44            0   -84854.664    -1147.769    75481.274 
    5900    538.16252   -85249.797            0   -84832.488   -536.52935    75480.407 
    5950    551.02674   -85237.245            0   -84809.962    634.45963    75489.903 
    6000    555.64889   -85218.783            0   -84787.916   -746.44126    75586.854 
    6050    577.05727   -85212.751            0   -84765.283    2222.6332    75488.601 
    6100    593.21841   -85203.609            0   -84743.608   -584.17178    75593.241 
    6150    594.84307   -85183.368            0   -84722.108   -1375.6982    75685.695 
    6200    604.92793   -85169.843            0   -84700.763    1936.6493    75602.233 
    6250    624.53971   -85162.888            0   -84678.601   -392.68389    75709.754 
    6300    637.49881   -85151.389            0   -84657.052   -921.88554    75776.254 
    6350    660.51779   -85146.927            0   -84634.741    1092.3177    75686.089 
    6400    676.17361   -85137.809            0   -84613.482    1321.1801    75742.692 
    6450    689.10834   -85124.902            0   -84590.546   -783.83409    75830.991 
    6500    703.30361   -85114.516            0   -84569.152    503.29251    75796.964 
    6550    708.52684   -85097.066            0   -84547.652   -932.09931    75909.293 
    6600     722.2987   -85085.731            0   -84525.638   -1464.8882    75977.432 
    6650    736.80994   -85075.058            0   -84503.713    2254.3187    75894.206 
    6700    754.27223   -85066.329            0   -84481.442   -1604.1539    76040.105 
    6750    765.11684   -85054.194            0   -84460.898    1051.1431    75950.876 
    6800    772.64991   -85039.223            0   -84440.086     2048.496    75959.038 
    6850    793.83641    -85033.38            0   -84417.814   -1492.0264    76123.618 
    6900    815.78722   -85028.914            0   -84396.326    355.44908    76083.263 
    6950     817.4617   -85007.567            0   -84373.681    1349.9652    76082.268 
    7000    833.78435    -84998.84            0   -84352.297   -2253.4127    76273.168 
    7050    842.31697   -84984.343            0   -84331.184      883.342    76153.941 
    7100     856.9976   -84975.191            0   -84310.648    1284.9142    76179.617 
    7150    867.12126   -84961.127            0   -84288.734   -1296.2863    76314.291 
    7200    887.89808   -84956.387            0   -84267.883   -329.91676    76310.605 
    7250    898.57515   -84942.898            0   -84246.114   -1855.2269    76406.686 
    7300    916.07591     -84934.2            0   -84223.846    956.35806    76336.461 
    7350    927.22282    -84921.07            0   -84202.072    406.25045    76395.967 
    7400    932.83743   -84904.245            0   -84180.893   -328.00936    76449.478 
    7450    950.83557   -84895.635            0   -84158.327    2321.8094    76378.279 
    7500    972.02842   -84890.246            0   -84136.504    -1109.309    76520.745 
    7550    988.06054   -84880.168            0   -84113.994    774.87645    76467.737 
    7600    988.70275   -84859.136            0   -84092.464   -90.579018    76586.998 
    7650    1008.2859   -84851.888            0   -84070.031   -163.93161    76581.412 
    7700    1014.4441   -84833.526            0   -84046.894     2647.795    76549.127 
    7750    1009.9088   -84807.749            0   -84024.634   -1163.5849     76756.35 
    7800     1030.126   -84800.865            0   -84002.073   -1097.1437    76757.846 
    7850     1048.936   -84793.005            0   -83979.627     957.1008    76734.019 
    7900    1076.8498   -84790.139            0   -83955.116   -1757.6181    76845.534 
    7950     1079.921   -84771.447            0   -83934.042    627.65586    76761.496 
    8000    1083.6419   -84751.298            0   -83911.008   -1048.4341    76884.054 
    8050    1108.0173   -84748.109            0   -83888.917    3040.9473    76807.356 
    8100    1119.0103   -84733.478            0   -83865.762   -166.35248    76958.575 
    8150    1145.1178   -84729.912            0   -83841.951   -2708.0959     77012.65 
    8200      1163.72   -84722.343            0   -83819.957    1409.7123    76899.294 
    8250    1167.6479   -84704.139            0   -83798.708   -1229.6741    77063.654 
    8300    1167.2333   -84681.717            0   -83776.608      861.292    76991.999 
    8350    1185.7235   -84674.905            0   -83755.457   -2847.2035    77183.521 
    8400    1192.5856   -84659.087            0   -83734.319   -2482.5943    77242.681 
    8450    1227.2968   -84660.585            0   -83708.901      2127.12    77087.112 
    8500     1222.676    -84635.13            0   -83687.028   -1069.5005      77251.8 
    8550    1244.3379   -84628.173            0   -83663.274    1345.1458    77208.079 
    8600    1269.3043   -84622.853            0   -83638.595    1245.6823    77245.157 
    8650    1266.4643    -84598.07            0   -83616.013   -2907.3893    77409.338 
    8700    1289.5298   -84591.689            0   -83591.747    1366.3897    77314.731 
    8750    1286.8089   -84564.877            0   -83567.045   -2664.7063    77455.364 
    8800    1315.9319   -84566.528            0   -83546.113    561.12887    77394.729 
    8850    1322.8373   -84549.506            0   -83523.736    170.24803    77462.072 
    8900     1331.234   -84532.886            0   -83500.605    480.84284    77516.982 
    8950    1346.7598   -84521.068            0   -83476.748    -3268.864    77641.025 
    9000    1361.6478   -84511.843            0   -83455.978    575.91391    77612.371 
    9050    1395.3269   -84512.182            0   -83430.201    476.31898    77523.034 
    9100    1377.4303   -84479.879            0   -83411.776    935.27148    77658.473 
    9150    1408.2876   -84478.368            0   -83386.337   -2001.5831    77756.692 
    9200    1419.8964   -84465.971            0   -83364.939    747.65297    77681.389 
    9250    1432.6733   -84452.354            0   -83341.413   -20.441359    77757.366 
    9300    1445.9144   -84437.926            0   -83316.719   -1333.5484    77890.318 
    9350    1470.5435   -84431.941            0   -83291.635   -568.19027    77829.056 
    9400    1468.8103   -84408.893            0   -83269.931    2167.6798    77819.466 
    9450    1489.7192   -84398.016            0    -83242.84   -311.80351    77957.463 
    9500    1488.6438   -84375.688            0   -83221.347     1413.283    77960.927 
    9550    1518.6226   -84375.252            0   -83197.664    2796.7998    77915.382 
    9600    1523.8476   -84354.764            0   -83173.124   -6262.9483     78323.33 
    9650    1543.1903   -84348.605            0   -83151.966    2212.1635    77980.127 
    9700    1557.4383   -84338.828            0   -83131.142   -1065.6916     78112.98 
    9750    1557.5421   -84315.385            0   -83107.618    780.46408    78121.436 
    9800    1570.9085   -84302.045            0   -83083.913   -2156.0111    78348.412 
    9850    1590.9756   -84291.983            0   -83058.291    1375.7116    78197.551 
    9900     1597.859   -84272.784            0   -83033.754    45.224613    78326.148 
    9950    1617.0823   -84262.461            0   -83008.525   -612.01617     78412.84 
   10000    1625.2184   -84241.378            0   -82981.132    227.10671    78396.864 
   10050    1661.3898   -84246.798            0   -82958.504    931.66847    78371.619 
   10100    1666.4433   -84227.272            0   -82935.059    1377.5299    78374.599 
   10150    1688.3991   -84216.798            0    -82907.56   -110.94799     78521.89 
   10200    1683.2267   -84195.247            0    -82890.02   -714.47532     78543.33 
   10250    1699.0478   -84184.545            0   -82867.049    904.57499    78514.842 
   10300    1724.6618   -84177.994            0   -82840.637   -1049.7106    78656.874 
   10350    1724.1529   -84158.738            0   -82821.775    1594.8559    78617.453 
   10400    1735.3555   -84145.528            0   -82799.879     532.1897    78684.971 
   10450    1739.4513   -84124.086            0   -82775.261   -1512.3696    78816.835 
   10500    1747.0153   -84102.006            0   -82747.315   -3840.3072    79010.721 
   10550    1783.5418   -84104.629            0   -82721.614   -133.51013     78797.72 
   10600    1812.7658   -84097.317            0   -82691.641   -185.35153    78870.452 
   10650    1833.1699   -84086.684            0   -82665.186    2398.4909    78816.738 
   10700    1822.2295   -84052.549            0   -82639.534   -480.62863    79019.954 
   10750    1830.7673   -84040.614            0   -82620.979   -5072.6516    79252.225 
   10800    1850.9085   -84027.247            0   -82591.994     1749.369    79053.607 
   10850    1886.2381   -84034.578            0   -82571.929    83.758777    79028.281 
   10900    1892.5719   -84018.755            0   -82551.195    218.96937     79084.29 
   10950    1898.6481   -83998.018            0   -82525.747   -2755.5896    79175.604 
   11000    1905.2493   -83982.182            0   -82504.791    1551.2038    79097.773 
   11050    1914.7685    -83965.94            0   -82481.168   -2405.1413    79288.939 
   11100    1903.3464   -83931.478            0   -82455.563    2960.0471    79163.787 
   11150    1936.9734   -83933.447            0   -82431.457   -3308.4097    79444.227 
   11200    1955.1466    -83926.56            0   -82410.477    489.96179    79296.311 
   11250     1944.052   -83888.511            0   -82381.032    1341.4248     79398.37 
   11300    1990.1968    -83898.12            0   -82354.859   -2752.8991    79587.159 
   11350    2009.5254   -83888.711            0   -82330.461    2847.3179    79409.945 
   11400    2017.3911    -83867.59            0   -82303.241    2243.4931    79492.114 
   11450    2025.4309   -83848.783            0     -82278.2   -1321.6671    79638.766 
   11500    2043.5492   -83844.767            0   -82260.135   -1958.6437    79711.532 
   11550    2059.7197   -83828.167            0   -82230.995   -1550.5422    79806.311 
   11600    2089.0868   -83831.353            0   -82211.409   -433.67099    79755.518 
   11650    2090.7107   -83802.803            0     -82181.6    2214.5665    79688.304 
   11700    2105.3867   -83786.824            0   -82154.241   -1801.6205     79925.34 
   11750    2086.4201   -83744.537            0   -82126.661    608.36548    79907.776 
   11800    2109.1216   -83730.242            0   -82094.762    424.94483    79903.489 
   11850    2126.9851   -83722.703            0   -82073.371    3361.1183    79861.172 
   11900     2155.028   -83713.785            0   -82042.708   -2644.3348    80120.656 
   11950    2158.8861   -83689.586            0   -82015.517     429.1816    80022.567 
   12000    2149.8678   -83667.218            0   -82000.143    2427.8911    80067.508 
   12050    2196.8809     -83669.5            0   -81965.969   -4868.5205     80297.81 
   12100    2219.4001   -83665.269            0   -81944.276   -190.33755    80232.482 
   12150    2240.9708   -83662.337            0   -81924.617   -1518.0263    80302.031 
   12200    2223.4901   -83619.641            0   -81895.477    247.60869    80315.777 
   12250     2271.719   -83629.747            0   -81868.184    2469.7055    80255.432 
   12300    2258.8705   -83598.041            0   -81846.441   -3225.8877    80450.221 
   12350    2271.7929   -83588.364            0   -81826.744   -205.44592    80480.632 
   12400    2269.9674   -83555.896            0   -81795.691    2478.2453    80455.144 
   12450    2290.3107   -83550.469            0    -81774.49   -121.76168    80541.566 
   12500    2310.5858    -83540.71            0   -81749.008    1287.9664      80532.6 
   12550    2299.7741   -83499.555            0   -81716.237    1358.3544    80547.569 
   12600    2321.5846   -83487.174            0   -81686.944    -1834.109    80739.783 
   12650    2370.4234   -83492.961            0    -81654.86   -2027.4195    80844.015 
   12700    2373.6813   -83463.461            0   -81622.834   -1163.8803    80900.562 
   12750    2372.4504   -83429.976            0   -81590.303    2140.1568    80776.952 
   12800     2371.109    -83398.39            0   -81559.757   -2344.0028    81121.338 
   12850    2373.3776   -83363.575            0   -81523.183     -1384.36    81087.361 
   12900    2414.3937    -83370.79            0   -81498.593   -1318.1941    81133.774 
   12950    2418.2938   -83337.162            0   -81461.941    702.43795    81001.294 
   13000     2451.377   -83327.619            0   -81426.743    2708.1532    80982.393 
   13050     2454.036   -83309.191            0   -81406.254   -330.55847    81205.923 
   13100    2450.2786   -83276.303            0    -81376.28    275.13232    81181.458 
   13150    2481.4671   -83263.025            0   -81338.817   -3854.0796    81411.746 
   13200    2474.0226   -83234.803            0   -81316.368   -2200.8395     81348.37 
   13250    2482.9783   -83199.467            0   -81274.087    2658.1131    81261.621 
   13300    2543.1092   -83205.708            0   -81233.701   -525.88285    81398.869 
   13350    2531.6194   -83161.265            0   -81198.167    1975.8996    81377.375 
   13400    2563.5994   -83140.752            0   -81152.856   -3648.3359    81606.508 
   13450    2579.4515   -83118.925            0   -81118.736   -506.96068    81617.203 
   13500    2572.1655   -83074.634            0   -81080.096   -1531.4638    81709.015 
   13550    2608.5588   -83063.613            0   -81040.854    3526.0461     81544.39 
   13600      2591.92   -83014.698            0   -81004.841   -1804.8221    81851.321 
   13650    2636.2638   -83010.693            0    -80966.45    1261.4697    81735.535 
   13700    2653.8694   -82996.036            0   -80938.142   -3679.3236    81866.452 
   13750    2641.9183   -82960.928            0   -80912.301    2185.1714    81828.609 
   13800    2649.7716   -82927.588            0   -80872.871    2019.8291    81830.026 
   13850    2646.4834   -82898.929            0   -80846.763   -1860.3975    82037.219 
   13900    2687.8212   -82892.472            0   -80808.251   -1434.1567    81936.584 
   13950    2675.3426   -82849.138            0   -80774.593    4856.8499    81753.362 
   14000    2720.9541   -82848.317            0   -80738.403   -1225.0358    82140.639 
   14050    2753.5589   -82845.894            0   -80710.697    629.48383    82034.187 
   14100    2719.8244   -82791.705            0   -80682.667   -1370.9779    82216.442 
   14150    2727.6934   -82765.322            0   -80650.182    1288.8505     82172.11 
   14200     2788.531    -82786.13            0   -80623.815   -3388.0535    82260.968 
   14250    2789.4832    -82768.45            0   -80605.397    5820.5437    81975.503 
   14300    2775.4044   -82724.819            0   -80572.682   -1028.5404    82245.832 
   14350    2779.7009   -82692.636            0   -80537.168    876.85063    82269.777 
   14400    2823.3086   -82694.589            0   -80505.306    907.73637    82362.966 
   14450    2829.7018   -82669.003            0   -80474.763   -1501.1239     82465.39 
   14500    2873.0097    -82652.31            0   -80424.487   -338.93241    82501.848 
   14550    2847.9959   -82609.128            0   -80400.702   -578.72135    82554.622 
   14600    2867.2539   -82597.788            0   -80374.429    4098.5396    82372.189 
   14650    2863.3441   -82549.082            0   -80328.754    689.45154     82523.86 
   14700    2902.3043   -82554.691            0   -80304.153   -2875.1816    82787.421 
   14750    2871.7314   -82511.341            0    -80284.51    770.09879     82577.82 
   14800    2902.2808   -82493.734            0   -80243.213   -5.8578879    82568.394 
   14850    2960.1842   -82506.924            0   -80211.504    4231.2127    82524.321 
   14900    2954.9259   -82476.417            0   -80185.074   -1205.1467    82670.081 
   14950    2993.0841   -82469.269            0   -80148.337    -2845.761    82847.077 
   15000     2987.162   -82426.937            0   -80110.597   -998.87102    82971.017 
Loop time of 85.8079 on 24 procs for 10000 steps with 6000 atoms

Performance: 20.138 ns/day, 1.192 hours/ns, 116.539 timesteps/s
99.5% CPU use with 24 MPI tasks x no OpenMP threads

MPI task timing breakdown:
Section |  min time  |  avg time  |  max time  |%varavg| %total
---------------------------------------------------------------
Pair    | 78.912     | 80.09      | 81.952     |   8.3 | 93.34
Bond    | 0.0011329  | 0.001908   | 0.003819   |   1.4 |  0.00
Neigh   | 1.067      | 1.1275     | 1.1702     |   2.9 |  1.31
Comm    | 1.8456     | 3.6692     | 4.5876     |  33.5 |  4.28
Output  | 0.012268   | 0.0125     | 0.014672   |   0.4 |  0.01
Modify  | 0.51382    | 0.73665    | 1.5639     |  43.1 |  0.86
Other   |            | 0.1701     |            |       |  0.20

Nlocal:    250 ave 262 max 233 min
Histogram: 1 1 0 3 1 4 8 3 2 1
Nghost:    4828.58 ave 4873 max 4788 min
Histogram: 3 1 5 2 0 2 6 2 1 2
Neighs:    82305 ave 89717 max 76334 min
Histogram: 2 0 4 6 2 3 4 1 1 1

Total # of neighbors = 1975319
Ave neighs/atom = 329.22
Ave special neighs/atom = 0
Neighbor list builds = 570
Dangerous builds = 127

unfix thermostat_ramp

fix thermostat_eq all npt temp $T $T ${THERMO_DAMP} aniso 0.0 0.0 ${BARO_DAMP}
fix thermostat_eq all npt temp 3000 $T ${THERMO_DAMP} aniso 0.0 0.0 ${BARO_DAMP}
fix thermostat_eq all npt temp 3000 3000 ${THERMO_DAMP} aniso 0.0 0.0 ${BARO_DAMP}
fix thermostat_eq all npt temp 3000 3000 0.1 aniso 0.0 0.0 ${BARO_DAMP}
fix thermostat_eq all npt temp 3000 3000 0.1 aniso 0.0 0.0 0.5

variable AVE_START equal 20000
variable V equal vol
variable LX equal lx
variable LY equal ly
variable LZ equal lz
fix avg_V_fix all ave/time 1 1000 1000 v_V start ${AVE_START}
fix avg_V_fix all ave/time 1 1000 1000 v_V start 20000
fix avg_LX_fix all ave/time 1 1000 1000 v_LX start ${AVE_START}
fix avg_LX_fix all ave/time 1 1000 1000 v_LX start 20000
fix avg_LY_fix all ave/time 1 1000 1000 v_LY start ${AVE_START}
fix avg_LY_fix all ave/time 1 1000 1000 v_LY start 20000
fix avg_LZ_fix all ave/time 1 1000 1000 v_LZ start ${AVE_START}
fix avg_LZ_fix all ave/time 1 1000 1000 v_LZ start 20000

variable AVG_V equal f_avg_V_fix
variable AVG_LX equal f_avg_LX_fix
variable AVG_LY equal f_avg_LY_fix
variable AVG_LZ equal f_avg_LZ_fix

variable VOL equal ${AVG_V}
variable VOL equal 0
variable LP equal (${VOL}/(4*4*${zunits}))^(1/3)
variable LP equal (0/(4*4*${zunits}))^(1/3)
variable LP equal (0/(4*4*20))^(1/3)

print "OUTPUT:${AVG_V}:${AVG_LX}:${AVG_LY}:${AVG_LZ}:${LP}"
OUTPUT:0:0:0:0:0

unfix avg_V_fix
unfix avg_LX_fix
unfix avg_LY_fix
unfix avg_LZ_fix

run ${equilsteps}
run 10000
Per MPI rank memory allocation (min/avg/max) = 6.989 | 7.06 | 7.773 Mbytes
Step Temp E_pair E_mol TotEng Press Volume 
   15000     2987.162   -82426.937            0   -80110.597   -998.87102    82971.017 
   15050    3030.9329   -82447.882            0   -80097.601    1604.9919    82659.407 
   15100    3032.9093   -82402.536            0   -80050.723   -1098.8393    82950.487 
   15150     3061.189   -82377.167            0   -80003.425   -1741.6765     83145.45 
   15200    3027.1079   -82379.071            0   -80031.756    1838.9185    82878.642 
   15250    2994.7924    -82388.71            0   -80066.454    2612.4962    82822.597 
   15300    3012.2229   -82423.311            0   -80087.538   -5396.8107    82990.958 
   15350    2970.7897    -82400.32            0   -80096.676    3196.0974    82760.761 
   15400    2969.0073   -82373.689            0   -80071.427    348.63081    82957.728 
   15450    2994.4124   -82329.266            0   -80007.304    3725.1051    83032.608 
   15500    3025.3695   -82359.205            0   -80013.238    819.29957    83042.327 
   15550    2989.1863   -82370.631            0   -80052.721    650.06833    82899.954 
   15600    2938.0236   -82361.775            0   -80083.538    3329.2873    82879.824 
   15650    3017.7282    -82419.07            0   -80079.029   -2639.8499    83055.541 
   15700    3000.3689   -82401.077            0   -80074.496    5612.3454    82701.983 
   15750    3000.7348   -82379.994            0   -80053.129   -389.80042    82884.816 
   15800    2998.6778   -82334.794            0   -80009.524    2415.2757    83018.824 
   15850     3019.583   -82284.073            0   -79942.593     1908.086    83264.461 
   15900    3044.3869   -82325.411            0   -79964.697    661.66696    83015.367 
   15950    3052.6008   -82367.233            0    -80000.15     817.8903    83070.584 
   16000    2993.0968    -82357.91            0   -80036.968   -157.47336     83074.14 
   16050    3040.5111     -82430.5            0   -80072.792    908.58608    82888.539 
   16100     2974.274   -82407.339            0   -80100.993   -1457.3037    82932.418 
   16150    2971.0896   -82401.448            0   -80097.571   -1031.4869    82783.433 
   16200    3029.8249   -82434.929            0   -80085.507    1134.6541    82811.128 
   16250    3039.6148   -82382.814            0     -80025.8   -3245.2526    83024.515 
   16300    3074.1109   -82362.517            0   -79978.754    1225.8169    83000.209 
   16350     3051.914   -82379.061            0   -80012.511   -5222.4653    83091.609 
   16400    3000.6255   -82376.332            0   -80049.552    1350.8342    82807.223 
   16450    2972.5021   -82387.658            0   -80082.686    3323.2148    82689.913 
   16500    2942.1084   -82378.879            0   -80097.475   -5161.7075    83025.347 
   16550    2996.7881   -82385.102            0   -80061.297    4618.9595    82903.197 
   16600    3063.5371   -82382.754            0    -80007.19   -1121.8702    83105.245 
   16650    3018.7509    -82355.72            0   -80014.885   -1450.1276     83272.89 
   16700    3031.3327   -82405.555            0   -80054.964    199.90733    82805.944 
   16750    3001.3309    -82429.82            0   -80102.494     147.2235    82778.559 
   16800     2986.668   -82437.987            0   -80122.031    1490.2046    82833.493 
   16850    2981.3236   -82447.271            0   -80135.458    1989.4032    82774.565 
   16900    2976.7294   -82420.245            0   -80111.995   -2076.8709    82783.746 
   16950    3031.5971   -82407.557            0   -80056.761    6125.7934     82638.12 
   17000    2991.1384   -82371.882            0   -80052.458   -1416.3808    83169.786 
   17050    2996.6679   -82359.263            0   -80035.552    2849.9301    82822.639 
   17100    3004.1943    -82318.31            0   -79988.763   -966.41817    82973.106 
   17150    3041.1729   -82323.114            0   -79964.892   -723.91425    83026.775 
   17200    2998.3764   -82343.413            0   -80018.378    2089.4299    82921.182 
   17250    2983.5221   -82370.282            0   -80056.765   -173.02897    83032.886 
   17300     2968.477   -82354.699            0   -80052.848    553.73169    82923.863 
   17350    2986.1048   -82341.576            0   -80026.056   -332.20835    82878.723 
   17400    3034.8195   -82364.149            0   -80010.854    1740.9676     82934.35 
   17450    2988.8347   -82379.365            0   -80061.728   -2189.3667    83004.437 
   17500    2958.5752    -82399.39            0   -80105.218    654.59047    82814.748 
   17550    3011.7055   -82433.575            0   -80098.203   -697.32172    82866.194 
   17600    3017.7838   -82424.054            0    -80083.97    900.65348    82825.043 
   17650    3027.4976   -82406.994            0   -80059.376   -5546.6527    83112.105 
   17700    3058.6907   -82391.301            0   -80019.496   -1931.2238    82909.075 
   17750     3062.887   -82404.785            0   -80029.725    1336.2848    82825.205 
   17800    2954.5795   -82375.268            0   -80084.193    -2201.874    82964.726 
   17850    3005.6771   -82415.923            0   -80085.226    4927.2083    82749.324 
   17900    2953.3205   -82347.757            0   -80057.659   -3316.7828    83053.343 
   17950    2960.6936   -82330.316            0     -80034.5    433.01177    82820.438 
   18000     3026.523   -82384.631            0   -80037.769    3105.9831    82725.287 
   18050    2966.6937   -82373.181            0   -80072.713   -1929.0359    82933.881 
   18100    2987.6307   -82408.572            0   -80091.869    923.39359      82790.4 
   18150    2988.6393   -82408.552            0   -80091.066    1034.4586    82772.983 
   18200      3020.65   -82422.351            0   -80080.044   -1022.1651    82864.143 
   18250    3002.5145   -82397.444            0   -80069.199    2161.4854    82741.839 
   18300    2994.9217   -82392.712            0   -80070.355   -3187.8804    83088.129 
   18350    2993.6295   -82379.495            0   -80058.141   -312.29082    82941.736 
   18400    3031.0358   -82401.297            0   -80050.936    3417.5229    82751.315 
   18450       3005.2   -82423.375            0   -80093.048   -317.39852    82960.689 
   18500    2986.1905    -82447.77            0   -80132.184    117.49015    82883.455 
   18550    3029.2977   -82473.198            0   -80124.185    741.32636    82733.804 
   18600    2972.5346    -82405.72            0   -80100.723    -4492.626    82998.515 
   18650    3065.2712   -82422.983            0   -80046.075    5187.6645    82500.313 
   18700    3011.1658    -82385.98            0   -80051.027   -2701.6553    82956.952 
   18750    2998.7395   -82406.816            0   -80081.499   -2936.7675    82937.815 
   18800    2940.5756   -82435.978            0   -80155.762    5507.6417    82484.772 
   18850    2896.9659   -82415.581            0   -80169.182   -4215.3875    82918.169 
   18900    2967.8784    -82421.08            0   -80119.693    3593.2395    82681.949 
   18950    2971.4517   -82397.516            0   -80093.358    -37.14943    82828.985 
   19000    2988.5765   -82363.018            0   -80045.581   -314.91525    82999.647 
   19050    3034.1983   -82374.504            0   -80021.691    1007.9661    82956.484 
   19100    2992.6684    -82364.76            0    -80044.15     951.6369    82855.127 
   19150     2988.107   -82376.819            0   -80059.747   -3578.6637    83062.986 
   19200    3014.6079   -82415.012            0    -80077.39    2413.9933    82855.672 
   19250    2992.1913   -82440.793            0   -80120.553   -1221.6454     82935.12 
   19300    2977.7382   -82432.905            0   -80123.872   -490.51845    82685.418 
   19350    3030.9933   -82428.347            0   -80078.019    3282.9701    82525.495 
   19400    3015.1748   -82374.225            0   -80036.163   -6642.2027    83273.572 
   19450    3017.4737    -82360.67            0   -80020.826    1254.2899    82851.691 
   19500    3026.0313   -82383.425            0   -80036.944   -1071.2204    82906.801 
   19550    3003.5976   -82395.646            0   -80066.561   -784.63257    83034.325 
   19600    2984.3136    -82387.31            0   -80073.179    4576.7543    82631.466 
   19650    2992.4354   -82394.441            0   -80074.012   -1134.0364    82978.852 
   19700    3001.5513   -82365.484            0   -80037.986   -297.58938     83013.58 
   19750    3090.4484   -82377.606            0   -79981.174    2657.6143    82844.867 
   19800    3033.4848   -82351.954            0   -79999.694   -5809.0773    83403.722 
   19850    3029.1522   -82376.579            0   -80027.678      1489.81    82827.243 
   19900    2967.3922   -82379.554            0   -80078.544    -8.335596    82818.186 
   19950    2976.3965   -82385.574            0   -80077.583   -956.61849      83007.3 
   20000    2992.1946   -82384.365            0   -80064.123   -376.88632    82911.461 
   20050    2977.5199   -82382.204            0   -80073.341   -2456.1453    83016.388 
   20100    3015.8595   -82414.435            0   -80075.842   -898.00651    82956.342 
   20150    2960.7181   -82370.929            0   -80075.094     -1722.54    82939.278 
   20200    3066.7871   -82453.289            0   -80075.205    1261.0344    82713.041 
   20250    3000.9247   -82444.223            0   -80117.211   -2594.5064    82924.511 
   20300    2965.8954   -82430.954            0   -80131.105    1283.8057    82691.177 
   20350    3030.2839   -82445.294            0   -80095.516    1681.0875     82861.12 
   20400    2994.2708   -82349.031            0   -80027.179   -3533.1857    83361.566 
   20450     3035.017   -82356.314            0   -80002.865    1696.4445    82961.153 
   20500    2994.0939    -82344.66            0   -80022.945    2254.0425    82957.364 
   20550     2978.248   -82377.163            0   -80067.736   -1463.3008    82845.477 
   20600    2994.9032   -82415.307            0   -80092.965    516.07245      82616.5 
   20650    2932.2045   -82348.811            0   -80075.087    600.76216    82956.581 
   20700    2995.5057   -82371.697            0   -80048.887   -4359.0932    83040.058 
   20750    3015.3494   -82386.521            0   -80048.324    4257.6023    82745.372 
   20800    2978.6411   -82376.019            0   -80066.286   -2736.5363    82953.517 
   20850    2977.0109   -82393.549            0   -80085.081    488.74676    82807.882 
   20900    2978.0381    -82404.96            0   -80095.695    2578.6367    82849.971 
   20950    2964.1635   -82377.865            0   -80079.359   -2278.9873    83009.056 
   21000    3034.7311   -82380.376            0   -80027.149    2518.2459    82730.612 
   21050    3033.9747   -82375.814            0   -80023.174    2121.3498    82883.874 
   21100    2998.8564   -82387.343            0   -80061.935   -1217.3626    82970.605 
   21150     2974.083   -82397.798            0     -80091.6    3272.8827    82829.246 
   21200    3008.8276   -82414.691            0   -80081.551   -724.46299    82834.335 
   21250    3030.4976   -82421.903            0    -80071.96    751.89029    82914.716 
   21300    2969.3916    -82380.56            0       -80078    524.37947    82923.204 
   21350    3021.5719   -82402.099            0   -80059.077   -1231.2586    82867.345 
   21400    3015.2078    -82342.38            0   -80004.293    744.52217    82981.784 
   21450    3044.1381   -82356.182            0   -79995.661   -4697.9091    83246.503 
   21500    3039.8814   -82400.836            0   -80043.615    2770.0769    82687.224 
   21550    2974.9507   -82396.034            0   -80089.163    771.68861     82822.58 
   21600    3037.8925   -82443.844            0   -80088.166   -5636.2876    83000.788 
   21650    2973.5676   -82371.728            0    -80065.93    6145.7785    82585.008 
   21700    3021.7305    -82369.87            0   -80026.725   -2686.0167    83108.858 
   21750    3042.9942   -82397.295            0   -80037.661    1141.6014    82915.653 
   21800    2997.8978   -82416.717            0   -80092.053    2435.1865    82813.462 
   21850    2969.6102   -82442.226            0   -80139.497   -3311.2177    83019.545 
   21900    2990.6896   -82447.602            0   -80128.526     4775.473    82587.583 
   21950    2952.4195   -82384.552            0   -80095.152   -3084.8162    83113.916 
   22000    2989.5783   -82380.968            0   -80062.754    1226.9399    82935.737 
   22050    3042.7799   -82420.562            0   -80061.094   -1905.2963    82910.163 
   22100     3004.205   -82415.465            0   -80085.909    -3179.517    82916.329 
   22150    3020.9116   -82455.708            0   -80113.198    1375.9091    82732.676 
   22200    2947.6836   -82462.401            0   -80176.674   -570.09674    82856.688 
   22250    2950.7756   -82471.404            0   -80183.279    2414.4289    82598.303 
   22300    2940.8995   -82421.065            0   -80140.599    1939.0106    82754.588 
   22350    2955.9113   -82399.067            0    -80106.96    192.89711    83168.645 
   22400     2960.478    -82371.84            0   -80076.192    3202.4783    82926.469 
   22450    3037.8065   -82403.768            0   -80048.156    419.88545    82988.319 
   22500    3000.8799   -82377.863            0   -80050.886   -1014.9058    82837.217 
   22550    3026.1034   -82434.289            0   -80087.753    1013.8761    82830.371 
   22600    2941.1588    -82407.07            0   -80126.403   -1960.7352    83013.683 
   22650    2981.5647   -82413.985            0   -80101.985    5164.5648    82777.366 
   22700    3012.7078   -82409.009            0    -80072.86   -4257.8003    83140.999 
   22750    3080.6279    -82398.97            0   -80010.153    2530.5196    82838.399 
   22800    3016.3241   -82339.789            0   -80000.836   -1964.3135    83136.873 
   22850    3011.5106   -82354.982            0   -80019.761   -3690.6955    83308.042 
   22900    3001.4453   -82378.486            0   -80051.071    4984.6276    82789.245 
   22950    2980.4417   -82398.783            0   -80087.654    -2433.754    83159.425 
   23000    2973.8833   -82388.921            0   -80082.878    546.16048    82942.274 
   23050      3016.54   -82391.815            0   -80052.695    2734.4763    82721.235 
   23100    2985.0667   -82377.761            0   -80063.046   -5656.5892    83157.775 
   23150    3008.3562   -82412.115            0   -80079.341    1960.0429    82818.357 
   23200    2969.5438   -82464.168            0    -80161.49   -4265.6524    82990.548 
   23250    2944.2618   -82449.534            0   -80166.461    3314.5033    82676.359 
   23300    2972.5315   -82416.349            0   -80111.354    2901.9971    82759.151 
   23350    3022.3509       -82411            0   -80067.374   -4500.9828    83158.066 
   23400    3056.6812   -82421.251            0   -80051.003   -489.43259     82938.41 
   23450    3025.1671   -82414.748            0   -80068.938   -223.93877    82820.101 
   23500    2957.7759   -82419.423            0    -80125.87    741.64632    82868.305 
   23550    2960.0642   -82427.124            0   -80131.797   -4295.1606    83018.557 
   23600    2991.2716   -82425.109            0   -80105.583    4707.0588    82633.296 
   23650    2950.5733   -82386.115            0   -80098.147    879.03658    82919.681 
   23700    3040.1895   -82423.809            0    -80066.35   -1362.5501    83061.983 
   23750    2999.2581   -82386.869            0    -80061.15    4437.6513    82799.358 
   23800    3023.0576   -82415.453            0   -80071.279   -1292.1706    83001.882 
   23850    2979.4871   -82442.647            0   -80132.259   -1382.4784     82915.79 
   23900    2954.0866   -82444.524            0   -80153.832    3213.3395    82645.437 
   23950    3010.0242    -82438.93            0   -80104.862   -3580.9129    83106.089 
   24000    3016.0663    -82416.99            0   -80078.237    4705.0553    82860.011 
   24050    3001.2872    -82413.69            0   -80086.397   -2712.2368    82986.714 
   24100    2981.0683   -82420.408            0   -80108.793   -2025.8801    82797.983 
   24150    2937.7387   -82422.492            0   -80144.476    855.53608    82744.204 
   24200    2979.9436   -82444.742            0   -80133.999   -951.53761    82857.896 
   24250     3025.106   -82414.968            0   -80069.205    431.56954     82807.38 
   24300    2991.7867   -82366.214            0   -80046.288   -3377.5454    83275.265 
   24350    3022.1975   -82388.615            0   -80045.107    2929.3433    82750.609 
   24400    2970.2007   -82403.283            0   -80100.095    -1291.894     82847.07 
   24450    2959.5518   -82402.441            0   -80107.511   -1722.4815    82976.971 
   24500    3027.9346   -82432.407            0    -80084.45   -2142.8609    82880.745 
   24550    2998.4739   -82413.557            0   -80088.445    3166.9648     82685.67 
   24600    2979.1211   -82395.856            0   -80085.751   -2782.4005    83003.263 
   24650    2987.8378   -82347.853            0   -80030.989    675.70942    82874.626 
   24700    3049.3191   -82369.573            0   -80005.035   -3318.3055    82949.048 
   24750    3018.4421   -82359.397            0   -80018.801    -2388.363    83060.351 
   24800    3018.4304   -82393.326            0    -80052.74    948.93442    82864.764 
   24850    2967.9158   -82381.024            0   -80079.608   -1271.2034    82879.414 
   24900    2998.3828   -82403.954            0   -80078.913    1496.4241    82810.367 
   24950    2963.1318   -82377.702            0   -80079.996   -1514.4678    82941.943 
   25000    3045.7308   -82422.444            0   -80060.688    2655.5005    82726.779 
Loop time of 82.8847 on 24 procs for 10000 steps with 6000 atoms

Performance: 20.848 ns/day, 1.151 hours/ns, 120.650 timesteps/s
99.5% CPU use with 24 MPI tasks x no OpenMP threads

MPI task timing breakdown:
Section |  min time  |  avg time  |  max time  |%varavg| %total
---------------------------------------------------------------
Pair    | 75.712     | 76.689     | 78.394     |   7.6 | 92.52
Bond    | 0.0010713  | 0.0018958  | 0.0037168  |   1.4 |  0.00
Neigh   | 1.8349     | 1.9021     | 1.9567     |   2.1 |  2.29
Comm    | 1.8367     | 3.4843     | 4.1485     |  30.9 |  4.20
Output  | 0.0093352  | 0.0095407  | 0.01179    |   0.5 |  0.01
Modify  | 0.48946    | 0.65952    | 1.3261     |  36.6 |  0.80
Other   |            | 0.1384     |            |       |  0.17

Nlocal:    250 ave 265 max 241 min
Histogram: 4 2 4 5 2 2 2 2 0 1
Nghost:    4837.29 ave 4876 max 4805 min
Histogram: 4 0 4 2 4 3 2 3 0 2
Neighs:    82555.7 ave 89363 max 77309 min
Histogram: 2 1 5 5 5 0 2 1 2 1

Total # of neighbors = 1981337
Ave neighs/atom = 330.223
Ave special neighs/atom = 0
Neighbor list builds = 961
Dangerous builds = 607

unfix thermostat_eq

fix thermostat_nvt all nvt temp ${T} ${T} ${THERMO_DAMP}
fix thermostat_nvt all nvt temp 3000 ${T} ${THERMO_DAMP}
fix thermostat_nvt all nvt temp 3000 3000 ${THERMO_DAMP}
fix thermostat_nvt all nvt temp 3000 3000 0.1

run ${equilsteps}
run 10000
Per MPI rank memory allocation (min/avg/max) = 6.989 | 7.06 | 7.773 Mbytes
Step Temp E_pair E_mol TotEng Press 
   25000    3045.7308   -82422.444            0   -80060.688    2655.5005 
   25050    3032.5291   -82426.336            0   -80074.817   -362.62585 
   25100    2942.1979   -82416.109            0   -80134.636    1497.8203 
   25150    2940.6247   -82427.242            0   -80146.989    2867.1923 
   25200    2954.0891   -82404.363            0   -80113.669   -1328.7926 
   25250    2992.5373   -82397.734            0   -80077.226    2540.3811 
   25300    2989.8317   -82361.407            0   -80042.997    2928.1374 
   25350    3063.1003    -82399.54            0   -80024.315    2498.9512 
   25400    2982.5501   -82375.524            0    -80062.76     5354.717 
   25450    2962.7522   -82407.894            0   -80110.482   -146.23024 
   25500    3067.1709   -82487.094            0   -80108.712    1441.5047 
   25550    2963.2498   -82409.819            0   -80112.021    1072.5908 
   25600    3026.7082   -82423.756            0   -80076.751    959.53134 
   25650    3036.8599   -82397.967            0    -80043.09    1711.3247 
   25700    2960.1338   -82369.372            0    -80073.99    2667.7362 
   25750    2957.1668   -82428.063            0   -80134.983   -804.59684 
   25800    2964.6034   -82439.476            0   -80140.629     3014.299 
   25850    3005.5301   -82459.603            0    -80129.02    587.74213 
   25900    2951.8125   -82402.425            0   -80113.496   -135.75687 
   25950    2995.3529   -82394.296            0   -80071.605    1664.8043 
   26000    3019.6577   -82399.905            0   -80058.367    2776.6018 
   26050    2981.4992   -82385.437            0   -80073.488    1648.6786 
   26100    2993.3169    -82445.93            0   -80124.817    -850.0711 
   26150     2927.395   -82420.201            0   -80150.206   -2607.6483 
   26200    3037.8217   -82452.109            0   -80096.486   -1307.2513 
   26250    3015.1783   -82422.351            0   -80084.286   -102.39146 
   26300    3022.3121     -82416.9            0   -80073.304    2581.6734 
   26350    3058.9086   -82402.606            0   -80030.631    4592.0201 
   26400     3018.918   -82346.806            0   -80005.841    6740.8207 
   26450     3017.959   -82415.185            0   -80074.964    545.44524 
   26500     3018.169   -82443.914            0    -80103.53    646.09241 
   26550    3021.9791   -82442.489            0   -80099.151    887.72809 
   26600    2986.2526   -82401.513            0   -80085.879    1095.1345 
   26650    3042.9796   -82403.598            0   -80043.975    3714.5181 
   26700    3029.4067   -82344.083            0   -79994.985    5953.8892 
   26750    3032.0478   -82350.398            0   -79999.252    8373.6589 
   26800    3027.4661   -82389.291            0   -80041.698    5984.6109 
   26850    3000.4502   -82397.858            0   -80071.214    1498.6715 
   26900    3036.2304   -82441.457            0   -80087.068    87.982211 
   26950    2950.1632   -82385.768            0   -80098.119    4884.9285 
   27000    3002.0298   -82401.676            0   -80073.807    4384.8798 
   27050    3009.3131   -82361.318            0   -80027.801    6523.9799 
   27100    3053.6492   -82385.811            0   -80017.915    4131.5431 
   27150    3017.5419   -82415.109            0   -80075.211    2811.4357 
   27200    2981.0875   -82424.558            0   -80112.928   -2611.5813 
   27250    2980.2596   -82416.003            0   -80105.016    2670.6357 
   27300    2994.1887   -82396.059            0    -80074.27    2390.8134 
   27350    3024.3608   -82373.445            0    -80028.26    2642.5076 
   27400    3013.9061     -82367.5            0   -80030.422    392.75757 
   27450    2943.2654   -82334.866            0   -80052.564    8050.3141 
   27500    3011.4757   -82398.427            0   -80063.234    5000.2367 
   27550    3042.4031   -82454.848            0   -80095.673   -1331.5991 
   27600    3000.7599   -82434.314            0    -80107.43   -744.91982 
   27650    3038.5246    -82427.39            0   -80071.222    4592.1174 
   27700    3012.1973   -82362.108            0   -80026.355    1838.6761 
   27750    2986.6317   -82342.892            0   -80026.964    5445.2831 
   27800    3056.7973   -82409.678            0   -80039.341    1952.9875 
   27850    3011.0659   -82396.571            0   -80061.695    2906.3429 
   27900     2973.555   -82391.871            0   -80086.083    2102.3999 
   27950    2961.4771   -82387.695            0   -80091.272    3495.8334 
   28000    3036.4365   -82403.315            0   -80048.766    3269.3511 
   28050    3039.9422   -82383.498            0    -80026.23    4549.1359 
   28100    3000.8499    -82401.02            0   -80074.066    2308.5757 
   28150    3005.6333    -82431.46            0   -80100.797    1208.6872 
   28200    2994.3487   -82426.185            0   -80104.273    4262.0375 
   28250    3002.4245   -82389.569            0   -80061.395    2522.5803 
   28300    3048.0632   -82384.382            0   -80020.817     5479.514 
   28350    3039.1454   -82385.639            0   -80028.989    6014.8215 
   28400    2954.0545   -82373.395            0   -80082.728     6530.867 
   28450    2957.2177   -82395.713            0   -80102.593    3819.9098 
   28500    3019.4211   -82431.155            0   -80089.801    4089.2634 
   28550    2996.5251   -82417.416            0   -80093.815   -287.81203 
   28600    3007.6113   -82450.742            0   -80118.546   -1280.9032 
   28650    2939.5937   -82415.431            0   -80135.977      1809.81 
   28700    3027.2626   -82459.299            0   -80111.864    2670.8417 
   28750    3009.3405    -82398.16            0   -80064.622    2316.2471 
   28800    3002.5409   -82370.227            0   -80041.962    2935.6267 
   28850    2992.9535   -82360.913            0   -80040.082    3440.5297 
   28900    2999.8078   -82414.092            0   -80087.947    3063.0925 
   28950    2956.5542   -82425.729            0   -80133.123    1521.8008 
   29000    2974.3371   -82423.831            0   -80117.436   -604.64736 
   29050    2956.7333   -82362.169            0   -80069.425    2423.4468 
   29100    3006.5313   -82380.476            0   -80049.117    3868.0602 
   29150    3005.9421   -82404.214            0   -80073.312   -680.19612 
   29200    2990.7037    -82423.76            0   -80104.674   -1003.2275 
   29250    2988.2431   -82418.113            0   -80100.935   -873.07727 
   29300    3008.3102   -82365.772            0   -80033.033    4809.4893 
   29350    3032.6371   -82361.939            0   -80010.336    5160.9485 
   29400    3021.7771   -82378.843            0   -80035.662    1557.8718 
   29450    2991.8727   -82403.471            0   -80083.479    759.49752 
   29500     2973.466   -82409.406            0   -80103.686    1786.1726 
   29550    3038.8636    -82460.65            0    -80104.22   -192.03533 
   29600    2963.7333   -82402.888            0   -80104.715     1057.281 
   29650    3004.5426   -82422.107            0    -80092.29    2732.5854 
   29700    3025.7807    -82413.68            0   -80067.394    2277.5245 
   29750    3013.4089   -82389.599            0   -80052.907    1647.4467 
   29800    3019.2407   -82414.609            0   -80073.394    2905.8725 
   29850    2989.2338   -82434.912            0   -80116.965    -2020.556 
   29900    2979.7048    -82431.87            0   -80121.313   -1040.4521 
   29950    3014.2854   -82396.047            0   -80058.675    5925.0478 
   30000    3002.9435   -82362.734            0   -80034.156    2028.9397 
   30050    3012.4024   -82378.181            0   -80042.269    2600.0413 
   30100    3017.4522   -82408.103            0   -80068.275    2338.1342 
   30150    2999.0679   -82427.844            0   -80102.272    2244.6763 
   30200    2975.4358   -82423.354            0   -80116.107   -1086.1593 
   30250    3018.3906   -82380.666            0    -80040.11    4164.6883 
   30300    3014.6534   -82363.258            0   -80025.601    3474.1453 
   30350    2991.5711   -82399.092            0   -80079.334    1347.4566 
   30400    2978.9067   -82423.815            0   -80113.877    1893.4961 
   30450    3001.5948   -82450.734            0   -80123.203    108.43066 
   30500    3022.3131   -82450.177            0   -80106.579     92.72956 
   30550    2994.3004   -82370.035            0   -80048.159    4489.9595 
   30600    3040.3164   -82384.764            0   -80027.207    2730.8832 
   30650    3043.3259    -82410.98            0   -80051.089    1932.6059 
   30700    2982.0491   -82399.147            0   -80086.772    2138.2882 
   30750    2977.5609   -82403.089            0   -80094.194   -1821.1695 
   30800    2979.0799   -82386.106            0   -80076.033    1002.6601 
   30850    3037.1318   -82388.116            0   -80033.028    4262.7045 
   30900    3002.6426   -82355.388            0   -80027.044    2213.2364 
   30950    2974.0008   -82402.913            0   -80096.779   -516.92826 
   31000    2922.0513    -82389.43            0   -80123.579    2427.1221 
   31050    2996.8495   -82415.264            0   -80091.412     3724.922 
   31100    2955.1087   -82358.961            0   -80067.476    4612.2177 
   31150    2997.7167   -82354.634            0    -80030.11    3952.0395 
   31200    3048.5613   -82345.739            0   -79981.788    9735.9653 
   31250    3063.8647   -82406.019            0   -80030.201    4388.2752 
   31300     2965.823   -82391.815            0   -80092.022    3328.4581 
   31350    2983.9447   -82420.899            0   -80107.054     3953.408 
   31400     3012.331   -82436.004            0   -80100.147    1893.7335 
   31450    3017.9816   -82397.125            0   -80056.886     755.4502 
   31500      3019.94   -82378.408            0   -80036.651    5667.6637 
   31550    3031.1429    -82408.45            0   -80058.006    1750.4723 
   31600    2980.4935   -82427.016            0   -80115.848    3872.3503 
   31650    2984.9045   -82434.066            0   -80119.477   -424.54484 
   31700    3036.2835   -82462.432            0   -80108.002    -293.1103 
   31750    2986.6342   -82400.856            0   -80084.925    3419.1943 
   31800     3021.581    -82387.44            0    -80044.41     346.7121 
   31850    3076.8464   -82369.518            0   -79983.634    4088.7288 
   31900    3067.7339   -82398.993            0   -80020.175    2754.8404 
   31950    3028.6018   -82405.022            0   -80056.548    930.03895 
   32000     3004.551   -82416.015            0   -80086.191    2945.6707 
   32050     2973.052   -82415.067            0   -80109.669    4128.5626 
   32100    3014.3404   -82424.433            0   -80087.019    921.55859 
   32150    3030.8227   -82383.792            0   -80033.596    4061.4186 
   32200    3062.3039   -82388.212            0   -80013.605    4965.8054 
   32250     2983.479   -82377.638            0   -80064.154    666.43485 
   32300    2944.4924   -82387.468            0   -80104.216    869.74202 
   32350    2972.0491   -82396.137            0   -80091.516    2571.9144 
   32400    3005.0989   -82380.963            0   -80050.714    2160.2651 
   32450    3037.7548   -82383.605            0   -80028.034    6079.2491 
   32500     2987.562   -82368.505            0   -80051.855    4792.9258 
   32550    2983.1815    -82419.46            0   -80106.207     5881.184 
   32600    2969.3503   -82427.345            0   -80124.817    777.84147 
   32650    2973.2845   -82424.313            0   -80118.734    2799.9755 
   32700    2957.9881   -82392.133            0   -80098.416    2556.4683 
   32750    3017.8948    -82402.32            0   -80062.149    2017.4301 
   32800    3020.3291   -82416.715            0   -80074.656     3140.294 
   32850    2972.4403   -82434.868            0   -80129.944    187.13668 
   32900    2973.2959   -82450.685            0   -80145.098   -631.24003 
   32950    3023.5982   -82456.975            0   -80112.381    831.17468 
   33000    3006.0898   -82395.587            0    -80064.57    4407.0284 
   33050    3049.3253   -82421.106            0   -80056.563    5987.9277 
   33100    2999.6875   -82418.319            0   -80092.267    2603.0881 
   33150    2939.2068   -82446.277            0   -80167.123    2783.2836 
   33200    2970.2649   -82448.321            0   -80145.084    2864.4062 
   33250    3041.7868   -82464.531            0   -80105.833    2301.2714 
   33300    2982.2983   -82422.895            0   -80110.327    5001.5534 
   33350    2990.7035   -82458.703            0   -80139.617    3062.5778 
   33400    2935.8361   -82482.259            0   -80205.719   -2567.7933 
   33450    2936.0684   -82475.992            0   -80199.272    2354.8835 
   33500     2976.518   -82461.168            0   -80153.082  -0.47393272 
   33550    2959.3653   -82418.474            0   -80123.689    2565.7668 
   33600    3059.8227   -82457.181            0   -80084.498    748.32095 
   33650    3012.6259   -82410.183            0   -80074.098     3481.911 
   33700    3012.3975   -82434.969            0    -80099.06    2869.7747 
   33750    2942.5662   -82449.024            0   -80167.265    -532.2887 
   33800    2973.2633   -82464.084            0   -80158.522    413.81114 
   33850    3037.0245   -82468.655            0    -80113.65   -33.701514 
   33900    2957.4307   -82385.979            0   -80092.693    3964.3405 
   33950    2992.5556    -82389.99            0   -80069.468    1305.0886 
   34000    3005.4281   -82385.967            0   -80055.463    3606.0402 
   34050    3040.0682   -82368.344            0   -80010.979    1318.3411 
   34100    3046.2508   -82345.337            0   -79983.178    4126.5423 
   34150    3027.5026   -82365.359            0   -80017.738    4996.4587 
   34200    2985.4321   -82388.184            0   -80073.185    2696.4335 
   34250    3024.5716    -82426.99            0   -80081.641    789.02961 
   34300    2983.0443   -82414.193            0   -80101.047    1209.0474 
   34350    2944.0369   -82384.815            0   -80101.916    -1229.436 
   34400    3062.3615   -82420.937            0   -80046.285    2164.0067 
   34450     3058.893   -82400.821            0   -80028.858    1572.2864 
   34500     2987.425   -82379.944            0     -80063.4    4653.3242 
   34550    3020.3896    -82462.41            0   -80120.305    278.54917 
   34600    2958.0613   -82423.042            0   -80129.268    879.02936 
   34650      2975.81   -82406.426            0   -80098.889    673.40651 
   34700    3054.6454   -82420.533            0   -80051.864    3295.9356 
   34750    3045.2809   -82429.992            0   -80068.585   -130.53476 
   34800    3004.3408   -82419.705            0   -80090.044    810.67791 
   34850    3009.8779   -82409.384            0   -80075.429   -2074.3519 
   34900    3043.7091   -82407.651            0   -80047.463    2607.6503 
   34950    3012.3721   -82357.193            0   -80021.305    5315.1007 
   35000    3044.7113   -82388.004            0   -80027.039    5104.0466 
Loop time of 82.3904 on 24 procs for 10000 steps with 6000 atoms

Performance: 20.973 ns/day, 1.144 hours/ns, 121.373 timesteps/s
99.5% CPU use with 24 MPI tasks x no OpenMP threads

MPI task timing breakdown:
Section |  min time  |  avg time  |  max time  |%varavg| %total
---------------------------------------------------------------
Pair    | 75.538     | 76.465     | 78.058     |   7.4 | 92.81
Bond    | 0.0013034  | 0.0019906  | 0.0035891  |   1.4 |  0.00
Neigh   | 1.8126     | 1.8807     | 1.9255     |   2.0 |  2.28
Comm    | 1.9717     | 3.5031     | 4.2098     |  29.3 |  4.25
Output  | 0.0091418  | 0.0094247  | 0.011639   |   0.5 |  0.01
Modify  | 0.1961     | 0.38789    | 1.1327     |  53.1 |  0.47
Other   |            | 0.1418     |            |       |  0.17

Nlocal:    250 ave 261 max 241 min
Histogram: 1 2 4 2 6 1 4 0 3 1
Nghost:    4836.96 ave 4886 max 4795 min
Histogram: 3 1 3 2 5 4 1 2 2 1
Neighs:    82534.7 ave 86917 max 78906 min
Histogram: 3 3 2 3 3 0 3 6 0 1

Total # of neighbors = 1980832
Ave neighs/atom = 330.139
Ave special neighs/atom = 0
Neighbor list builds = 949
Dangerous builds = 500

unfix thermostat_nvt

dump atoms all custom 1000000 lattice.out id type x y z c_peratom fx fy fz

reset_timestep 0

fix nve_fix all nve


thermo_modify line one format float %15.15g

variable tempsteps equal step

compute 1 all chunk/atom bin/1d ${dimension} lower ${thickness} units reduced
compute 1 all chunk/atom bin/1d z lower ${thickness} units reduced
compute 1 all chunk/atom bin/1d z lower 0.05 units reduced
fix 3 all ave/chunk 50 10 1050 1 v_temp file tmp_profile.out
fix flux all thermal/conductivity ${swapsteps} ${dimension} 20
fix flux all thermal/conductivity 50 ${dimension} 20
fix flux all thermal/conductivity 50 z 20

thermo_style custom step v_currenttime temp pe c_pe temp f_flux etotal press
WARNING: New thermo_style command, previous thermo_modify settings will be lost (../output.cpp:705)
thermo_style multi
thermo_modify line one format float %15.15g
thermo ${swapsteps}
thermo 50

variable fluxstep equal step-${tempsteps}
variable fluxstep equal step-0
variable fluxtime equal dt*v_fluxstep
variable fflux equal f_flux
variable eetotal equal etotal

fix fluxlog all print ${swapsteps} "${fluxstep} ${fluxtime} ${eetotal} ${fflux} " file flux_log.out
fix fluxlog all print 50 "${fluxstep} ${fluxtime} ${eetotal} ${fflux} " file flux_log.out

run         ${TCsteps}
run         2500000
Per MPI rank memory allocation (min/avg/max) = 8.633 | 8.703 | 9.417 Mbytes
TotEng KinEng Temp PotEng E_bond E_angle E_dihed E_impro E_vdwl E_coul E_long Press 
-80027.038735489 2360.9654033015 3044.71132372716 -82388.0041387905               0               0               0               0 -6429.26079904594 -75958.7433397446               0 5104.04658291241 
50 0.1 -80026.6835856353 0.968610883491754 
-80026.6835856353 2335.2703228592 3011.57483545955 -82361.9539084945               0               0               0               0 -6449.31692110609 -75912.6369873885               0 3344.77163301299 
100 0.2 -80026.2533669158 2.92559318955434 
-80026.2533669158 2298.68539929052 2964.39475780509 -82324.9387662063               0               0               0               0 -6410.3493508432 -75914.5894153631               0  5280.347882683 
150 0.3 -80026.9065918253 4.55946644252154 
-80026.9065918253 2355.03389733827 3037.0620276605 -82381.9404891636               0               0               0               0 -6469.50496747321 -75912.4355216904               0 1856.57771787812 
200 0.4 -80026.469221389 6.57135497154732 
-80026.469221389 2308.15001738895 2976.60037075424 -82334.6192387779               0               0               0               0 -6445.20616478697 -75889.413073991               0 2979.04796944566 
250 0.5 -80026.902692052 7.39336827638263 
-80026.902692052 2351.98649171999 3033.13208002933 -82378.889183772               0               0               0               0 -6488.99621487092 -75889.892968901               0 1980.4045535755 
300 0.6 -80026.9257246365 9.21434900610847 
-80026.9257246365 2368.16088025902 3053.99064232351 -82395.0866048955               0               0               0               0 -6465.61446939354 -75929.472135502               0 2144.18516237494 
350 0.7 -80026.2821899612 9.64228225323388 
-80026.2821899612 2326.57722744234 3000.36418153935 -82352.8594174035               0               0               0               0 -6411.22543786976 -75941.6339795337               0 4887.0481780227 
400 0.8 -80026.833530202 10.79743311051 
-80026.833530202 2374.89358721399 3062.6731706979 -82401.727117416               0               0               0               0 -6495.97311618455 -75905.7540012315               0 2263.99997018474 
450 0.9 -80026.7774190279 12.854318749367 
-80026.7774190279 2366.69031290631 3052.09419222524 -82393.4677319343               0               0               0               0 -6459.90509179342 -75933.5626401408               0 3655.38022947702 
500 1 -80026.6119470393 14.8962759610758 
-80026.6119470393 2336.70356620826 3013.42315235924 -82363.3155132475               0               0               0               0 -6421.98495578376 -75941.3305574637               0 4450.07823992267 
550 1.1 -80026.7112268833 15.4184829041308 
-80026.7112268833 2375.82586188508 3063.87543619655 -82402.5370887684               0               0               0               0 -6486.67462352752 -75915.8624652409               0  1212.825214584 
600 1.2 -80026.6552478226 15.6766045442309 
-80026.6552478226 2375.5152232025 3063.47483519108 -82402.1704710251               0               0               0               0 -6491.93003396821 -75910.2404370569               0 1601.95684177257 
650 1.3 -80026.3533170782 16.0760175058322 
-80026.3533170782 2333.24660814789 3008.96504410516 -82359.5999252261               0               0               0               0 -6450.91262043607 -75908.68730479               0 5394.75038735633 
700 1.4 -80026.8822181133 17.1397220907564 
-80026.8822181133 2364.77508343572 3049.62430391239 -82391.657301549               0               0               0               0 -6440.37683294731 -75951.2804686017               0 5129.13063819831 
750 1.5 -80026.367115654 18.878418925894 
-80026.367115654  2376.243933642 3064.41458336518 -82402.611049296               0               0               0               0  -6433.66694907 -75968.944100226               0 4354.08782627928 
800 1.6 -80026.0241190951 20.5315296997246 
-80026.0241190951 2339.56778186392 3017.11685741235 -82365.591900959               0               0               0               0 -6453.96447800844 -75911.6274229506               0 3638.1843303694 
850 1.7 -80026.3971518504 22.5286378645294 
-80026.3971518504 2355.61404634327 3037.81019035806 -82382.0111981937               0               0               0               0 -6474.42323674628 -75907.5879614474               0 4285.69243885248 
900 1.8 -80026.1225531829 24.3586896536563 
-80026.1225531829 2305.20288665367 2972.79973805133 -82331.3254398366               0               0               0               0 -6431.06148677888 -75900.2639530577               0 4165.21123594296 
950 1.9 -80026.4513349557 24.6257415495155 
-80026.4513349557 2363.45120836531 3047.9170288238 -82389.902543321               0               0               0               0 -6491.73417636935 -75898.1683669516               0 2855.69719116749 
1000 2 -80026.2839363404 26.644690727295 
-80026.2839363404 2370.65370928566 3057.20540555337 -82396.9376456261               0               0               0               0 -6491.74658104553 -75905.1910645805               0 2629.6774002621 
1050 2.1 -80026.6239939792 28.6136079668659 
-80026.6239939792 2355.18303573349 3037.25435718812 -82381.8070297127               0               0               0               0 -6449.33169021317 -75932.4753394995               0 3273.80083456913 
1100 2.2 -80026.4015467066 29.0724208696648 
-80026.4015467066 2352.11122952844 3033.29294245339 -82378.512776235               0               0               0               0 -6468.22681971478 -75910.2859565203               0 2968.79400513991 
1150 2.3 -80026.4315134733 29.9688036155873 
-80026.4315134733 2335.43009385578 3011.78087683644 -82361.861607329               0               0               0               0 -6402.5964296744 -75959.2651776547               0 6194.41086538599 
1200 2.4 -80026.6950059663 30.8500554597148 
-80026.6950059663 2374.24647805599 3061.83865589379 -82400.9414840223               0               0               0               0 -6494.22019018852 -75906.7212938338               0 3358.16632421675 
1250 2.5 -80026.7249607893 32.0270783011455 
-80026.7249607893 2370.0968360021 3056.48725932811 -82396.8217967914               0               0               0               0 -6394.54182093652 -76002.2799758549               0 6959.06001081289 
1300 2.6 -80026.5373324436 33.6417318421509 
-80026.5373324436 2358.81429259695 3041.93724194199 -82385.3516250406               0               0               0               0 -6466.63758056498 -75918.7140444756               0 3759.57057236095 
1350 2.7 -80026.3493604911 35.1818422450399 
-80026.3493604911 2355.54282921059 3037.71834843186 -82381.8921897016               0               0               0               0 -6427.80534278642 -75954.0868469152               0 6301.44792307985 
1400 2.8 -80026.8518413313 36.3223749936333 
-80026.8518413313 2373.45985955619 3060.82422923153 -82400.3117008875               0               0               0               0 -6470.37997781021 -75929.9317230772               0 4413.25504628783 
1450 2.9 -80026.9008066678 37.1739547220908 
-80026.9008066678 2351.07410970414  3031.955468186 -82377.974916372               0               0               0               0 -6440.31963415762 -75937.6552822143               0 4883.10010987525 
1500 3 -80026.7168707926 37.4425921206746 
-80026.7168707926 2355.50834567995 3037.67387831974 -82382.2252164726               0               0               0               0 -6422.50006198705 -75959.7251544855               0 6210.06236414949 
1550 3.1 -80026.8266863791 38.4370257993911 
-80026.8266863791 2337.47902544991 3014.42318799333 -82364.305711829               0               0               0               0 -6468.38448822464 -75895.9212236044               0 3579.00712057639 
1600 3.2 -80026.3093812762 40.1024368193953 
-80026.3093812762 2353.07494678618 3034.53575644948 -82379.3843280624               0               0               0               0 -6430.35143271175 -75949.0328953506               0 5264.0324425154 
1650 3.3 -80026.591421288 41.8201615927319 
-80026.591421288 2380.26102853437 3069.59504653087 -82406.8524498224               0               0               0               0 -6482.11742093583 -75924.7350288865               0 2750.30479688613 
1700 3.4 -80026.5244167332 43.3852412340646 
-80026.5244167332 2334.0912018445 3010.05423583513 -82360.6156185777               0               0               0               0 -6410.0705653664 -75950.5450532113               0 5932.22509841539 
1750 3.5 -80026.3085843214 44.918766379634 
-80026.3085843214 2338.44296451722 3015.66628803602 -82364.7515488387               0               0               0               0 -6445.83594562389 -75918.9156032148               0 3856.24198514822 
1800 3.6 -80026.5007016547 46.7244618480298 
-80026.5007016547 2350.8224922031 3031.63098115472 -82377.3231938578               0               0               0               0 -6440.58414402658 -75936.7390498312               0 5220.83571026124 
1850 3.7 -80026.0274584558 48.2937393934119 
-80026.0274584558 2350.43584177628  3031.132355071 -82376.4633002321               0               0               0               0 -6475.50966355653 -75900.9536366755               0 2164.93132660567 
1900 3.8 -80026.0462962789 50.9441433651127 
[...]
-70697.8580824961 6676.92461551914 8610.59122514709 -77374.7826980152               0               0               0               0 -2914.71418888559 -74460.0685091296               0 225890.769701612 
439300 878.6 -70633.8091434562 12959.1463031798 
-70633.8091434562 6612.92193212872 8528.05308435297 -77246.731075585               0               0               0               0 -3118.69173474607 -74128.0393408389               0 216240.487747522 
439350 878.7 -70558.4272870383 12960.5804196376 
-70558.4272870383 6687.92405330579 8624.77614828777 -77246.3513403441               0               0               0               0 -2960.34884486749 -74286.0024954766               0 223594.379177613 
439400 878.8 -70486.9036491324 12966.3998765895 
-70486.9036491324 6759.2680935279 8716.78173500282 -77246.1717426603               0               0               0               0 -2948.63322600457 -74297.5385166558               0 225681.66529543 
439450 878.9 -70425.7151936547 12972.0250868501 
-70425.7151936547 6818.28356823776 8792.88834964147 -77243.9987618924               0               0               0               0 -2920.83079040987 -74323.1679714826               0 228063.974504503 
439500 879 -70349.9801392218 12975.7621110761 
-70349.9801392218 6775.64041527477 8737.89555282866 -77125.6205544966               0               0               0               0 -2883.67590425997 -74241.9446502366               0 229455.792702816 
439550 879.1 -70245.854107038 12976.9823887452 
-70245.854107038 6842.37628550462 8823.95842334064 -77088.2303925427               0               0               0               0 -2749.87148651076 -74338.3589060319               0 237324.843737165 
439600 879.2 -70138.0152858966 12982.767910621 
-70138.0152858966 6970.91780218698 8989.72612618989 -77108.9330880836               0               0               0               0 -2805.41558216627 -74303.5175059173               0 234430.948517874 
439650 879.3 -70042.7173753206 12983.9346489652 
-70042.7173753206 7002.44547581423 9030.38435217212 -77045.1628511348               0               0               0               0 -2803.39810798101 -74241.7647431538               0 235774.438908866 
439700 879.4 -69953.9379440528 12986.1596496991 
-69953.9379440528 7044.67911973512 9084.84904433083 -76998.6170637879               0               0               0               0 -2788.76833944906 -74209.8487243389               0 235371.871420727 
439750 879.5 -69874.7958382073 12988.8839741012 
-69874.7958382073 7129.26285946614 9193.92860551462 -77004.0586976734               0               0               0               0 -2687.6782258848 -74316.3804717886               0 242902.451735763 
439800 879.6 -69815.8498015824 12991.4028969693 
-69815.8498015824 7177.94146359747 9256.70474658582 -76993.7912651799               0               0               0               0 -2806.35461504657 -74187.4366501333               0 240034.764888575 
439850 879.7 -69697.2003701958 12994.6158220233 
-69697.2003701958 7284.54396753717 9394.17980252227 -76981.7443377329               0               0               0               0 -2818.36230121088 -74163.3820365221               0 238103.13161044 
439900 879.8 -69588.9393266175 13002.2210774038 
-69588.9393266175 7237.98581381626 9334.13820358665 -76826.9251404338               0               0               0               0 -2638.2659823377 -74188.6591580961               0 246886.027014906 
439950 879.9 -69482.401591837 13007.4955625687 
-69482.401591837 7379.40247136078 9516.50974447724 -76861.8040631978               0               0               0               0 -2709.13559740396 -74152.6684657938               0 244823.637030385 
440000 880 -69404.8992729467 13012.1517285874 
-69404.8992729467 7336.48352247283 9461.16128003178 -76741.3827954196               0               0               0               0 -2691.17050362025 -74050.2122917993               0 242825.330484726 
440050 880.1 -69285.7563402772 13017.0168761613 
-69285.7563402772 7434.56948146305 9587.65336230394 -76720.3258217403               0               0               0               0 -2569.9201375752 -74150.4056841651               0 253546.119639379 
440100 880.2 -69185.0462397342 13022.2652192893 
-69185.0462397342 7502.8360454134 9675.69022214142 -76687.8822851476               0               0               0               0 -2605.6423701001 -74082.2399150475               0 251789.857503055 
440150 880.3 -69067.3707791078 13024.5023858536 
-69067.3707791078 7542.30953147385 9726.59540263545 -76609.6803105817               0               0               0               0 -2423.26937128858 -74186.4109392931               0 259390.635736318 
440200 880.4 -68952.1480319065 13030.7095386156 
-68952.1480319065 7627.70039568953 9836.71583508938 -76579.848427596               0               0               0               0 -2410.03914646689 -74169.8092811291               0 259802.299497722 
440250 880.5 -68809.8979682109 13035.3778227745 
-68809.8979682109 7827.49184604302 10094.3677644334 -76637.389814254               0               0               0               0 -2365.64729174579 -74271.7425225081               0 266138.399040493 
440300 880.6 -68683.3152831699 13040.9369838089 
-68683.3152831699 7815.72434333644 10079.1923414083 -76499.0396265063               0               0               0               0 -2393.26593751976 -74105.7736889866               0 264627.787156632 
440350 880.7 -68568.2819301744 13046.5830711323 
-68568.2819301744 7889.7488462736 10174.6546645795 -76458.030776448               0               0               0               0 -2277.02995242847 -74181.0008240195               0 273951.765757321 
440400 880.8 -68446.1906733814 13049.0816010998 
-68446.1906733814 7889.94676792502 10174.909905208 -76336.1374413064               0               0               0               0 -2408.78504457615 -73927.3523967303               0 267063.163728316 
440450 880.9 -68312.3123886159 13056.2652652313 
-68312.3123886159 7895.45034988566 10182.0073486069 -76207.7627385016               0               0               0               0 -2307.78401812294 -73899.9787203786               0 270063.566579608 
440500 881 -68216.3268282433 13060.8490267233 
-68216.3268282433 8015.40577969084 10336.7023962173 -76231.7326079342               0               0               0               0 -2232.61683869945 -73999.1157692347               0 275523.888249135 
440550 881.1 -68094.75040029 13067.0696922861 
-68094.75040029 8071.11179979214 10408.5411236993 -76165.8622000821               0               0               0               0 -2195.12254303659 -73970.7396570455               0 275116.918275004 
440600 881.2 -67950.3766946944 13074.6968852652 
-67950.3766946944 8155.64319157569 10517.5531767408 -76106.01988627               0               0               0               0 -2155.36094189688 -73950.6589443732               0 277322.469878773 
440650 881.3 -67823.3256506292 13076.2626490218 
-67823.3256506292 8277.76007559724 10675.0356451746 -76101.0857262264               0               0               0               0 -2159.50608078784 -73941.5796454386               0 284522.633317976 
440700 881.4 -67657.9957813927 13079.9948686898 
-67657.9957813927 8297.30759292863 10700.2442091317 -75955.3033743213               0               0               0               0 -1970.93716166621 -73984.3662126551               0 290005.093213097 
440750 881.5 -67502.1555914863 13082.0897007233 
-67502.1555914863 8492.56213509859 10952.0453218133 -75994.7177265849               0               0               0               0 -2112.51085241281 -73882.2068741721               0 287461.964111694 
440800 881.6 -67359.2800758352 13083.655901611 
-67359.2800758352 8593.37123145394 11082.0491739572 -75952.6513072891               0               0               0               0 -2142.29391067008 -73810.357396619               0 287984.558545545 
440850 881.7 -67224.4173609329 13087.8295673266 
-67224.4173609329 8624.59200504342 11122.3116203067 -75849.0093659763               0               0               0               0 -1912.83405131709 -73936.1753146592               0 297958.517746111 
440900 881.8 -67076.8015424278 13089.7338908326 
-67076.8015424278 8709.63130945574 11231.9786796986 -75786.4328518836               0               0               0               0 -2010.58590182214 -73775.8469500614               0 292119.445813821 
440950 881.9 -66909.3724742864 13096.7831186145 
-66909.3724742864 8797.46003621763 11345.2429903685 -75706.832510504               0               0               0               0 -1803.13616604297 -73903.696344461               0 302763.858656075 
441000 882 -66773.8934512229 13100.6178758308 
-66773.8934512229 8940.61126853744 11529.8514464857 -75714.5047197603               0               0               0               0 -1863.05676263603 -73851.4479571243               0 303916.124252783 
441050 882.1 -66587.2426041662 13102.6581875869 
-66587.2426041662 9071.66942531084 11698.8646194178 -75658.912029477               0               0               0               0 -1794.78930279596 -73864.122726681               0 309018.002698521 
441100 882.2 -66371.7484403638 13106.2439535998 
-66371.7484403638 9093.82322302408 11727.4342539693 -75465.5716633879               0               0               0               0 -1819.81394110887 -73645.757722279               0 310263.336028795 
441150 882.3 -66137.9838941921 13113.1924624767 
-66137.9838941921 9234.85539798579 11909.3099644373 -75372.8392921779               0               0               0               0 -1548.79472291495 -73824.0445692629               0 324742.325957399 
441200 882.4 -65913.4853891393 13120.5945238177 
-65913.4853891393 9432.76142455332 12164.5304430099 -75346.2468136926               0               0               0               0 -1589.16526721702 -73757.0815464756               0 323517.639804621 
441250 882.5 -65651.4639715556 13123.3370464156 
-65651.4639715556 9511.35089724593 12265.8797711696 -75162.8148688015               0               0               0               0 -1595.13945363576 -73567.6754151658               0 324406.761843851 
441300 882.6 -65436.6721400753 13125.8952307495 
-65436.6721400753 9575.81068436821 12349.0073949382 -75012.4828244435               0               0               0               0 -1409.48578708939 -73602.9970373541               0 334358.071212625 
441350 882.7 -65159.0552214525 13133.0797157608 
-65159.0552214525 9825.13991814104 12670.5434667259 -74984.1951395936               0               0               0               0 -1484.40083030753 -73499.7943092861               0 336380.647228622 
441400 882.8 -64879.7857104335 13136.0867226429 
-64879.7857104335 9906.55466318012 12775.5362784767 -74786.3403736136               0               0               0               0 -1384.66181535615 -73401.6785582574               0 342672.442867848 
441450 882.9 -64576.0480360485 13144.3098664791 
-64576.0480360485 10119.1243740373 13049.6671085275 -74695.1724100858               0               0               0               0 -1116.72386996029 -73578.4485401255               0 355847.947697252 
441500 883 -64336.5016465307 13147.6805442171 
-64336.5016465307 10198.2750947488 13151.7402245902 -74534.7767412795               0               0               0               0 -1249.83683261689 -73284.9399086626               0 352344.493989816 
441550 883.1 -64037.6612660227 13154.8021847251 
-64037.6612660227 10456.4436014195 13484.6754614179 -74494.1048674422               0               0               0               0 -1146.24140928061 -73347.8634581616               0 359382.95074088 
441600 883.2 -63693.0981507602 13160.8084877131 
-63693.0981507602 10697.7319416679 13795.8419617022 -74390.830092428               0               0               0               0 -1002.99611081502 -73387.833981613               0 369452.21904529 
441650 883.3 -63384.2818118857 13167.8455665462 
-63384.2818118857 10795.5953440033 13922.0470339376 -74179.877155889               0               0               0               0 -864.240611288733 -73315.6365446003               0 381350.569930911 
441700 883.4 -63000.485356988 13175.9696687085 
-63000.485356988 11093.2101688315 14305.8524154127 -74093.6955258195               0               0               0               0 -680.140113659475 -73413.55541216               0 391110.52182149 
441750 883.5 -62658.4233191829 13183.8328827968 
-62658.4233191829 11362.8441430713 14653.5735694294 -74021.2674622542               0               0               0               0 -820.691683007015 -73200.5757792472               0 389820.690190904 
441800 883.6 -62194.8384202518 13185.532671288 
-62194.8384202518 11531.9125831578 14871.6049701846 -73726.7510034097               0               0               0               0 -807.455922946911 -72919.2950804628               0 389725.545203482 
441850 883.7 -61720.2435967838 13193.4853891024 
-61720.2435967838 11686.0292851312 15070.3545439892 -73406.272881915               0               0               0               0 -418.698061967453 -72987.5748199475               0 414714.606238548 
441900 883.8 -61288.8898533317 13203.9259154668 
-61288.8898533317 12094.0714277007 15596.5674780297 -73382.9612810324               0               0               0               0 -325.047442901605 -73057.9138381308               0 421143.248776941 
441950 883.9 -60835.7735209073 13207.2708929287 
-60835.7735209073 12326.7919693368 15896.6849077017 -73162.5654902441               0               0               0               0 -238.787910310605 -72923.7775799336               0 428102.063062236 
442000 884 -60348.1318446152 13210.5108791841 
-60348.1318446152 12577.2075936369 16219.6219934712 -72925.3394382521               0               0               0               0 -170.00996223486 -72755.3294760173               0 435761.804222901 
442050 884.1 -59761.1690031157 13217.9112843486 
-59761.1690031157 12856.8466909384 16580.2457980047 -72618.0156940541               0               0               0               0 108.016267416254 -72726.0319614703               0 454838.202509866 
442100 884.2 -59083.6849476526 13221.2500450282 
-59083.6849476526 13339.8433448468 17203.1203981242 -72423.5282924995               0               0               0               0 287.355935703606 -72710.8842282031               0 470319.703012052 
442150 884.3 -58502.1646827726 13222.7334607465 
-58502.1646827726 13720.5358920689 17694.0631742296 -72222.7005748416               0               0               0               0 205.374476693042 -72428.0750515346               0 466509.606879084 
442200 884.4 -57587.0789011074 13233.151842581 
-57587.0789011074 14153.0541795829 18251.8406519814 -71740.1330806903               0               0               0               0 594.269788437172 -72334.4028691274               0 492110.433775303 
442250 884.5 -56744.7681213357 13236.9669675238 
-56744.7681213357 14812.7771077642 19102.6222293596 -71557.5452290999               0               0               0               0 792.287909894174 -72349.833138994               0 513470.623761411 
442300 884.6 -55882.4835997123 13245.538602785 
-55882.4835997123 15370.6397644148 19822.044354484 -71253.1233641271               0               0               0               0 992.072185383004 -72245.1955495101               0 532539.600232595 
442350 884.7 -54802.0274100257 13251.9518605811 
-54802.0274100257 16120.9911614962 20789.7008022547 -70923.0185715219               0               0               0               0 1070.84071211998 -71993.8592836418               0 538284.843921523 
442400 884.8 -53704.0376727314 13256.9497235989 
-53704.0376727314 16790.2667464109 21652.8015275912 -70494.3044191423               0               0               0               0 1488.1287583583 -71982.4331775006               0 574377.045058506 
442450 884.9 -52280.5128840932 13266.9119763761 
-52280.5128840932 17808.5239100144 22965.9504251373 -70089.0367941076               0               0               0               0 1785.34661539812 -71874.3834095057               0 600715.608240598 
442500 885 -50495.9234528666 13277.8817610044 
-50495.9234528666 18690.1448850711 24102.892695548 -69186.0683379378               0               0               0               0 2407.80450532072 -71593.8728432585               0 641593.592236761 
442550 885.1 -48325.1483713556 13282.2983813466 
-48325.1483713556 20007.4705256559 25801.7216107519 -68332.6188970114               0               0               0               0 2826.09080278674 -71158.7096997982               0 674825.921464891 
442600 885.2 -46246.4906469513 13292.9225217736 
-46246.4906469513 21730.3566223904 28023.563066321 -67976.8472693418               0               0               0               0 3305.64972329548 -71282.4969926372               0 723339.60625758 
442650 885.3 -43795.3569533793 13295.3871346507 
-43795.3569533793 23128.3599746723  29826.43431185 -66923.7169280516               0               0               0               0 3680.02803361815 -70603.7449616698               0 754245.564177617 
442700 885.4 -40904.8156287878 13314.1414807411 
-40904.8156287878 25213.4654606122 32515.3954780448  -66118.2810894               0               0               0               0 4327.45179729144 -70445.7328866915               0 816860.015536385 
442750 885.5 -36929.7126335593 13324.6394016205 
-36929.7126335593 27643.7416545628 35649.4903009332 -64573.4542881221               0               0               0               0 5362.73497737621 -69936.1892654983               0 898294.092546098 
442800 885.6 -32411.231673527 13354.4601835154 
-32411.231673527 30923.2614484759 39878.773389517 -63334.4931220029               0               0               0               0 5901.03361870386 -69235.5267407067               0 967358.062219893 
442850 885.7 -27239.6674191047 13358.6889227728 
-27239.6674191047 34698.5359805326 44747.3839595228 -61938.2033996373               0               0               0               0 7030.30598180759 -68968.5093814449               0 1083749.94442224 
442900 885.8 -20667.8263433939 13371.5763162662 
-20667.8263433939 39216.6222680735 50573.9278224765 -59884.4486114674               0               0               0               0 8551.34244130127 -68435.7910527686               0 1193382.88316036 
442950 885.9 -12139.1826288213 13390.0816633776 
-12139.1826288213 45275.2090284243 58387.1078416451 -57414.3916572457               0               0               0               0 10153.9075503719 -67568.2992076176               0 1338781.47561229 
443000 886 -1706.74431855237 13411.9555234497 
-1706.74431855237 52929.6380526579 68258.2930331604 -54636.3823712102               0               0               0               0 11787.2509825635 -66423.6333537738               0 1507370.2163527 
443050 886.1 10785.1075597427 13437.0294959983 
10785.1075597427 62371.5208739589 80434.5864693625 -51586.4133142162               0               0               0               0 13978.1740007008 -65564.587314917               0 1718573.35077015 
443100 886.2 26199.9233868609 13455.4037523104 
26199.9233868609 73192.2885486253 94389.095851163 -46992.3651617644               0               0               0               0 17441.8476564853 -64434.2128182497               0 1969760.02581771 
443150 886.3 438997719.34441 13480.0867002563 
438997719.34441 439041195.27453 566189448.166328 -43475.9301201767               0               0               0               0 19989.2812331598 -63465.2113533365               0 5669772784.32306 
443200 886.4 111468.146899706 13534.543115198 
ERROR: Lost atoms: original 6000 current 5996 (../thermo.cpp:441)
Last command: run         ${TCsteps}
