ITEM: TIMESTEP
0
ITEM: NUMBER OF ATOMS
18000
ITEM: BOX BOUNDS pp pp pp
2.9286563209672778e-01 2.7048134367903174e+01
2.9615125745289106e-01 2.7044848742547018e+01
3.5483975442201654e+00 3.2454360245579039e+02
ITEM: ATOMS id type x y z c_peratom fx fy fz 
362 3 5.65572 5.43723 9.0296 -29.7835 0.290954 0.264969 1.25754 
1801 2 5.58398 3.0066 6.36942 -24.8303 1.3373 -2.29395 1.37007 
3061 3 2.92651 5.60881 6.22407 -27.9976 0.3888 -0.135844 1.03835 
4502 2 2.79755 2.70584 9.11027 -25.6032 0.934673 0.796562 0.100517 
6001 1 1.669 1.43813 5.03432 -7.95722 0.784019 -0.0543812 -1.30788 
7501 1 4.40289 4.15131 8.05654 -6.9396 -0.522453 -1.67879 -2.95403 
9001 1 4.32224 4.25365 5.17778 -8.66305 -0.153948 0.170032 -0.0753719 
10501 1 1.65099 1.40835 7.60835 -7.40475 -0.887037 0.0295369 0.892917 
12001 1 4.1941 1.32342 7.79574 -7.47364 0.0935951 2.15476 -1.0741 
13501 1 1.76918 4.23554 4.88664 -8.94685 -1.7721 1.69361 1.16927 
15001 1 1.72562 4.0738 7.70539 -7.81601 -0.389199 0.995646 -1.10733 
16501 1 4.33565 1.42938 5.05747 -7.70762 0.50224 0.8968 0.659519 
15301 1 6.96341 4.17149 7.89498 -7.83772 0.684282 2.28531 -1.4307 
1501 2 0.527857 2.86023 6.17756 -25.0104 -3.10433 -1.19434 2.86869 
6361 1 6.94186 6.97376 5.09572 -8.04974 1.86935 -1.12529 0.0113737 
16562 1 4.61388 6.65508 10.2319 -7.18179 -1.1706 2.17344 1.19292 
12061 1 4.30181 6.6966 7.61782 -7.73335 -0.19792 1.32897 -0.590809 
16561 1 4.34982 6.90384 5.06869 -7.96829 -2.01627 0.166266 0.250734 
10561 1 1.612 6.79521 7.39667 -7.9813 0.0361558 -0.876494 -0.379513 
4501 2 2.95381 2.84887 3.7153 -24.7204 0.678606 -2.11895 -0.952214 
361 2 5.63 5.58414 3.81375 -25.1097 1.23016 -1.39206 -0.953268 
6301 1 7.13148 1.50663 4.84645 -7.49788 -0.911773 -0.731393 0.472651 
10801 1 7.02804 1.66897 7.529 -7.95251 0.0848408 -1.6433 0.520427 
10861 1 6.98829 6.91113 7.80517 -7.57067 -0.215245 -0.457625 -0.853358 
13801 1 7.18959 4.16317 5.19816 -7.84514 -0.805261 1.46643 -0.395956 
662 2 11.0775 5.62597 8.95829 -24.9896 0.378455 -0.909426 0.482145 
2101 3 11.0984 2.78437 6.4171 -28.8779 0.484002 1.37321 -1.57643 
3361 3 8.39932 5.60037 6.63317 -28.3594 -1.23379 -0.998508 -2.09426 
4802 2 8.32701 2.93026 9.04012 -25.3392 -0.0543765 -0.564134 0.320851 
6601 1 12.331 1.43185 5.15103 -7.61533 -0.522493 0.266539 0.312013 
7801 1 9.77567 4.28518 7.4996 -7.63384 -0.604427 1.11036 1.27002 
9301 1 9.94191 3.84379 4.87948 -7.14911 0.125928 0.844392 0.590535 
11101 1 12.6654 1.49429 7.79077 -7.96686 -2.43997 0.172278 -0.119791 
12301 1 9.8639 1.82852 7.69177 -8.18659 -0.409917 -3.09469 0.0123335 
14101 1 12.5375 4.14898 4.92209 -7.56266 0.0798105 -0.286498 1.66407 
15601 1 12.4156 4.27288 7.60541 -7.91051 -0.124507 -1.24471 0.377851 
16801 1 9.74944 1.3049 4.81354 -7.45067 -1.44799 1.57088 2.1834 
16861 1 9.70857 6.63313 5.13253 -7.81791 0.000866822 0.423897 -0.0503883 
11161 1 12.4566 6.88943 7.70134 -8.28953 -1.01554 2.31413 -0.718547 
6661 1 12.4227 6.76326 5.06534 -8.09352 -0.465713 2.09016 0.241249 
12361 1 9.55124 6.85818 7.74462 -8.36775 2.22069 0.667005 -0.470451 
661 2 11.0889 5.46821 3.75704 -25.8396 -0.687122 0.177233 -0.89481 
5401 2 19.174 2.80291 3.71573 -24.636 -1.85511 -1.90621 -1.41046 
5102 2 13.7771 2.9637 9.01105 -25.0023 0.272096 -0.0593332 0.828209 
3661 2 13.7773 5.54241 6.27978 -25.3829 1.14404 0.447515 0.344236 
962 2 16.3837 5.6774 9.03072 -25.4338 -0.0206292 -1.36169 0.323328 
2401 3 16.323 2.94293 6.35356 -28.5375 1.22488 -0.83222 -1.36985 
3961 3 19.0085 5.51452 6.34872 -28.5477 1.18249 0.388877 -1.48448 
5402 2 19.0526 2.98558 8.7873 -24.4473 2.47226 -1.68831 1.95379 
6901 1 17.6169 1.51355 4.75201 -7.62974 0.659498 -0.532269 -0.768465 
8101 1 15.1208 4.23158 7.53309 -7.94117 0.450411 -0.465167 1.63977 
9601 1 15.2598 4.2372 5.03294 -7.71827 -0.0225738 0.256198 -0.61324 
11401 1 17.8147 1.47215 7.30507 -8.11035 -0.106082 0.819423 0.923702 
12601 1 15.2234 1.59145 7.73745 -7.98435 -0.285171 1.14767 -1.13279 
14401 1 17.912 4.11317 4.96322 -7.85333 -0.671634 0.293631 1.08084 
15901 1 17.8963 4.27208 7.63537 -8.67706 -1.77815 0.79638 -1.10829 
17101 1 14.9812 1.53823 5.02341 -7.77187 1.69679 0.396914 1.04962 
6961 1 17.7838 6.70353 4.83949 -7.85282 -1.18113 -0.732151 1.35684 
11461 1 17.6886 6.94784 7.65484 -8.25534 1.03694 0.0527215 -2.43633 
12661 1 15.1286 6.8439 7.81526 -7.47828 -1.95247 1.8936 -2.27662 
6902 1 17.7284 1.71675 10.0071 -7.94885 -0.0812079 -0.490312 1.2433 
6962 1 17.6674 6.98251 10.1962 -7.02804 2.06866 0.802433 1.4463 
5101 2 13.7296 2.72791 3.77818 -25.311 1.05493 1.97454 -1.14879 
961 3 16.5654 5.35288 3.55319 -28.9755 -1.0618 1.51565 0.929893 
62 2 26.8919 5.42925 9.08092 -24.7376 0.843355 0.772439 -1.44922 
17461 1 20.3686 6.68997 4.9953 -7.37891 -0.045856 0.780649 0.539049 
12961 1 20.4559 6.81859 7.50923 -7.92329 -2.55214 -1.05119 2.166 
17401 1 20.4032 1.39781 5.02156 -8.64461 -0.21304 0.0252618 0.0943275 
12901 1 20.4521 1.44786 7.62818 -7.97122 -0.610586 0.18342 0.377032 
9901 1 20.4909 4.11743 4.83498 -7.86966 -0.388204 -1.12223 1.11965 
8401 1 20.6108 4.21828 7.52097 -8.26479 -1.0288 -0.850282 0.530039 
1262 3 21.7377 5.62467 8.91968 -28.7015 -0.446476 -1.27625 -1.14097 
2701 3 21.7558 2.76039 6.41777 -28.3941 0.0801302 -0.296401 -0.288468 
4261 3 24.2858 5.16675 6.20354 -29.0736 0.981017 2.44894 0.594618 
5702 2 24.2634 2.92427 9.00082 -25.0994 2.22347 -4.45036 -0.298141 
7201 1 23.0981 1.3548 4.92741 -8.27674 -0.10594 0.883376 -0.612951 
8701 1 25.7662 4.06053 7.68862 -7.50429 1.04052 1.03514 -0.0507626 
10201 1 25.7075 3.92889 5.01267 -8.24237 -0.135903 0.045118 -0.520618 
11701 1 23.014 1.24267 7.58404 -7.79244 -0.347565 0.915101 0.869919 
13201 1 25.6215 1.5021 7.50274 -6.51912 0.941117 0.231764 1.04072 
14701 1 22.9544 3.98705 5.24589 -7.95026 1.04469 -0.622884 -2.04718 
16201 1 23.2563 4.23365 7.71921 -7.52923 -2.22739 -0.787482 -0.669864 
17701 1 25.8352 1.1931 5.02897 -7.55834 0.227899 2.36431 -2.36841 
17761 1 25.7156 6.57039 5.0894 -7.82791 -0.0748979 0.127317 -0.0330137 
17702 1 25.3397 1.21117 10.0839 -7.15483 2.59879 1.55661 0.0640194 
11761 1 22.989 6.68828 7.45868 -7.51515 0.644978 0.882896 0.485934 
61 3 26.9242 5.37584 3.63927 -28.096 0.971262 0.211478 0.249256 
7261 1 23.0762 6.74011 4.76203 -7.46286 -0.0720681 -0.300163 0.768194 
13261 1 25.5865 6.79851 7.67845 -7.79967 0.941833 -0.203039 0.931828 
7262 1 22.9684 6.66583 10.1569 -8.40914 -0.0788654 -0.222134 0.969495 
5701 3 24.219 2.65866 3.63816 -27.9527 0.728408 0.0949954 0.304534 
14702 1 22.8475 3.99589 10.1933 -7.80608 -0.516832 1.74544 0.849089 
1261 3 21.4412 5.32047 3.56543 -28.7616 2.28505 1.78176 0.940775 
6061 1 1.57899 7.07399 4.58428 -7.81938 -0.24953 -1.89096 1.29782 
422 2 5.37531 10.8201 9.19767 -25.274 1.90507 0.742101 -0.362977 
1861 2 5.69787 8.18847 6.34026 -25.031 -0.73164 1.37747 2.30445 
3121 3 2.94075 10.9247 6.43519 -28.2524 -0.185802 0.147195 -1.12259 
4562 2 3.04156 8.10118 8.86545 -24.894 -0.117732 -1.70702 2.14536 
6121 1 1.59873 12.2518 5.04226 -7.38416 1.06447 -0.233256 1.33045 
7561 1 4.34415 9.61628 7.62984 -8.28016 -2.1246 -0.915436 0.715984 
9061 1 4.2485 9.50586 5.12564 -7.73559 -0.53825 -0.145525 -0.282478 
10621 1 1.64891 12.1574 7.76846 -7.7981 -3.26929 -1.66686 -0.593725 
12121 1 3.9768 12.2812 7.72004 -7.57706 2.71095 -0.744979 -0.65121 
13561 1 1.58706 9.5274 5.13939 -8.16488 0.521893 1.30032 1.31792 
15061 1 1.46598 9.26277 8.01781 -7.97902 -0.178565 2.72048 -1.31245 
16621 1 4.33208 12.054 4.83654 -8.001 -0.478604 0.430008 0.975024 
13861 1 6.899 9.67828 4.9655 -7.89304 0.910799 -2.14045 1.19931 
6421 1 6.92541 12.1355 5.02524 -7.49046 -0.843049 0.696003 0.85919 
15361 1 6.93219 9.63664 7.79949 -7.43985 1.49093 -0.419728 -1.30649 
1921 2 5.56447 13.5234 6.30894 -25.2806 -0.998723 -0.727075 1.67929 
10921 1 6.68184 12.2683 7.96992 -7.92927 0.296149 0.646695 -0.644808 
4622 3 2.79554 13.4292 9.0532 -29.2169 0.464248 0.37563 -0.386523 
4561 3 2.97464 8.37596 3.84949 -28.7747 0.156237 -0.88785 -1.41662 
4621 3 3.15742 13.3119 3.59679 -29.182 -1.91962 0.574646 0.195674 
421 3 5.68795 10.675 3.72849 -28.6911 -0.706824 2.97376 0.266724 
722 3 10.9217 10.9198 9.22306 -28.7588 0.384763 0.566867 -1.43797 
2161 3 11.0348 8.12639 6.37358 -27.9219 0.13808 0.412201 0.224442 
3421 2 8.20857 10.9881 6.50266 -24.7911 -1.2644 -2.24492 -0.752008 
4862 2 8.50045 8.25055 9.08521 -25.4991 -3.66143 -1.38704 1.14769 
6721 1 12.2524 12.4042 5.27375 -8.16034 -0.663294 -2.17273 -0.0437717 
7861 1 9.91964 9.51198 8.01638 -7.88095 -0.0337722 -0.151647 -1.03281 
9361 1 9.5932 9.3484 5.35238 -8.30537 0.221304 0.989798 -0.520143 
11221 1 11.9648 12.3269 8.0468 -7.44041 0.996886 0.531287 0.024496 
12421 1 9.32591 12.158 7.84489 -7.82347 1.29546 0.534501 0.996452 
14161 1 12.3885 9.51818 5.01199 -8.16072 -0.899507 0.00135338 0.513197 
15661 1 12.4445 9.88244 7.47564 -7.48699 -0.913855 -2.49099 1.76478 
16921 1 9.45488 12.3229 5.29511 -7.84868 2.40934 0.143821 -1.0079 
14162 1 12.2579 9.77827 10.2187 -8.46701 0.0577477 -0.878051 -0.0657015 
721 2 10.8936 10.8547 3.9559 -24.6486 0.596812 0.7366 0.18672 
3721 3 13.4575 11.0591 6.41543 -28.6734 2.25314 0.710074 -0.468795 
4922 3 8.36737 13.366 9.04739 -28.5032 -0.638203 1.87827 0.721384 
5222 2 13.6355 13.6612 9.17061 -25.1139 -1.38514 -0.27414 -0.639464 
4861 2 8.24218 8.26111 3.6675 -24.6821 1.82377 -1.3705 1.61709 
5161 3 13.6581 8.27833 3.75745 -29.261 1.78934 -0.858362 -0.0716844 
4921 2 8.13351 13.5898 3.72051 -25.0471 0.835318 -0.244989 0.946181 
17161 1 15.1541 7.12758 5.15117 -7.62746 -1.24692 0.0981562 0.34449 
5162 3 13.7358 8.37781 8.92412 -28.654 0.104219 -1.15213 0.421356 
1022 3 16.2612 10.8482 9.19082 -28.814 1.46774 1.34658 -0.892045 
2461 3 16.2565 8.32536 6.38981 -28.5985 -0.552696 -0.814124 0.371101 
4021 2 18.8212 10.8331 6.33731 -24.9907 3.69895 2.36252 2.85743 
5462 3 18.9545 8.10624 8.73684 -28.9928 1.00572 1.29237 2.23654 
7021 1 17.5735 12.1516 5.02307 -8.00859 0.139036 0.109787 0.424353 
8161 1 14.9435 9.47741 7.54797 -7.78737 0.569305 -0.0317401 -0.222571 
9661 1 15.0624 9.94449 4.91096 -7.3137 -0.970808 -0.690485 1.49542 
11521 1 17.5915 12.4386 7.81908 -7.82956 0.111546 -0.425241 -0.945841 
12721 1 14.819 12.1897 7.93648 -7.94593 -0.189167 -0.493922 -1.49194 
14461 1 17.6522 9.43158 5.42593 -8.04831 -1.32481 -2.43633 -1.74674 
15961 1 17.6124 9.6493 8.04063 -8.17327 0.11492 0.177471 -0.400623 
17221 1 14.8569 12.5368 5.11808 -7.39786 0.256016 0.216387 0.731417 
17521 1 20.3226 12.3921 5.20685 -7.98487 -1.69501 -1.21364 -2.55439 
9961 1 20.3467 9.57256 4.91607 -7.25973 -1.58348 -0.363988 -0.125084 
9962 1 20.0409 9.52289 10.1728 -7.15581 -0.773515 1.15748 -0.905417 
9662 1 14.894 9.82075 10.105 -8.10902 -2.12478 -0.481158 1.06306 
13021 1 20.2919 12.0768 7.78552 -7.50777 -0.316284 0.344864 0.29058 
17462 1 20.277 7.04121 10.1703 -8.10552 0.907783 -2.10598 0.5251 
1021 3 16.2535 11.0184 3.75702 -28.9954 0.0442772 -0.0406526 -0.340943 
5461 2 18.9364 8.10753 3.73595 -25.5952 1.88483 1.60245 -0.707383 
5521 2 18.9642 13.6546 3.78787 -24.8796 -0.901444 -0.213304 -1.06008 
122 3 26.9549 10.809 9.08888 -28.1901 0.300102 -0.190058 0.317536 
8461 1 20.3637 9.40064 7.47523 -7.35762 -1.35136 0.244672 1.06564 
1561 2 26.914 8.11421 6.30122 -25.2179 0.379677 -0.150962 -0.845874 
1322 3 21.6639 10.7734 9 -29.7515 -1.08443 -0.54739 -0.486628 
2761 2 21.7218 8.05287 6.29455 -25.7453 0.539991 1.48668 -1.968 
4321 3 24.3574 10.9076 6.29129 -28.7156 -0.433496 -1.93856 1.73515 
5762 2 24.2733 8.1109 8.92754 -25.0948 -0.502864 0.305813 -0.469453 
7321 1 23.1231 12.0118 5.14106 -8.14406 -0.888665 0.944676 -0.087862 
8761 1 25.6658 9.59522 7.35463 -7.82849 -0.049376 0.33131 0.93298 
10261 1 25.7612 9.41936 4.74602 -8.01565 -1.37448 -1.14685 -0.197825 
11821 1 22.9499 11.9733 7.83835 -7.30506 0.405738 1.64619 -0.356082 
13321 1 25.6238 12.2525 7.88284 -8.4341 1.41336 -1.41261 -0.431966 
14761 1 22.9108 9.50278 4.95987 -7.48209 2.63703 -2.06131 1.21942 
16261 1 23.0274 9.46565 7.71776 -7.1519 0.412479 -0.749064 -2.07537 
17821 1 25.755 12.0753 5.15991 -8.35453 -0.287864 -0.381814 -0.321244 
10262 1 25.4349 9.60173 10.1051 -8.25906 0.0832024 0.863161 -0.0807103 
14762 1 22.5807 9.2583 10.0899 -7.42381 1.57374 -0.237977 1.80814 
1621 2 26.9068 13.4596 6.44114 -25.336 1.86551 0.86962 -1.60893 
5822 2 24.4245 13.5205 9.12192 -25.0052 -0.838709 -0.36502 0.0758283 
2821 2 21.6548 13.4524 6.39375 -24.6964 1.46519 -0.0594485 1.44884 
5761 3 24.3517 7.93958 3.60499 -28.3997 0.367665 0.745721 0.872607 
5821 2 24.3808 13.3399 3.84334 -25.296 0.318099 1.62113 -1.70813 
1321 2 21.7727 10.8129 3.71258 -25.2275 -1.05549 -0.132387 -1.23423 
121 3 27.0449 10.6412 3.71914 -29.0182 0.624021 1.37773 -0.417065 
481 3 5.51422 16.0373 3.68747 -29.4489 -0.575924 1.34709 -0.454596 
482 2 5.542 16.1558 8.98536 -25.2783 0.770265 -0.105266 -1.85443 
1981 3 5.76678 18.7612 6.42128 -28.7428 -1.62658 0.713416 0.698888 
3181 3 2.91626 16.0137 6.32131 -29.6571 -0.541523 0.956479 -0.269202 
4682 3 2.90565 18.8336 9.1676 -28.6721 0.598745 -0.169667 -0.789705 
6181 1 1.56555 17.6232 5.15552 -7.2533 -0.195508 -0.930989 0.996321 
7621 1 4.18782 14.871 7.60406 -7.3171 0.2217 -0.819632 -0.0989061 
9121 1 4.14582 14.6956 4.97674 -7.94691 -0.705795 -0.182144 -0.187102 
10681 1 1.53943 17.6412 7.94132 -8.0294 0.666469 0.708791 -0.215016 
12181 1 4.0932 17.3935 7.61262 -7.17704 0.467618 1.57868 0.459106 
13621 1 1.37917 15.0483 5.02428 -6.90926 0.329195 -0.824414 0.250992 
15121 1 1.49501 14.8131 7.52993 -7.50438 1.12826 0.739013 1.37086 
16681 1 4.17391 17.3595 5.01063 -7.44225 1.08066 -0.182126 1.21784 
6481 1 6.82112 17.5743 5.15165 -8.14007 1.64412 -0.12863 -0.295271 
10981 1 6.74797 17.5422 7.84934 -7.56156 1.75676 0.915849 -0.41222 
13921 1 6.73503 14.7115 4.91765 -7.99535 0.62178 2.31649 -1.65106 
15421 1 6.94876 15.0228 7.41387 -7.29645 0.66055 -0.835406 0.760915 
13681 1 1.7497 20.1414 5.2778 -7.67096 0.262389 0.475998 0.936837 
7681 1 4.15967 20.2263 7.9314 -7.8783 -2.14821 -0.30266 -1.05346 
9122 1 4.28709 14.8479 10.1962 -8.42733 -0.358583 -1.51779 2.79392 
13622 1 1.58984 14.7173 10.1576 -7.52734 0.452479 -0.682087 1.08893 
13922 1 6.90234 14.5341 10.0914 -7.92094 0.039804 1.21343 0.511804 
15481 1 6.62868 20.1359 7.93162 -6.84647 1.74798 -1.45475 -2.87175 
1681 3 0.324471 18.9261 6.51601 -28.8488 0.24312 0.143881 -2.12633 
9181 1 4.482 20.2157 5.14362 -8.02119 0.130543 -1.00508 0.368486 
15181 1 1.37411 20.3169 7.87362 -8.02522 0.0858931 0.215153 -1.12785 
4681 2 2.92651 18.7077 3.86739 -25.8016 0.463594 0.861869 -1.60732 
2221 3 11.0105 13.7449 6.33312 -29.0637 -1.17328 -0.504899 0.804926 
782 3 11.0496 16.2021 9.22944 -28.3519 -1.17875 -0.032056 -2.20235 
2281 2 10.9256 18.8013 6.47879 -25.0617 1.12254 2.20256 0.977306 
3481 3 8.46409 16.1882 6.43372 -28.4769 -2.13613 0.454654 1.24562 
4982 3 8.41392 18.8848 9.04111 -28.8496 -1.94151 0.693056 0.193565 
6781 1 12.2757 17.6075 5.30669 -7.63519 0.741876 -1.2693 -1.05735 
7921 1 9.72234 14.9414 7.90851 -7.51315 -0.195034 -0.226622 -0.857137 
9421 1 9.52327 15.0896 5.29331 -7.63836 -0.0834006 -1.03475 -0.298581 
11281 1 12.2445 17.5789 7.85536 -7.77729 -0.787084 -0.723935 0.834607 
12481 1 9.48677 17.6018 7.66927 -8.45771 -0.0523801 0.525327 1.50316 
14221 1 12.0744 14.8456 4.82543 -7.30891 -0.295404 1.32495 -0.446866 
15721 1 12.2903 14.832 7.41577 -7.45785 0.22758 1.20943 1.04967 
16981 1 9.67829 17.636 5.1469 -8.17745 -1.7964 -1.15481 -2.24545 
5282 2 13.6474 19.0548 8.9813 -25.3088 -2.80869 -1.13051 1.08967 
14281 1 12.4456 20.2709 5.06821 -7.85654 -1.76097 1.37393 0.322426 
5221 3 13.5004 13.7047 3.70788 -29.0673 0.636169 0.283237 0.943143 
3781 3 13.6088 16.2546 6.39889 -29.519 -0.757013 0.902857 0.463126 
9481 1 9.71469 20.1761 5.34825 -7.30082 0.111788 1.20197 -1.59489 
15781 1 11.9269 20.2616 7.79138 -7.10491 0.031113 -0.309047 0.399355 
14222 1 12.1823 14.9794 10.22 -7.81159 0.14229 -1.47056 0.59979 
4981 2 8.24242 18.9064 3.80814 -24.7439 0.674935 0.470715 0.841884 
5281 3 13.5812 19.2052 3.92789 -29.0441 1.21742 -2.84638 -1.46428 
781 3 10.9086 16.4567 3.75577 -29.0345 1.06076 -1.44572 0.290491 
1081 3 16.1432 16.3806 3.68723 -28.831 0.343474 -0.461416 1.12432 
2521 2 16.2847 13.712 6.57432 -24.9984 -1.67639 -1.23995 -1.61343 
5522 3 19.1527 13.6842 8.99115 -28.7067 -2.37886 -1.80302 1.9926 
1082 2 16.2627 16.3572 9.12081 -25.2716 1.31637 0.674036 -1.45607 
2581 3 16.3388 18.9163 6.27815 -28.6496 -0.418863 -0.319223 -0.312261 
4081 3 19.0117 16.1994 6.36608 -28.2795 -1.53397 1.57631 -0.659532 
5582 3 18.9485 18.815 9.03333 -29.2571 0.78831 -1.11744 -0.52862 
7081 1 17.6025 17.5635 5.04956 -7.77775 -0.95213 -0.463975 -0.614901 
8221 1 14.8021 14.9147 7.77675 -7.89274 1.7252 -0.178169 -0.01291 
9721 1 14.6147 15.2299 5.09207 -7.1958 1.05086 -0.401356 0.0434862 
11581 1 17.636 17.7594 7.77174 -7.77785 -1.0124 0.326558 0.192346 
12781 1 14.8794 17.4944 7.64917 -7.60014 1.15554 1.34705 0.387886 
14521 1 17.3006 14.797 4.91804 -7.73619 1.09692 0.914861 1.49633 
16021 1 17.6243 15.1897 7.63927 -8.17166 0.0511611 -0.763466 -0.360095 
17281 1 14.9525 17.8453 5.10951 -7.60221 0.614632 0.46125 -0.760848 
17581 1 20.1322 17.7774 4.72049 -7.67936 1.05615 0.282839 2.06833 
13081 1 20.2013 17.3476 7.58984 -7.9091 1.11097 -0.0504939 -0.662747 
8281 1 14.6748 20.3538 7.67563 -8.14415 1.06539 0.287326 -0.198135 
14581 1 17.8378 20.2497 4.75627 -7.45605 -0.110725 -2.48077 -0.386566 
10021 1 20.2128 15.1564 5.05191 -8.06491 -0.524284 -0.818601 0.0028429 
8521 1 20.2672 14.7469 7.7264 -8.69782 0.994255 0.00832303 -0.473023 
10082 1 20.07 20.1698 10.1225 -7.45149 2.12625 0.34712 1.241 
8581 1 20.0122 19.9815 7.48561 -7.76843 -0.847632 0.526285 1.44967 
14582 1 17.6118 19.8494 10.0654 -7.34043 -2.54444 1.66796 0.220708 
5881 3 24.4065 18.8539 3.63655 -29.2064 -0.196673 -0.421097 1.46089 
181 3 27.0239 16.0806 3.6803 -29.3873 0.194608 0.41305 1.39404 
182 2 27.037 16.2629 8.9854 -25.4837 -0.799823 -1.06492 0.81349 
1382 2 21.775 16.0184 8.87812 -25.2696 -1.03459 1.51131 1.75638 
2881 2 21.4689 18.8428 6.31261 -25.1196 0.380287 -1.04621 -1.10255 
4381 2 24.3319 16.3091 6.22002 -25.4029 0.30461 0.108359 0.64618 
5882 3 24.4049 19.0921 8.8588 -28.2168 -0.977744 -2.2808 0.399026 
7381 1 22.9155 17.652 5.06208 -8.1006 0.0225575 -1.45699 -0.398546 
8821 1 25.6575 14.9703 7.52017 -7.35246 0.378964 0.519264 1.94897 
10321 1 25.4467 14.8919 4.97706 -7.48607 1.6201 -0.330194 -0.372942 
11881 1 23.0028 17.491 7.69761 -7.52937 0.281572 -0.53433 -0.856777 
13381 1 25.7421 17.7646 7.54289 -8.16164 -0.927564 0.507566 0.595303 
14821 1 22.8437 14.654 4.92268 -7.4234 -0.608646 1.4372 0.00451888 
16321 1 23.1392 14.6428 7.57155 -7.91117 -1.52567 1.01561 0.498223 
17881 1 25.7495 17.6505 4.87022 -7.06514 -1.11959 -0.0221738 1.87952 
10381 1 25.7518 20.2707 5.1278 -7.77761 0.467566 0.365855 -0.621276 
16381 1 22.7389 20.0149 7.5629 -8.09073 1.66959 1.87487 0.212701 
17582 1 20.4604 17.6436 10.2079 -7.28332 -0.576393 -0.500669 0.341975 
14882 1 22.9562 19.9269 10.1826 -8.59042 0.328816 0.1213 1.28183 
14881 1 23.1309 20.2141 4.83507 -7.50274 0.614831 1.14089 0.847207 
1381 2 21.7083 16.3123 3.55178 -25.2402 0.529266 -0.209707 1.4818 
3001 3 2.78582 26.8034 6.45912 -29.1388 1.40335 0.758114 0.269045 
4741 2 2.92997 24.1388 3.77097 -25.4315 0.758708 1.14204 0.76664 
302 2 5.65065 27.0094 8.95673 -25.5092 -0.748298 -1.01918 1.03206 
542 2 5.63544 21.6071 9.01452 -25.5801 -0.00998933 0.689413 1.62266 
2041 3 5.50075 24.2785 6.43876 -29.4985 1.02993 0.29163 -0.719626 
3241 3 3.07672 21.3503 6.47721 -28.8452 -0.420216 1.45274 -0.402048 
4742 3 2.85441 24.2338 9.00901 -28.8725 0.0164856 0.249549 -0.302645 
6241 1 1.46435 22.7303 4.98495 -7.42729 -0.924378 1.03501 1.56015 
7741 1 4.21976 25.5772 7.53625 -7.46155 -1.80368 -0.666035 1.08975 
9241 1 4.47904 25.446 5.02851 -7.38313 -1.37431 0.237852 -1.4793 
10741 1 1.94211 23.0211 7.55867 -7.97393 0.981451 -1.02446 0.391354 
12241 1 4.68356 22.9688 7.58951 -7.28222 -2.216 -1.32573 0.355126 
13741 1 1.86435 25.5388 5.29773 -7.72264 -0.871952 -1.48127 -0.415892 
15241 1 1.2248 25.532 7.91787 -7.07303 3.37543 -0.248031 -2.49864 
16741 1 4.00519 22.7975 5.11502 -7.35995 0.802568 -0.652677 0.0672201 
14041 1 6.94279 25.5572 5.01184 -8.03282 1.03076 1.89909 1.44198 
9242 1 4.23473 25.544 10.2325 -7.86271 -1.19473 0.669344 0.808894 
6541 1 6.63397 23.1091 5.02794 -7.79925 1.67236 -1.74536 0.0508708 
15541 1 6.88917 25.6509 7.72955 -7.82127 0.788424 -0.203352 -2.26396 
16742 1 4.13317 22.9797 10.1129 -7.57771 -0.829933 -1.29902 1.33457 
14042 1 6.9443 25.6431 10.2319 -7.0216 0.750784 1.68726 1.57924 
1741 3 0.381232 23.9941 6.59305 -29.4703 -0.829014 1.57246 -1.29396 
241 3 0.346536 21.5454 3.85421 -28.497 0.428778 -1.91592 0.836671 
541 3 5.62516 21.6532 3.81012 -28.6771 -0.302039 -0.214171 -0.005826 
301 3 5.70674 26.8036 3.97037 -28.8355 -1.42362 1.08791 -2.70181 
602 2 10.9346 26.9574 9.00114 -24.5874 1.62145 0.291385 1.75702 
3301 2 8.32348 26.9425 6.30412 -24.3448 -1.47756 2.00296 0.646331 
13981 1 7.18363 20.3897 5.24268 -8.02846 -1.27321 -0.371845 -0.95952 
7981 1 9.23071 20.5468 7.90334 -7.34744 0.430933 -1.75754 1.11014 
11041 1 7.20979 22.8794 7.6823 -7.53699 0.624688 -0.0298521 -0.610354 
842 3 10.7837 21.7445 9.13268 -29.9103 1.34518 -1.3909 -0.228158 
2341 3 10.9217 24.3853 6.40993 -28.6913 0.981716 -1.57677 -0.820828 
3541 3 8.40742 21.7071 6.35908 -29.1382 0.225819 -0.682657 0.629585 
5042 2 8.33448 24.3395 8.97102 -25.533 -0.995208 -1.05863 1.46304 
6841 1 12.2669 23.0419 5.1227 -8.03158 -0.676059 -0.964987 -1.34927 
8041 1 9.59814 25.7577 7.74405 -8.81234 0.12519 -0.136839 -0.229422 
9541 1 9.58188 25.5968 5.16628 -8.55486 0.484339 -2.07929 -0.861494 
11341 1 12.3216 22.8806 7.8864 -7.427 0.884248 0.683021 0.357203 
12541 1 9.86367 23.0082 7.6206 -7.60802 -1.25913 1.76835 -0.391688 
14341 1 12.2804 25.5011 5.00252 -7.16166 -1.13616 1.27449 -1.15807 
15841 1 12.3013 25.5295 7.48297 -8.01359 -0.0672866 0.9275 2.11454 
17041 1 9.65837 22.8672 4.95986 -7.97235 -1.51155 0.400873 -0.472396 
3841 2 13.6295 21.8967 6.28321 -25.1192 -0.0469174 -1.66041 1.57932 
5342 2 13.6021 24.3649 9.02955 -25.4663 0.58436 -0.848115 0.813973 
841 3 11.0966 21.5572 3.60598 -27.7635 -1.31228 1.32104 2.44252 
601 3 10.7381 26.8601 3.83679 -28.4165 3.73906 -1.1876 -2.55558 
5041 2 8.17544 24.3315 3.77035 -24.8592 0.824715 -1.92298 -2.47135 
5341 3 13.3996 24.3443 3.64392 -29.5093 2.48077 1.46274 0.3117 
3601 2 13.8074 26.9704 6.40328 -25.2619 -0.886058 -1.30562 -1.06133 
902 2 16.4514 27.0114 8.8841 -25.2681 0.897544 -2.06265 2.02805 
3901 3 19.073 26.95 6.32821 -28.0972 0.0222536 -1.06756 -0.0595917 
9781 1 14.9931 20.5314 5.13195 -7.80424 1.28776 -1.16442 -1.27904 
16081 1 17.3281 20.3784 7.28502 -7.72441 -0.250795 -0.467375 1.28588 
1142 2 16.1603 21.4899 8.8905 -25.0156 0.897237 0.938984 1.04627 
2641 2 16.3443 24.2959 6.33912 -25.3358 0.505405 -0.673766 -1.10185 
4141 3 18.9083 21.4058 6.29527 -29.8395 0.597823 1.42411 -0.995554 
5642 3 18.9867 23.9874 8.92441 -29.0117 0.310959 0.431523 -0.227366 
7141 1 17.6222 22.6778 4.9522 -7.06649 -0.239524 2.74311 0.138662 
8341 1 15.0999 25.6293 7.79644 -7.72693 -0.906107 1.21223 -1.75812 
9841 1 14.9316 25.7328 4.94 -7.39667 1.31798 -0.534016 0.62429 
11641 1 17.8816 22.889 7.52472 -7.46079 -0.211609 -0.286389 0.520079 
12841 1 15.01 23.1431 7.68908 -7.99582 0.225507 -2.19902 -0.534529 
14641 1 17.7235 25.5585 5.08112 -8.49577 0.617686 0.252618 -1.2749 
16141 1 17.766 25.4379 7.59195 -7.28941 0.383798 1.79227 0.149334 
17341 1 14.981 23.1313 4.86302 -7.43257 -0.644243 -0.0662761 0.635119 
17641 1 20.2225 22.9469 5.1915 -7.09487 -0.231406 0.833006 -0.120987 
7142 1 17.5532 22.6106 10.1636 -7.94166 -0.376429 0.869925 2.10662 
5641 3 18.9547 24.2745 3.89544 -29.3993 0.58895 -1.89204 -2.36845 
901 3 16.3817 26.8445 3.57348 -29.277 -0.813017 0.364734 -0.30289 
14642 1 17.7464 25.4887 10.15 -7.71918 0.518144 0.0698402 2.06849 
1202 2 21.8181 26.6695 9.08345 -25.2419 -0.609589 0.727071 -1.30436 
2 3 26.6875 26.6332 9.01401 -29.7448 1.24804 1.63214 -0.200068 
4201 2 24.4917 26.8395 6.21449 -25.5595 -1.34872 -1.33079 1.73108 
13141 1 20.661 22.7256 7.77956 -7.42371 -1.26873 0.933223 -1.52965 
10141 1 20.5183 25.4209 4.88385 -7.98965 -1.40769 1.97644 1.4142 
10081 1 20.5694 20.503 5.11219 -7.51637 -0.777316 -1.46594 -1.04804 
8641 1 20.3602 25.3666 7.72259 -7.82298 -0.243259 1.1442 -0.231381 
8881 1 25.4357 20.5445 7.75785 -8.43644 0.257614 -1.12814 0.260033 
242 3 26.8993 21.5035 9.08037 -28.529 0.268822 0.629208 -0.00731612 
1442 2 21.631 21.3504 9.00924 -25.2573 -0.419958 0.0516334 0.0505233 
2941 3 21.5985 24.2694 6.23986 -29.6625 0.824983 -1.29013 1.22139 
4441 3 24.1756 21.4953 6.27379 -28.8708 0.370878 -0.135623 0.318634 
5942 3 24.2589 24.1392 9.01031 -30.0748 1.44658 -1.46541 -0.516944 
7441 1 22.9369 22.9422 5.15863 -7.87461 -0.317798 -1.70366 -0.0375742 
8941 1 25.6024 25.5629 7.6297 -7.17369 -2.11743 -0.0198402 -0.729577 
10441 1 25.9743 25.3854 4.86745 -7.5365 -0.555559 -0.905619 0.652411 
11941 1 23.4388 22.6415 7.81176 -7.1048 -0.311146 -1.49671 0.0306525 
13441 1 26.1156 23.1595 8.10146 -7.22179 0.256089 -1.24962 0.613187 
14941 1 23.1115 25.4466 5.25708 -7.22695 0.898118 0.683847 -1.18277 
16441 1 22.9582 25.149 7.72162 -6.98737 -0.52424 1.6443 0.651013 
17941 1 25.5618 22.8695 5.49339 -7.89701 -0.0289465 -0.292707 -1.19045 
1 3 26.9881 26.8129 3.77144 -28.8828 0.803587 -0.195611 -0.206653 
5941 3 24.3907 24.0092 3.89274 -28.7323 -0.572814 2.23495 0.903134 
1441 3 21.6511 21.5586 3.76427 -29.3 -0.317345 0.461063 -0.329826 
1201 3 21.6843 26.9018 3.72569 -29.2066 -0.350031 -1.29883 -0.311483 
6002 1 1.32173 1.34472 10.427 -7.94357 0.247066 0.600259 -1.22162 
9002 1 4.09043 4.12697 10.4931 -6.93627 0.319133 -1.34955 1.48651 
13802 1 6.97434 4.05178 10.4965 -7.22222 -0.923359 1.16382 0.429726 
13502 1 1.35547 4.15006 10.4424 -7.98158 -0.251927 -2.29521 0.277618 
16502 1 4.16803 1.474 10.475 -7.74459 -0.0809074 0.235016 -0.331812 
6302 1 6.84152 1.57825 10.3291 -7.76473 0.916789 -0.973922 0.554979 
6062 1 1.7476 6.59736 10.2391 -7.68897 -0.805823 1.64225 -1.4659 
363 2 5.61696 5.34644 14.3494 -24.912 1.47671 3.31632 2.62241 
1802 3 5.6176 2.80585 11.7802 -28.722 -0.153628 -0.0893979 -1.44968 
3062 2 2.81347 5.41265 11.7673 -25.1664 1.23558 -0.648971 -1.54142 
4503 2 2.99376 2.77921 14.2627 -24.8293 -0.806931 0.593198 1.12671 
6003 1 1.56163 1.56353 15.4272 -8.05696 -0.0765081 -1.6742 2.44521 
7502 1 4.36599 4.23169 13.1058 -8.28017 -2.77278 -2.3606 -1.62088 
9003 1 4.3562 4.02245 15.7139 -8.27829 -0.792072 0.0844831 1.21044 
10502 1 1.53842 1.56014 12.9719 -7.49232 1.23103 -0.645268 -1.33526 
12002 1 4.34144 1.40702 13.0597 -7.95466 -0.608751 1.64382 -0.874727 
13503 1 1.57921 4.16552 15.7818 -7.6631 0.63231 0.132479 -1.0945 
15002 1 1.37758 4.05575 13.0984 -8.25043 0.797067 1.06597 -0.0568891 
16503 1 4.24895 1.36315 15.6686 -7.51563 -2.22076 0.527983 0.244382 
15302 1 6.89981 4.04675 13.08 -8.17056 1.28563 -1.12106 -0.101431 
6303 1 6.76878 1.54614 15.8476 -7.68151 1.71096 0.215995 -0.580029 
6063 1 1.53243 6.77149 15.7044 -7.81493 0.852924 -1.45885 -0.476453 
16563 1 4.31734 6.73665 15.6679 -7.63763 -0.362019 -0.643819 -0.378897 
12062 1 4.0273 6.84327 12.9834 -7.63762 1.61642 -0.171433 0.0529915 
10562 1 1.50906 6.77316 12.8447 -7.75759 -0.196381 0.301233 2.04576 
10862 1 6.98087 6.711 13.1658 -7.65546 -1.86404 -0.012078 -0.19816 
6602 1 12.3163 1.48998 10.4004 -8.02915 0.650758 0.481028 -0.449849 
14102 1 12.4048 4.43277 10.3378 -8.18496 -1.07468 -2.1388 0.278356 
10802 1 7.00161 1.22741 13.1283 -7.73144 0.384429 3.61332 -1.2628 
13803 1 7.10283 4.25072 15.73 -7.82675 -0.0776476 0.189459 -0.296973 
9302 1 9.60434 4.08807 10.3945 -7.28007 1.25198 2.83122 -0.547456 
16802 1 9.64189 1.65596 10.4125 -7.78858 -1.03066 -3.33389 -0.63361 
663 2 10.9272 5.43754 14.2811 -25.048 -0.674209 2.33465 0.494965 
2102 2 11.0432 2.73878 11.7421 -24.6111 -1.99598 2.05456 -1.5674 
3362 3 8.25185 5.43468 11.8225 -29.263 0.256769 0.142835 -1.52362 
4803 2 8.34693 2.79047 14.3964 -24.9641 -0.48037 -0.819827 1.15494 
6603 1 12.3498 1.35775 15.7913 -7.01907 -0.901394 -0.000719829 -0.410858 
7802 1 9.63766 3.97203 12.9914 -8.49454 -0.0433088 0.952696 0.858696 
9303 1 9.86105 4.2469 15.7165 -7.76512 -1.49236 0.493143 0.311345 
11102 1 12.1341 1.59454 13.0935 -7.87258 2.18313 0.0409274 1.83181 
12302 1 9.55616 1.17351 13.0724 -7.30047 -0.106998 2.27037 -0.0307352 
14103 1 12.4903 3.96724 15.9711 -7.22649 -0.10683 -0.0492127 -1.25042 
15602 1 12.3941 4.35456 13.1233 -8.72446 0.773296 -2.01706 -0.634375 
16803 1 9.72561 1.68015 15.8011 -7.23698 -1.32056 -0.519967 -1.55653 
5103 3 13.5959 2.99264 14.4182 -28.9686 1.15996 -1.21584 0.950441 
6362 1 7.2562 6.68552 10.4178 -6.83228 0.354918 0.081941 0.477782 
16862 1 9.98857 6.87618 10.3622 -7.34489 -0.724432 0.571701 -0.255976 
3662 3 13.4106 5.54623 11.6803 -28.5351 2.3163 1.74239 0.0943617 
12362 1 9.44221 6.81591 12.8717 -7.25319 0.165438 -0.259226 0.647039 
11162 1 11.9474 6.93231 12.9321 -7.46259 2.02281 0.910077 -0.927552 
6663 1 12.3713 6.61169 15.4638 -7.24377 0.656911 0.289604 1.46703 
14402 1 17.6635 4.47325 10.3635 -7.60453 0.830647 -1.47336 0.174917 
17102 1 15.1362 1.56833 10.462 -7.15774 -0.829526 0.0878648 -1.06476 
17162 1 15.1835 6.97375 10.3388 -7.18048 -1.88297 1.36666 2.05287 
9602 1 15.0049 4.2985 10.3494 -7.63166 -0.226989 0.0179637 -0.282145 
963 3 16.4433 5.44025 14.3308 -28.7821 -1.73177 -0.157925 0.179528 
2402 2 16.4628 3.01071 11.6378 -25.3345 -1.02236 -0.884469 -0.939235 
3962 3 19.2371 5.5317 11.6007 -28.2877 -2.39085 -0.0287176 -0.649692 
5403 2 18.8801 2.73831 14.2755 -25.0141 2.00874 1.70155 0.524832 
6903 1 17.5865 1.58057 15.6112 -7.92411 -0.890171 -0.928901 1.36697 
8102 1 15.1986 4.09476 13.0016 -7.52604 -1.63282 0.612404 1.4258 
9603 1 15.0725 4.45371 15.724 -7.30767 -0.172888 -1.70249 -0.232928 
11402 1 17.599 1.44212 12.8785 -8.60744 0.468202 0.783192 -0.3307 
12602 1 14.877 1.45965 13.0249 -7.24949 -0.130657 1.17244 1.14393 