
3648 atoms
4 atom types
   0.0000000000   41.4730720000 xlo xhi
   0.0000000000   41.4730720000 ylo yhi
   0.0000000000   41.4730720000 zlo zhi
   0.0000500000    0.0000500000    0.0000500000 xy xz yz

Atoms # atomic

	1	1	13.0504811733	14.7393298415	6.152986435
	2	1	13.0505061733	14.7393548415	26.889522435
	3	1	13.0505061733	35.4758658415	6.152986435
	4	1	13.0505311733	35.4758908414	26.889522435
	5	1	33.7870171733	14.7393298415	6.152986435
	6	1	33.7870421733	14.7393548415	26.889522435
	7	1	33.7870421733	35.4758658415	6.152986435
	8	1	33.7870671733	35.4758908414	26.889522435
	9	1	13.1965861156	10.8488653764	6.152986435
	10	1	13.1966111156	10.8488903764	26.889522435
	11	1	13.1966111156	31.5854013764	6.152986435
	12	1	13.1966361156	31.5854263763	26.889522435
	13	1	33.9331221156	10.8488653764	6.152986435
	14	1	33.9331471156	10.8488903764	26.889522435
	15	1	33.9331471156	31.5854013764	6.152986435
	16	1	33.9331721156	31.5854263763	26.889522435
	17	1	13.1966487226	14.7393462851	19.7923185698
	18	1	13.1966737226	14.739371285	40.5288545697
	19	1	13.1966737226	35.4758822851	19.7923185698
	20	1	13.1966987226	35.475907285	40.5288545697
	21	1	33.9331847226	14.7393462851	19.7923185698
	22	1	33.9332097226	14.739371285	40.5288545697
	23	1	33.9332097226	35.4758822851	19.7923185698
	24	1	33.9332347226	35.475907285	40.5288545697
	25	1	13.0504929266	10.84888182	19.7923600428
	26	1	13.0505179266	10.84890682	40.5288960428
	27	1	13.0505179266	31.58541782	19.7923600428
	28	1	13.0505429266	31.58544282	40.5288960428
	29	1	33.7870289266	10.84888182	19.7923600428
	30	1	33.7870539266	10.84890682	40.5288960428
	31	1	33.7870539266	31.58541782	19.7923600428
	32	1	33.7870789266	31.58544282	40.5288960428
	33	1	6.3038987924	12.7210118865	14.9179054715
	34	1	6.3039237924	12.7210368865	35.6544414714
	35	1	6.3039237924	33.4575478865	14.9179054715
	36	1	6.3039487925	33.4575728865	35.6544414714
	37	1	27.0404347924	12.7210118865	14.9179054715
	38	1	27.0404597925	12.7210368865	35.6544414714
	39	1	27.0404597925	33.4575478865	14.9179054715
	40	1	27.0404847925	33.4575728865	35.6544414714
	41	1	6.3038528052	12.8671583019	11.0274410064
	42	1	6.3038778052	12.8671833019	31.7639770063
	43	1	6.3038778052	33.6036943019	11.0274410064
	44	1	6.3039028052	33.6037193019	31.7639770063
	45	1	27.0403888052	12.8671583019	11.0274410064
	46	1	27.0404138052	12.8671833019	31.7639770063
	47	1	27.0404138052	33.6036943019	11.0274410064
	48	1	27.0404388052	33.6037193019	31.7639770063
	49	1	19.9432311034	12.8671629922	14.9178639984
	50	1	19.9432561034	12.8671879922	35.6543999984
	51	1	19.9432561034	33.6036989922	14.9178639984
	52	1	19.9432811034	33.6037239922	35.6543999984
	53	1	40.6797671034	12.8671629922	14.9178639984
	54	1	40.6797921034	12.8671879922	35.6543999984
	55	1	40.6797921034	33.6036989922	14.9178639984
	56	1	40.6798171034	33.6037239922	35.6543999984
	57	1	19.9432262368	12.7210071961	11.0273995333
	58	1	19.9432512368	12.7210321961	31.7639355333
	59	1	19.9432512368	33.4575431961	11.0273995333
	60	1	19.9432762368	33.4575681961	31.7639355333
	61	1	40.6797622368	12.7210071961	11.0273995333
	62	1	40.6797872368	12.7210321961	31.7639355333
	63	1	40.6797872368	33.4575431961	11.0273995333
	64	1	40.6798122369	33.4575681961	31.7639355333
	65	1	15.0687657888	5.9744189387	12.8995769495
	66	1	15.0687907889	5.9744439387	33.6361129495
	67	1	15.0687907889	26.7109549387	12.8995769495
	68	1	15.0688157889	26.7109799387	33.6361129495
	69	1	35.8053017889	5.9744189387	12.8995769495
	70	1	35.8053267889	5.9744439387	33.6361129495
	71	1	35.8053267889	26.7109549387	12.8995769495
	72	1	35.8053517889	26.7109799387	33.6361129495
	73	1	11.1783014999	5.9744191149	13.0457280552
	74	1	11.1783265	5.9744441149	33.7822640552
	75	1	11.1783265	26.7109551149	13.0457280552
	76	1	11.1783515	26.7109801149	33.7822640552
	77	1	31.9148375	5.9744191149	13.0457280552
	78	1	31.9148625	5.9744441149	33.7822640552
	79	1	31.9148625	26.7109551149	13.0457280552
	80	1	31.9148875	26.7109801149	33.7822640552
	81	1	15.0687824087	19.6137512497	13.0457280552
	82	1	15.0688074087	19.6137762497	33.7822640552
	83	1	15.0688074087	40.3502872497	13.0457280552
	84	1	15.0688324087	40.3503122496	33.7822640552
	85	1	35.8053184087	19.6137512497	13.0457280552
	86	1	35.8053434087	19.6137762497	33.7822640552
	87	1	35.8053434087	40.3502872497	13.0457280552
	88	1	35.8053684087	40.3503122496	33.7822640552
	89	1	11.1783177673	19.6137510735	12.8995769495
	90	1	11.1783427674	19.6137760735	33.6361129495
	91	1	11.1783427674	40.3502870735	12.8995769495
	92	1	11.1783677674	40.3503120734	33.6361129495
	93	1	31.9148537674	19.6137510735	12.8995769495
	94	1	31.9148787674	19.6137760735	33.6361129495
	95	1	31.9148787674	40.3502870735	12.8995769495
	96	1	31.9149037674	40.3503120734	33.6361129495
	97	1	15.0687657888	12.7210013195	6.152986435
	98	1	15.0687907889	12.7210263195	26.889522435
	99	1	15.0687907889	33.4575373195	6.152986435
	100	1	15.0688157889	33.4575623195	26.889522435
	101	1	35.8053017889	12.7210013195	6.152986435
	102	1	35.8053267889	12.7210263195	26.889522435
	103	1	35.8053267889	33.4575373195	6.152986435
	104	1	35.8053517889	33.4575623195	26.889522435
	105	1	11.1783014999	12.8671524253	6.152986435
	106	1	11.1783265	12.8671774252	26.889522435
	107	1	11.1783265	33.6036884252	6.152986435
	108	1	11.1783515	33.6037134252	26.889522435
	109	1	31.9148375	12.8671524253	6.152986435
	110	1	31.9148625	12.8671774252	26.889522435
	111	1	31.9148625	33.6036884252	6.152986435
	112	1	31.9148875	33.6037134252	26.889522435
	113	1	15.0687824087	12.8671688688	19.7923185698
	114	1	15.0688074087	12.8671938688	40.5288545697
	115	1	15.0688074087	33.6037048688	19.7923185698
	116	1	15.0688324087	33.6037298688	40.5288545697
	117	1	35.8053184087	12.8671688688	19.7923185698
	118	1	35.8053434087	12.8671938688	40.5288545697
	119	1	35.8053434087	33.6037048688	19.7923185698
	120	1	35.8053684087	33.6037298688	40.5288545697
	121	1	11.1783177674	12.7210177632	19.7923600428
	122	1	11.1783427674	12.7210427631	40.5288960428
	123	1	11.1783427674	33.4575537632	19.7923600428
	124	1	11.1783677674	33.4575787631	40.5288960428
	125	1	31.9148537674	12.7210177632	19.7923600428
	126	1	31.9148787674	12.7210427631	40.5288960428
	127	1	31.9148787674	33.4575537632	19.7923600428
	128	1	31.9149037674	33.4575787631	40.5288960428
	129	1	13.0504811733	5.974421372	14.9179054715
	130	1	13.0505061733	5.974446372	35.6544414714
	131	1	13.0505061733	26.710957372	14.9179054715
	132	1	13.0505311733	26.710982372	35.6544414714
	133	1	33.7870171733	5.974421372	14.9179054715
	134	1	33.7870421733	5.974446372	35.6544414714
	135	1	33.7870421733	26.710957372	14.9179054715
	136	1	33.7870671733	26.710982372	35.6544414714
	137	1	13.1965861156	5.9744166816	11.0274410064
	138	1	13.1966111156	5.9744416816	31.7639770063
	139	1	13.1966111156	26.7109526816	11.0274410064
	140	1	13.1966361156	26.7109776816	31.7639770063
	141	1	33.9331221156	5.9744166816	11.0274410064
	142	1	33.9331471156	5.9744416816	31.7639770063
	143	1	33.9331471156	26.7109526816	11.0274410064
	144	1	33.9331721156	26.7109776816	31.7639770063
	145	1	13.1966487226	19.6137535067	14.9178639984
	146	1	13.1966737226	19.6137785067	35.6543999984
	147	1	13.1966737226	40.3502895067	14.9178639984
	148	1	13.1966987226	40.3503145067	35.6543999984
	149	1	33.9331847226	19.6137535067	14.9178639984
	150	1	33.9332097226	19.6137785067	35.6543999984
	151	1	33.9332097226	40.3502895067	14.9178639984
	152	1	33.9332347226	40.3503145067	35.6543999984
	153	1	13.0504929265	19.6137488164	11.0273995333
	154	1	13.0505179265	19.6137738164	31.7639355333
	155	1	13.0505179265	40.3502848164	11.0273995333
	156	1	13.0505429265	40.3503098163	31.7639355333
	157	1	33.7870289265	19.6137488164	11.0273995333
	158	1	33.7870539265	19.6137738164	31.7639355333
	159	1	33.7870539265	40.3502848164	11.0273995333
	160	1	33.7870789265	40.3503098163	31.7639355333
	161	1	6.3038987924	14.7393379752	12.8995769495
	162	1	6.3039237924	14.7393629751	33.6361129495
	163	1	6.3039237924	35.4758739752	12.8995769495
	164	1	6.3039487925	35.4758989751	33.6361129495
	165	1	27.0404347924	14.7393379752	12.8995769495
	166	1	27.0404597925	14.7393629751	33.6361129495
	167	1	27.0404597925	35.4758739752	12.8995769495
	168	1	27.0404847925	35.4758989751	33.6361129495
	169	1	6.3038528052	10.8488736863	13.0457280552
	170	1	6.3038778052	10.8488986862	33.7822640552
	171	1	6.3038778052	31.5854096863	13.0457280552
	172	1	6.3039028052	31.5854346862	33.7822640552
	173	1	27.0403888052	10.8488736863	13.0457280552
	174	1	27.0404138052	10.8488986862	33.7822640552
	175	1	27.0404138052	31.5854096863	13.0457280552
	176	1	27.0404388052	31.5854346862	33.7822640552
	177	1	19.9432311034	14.7393381514	13.0457280552
	178	1	19.9432561034	14.7393631513	33.7822640552
	179	1	19.9432561034	35.4758741514	13.0457280552
	180	1	19.9432811034	35.4758991513	33.7822640552
	181	1	40.6797671034	14.7393381514	13.0457280552
	182	1	40.6797921034	14.7393631513	33.7822640552
	183	1	40.6797921034	35.4758741514	13.0457280552
	184	1	40.6798171035	35.4758991513	33.7822640552
	185	1	19.9432262369	10.8488735101	12.8995769495
	186	1	19.9432512369	10.84889851	33.6361129495
	187	1	19.9432512369	31.5854095101	12.8995769495
	188	1	19.9432762369	31.58543451	33.6361129495
	189	1	40.6797622369	10.8488735101	12.8995769495
	190	1	40.6797872369	10.84889851	33.6361129495
	191	1	40.6797872369	31.5854095101	12.8995769495
	192	1	40.6798122369	31.58543451	33.6361129495
	193	1	13.0504811733	4.3710743415	16.521254435
	194	1	13.0505061733	4.3710993414	37.257790435
	195	1	13.0505061733	25.1076103415	16.521254435
	196	1	13.0505311733	25.1076353414	37.257790435
	197	1	33.7870171733	4.3710743415	16.521254435
	198	1	33.7870421733	4.3710993414	37.257790435
	199	1	33.7870421733	25.1076103415	16.521254435
	200	1	33.7870671733	25.1076353414	37.257790435
	201	1	13.1966275885	0.4805684032	16.5212129619
	202	1	13.1966525886	0.4805934032	37.2577489619
	203	1	13.1966525886	21.2171044032	16.5212129619
	204	1	13.1966775886	21.2171294032	37.2577489619
	205	1	33.9331635886	0.4805684032	16.5212129619
	206	1	33.9331885886	0.4805934032	37.2577489619
	207	1	33.9331885886	21.2171044032	16.5212129619
	208	1	33.9332135886	21.2171294032	37.2577489619
	209	1	13.1965822496	4.3710657851	9.4240920428
	210	1	13.1966072496	4.3710907851	30.1606280428
	211	1	13.1966072496	25.1076017851	9.4240920428
	212	1	13.1966322496	25.1076267851	30.1606280428
	213	1	33.9331182496	4.3710657851	9.4240920428
	214	1	33.9331432496	4.3710907851	30.1606280428
	215	1	33.9331432496	25.1076017851	9.4240920428
	216	1	33.9331682496	25.1076267851	30.1606280428
	217	1	13.0504679265	0.48060132	9.4240505698
	218	1	13.0504929265	0.48062632	30.1605865697
	219	1	13.0504929265	21.21713732	9.4240505698
	220	1	13.0505179265	21.2171623199	30.1605865697
	221	1	33.7870039265	0.48060132	9.4240505698
	222	1	33.7870289265	0.48062632	30.1605865697
	223	1	33.7870289265	21.21713732	9.4240505698
	224	1	33.7870539265	21.2171623199	30.1605865697
	225	1	6.3038737925	2.3527728596	4.5496374715
	226	1	6.3038987925	2.3527978596	25.2861734714
	227	1	6.3038987925	23.0893088596	4.5496374715
	228	1	6.3039237925	23.0893338596	25.2861734714
	229	1	27.0404097925	2.3527728596	4.5496374715
	230	1	27.0404347925	2.3527978596	25.2861734714
	231	1	27.0404347925	23.0893088596	4.5496374715
	232	1	27.0404597925	23.0893338596	25.2861734714
	233	1	6.3038278052	2.4988778019	0.6591315333
	234	1	6.3038528052	2.4989028018	21.3956675333
	235	1	6.3038528052	23.2354138019	0.6591315333
	236	1	6.3038778052	23.2354388018	21.3956675333
	237	1	27.0403638052	2.4988778019	0.6591315333
	238	1	27.0403888052	2.4989028018	21.3956675333
	239	1	27.0403888052	23.2354138019	0.6591315333
	240	1	27.0404138052	23.2354388018	21.3956675333
	241	1	19.9432061034	2.4988824923	4.5496374715
	242	1	19.9432311034	2.4989074922	25.2861734714
	243	1	19.9432311034	23.2354184923	4.5496374715
	244	1	19.9432561034	23.2354434922	25.2861734714
	245	1	40.6797421034	2.4988824923	4.5496374715
	246	1	40.6797671034	2.4989074922	25.2861734714
	247	1	40.6797671034	23.2354184923	4.5496374715
	248	1	40.6797921034	23.2354434922	25.2861734714
	249	1	19.9432012369	2.3527681692	0.6591315333
	250	1	19.9432262369	2.3527931692	21.3956675333
	251	1	19.9432262369	23.0893041692	0.6591315333
	252	1	19.9432512369	23.0893291692	21.3956675333
	253	1	40.6797372369	2.3527681692	0.6591315333
	254	1	40.6797622369	2.3527931692	21.3956675333
	255	1	40.6797622369	23.0893041692	0.6591315333
	256	1	40.6797872369	23.0893291692	21.3956675333
	257	1	15.0688072619	16.3426744387	2.5313089495
	258	1	15.0688322619	16.3426994387	23.2678449495
	259	1	15.0688322619	37.0792104387	2.5313089495
	260	1	15.0688572619	37.0792354387	23.2678449495
	261	1	35.8053432619	16.3426744387	2.5313089495
	262	1	35.8053682619	16.3426994387	23.2678449495
	263	1	35.8053682619	37.0792104387	2.5313089495
	264	1	35.8053932619	37.0792354387	23.2678449495
	265	1	11.1783014999	16.3426746149	2.6774600552
	266	1	11.1783265	16.3426996149	23.4139960552
	267	1	11.1783265	37.0792106149	2.6774600552
	268	1	11.1783515	37.0792356149	23.4139960552
	269	1	31.9148375	16.3426746149	2.6774600552
	270	1	31.9148625	16.3426996149	23.4139960552
	271	1	31.9148625	37.0792106149	2.6774600552
	272	1	31.9148875	37.0792356149	23.4139960552
	273	1	15.0687574087	9.2455122228	2.6774600552
	274	1	15.0687824087	9.2455372227	23.4139960552
	275	1	15.0687824087	29.9820482228	2.6774600552
	276	1	15.0688074087	29.9820732227	23.4139960552
	277	1	35.8052934087	9.2455122228	2.6774600552
	278	1	35.8053184087	9.2455372227	23.4139960552
	279	1	35.8053184087	29.9820482228	2.6774600552
	280	1	35.8053434087	29.9820732227	23.4139960552
	281	1	11.1782927674	9.2455120466	2.5313504226
	282	1	11.1783177674	9.2455370466	23.2678864226
	283	1	11.1783177674	29.9820480466	2.5313504226
	284	1	11.1783427675	29.9820730466	23.2678864226
	285	1	31.9148287674	9.2455120466	2.5313504226
	286	1	31.9148537675	9.2455370466	23.2678864226
	287	1	31.9148537675	29.9820480466	2.5313504226
	288	1	31.9148787675	29.9820730466	23.2678864226
	289	1	15.0688072619	2.3527458195	16.521254435
	290	1	15.0688322619	2.3527708195	37.257790435
	291	1	15.0688322619	23.0892818195	16.521254435
	292	1	15.0688572619	23.0893068195	37.257790435
	293	1	35.8053432619	2.3527458195	16.521254435
	294	1	35.8053682619	2.3527708195	37.257790435
	295	1	35.8053682619	23.0892818195	16.521254435
	296	1	35.8053932619	23.0893068195	37.257790435
	297	1	11.1783014999	2.4988969252	16.521254435
	298	1	11.1783265	2.4989219252	37.257790435
	299	1	11.1783265	23.2354329252	16.521254435
	300	1	11.1783515	23.2354579252	37.257790435
	301	1	31.9148375	2.4988969252	16.521254435
	302	1	31.9148625	2.4989219252	37.257790435
	303	1	31.9148625	23.2354329252	16.521254435
	304	1	31.9148875	23.2354579252	37.257790435
	305	1	15.0687574086	2.4988883689	9.4240505698
	306	1	15.0687824087	2.4989133688	30.1605865697
	307	1	15.0687824087	23.2354243688	9.4240505698
	308	1	15.0688074087	23.2354493688	30.1605865697
	309	1	35.8052934087	2.4988883689	9.4240505698
	310	1	35.8053184087	2.4989133688	30.1605865697
	311	1	35.8053184087	23.2354243688	9.4240505698
	312	1	35.8053434087	23.2354493688	30.1605865697
	313	1	11.1782927674	2.3527787362	9.4240505698
	314	1	11.1783177674	2.3528037362	30.1605865697
	315	1	11.1783177674	23.0893147362	9.4240505698
	316	1	11.1783427674	23.0893397362	30.1605865697
	317	1	31.9148287674	2.3527787362	9.4240505698
	318	1	31.9148537674	2.3528037362	30.1605865697
	319	1	31.9148537674	23.0893147362	9.4240505698
	320	1	31.9148787674	23.0893397362	30.1605865697
	321	1	13.0504811733	16.342676872	4.5496374715
	322	1	13.0505061733	16.342701872	25.2861734714
	323	1	13.0505061733	37.079212872	4.5496374715
	324	1	13.0505311733	37.079237872	25.2861734714
	325	1	33.7870171733	16.342676872	4.5496374715
	326	1	33.7870421733	16.342701872	25.2861734714
	327	1	33.7870421733	37.079212872	4.5496374715
	328	1	33.7870671733	37.079237872	25.2861734714
	329	1	13.1966275886	16.3426721816	0.6591315333
	330	1	13.1966525886	16.3426971816	21.3956675333
	331	1	13.1966525886	37.0792081816	0.6591315333
	332	1	13.1966775886	37.0792331816	21.3956675333
	333	1	33.9331635886	16.3426721816	0.6591315333
	334	1	33.9331885886	16.3426971816	21.3956675333
	335	1	33.9331885886	37.0792081816	0.6591315333
	336	1	33.9332135886	37.0792331816	21.3956675333
	337	1	13.1965822496	9.2455144799	4.5496374715
	338	1	13.1966072496	9.2455394798	25.2861734714
	339	1	13.1966072496	29.9820504799	4.5496374715
	340	1	13.1966322496	29.9820754798	25.2861734714
	341	1	33.9331182496	9.2455144799	4.5496374715
	342	1	33.9331432496	9.2455394798	25.2861734714
	343	1	33.9331432496	29.9820504799	4.5496374715
	344	1	33.9331682496	29.9820754798	25.2861734714
	345	1	13.0504679265	9.2454683164	0.6591730064
	346	1	13.0504929265	9.2454933164	21.3957090063
	347	1	13.0504929265	29.9820043164	0.6591730064
	348	1	13.0505179265	29.9820293164	21.3957090063
	349	1	33.7870039265	9.2454683164	0.6591730064
	350	1	33.7870289265	9.2454933164	21.3957090063
	351	1	33.7870289265	29.9820043164	0.6591730064
	352	1	33.7870539265	29.9820293164	21.3957090063
	353	1	6.3038737925	4.3710574752	2.5313504226
	354	1	6.3038987925	4.3710824752	23.2678864226
	355	1	6.3038987925	25.1075934752	2.5313504226
	356	1	6.3039237925	25.1076184752	23.2678864226
	357	1	27.0404097925	4.3710574752	2.5313504226
	358	1	27.0404347925	4.3710824752	23.2678864226
	359	1	27.0404347925	25.1075934752	2.5313504226
	360	1	27.0404597925	25.1076184752	23.2678864226
	361	1	6.3038278052	0.4805931863	2.6774600552
	362	1	6.3038528052	0.4806181863	23.4139960552
	363	1	6.3038528052	21.2171291863	2.6774600552
	364	1	6.3038778052	21.2171541863	23.4139960552
	365	1	27.0403638052	0.4805931863	2.6774600552
	366	1	27.0403888052	0.4806181863	23.4139960552
	367	1	27.0403888052	21.2171291863	2.6774600552
	368	1	27.0404138052	21.2171541863	23.4139960552
	369	1	19.9432061034	4.3710576514	2.6774600552
	370	1	19.9432311034	4.3710826514	23.4139960552
	371	1	19.9432311034	25.1075936514	2.6774600552
	372	1	19.9432561034	25.1076186514	23.4139960552
	373	1	40.6797421034	4.3710576514	2.6774600552
	374	1	40.6797671034	4.3710826514	23.4139960552
	375	1	40.6797671034	25.1075936514	2.6774600552
	376	1	40.6797921034	25.1076186514	23.4139960552
	377	1	19.9432012369	0.4805930101	2.5313089495
	378	1	19.9432262369	0.4806180101	23.2678449495
	379	1	19.9432262369	21.2171290101	2.5313089495
	380	1	19.9432512369	21.2171540101	23.2678449495
	381	1	40.6797372369	0.4805930101	2.5313089495
	382	1	40.6797622369	0.4806180101	23.2678449495
	383	1	40.6797622369	21.2171290101	2.5313089495
	384	1	40.6797872369	21.2171540101	23.2678449495
	385	1	2.6822256733	14.7393423415	16.521254435
	386	1	2.6822506733	14.7393673414	37.257790435
	387	1	2.6822506733	35.4758783415	16.521254435
	388	1	2.6822756733	35.4759033414	37.257790435
	389	1	23.4187616733	14.7393423415	16.521254435
	390	1	23.4187866733	14.7393673414	37.257790435
	391	1	23.4187866733	35.4758783415	16.521254435
	392	1	23.4188116733	35.4759033414	37.257790435
	393	1	2.8283720886	10.8488364033	16.521254435
	394	1	2.8283970886	10.8488614033	37.257790435
	395	1	2.8283970886	31.5853724033	16.521254435
	396	1	2.8284220886	31.5853974033	37.257790435
	397	1	23.5649080886	10.8488364033	16.521254435
	398	1	23.5649330886	10.8488614033	37.257790435
	399	1	23.5649330886	31.5853724033	16.521254435
	400	1	23.5649580886	31.5853974033	37.257790435
	401	1	2.8283682226	14.7393337851	9.4240505698
	402	1	2.8283932226	14.7393587851	30.1605865697
	403	1	2.8283932226	35.4758697851	9.4240505698
	404	1	2.8284182226	35.475894785	30.1605865697
	405	1	23.5649042226	14.7393337851	9.4240505698
	406	1	23.5649292226	14.7393587851	30.1605865697
	407	1	23.5649292226	35.4758697851	9.4240505698
	408	1	23.5649542226	35.475894785	30.1605865697
	409	1	2.6822124265	10.84886932	9.4240505698
	410	1	2.6822374265	10.8488943199	30.1605865697
	411	1	2.6822374265	31.58540532	9.4240505698
	412	1	2.6822624265	31.5854303199	30.1605865697
	413	1	23.4187484265	10.84886932	9.4240505698
	414	1	23.4187734265	10.8488943199	30.1605865697
	415	1	23.4187734265	31.58540532	9.4240505698
	416	1	23.4187984265	31.5854303199	30.1605865697
	417	1	16.6721542924	12.7209993865	4.5496374715
	418	1	16.6721792924	12.7210243865	25.2861734714
	419	1	16.6721792924	33.4575353865	4.5496374715
	420	1	16.6722042925	33.4575603865	25.2861734714
	421	1	37.4086902924	12.7209993865	4.5496374715
	422	1	37.4087152925	12.7210243865	25.2861734714
	423	1	37.4087152925	33.4575353865	4.5496374715
	424	1	37.4087402925	33.4575603865	25.2861734714
	425	1	16.6721083052	12.8671458019	0.6591315333
	426	1	16.6721333052	12.8671708018	21.3956675333
	427	1	16.6721333052	33.6036818019	0.6591315333
	428	1	16.6721583052	33.6037068018	21.3956675333
	429	1	37.4086443052	12.8671458019	0.6591315333
	430	1	37.4086693052	12.8671708018	21.3956675333
	431	1	37.4086693052	33.6036818019	0.6591315333
	432	1	37.4086943052	33.6037068018	21.3956675333
	433	1	9.5749506034	12.8671504923	4.5496374715
	434	1	9.5749756034	12.8671754922	25.2861734714
	435	1	9.5749756034	33.6036864922	4.5496374715
	436	1	9.5750006034	33.6037114922	25.2861734714
	437	1	30.3114866034	12.8671504923	4.5496374715
	438	1	30.3115116034	12.8671754922	25.2861734714
	439	1	30.3115116034	33.6036864922	4.5496374715
	440	1	30.3115366034	33.6037114922	25.2861734714
	441	1	9.5749457369	12.7209946962	0.6591730064
	442	1	9.5749707369	12.7210196962	21.3957090063
	443	1	9.5749707369	33.4575306962	0.6591730064
	444	1	9.5749957369	33.4575556962	21.3957090063
	445	1	30.3114817369	12.7209946962	0.6591730064
	446	1	30.3115067369	12.7210196962	21.3957090063
	447	1	30.3115067369	33.4575306962	0.6591730064
	448	1	30.3115317369	33.4575556962	21.3957090063
	449	1	4.7004852889	5.9744064388	2.5313504226
	450	1	4.7005102889	5.9744314387	23.2678864226
	451	1	4.7005102889	26.7109424387	2.5313504226
	452	1	4.7005352889	26.7109674387	23.2678864226
	453	1	25.4370212889	5.9744064388	2.5313504226
	454	1	25.4370462889	5.9744314387	23.2678864226
	455	1	25.4370462889	26.7109424387	2.5313504226
	456	1	25.4370712889	26.7109674387	23.2678864226
	457	1	0.8100209999	5.9744066149	2.6774600552
	458	1	0.8100459999	5.9744316149	23.4139960552
	459	1	0.8100459999	26.7109426149	2.6774600552
	460	1	0.810071	26.7109676149	23.4139960552
	461	1	21.5465569999	5.9744066149	2.6774600552
	462	1	21.546582	5.9744316149	23.4139960552
	463	1	21.546582	26.7109426149	2.6774600552
	464	1	21.546607	26.7109676149	23.4139960552
	465	1	4.7005019087	19.6137802228	2.6774600552
	466	1	4.7005269087	19.6138052227	23.4139960552
	467	1	4.7005269087	40.3503162227	2.6774600552
	468	1	4.7005519087	40.3503412227	23.4139960552
	469	1	25.4370379087	19.6137802228	2.6774600552
	470	1	25.4370629087	19.6138052227	23.4139960552
	471	1	25.4370629087	40.3503162227	2.6774600552
	472	1	25.4370879087	40.3503412227	23.4139960552
	473	1	0.8100372674	19.6137800466	2.5313089495
	474	1	0.8100622674	19.6138050465	23.2678449495
	475	1	0.8100622674	40.3503160465	2.5313089495
	476	1	0.8100872674	40.3503410465	23.2678449495
	477	1	21.5465732674	19.6137800466	2.5313089495
	478	1	21.5465982674	19.6138050465	23.2678449495
	479	1	21.5465982674	40.3503160465	2.5313089495
	480	1	21.5466232674	40.3503410465	23.2678449495
	481	1	4.7005102888	12.7210138195	16.521254435
	482	1	4.7005352889	12.7210388195	37.257790435
	483	1	4.7005352889	33.4575498195	16.521254435
	484	1	4.7005602889	33.4575748195	37.257790435
	485	1	25.4370462889	12.7210138195	16.521254435
	486	1	25.4370712889	12.7210388195	37.257790435
	487	1	25.4370712889	33.4575498195	16.521254435
	488	1	25.4370962889	33.4575748195	37.257790435
	489	1	0.8100459999	12.8671649252	16.5212129619
	490	1	0.8100709999	12.8671899252	37.2577489619
	491	1	0.8100709999	33.6037009252	16.5212129619
	492	1	0.8100959999	33.6037259252	37.2577489619
	493	1	21.5465819999	12.8671649252	16.5212129619
	494	1	21.5466069999	12.8671899252	37.2577489619
	495	1	21.5466069999	33.6037009252	16.5212129619
	496	1	21.5466319999	33.6037259252	37.2577489619
	497	1	4.7005019087	12.8671563689	9.4240920428
	498	1	4.7005269087	12.8671813689	30.1606280428
	499	1	4.7005269087	33.6036923689	9.4240920428
	500	1	4.7005519087	33.6037173689	30.1606280428
	501	1	25.4370379087	12.8671563689	9.4240920428
	502	1	25.4370629087	12.8671813689	30.1606280428
	503	1	25.4370629087	33.6036923689	9.4240920428
	504	1	25.4370879087	33.6037173689	30.1606280428
	505	1	0.8100372673	12.7210052631	9.4240505698
	506	1	0.8100622673	12.7210302631	30.1605865697
	507	1	0.8100622673	33.4575412631	9.4240505698
	508	1	0.8100872674	33.4575662631	30.1605865697
	509	1	21.5465732673	12.7210052631	9.4240505698
	510	1	21.5465982674	12.7210302631	30.1605865697
	511	1	21.5465982674	33.4575412631	9.4240505698
	512	1	21.5466232674	33.4575662631	30.1605865697
	513	1	2.6822006733	5.974408872	4.5496374715
	514	1	2.6822256733	5.974433872	25.2861734714
	515	1	2.6822256733	26.710944872	4.5496374715
	516	1	2.6822506733	26.710969872	25.2861734714
	517	1	23.4187366733	5.974408872	4.5496374715
	518	1	23.4187616733	5.974433872	25.2861734714
	519	1	23.4187616733	26.710944872	4.5496374715
	520	1	23.4187866733	26.710969872	25.2861734714
	521	1	2.8283470886	5.9744041816	0.6591315333
	522	1	2.8283720886	5.9744291816	21.3956675333
	523	1	2.8283720886	26.7109401816	0.6591315333
	524	1	2.8283970886	26.7109651816	21.3956675333
	525	1	23.5648830886	5.9744041816	0.6591315333
	526	1	23.5649080886	5.9744291816	21.3956675333
	527	1	23.5649080886	26.7109401816	0.6591315333
	528	1	23.5649330886	26.7109651816	21.3956675333
	529	1	2.8283682226	19.6137824799	4.5496374715
	530	1	2.8283932227	19.6138074798	25.2861734714
	531	1	2.8283932227	40.3503184798	4.5496374715
	532	1	2.8284182227	40.3503434798	25.2861734714
	533	1	23.5649042227	19.6137824799	4.5496374715
	534	1	23.5649292227	19.6138074798	25.2861734714
	535	1	23.5649292227	40.3503184798	4.5496374715
	536	1	23.5649542227	40.3503434798	25.2861734714
	537	1	2.6822124265	19.6137363164	0.6591730064
	538	1	2.6822374265	19.6137613164	21.3957090063
	539	1	2.6822374265	40.3502723164	0.6591730064
	540	1	2.6822624265	40.3502973164	21.3957090063
	541	1	23.4187484265	19.6137363164	0.6591730064
	542	1	23.4187734265	19.6137613164	21.3957090063
	543	1	23.4187734265	40.3502723164	0.6591730064
	544	1	23.4187984265	40.3502973164	21.3957090063
	545	1	16.6721542924	14.7393254752	2.5313089495
	546	1	16.6721792924	14.7393504752	23.2678449495
	547	1	16.6721792924	35.4758614752	2.5313089495
	548	1	16.6722042925	35.4758864752	23.2678449495
	549	1	37.4086902924	14.7393254752	2.5313089495
	550	1	37.4087152925	14.7393504752	23.2678449495
	551	1	37.4087152925	35.4758614752	2.5313089495
	552	1	37.4087402925	35.4758864752	23.2678449495
	553	1	16.6721083052	10.8488197132	2.6774600552
	554	1	16.6721333052	10.8488447132	23.4139960552
	555	1	16.6721333052	31.5853557132	2.6774600552
	556	1	16.6721583052	31.5853807132	23.4139960552
	557	1	37.4086443052	10.8488197132	2.6774600552
	558	1	37.4086693052	10.8488447132	23.4139960552
	559	1	37.4086693052	31.5853557132	2.6774600552
	560	1	37.4086943052	31.5853807132	23.4139960552
	561	1	9.5749506034	14.7393256514	2.6774600552
	562	1	9.5749756034	14.7393506514	23.4139960552
	563	1	9.5749756034	35.4758616514	2.6774600552
	564	1	9.5750006034	35.4758866514	23.4139960552
	565	1	30.3114866034	14.7393256514	2.6774600552
	566	1	30.3115116034	14.7393506514	23.4139960552
	567	1	30.3115116034	35.4758616514	2.6774600552
	568	1	30.3115366034	35.4758866514	23.4139960552
	569	1	9.5749457369	10.8488610101	2.5313504226
	570	1	9.5749707369	10.8488860101	23.2678864226
	571	1	9.5749707369	31.5853970101	2.5313504226
	572	1	9.5749957369	31.5854220101	23.2678864226
	573	1	30.3114817369	10.8488610101	2.5313504226
	574	1	30.3115067369	10.8488860101	23.2678864226
	575	1	30.3115067369	31.5853970101	2.5313504226
	576	1	30.3115317369	31.5854220101	23.2678864226
	577	1	2.6822006733	4.3710618415	6.152986435
	578	1	2.6822256733	4.3710868415	26.889522435
	579	1	2.6822256733	25.1075978415	6.152986435
	580	1	2.6822506733	25.1076228415	26.889522435
	581	1	23.4187366733	4.3710618415	6.152986435
	582	1	23.4187616733	4.3710868415	26.889522435
	583	1	23.4187616733	25.1075978415	6.152986435
	584	1	23.4187866733	25.1076228415	26.889522435
	585	1	2.8283470886	0.4805973764	6.152986435
	586	1	2.8283720886	0.4806223764	26.889522435
	587	1	2.8283720886	21.2171333764	6.152986435
	588	1	2.8283970887	21.2171583763	26.889522435
	589	1	23.5648830886	0.4805973764	6.152986435
	590	1	23.5649080887	0.4806223764	26.889522435
	591	1	23.5649080887	21.2171333764	6.152986435
	592	1	23.5649330887	21.2171583763	26.889522435
	593	1	2.8283682226	4.3710782851	19.7923185698
	594	1	2.8283932226	4.371103285	40.5288545697
	595	1	2.8283932226	25.1076142851	19.7923185698
	596	1	2.8284182226	25.107639285	40.5288545697
	597	1	23.5649042226	4.3710782851	19.7923185698
	598	1	23.5649292226	4.371103285	40.5288545697
	599	1	23.5649292226	25.1076142851	19.7923185698
	600	1	23.5649542226	25.107639285	40.5288545697
	601	1	2.6822124266	0.48061382	19.7923600428
	602	1	2.6822374266	0.48063882	40.5288960428
	603	1	2.6822374266	21.21714982	19.7923600428
	604	1	2.6822624266	21.21717482	40.5288960428
	605	1	23.4187484266	0.48061382	19.7923600428
	606	1	23.4187734266	0.48063882	40.5288960428
	607	1	23.4187734266	21.21714982	19.7923600428
	608	1	23.4187984266	21.21717482	40.5288960428
	609	1	16.6721542924	2.3527438865	14.9179054715
	610	1	16.6721792924	2.3527688865	35.6544414714
	611	1	16.6721792924	23.0892798865	14.9179054715
	612	1	16.6722042925	23.0893048865	35.6544414714
	613	1	37.4086902924	2.3527438865	14.9179054715
	614	1	37.4087152925	2.3527688865	35.6544414714
	615	1	37.4087152925	23.0892798865	14.9179054715
	616	1	37.4087402925	23.0893048865	35.6544414714
	617	1	16.6721083052	2.4988903019	11.0274410064
	618	1	16.6721333052	2.4989153019	31.7639770063
	619	1	16.6721333052	23.2354263019	11.0274410064
	620	1	16.6721583052	23.2354513019	31.7639770063
	621	1	37.4086443052	2.4988903019	11.0274410064
	622	1	37.4086693052	2.4989153019	31.7639770063
	623	1	37.4086693052	23.2354263019	11.0274410064
	624	1	37.4086943052	23.2354513019	31.7639770063
	625	1	9.5749506034	2.4988949922	14.9179054715