ITEM: TIMESTEP
0
ITEM: NUMBER OF ATOMS
6000
ITEM: BOX BOUNDS pp pp pp
-1.0828063664397547e-01 2.7449280636643785e+01
-1.1157016098934136e-01 2.7452570160989012e+01
-4.0208908446128078e-01 1.0976608908446283e+02
ITEM: ATOMS id type x y z c_peratom fx fy fz 
122 2 5.27532 5.30172 5.19544 -24.4944 0.205656 -0.394145 -0.841044 
601 2 5.40789 2.68423 2.44164 -25.8594 0.0787857 -1.05679 -0.526912 
602 2 5.39347 2.51103 7.95486 -25.4385 -0.0134395 2.13253 -1.24097 
1021 2 2.5835 5.40517 2.27054 -25.4482 0.564979 -0.0170509 2.10583 
1022 2 2.66393 5.34956 7.84512 -25.6333 -1.75979 -1.87587 1.52545 
1502 2 2.60618 2.52899 5.25761 -25.3782 -0.670559 0.559485 -1.04317 
2001 1 1.37044 1.20214 0.941367 -6.87285 -0.606431 1.11936 0.49403 
2002 1 1.16457 1.18525 6.63461 -7.4381 0.796691 0.498636 -0.6129 
2501 1 4.03665 4.00514 3.71744 -7.72512 -0.523496 1.01208 0.533791 
3001 1 4.1581 3.82377 0.936859 -7.32563 -1.08384 2.29226 -0.326288 
3002 1 4.03516 3.7124 6.55887 -7.3813 0.521923 1.81362 -0.776989 
3501 1 1.09414 1.16999 3.79393 -7.701 0.549077 2.23708 -0.325118 
4001 1 4.09215 1.31519 3.84297 -7.44981 -0.705709 0.0410035 -0.0561033 
4501 1 1.3269 4.01895 1.11206 -7.67737 -0.284717 -0.598502 -0.748115 
4502 1 1.35892 3.97216 6.61669 -6.85873 -0.0347532 -0.979519 -0.602453 
5001 1 1.14687 4.10727 3.89141 -7.11209 0.724441 -2.25297 -0.756592 
5501 1 4.01861 1.23736 1.00655 -7.14411 0.16213 -0.303099 0.321866 
5502 1 3.84857 1.17463 6.59815 -7.3947 1.47717 0.658284 -0.968658 
502 2 -0.0745466 2.51195 7.94015 -25.8899 -0.0430233 1.64528 -1.62241 
1002 2 2.86427 -0.0731283 7.98825 -24.7035 -3.63087 -1.40806 0.444393 
4602 1 6.74381 3.9098 6.49177 -7.69798 -0.172813 -0.195663 -1.51292 
5522 1 3.82275 6.51111 6.56258 -7.97383 2.96396 2.4922 -2.14455 
3521 1 1.19536 6.69191 3.59618 -6.61232 0.359294 0.687925 1.48075 
2101 1 6.71428 1.30002 1.19232 -7.12764 1.1109 -0.575595 -1.64203 
2102 1 6.60745 1.11255 6.58365 -7.77659 1.21289 0.519877 -0.472813 
3621 1 6.67474 6.74905 3.49969 -7.46533 -0.252209 0.258151 2.42741 
2121 1 6.76556 6.76632 0.898313 -7.17857 -1.16535 -0.191753 -0.0909408 
2122 1 6.73126 6.69107 6.46745 -8.38034 -0.959258 0.0075964 -0.706866 
2022 1 1.16916 6.6311 6.47122 -7.16012 -0.107643 1.63313 0.17311 
2021 1 1.19214 6.74548 1.0143 -7.60138 1.16063 0.0763764 -1.6408 
1001 2 2.62217 -0.0176866 2.29255 -25.76 0.564062 -0.382801 1.79894 
101 2 5.3962 -0.0583661 -0.286804 -26.1448 0.00554649 -0.590346 -0.631173 
121 2 5.44484 5.45613 -0.368624 -25.4695 -0.0366611 -1.18237 -0.832066 
21 2 -0.0170526 5.41352 -0.372136 -25.5044 -0.477567 -1.49219 -0.0348405 
1601 2 8.03706 2.59652 -0.355646 -25.5252 0.425993 0.0185749 0.141456 
5101 1 6.82378 4.1103 3.64252 -7.70351 -1.05024 -1.8424 2.54361 
4601 1 6.80032 4.00239 1.03416 -7.24527 0.805487 0.163758 -0.264901 
3601 1 6.88662 1.1614 3.73015 -7.21521 0.0377362 1.30404 1.58243 
222 2 10.9002 5.44137 5.06778 -25.2926 0.707444 -0.304106 -0.282665 
701 2 10.8813 2.65313 2.43241 -25.3785 1.64547 0.271562 -0.591619 
702 2 10.9667 2.52345 7.72653 -25.8446 -0.99455 1.02532 0.604809 
1121 2 8.1656 5.29631 2.39995 -25.877 0.0306792 2.4019 -1.77543 
1122 2 8.14224 5.31364 7.65633 -25.6648 0.0806815 0.128623 1.64726 
1602 2 8.07157 2.54669 5.08154 -25.099 0.96508 0.376448 0.0406435 
2201 1 12.4734 1.29175 0.906355 -7.25669 -0.998547 -1.22636 -0.103533 
2202 1 12.1494 1.12384 6.44847 -7.04494 1.91225 -0.156497 0.863577 
2601 1 9.53481 4.08667 3.67102 -7.59755 0.621283 -1.6268 0.202889 
3101 1 9.69437 4.28172 0.93402 -7.31884 -2.00969 -3.46747 2.17496 
3102 1 9.48138 4.0599 6.31846 -7.49627 0.77335 0.369704 -0.15334 
3701 1 12.5348 1.35915 3.75012 -7.3714 -1.36895 -0.142072 -0.856818 
4101 1 9.76055 1.23618 3.74042 -7.20398 -0.850432 -0.043091 0.390612 
4701 1 12.3395 3.82555 0.933084 -7.54565 0.603059 1.1326 0.0360768 
4702 1 12.4288 3.66401 6.40037 -7.12347 -0.79106 2.52954 0.422861 
5201 1 12.4017 4.15355 3.72008 -7.17089 -1.32379 0.599613 -0.366214 
5601 1 9.64325 1.2033 1.1337 -7.54784 -0.478857 0.298887 -1.26117 
5602 1 9.52517 1.32486 6.35464 -7.33288 -1.37104 -0.642134 0.706721 
1222 2 13.6187 5.44178 7.91534 -25.2313 1.05271 -0.816953 -0.24068 
2221 1 12.4464 6.5255 0.956719 -7.4139 -2.73271 0.877217 -2.04411 
4121 1 9.51965 6.72271 3.74467 -7.46348 -0.815779 0.369948 0.536634 
2222 1 12.4042 6.58988 6.48034 -7.76285 -1.3611 0.151214 -0.342403 
4021 1 3.79254 6.94409 3.64572 -7.25019 1.46223 -1.47029 0.724497 
1521 2 2.71858 8.15108 -0.345219 -25.2043 -1.11964 0.392603 -0.93961 
541 2 0.0244644 13.643 2.26777 -25.551 0.310453 -1.40788 -0.414932 
5521 1 3.90927 6.77992 0.909509 -7.99304 1.03809 -2.01333 -0.278116 
142 2 5.67626 10.8503 5.1944 -24.5941 -3.87628 -0.588536 -1.22101 
621 2 5.34899 8.1809 2.29703 -25.6358 1.40369 -1.13469 0.0671298 
622 2 5.36349 8.15197 7.89912 -24.7571 -0.256204 -0.449639 1.047 
1041 2 2.7853 10.8244 2.48134 -25.2444 -1.73501 0.314633 -1.6439 
1042 2 2.62881 10.8977 7.75839 -25.5615 0.0762777 0.334823 1.97228 
1522 2 2.66862 8.30806 5.09452 -24.8823 -0.740608 -2.38325 -0.44165 
2041 1 1.49211 12.1833 0.952296 -7.00656 -1.10771 1.03134 0.439903 
2042 1 1.29379 12.4123 6.34706 -7.9946 -0.371379 -2.03259 0.949048 
2521 1 4.12243 9.47634 3.73467 -7.7468 -0.178622 1.06859 1.27275 
3021 1 4.02397 9.35822 1.02853 -7.65201 -0.854755 1.95118 -0.518378 
3022 1 3.90066 9.503 6.61903 -7.85132 1.61034 -1.95832 -1.58782 
3541 1 1.23983 12.1047 3.72568 -7.2574 0.420376 0.331682 -0.300686 
4041 1 4.09494 12.1594 3.81466 -7.90287 -0.253664 0.622528 -0.512156 
4521 1 1.05939 9.51353 1.06461 -7.19239 2.38933 -0.725947 -0.411229 
4522 1 1.22845 9.4732 6.3955 -8.1328 -0.675282 0.363755 0.228828 
5021 1 1.24706 9.50915 3.70494 -7.60619 0.993916 -0.886005 0.440469 
5541 1 4.0763 12.1483 0.891628 -7.95014 1.24025 0.0647223 0.460079 
5542 1 4.14135 12.0837 6.6277 -7.61337 -0.20892 1.57335 -1.08404 
4622 1 6.75349 9.38478 6.48563 -8.71249 -0.0817709 -0.0602623 -0.100058 
522 2 0.0444429 8.11055 7.91226 -25.0388 -1.44511 -0.959034 -0.22617 
4621 1 6.76906 9.54086 0.905263 -6.97481 -1.34039 0.615879 0.203792 
521 2 -0.0708708 8.05688 2.34747 -26.0253 -1.15379 1.24623 0.311336 
1542 2 2.5626 13.5997 5.06264 -25.0712 1.85574 0.22897 -0.505869 
642 2 5.35622 13.5887 7.78902 -24.9437 0.402842 -0.385994 0.309204 
41 2 -0.0483348 10.8054 -0.324507 -25.7035 -0.301949 1.34694 -0.485973 
641 2 5.2611 13.4688 2.21883 -24.4592 1.58408 1.62398 0.437224 
5622 1 9.54794 6.9021 6.44024 -7.40776 -0.216538 -1.13653 -1.37082 
3641 1 6.82616 12.2093 3.95876 -7.63981 0.245622 0.376143 -4.01226 
1642 2 8.17188 13.6496 4.9589 -25.2175 -0.257853 0.170037 1.01314 
3721 1 12.2072 7.06999 3.69286 -7.3215 1.13269 -1.43491 1.1243 
2142 1 6.83502 12.1996 6.41656 -7.81711 1.19505 0.830561 2.3607 
5121 1 6.79099 9.48571 3.65538 -7.73249 0.469341 0.274731 0.601743 
5621 1 9.39206 6.83725 1.07254 -6.94631 1.69461 0.691725 -0.0875471 
2141 1 7.00628 12.3612 0.8747 -7.92961 -2.17829 -1.05871 1.80934 
242 2 10.7011 10.9175 4.93983 -25.5121 2.65965 -0.364558 1.18956 
721 2 10.8187 8.14039 2.39066 -25.7451 0.247641 0.263218 -1.81172 
722 2 10.8731 8.28774 7.68589 -25.465 0.779766 -2.45961 1.07793 
1141 2 8.14653 10.9912 2.20754 -25.2379 0.195694 -2.36578 -0.581423 
1142 2 8.05881 10.8076 7.74287 -24.8016 2.27703 0.683752 1.52777 
1622 2 7.98437 8.04301 5.03057 -24.7692 1.8051 -0.0508095 -0.599054 
2241 1 12.4313 12.0879 0.984657 -7.8678 -0.712637 1.37441 -2.42668 
2242 1 12.2728 11.9195 6.4386 -6.72245 0.624403 1.76132 0.00979111 
2621 1 9.56322 9.49046 3.6304 -7.42228 -2.17884 -0.296299 0.0835636 
3121 1 9.31405 9.59791 0.717117 -6.82082 1.96957 0.48378 1.1704 
3122 1 9.56155 9.53448 6.4129 -7.58911 -1.60255 1.07189 -1.09602 
3741 1 12.2028 12.5494 3.73446 -7.79424 0.961395 -1.33627 0.660464 
4141 1 9.51189 12.1432 3.4914 -7.87749 -0.390311 0.802919 1.32832 
4721 1 12.2919 9.31814 0.882304 -6.9556 -1.08375 0.139559 0.115738 
4722 1 12.3425 9.3551 6.49162 -7.1943 -0.0776802 -0.368277 -1.13485 
5221 1 12.1123 9.7338 3.47904 -7.00668 0.319713 0.810378 1.53633 
5641 1 9.74309 12.3668 0.876097 -7.32102 -0.701292 -0.867689 -1.24548 
5642 1 9.6696 12.2727 6.35993 -7.20406 -1.66179 0.29146 0.498793 
741 2 10.9059 13.5316 2.32901 -25.3004 0.179018 2.12611 -2.32055 
1241 2 13.6004 10.893 2.23125 -25.2903 1.62112 -2.03571 0.839735 
1242 2 13.5683 10.8937 7.94683 -25.7372 1.2214 0.56074 -1.1765 
2123 1 6.7737 6.69478 12.293 -7.48144 -2.24629 1.58927 -2.855 
1003 2 2.53261 0.0609989 13.5191 -25.8879 0.386027 -0.394611 -1.95691 
2004 1 1.18924 1.43023 17.755 -7.4124 -0.372514 -0.317567 -1.10587 
123 2 5.44502 5.40484 10.5883 -25.3803 -0.903247 -1.10145 0.968696 
124 2 5.37463 5.41608 16.1313 -25.1544 0.973504 0.293007 0.198118 
603 2 5.37975 2.70485 13.3735 -25.7114 -0.21257 0.477316 0.779431 
1023 2 2.57152 5.38578 13.5033 -24.5063 0.627143 -0.667135 -0.725199 
1503 2 2.61228 2.60343 10.5652 -25.6854 -0.0906207 -0.402919 1.38135 
1504 2 2.48086 2.91013 16.2783 -25.3364 1.54181 -1.28524 -0.153708 
2003 1 0.998588 1.24468 11.9205 -7.10523 0.0520312 1.01074 2.13645 
2502 1 3.91626 4.04617 9.23329 -7.31321 0.331444 -0.00203349 0.176461 
2503 1 4.02965 4.01746 14.8587 -7.44478 -0.42107 2.95239 -0.626552 
3003 1 4.15055 3.8617 11.909 -7.34564 -0.521747 0.783928 0.389415 
3004 1 4.02857 4.24599 17.6205 -7.85904 0.19523 -0.11903 0.0359208 
3502 1 1.22355 0.972248 9.34563 -7.48058 1.60955 0.591193 -1.59174 
3503 1 1.15929 1.37812 14.9181 -8.12903 0.180263 0.403421 0.00085745 
4002 1 4.11519 1.31342 9.326 -8.06366 -1.73251 -0.422072 -0.412628 
4003 1 3.89615 1.61884 14.7855 -6.65954 0.207939 -2.28171 -1.6671 
4503 1 1.22094 4.00837 12.0015 -7.89084 0.578046 0.194059 1.33013 
4504 1 1.21564 4.2446 17.5707 -7.66926 -0.603887 -0.40079 -0.673363 
5002 1 1.1596 3.72039 9.28264 -7.23101 0.991298 0.756907 0.624776 
5003 1 1.244 4.12758 14.8005 -8.55418 -1.20798 -1.24264 0.408163 
5503 1 3.77289 1.19742 12.0017 -6.8189 0.220851 0.996329 0.365531 
2103 1 6.5179 1.33045 12.0241 -7.63345 1.34271 0.0855366 0.305286 
5102 1 6.69375 4.13336 9.10787 -7.29529 -0.0835354 -1.43697 1.15043 
3603 1 6.77133 1.50352 14.8669 -7.64653 -0.872786 -1.96556 -1.10704 
3602 1 6.65844 1.29796 9.29234 -7.59855 2.74954 0.616069 0.328863 
3523 1 1.15322 6.62509 14.6804 -7.83468 0.148152 1.63893 0.711401 
5504 1 3.69818 1.36125 17.2598 -6.96266 1.25651 -0.538813 1.87359 
3622 1 6.77096 6.67486 9.37145 -7.38329 0.296354 2.17221 -0.24802 
2104 1 6.59109 1.34946 17.5969 -7.2671 0.0244199 0.491683 0.257297 
3522 1 1.48733 6.52922 9.3351 -7.27279 -0.847477 0.792918 -0.605868 
5523 1 3.7865 6.56721 12.2005 -7.68893 1.30601 0.634098 -1.15795 
503 2 -0.0627276 2.69947 13.5979 -24.478 -2.2674 -0.439047 -2.40126 
104 2 5.23215 0.0984377 16.1706 -25.624 1.68811 0.45049 1.003 
103 2 5.40356 -0.064951 10.551 -25.3445 -2.41402 -0.0278581 2.84503 
1223 2 13.5457 5.30693 13.1637 -25.9992 1.28206 0.738535 1.01052 
204 2 10.8511 -0.0691208 15.9103 -25.1043 -1.19903 0.771631 1.1552 
4604 1 6.94218 4.12838 17.5465 -7.53773 -1.93483 0.417032 -0.157742 
5103 1 6.81063 4.08944 14.8041 -7.1297 -0.467596 0.952214 -0.268746 
4603 1 6.9244 4.08065 12.0181 -7.48442 0.467027 -0.522697 -0.627397 
223 2 10.8825 5.56638 10.4025 -25.4302 -0.175982 -1.12599 0.243839 
224 2 10.9375 5.31567 16.1455 -24.5638 -0.197576 1.61822 -0.528698 
703 2 10.8449 2.64504 13.2628 -25.0437 -1.17804 1.3811 -2.28474 
1123 2 8.25497 5.6157 13.3989 -25.2475 -0.462125 -1.67324 0.952009 
1603 2 8.12225 2.74065 10.5561 -25.2513 -0.202812 -0.0960711 -0.400321 
1604 2 8.11844 2.69869 16.1282 -25.4434 -0.0505802 0.858142 0.619634 
2203 1 12.2492 1.17612 11.7994 -7.74189 -0.734052 0.395986 -0.390125 
2204 1 12.1296 1.28267 17.2361 -7.97386 0.990733 0.325086 0.690698 
2602 1 9.37301 3.70508 8.99853 -6.93187 0.391981 1.82243 -0.154711 
2603 1 9.50522 4.21828 14.64 -7.95593 0.556629 -1.18929 0.199372 
3103 1 9.86286 4.19128 11.6969 -7.23047 -2.60588 -1.34343 1.67372 
3104 1 9.52725 4.01901 17.4938 -7.51078 2.17919 1.41586 -1.05801 
3702 1 12.4622 1.18263 9.13269 -7.83721 -1.4384 1.18264 0.752992 
3703 1 12.1522 1.41371 14.378 -7.41931 1.43829 -1.70978 2.3579 
4102 1 9.57177 1.17619 9.08367 -7.51805 -0.316155 -1.26849 -0.479062 
4103 1 9.47312 1.16109 14.5362 -7.93084 0.136671 1.6459 0.711055 
4703 1 12.3832 3.98322 11.8008 -7.15288 -1.19834 0.0210165 0.478992 
4704 1 12.5739 4.00742 17.6246 -8.25387 -2.17938 0.0821364 -1.00155 
5202 1 12.1609 4.14275 8.99881 -7.40533 -0.765753 -0.107968 0.778472 
5203 1 12.1881 3.89491 14.6524 -7.78884 -0.222274 1.41602 1.09495 
5603 1 9.41002 1.35672 11.7547 -7.59297 0.0795025 0.479309 0.994281 
5604 1 9.44635 1.46779 17.4409 -7.24515 -0.0130252 -1.81313 -0.537484 
3723 1 12.4258 6.59745 14.6101 -7.29304 -1.18292 0.955444 1.09596 
4122 1 9.45491 6.63427 8.98485 -7.08946 0.438227 -0.41705 1.15902 
2223 1 12.1802 6.75147 11.8846 -7.38717 0.0225869 0.294781 1.37015 
2224 1 12.1784 6.75042 17.5041 -7.69804 -0.245233 0.184783 -0.349196 
1103 2 7.99332 -0.0425061 13.3779 -25.2232 0.196586 0.58753 -0.193405 
203 2 10.8554 -0.0399826 10.418 -25.3134 -0.343066 -1.19159 0.94035 
1703 2 13.6296 2.61344 10.6644 -25.5404 0.846443 -0.390458 -1.60413 
1203 2 13.5226 -0.045188 13.2059 -24.9611 1.0137 -0.510596 0.743406 
1704 2 13.487 2.70703 16.0649 -24.8516 2.80806 -0.883681 -0.876068 
43 2 0.0606862 10.8874 10.5914 -25.7041 -1.79193 -0.891414 -0.938369 
2023 1 0.952916 6.88014 11.8795 -7.32445 0.623652 -1.12038 0.796041 
5524 1 4.02807 7.00014 17.6663 -8.06036 -1.93539 -1.14073 -0.776597 
4022 1 4.10024 6.83779 9.32137 -7.44299 0.539469 -0.412615 0.045591 
4623 1 6.73908 9.49432 11.9624 -8.19536 0.376884 -0.741986 0.509392 
4023 1 4.01305 6.87027 14.9612 -7.79632 -0.595034 -0.364843 -0.376232 
2124 1 6.60819 6.90572 17.6477 -7.66574 1.44618 -1.68483 -1.16757 
2024 1 1.07016 6.85887 17.6717 -7.47308 3.10725 0.346545 -0.977254 
143 2 5.49911 10.8149 10.6706 -25.4917 -1.92954 0.481147 -1.82157 
144 2 5.4363 10.9157 16.2629 -25.516 -0.999401 1.59156 -1.74234 
623 2 5.36102 8.15079 13.3614 -25.0944 0.740998 -1.15217 2.32316 
1043 2 2.74608 10.7354 13.3259 -25.1684 -0.602309 0.64899 1.09316 
1523 2 2.63888 8.0566 10.6643 -25.6649 -0.353839 -0.307378 -0.81884 
1524 2 2.7062 8.23534 16.3552 -24.786 -0.808898 0.987401 -1.96892 
2043 1 1.0893 12.3685 11.8784 -7.35614 2.97149 0.236885 0.326568 
2044 1 1.24966 12.2346 17.6958 -7.2464 -1.08274 -0.0223672 -2.45076 
2522 1 4.03559 9.49096 9.30811 -6.56168 1.43885 -1.09491 0.116649 
2523 1 4.08033 9.65073 14.8573 -7.64781 0.319625 -0.628963 -0.507383 
3023 1 4.03607 9.18538 11.9984 -7.88025 -0.0183047 1.83139 0.420163 
3024 1 4.08017 9.72226 17.6326 -7.62563 -0.28894 -0.654274 -1.50959 
3542 1 1.21769 12.2738 9.13186 -7.20979 0.399463 -1.22109 -0.300563 
3543 1 1.35149 12.0845 14.6327 -7.88487 -1.20851 1.66915 0.936467 
4042 1 3.99373 11.9972 9.35066 -6.74554 -0.122204 2.14637 -0.615792 
4043 1 3.98562 12.4087 14.8891 -7.00234 -0.251252 -0.830006 -0.833669 
4523 1 1.33479 9.49777 12.0274 -7.58473 0.654197 0.796182 -0.800028 
4524 1 1.33948 9.57472 17.5224 -7.38166 0.0271955 0.0434391 0.599209 
5022 1 1.47812 9.45237 9.04647 -7.8159 -2.0799 -0.54393 1.62419 
5023 1 1.3668 9.45952 14.7631 -7.22547 -0.480528 -1.01078 0.273822 
5543 1 4.06034 12.0364 11.989 -7.65948 -0.590537 0.741101 1.33259 
5544 1 3.96803 12.5037 17.6143 -7.1238 0.0933182 -1.71951 0.291334 
3642 1 6.7688 12.2628 9.1893 -7.63598 -0.161293 -0.160675 -0.72886 
3643 1 6.5319 12.3037 14.6804 -7.56947 3.0682 -1.25406 0.581588 
4624 1 6.71573 9.62423 17.517 -7.46799 -0.247006 -0.2403 -0.0426363 
2144 1 6.70134 12.3522 17.4482 -7.19023 0.951476 -0.519227 -0.060828 
543 2 -0.106383 13.479 13.4521 -24.7499 0.185643 0.426391 -0.287059 
1543 2 2.696 13.6517 10.5576 -25.6644 -0.381936 -1.30721 1.12881 
44 2 -0.103378 10.9002 16.1921 -25.0311 0.690997 -1.47001 0.0742874 
1243 2 13.6516 10.9743 13.2195 -25.392 0.0859203 0.414116 2.83033 
2623 1 9.60441 9.58337 14.6919 -6.66488 -0.285974 -0.0543888 -0.487646 
1623 2 8.12172 8.141 10.6563 -24.8819 -0.537378 0.533543 -2.18236 
4143 1 9.51835 12.1044 14.7533 -7.57263 -1.76545 3.69795 -1.01357 
3124 1 9.27842 9.67192 17.3452 -6.93686 2.06476 0.0318388 0.705192 
1143 2 8.08321 10.9036 13.2562 -25.3518 1.01961 -0.714376 1.75144 
3742 1 12.0937 12.2289 9.3255 -7.05785 1.89144 1.1999 -1.7386 
5644 1 9.56728 12.3792 17.4255 -7.00159 0.0711973 -0.387589 -0.249036 
4723 1 12.5375 9.45376 12.0576 -7.86795 -2.68321 -0.0189784 -0.700432 
4142 1 9.53121 12.1141 9.38031 -7.10835 -1.21252 -0.0672214 -1.13708 
3623 1 6.78279 6.8819 14.8283 -7.24291 -0.16943 -1.19635 1.05365 
2622 1 9.63987 9.32729 9.09301 -7.39467 -1.19568 1.31804 1.99929 
4724 1 12.1813 9.68633 17.5452 -7.12826 -0.556941 -1.29039 0.788586 
4123 1 9.61853 6.99636 14.7434 -7.53498 -0.325557 -1.8165 0.18252 
5623 1 9.33659 6.87375 11.8345 -7.82146 2.31093 -0.788555 1.10228 
3722 1 12.2063 6.94882 9.38774 -7.43531 0.866061 0.0583699 -2.68442 
5624 1 9.33714 6.9265 17.5392 -7.15044 0.781309 -0.578732 -1.14765 
5123 1 6.84074 9.44295 14.7573 -7.41625 -0.902836 2.0306 -0.981722 
2143 1 6.82605 12.1882 11.9082 -7.78862 -0.15801 0.884872 0.325389 
243 2 11.0142 10.7415 10.5671 -25.5032 -1.5613 0.993941 0.739483 
3743 1 12.3699 12.4426 14.3773 -7.51713 -0.38612 -0.866079 1.99658 
2243 1 12.167 12.3295 11.8637 -7.27353 1.57512 -0.58518 -0.0190223 
5223 1 12.3663 9.59564 14.835 -7.34353 -0.817798 -0.0716162 -0.952812 
5222 1 12.3768 9.60033 9.19282 -7.41873 -0.68472 -1.34334 1.03222 
3123 1 9.53426 9.53103 11.989 -7.934 0.466014 -0.144449 -0.999649 
723 2 10.8276 8.22522 13.38 -25.0718 1.79535 -0.124371 -0.17163 
5122 1 6.8769 9.53343 9.23868 -8.00901 -0.492848 -0.638511 -0.127469 
5643 1 9.57161 12.2159 12.1287 -7.0374 -1.10752 0.102276 -0.938266 
1624 2 8.00224 8.26468 16.1891 -25.883 1.76929 -0.944094 -0.419716 
2244 1 12.3351 12.2938 17.3437 -7.48149 -0.488594 0.0567712 0.71694 
244 2 10.9034 11.0807 15.9716 -25.7035 1.1271 -2.48724 1.83771 
1744 2 13.5567 13.6253 16.1092 -25.7903 2.08607 0.0723599 0.117813 
1643 2 8.13849 13.5289 10.5228 -25.4967 0.685923 0.547567 1.05525 
125 2 5.26498 5.57122 21.7598 -25.6758 2.25748 -1.50224 -1.12286 
604 2 5.50218 2.9597 19.0277 -25.2369 -1.45984 -1.82003 -1.22 
605 2 5.40004 2.71851 24.5027 -25.5007 0.164997 0.0144484 0.372562 
1024 2 2.58273 5.73107 18.8941 -24.8832 0.447645 -2.34401 1.34279 
1025 2 2.65701 5.46594 24.5516 -24.9431 0.491781 0.804153 -1.64571 
1505 2 2.47269 2.75945 21.637 -25.4453 1.64865 0.545866 -0.0874359 
2005 1 1.31823 1.57868 23.0257 -6.40137 -1.43595 -3.45314 0.926066 
2504 1 3.97889 4.28276 20.379 -7.55958 -0.519443 -0.96172 -0.509663 
2505 1 4.29837 4.17082 25.9215 -7.77079 -1.33043 -0.647604 -0.94404 
3005 1 4.10116 4.02174 23.0662 -7.40699 -0.258536 2.01984 0.759075 
3504 1 1.05127 1.37049 20.3995 -7.4818 0.765734 0.112068 -0.0798781 
3505 1 1.24387 1.38549 25.8182 -7.86293 0.387682 0.633983 0.735736 
4004 1 3.98374 1.34626 20.047 -7.62856 -0.00231143 1.39006 1.52754 
4005 1 4.1613 1.35513 26.057 -7.47099 -1.60226 -0.108634 -0.346905 
4505 1 1.21194 3.95134 23.1702 -7.32838 0.840847 3.99213 -0.833755 
5004 1 1.09837 4.13679 20.2538 -7.64955 0.98426 0.256761 0.790562 
5005 1 1.49402 4.35959 25.9603 -7.59237 0.0104896 -2.88881 0.451528 
5505 1 3.89675 1.50783 23.1589 -7.1287 0.241065 -1.62321 -0.524515 
3605 1 6.76952 1.17667 25.8066 -6.98259 0.349682 1.2467 -0.681733 
2105 1 6.5298 1.38983 23.0727 -7.46971 1.68011 0.890043 0.911337 
105 2 5.3042 0.109886 21.8279 -25.4427 -0.171124 -0.261967 -1.99959 
126 2 5.56655 5.57855 27.1042 -25.8684 0.232418 -0.0688681 1.95635 
1005 2 2.64636 0.0130324 24.5908 -25.6313 0.00631258 1.65418 -0.323558 
1004 2 2.66347 0.0127282 18.8653 -25.4405 -0.0895559 -0.243209 0.148944 
3604 1 6.78795 1.60762 20.3933 -6.92044 -0.387166 -2.72993 -0.4568 
4605 1 7.02049 4.18603 23.0483 -7.09095 -2.0513 -1.28697 0.209518 
5104 1 6.85336 4.03815 20.2829 -7.07518 -0.656999 3.32422 0.313904 
5105 1 7.01252 4.05193 25.8704 -7.33196 -1.28056 -0.209747 -1.41018 
225 2 11.0865 5.58493 21.6472 -25.3798 -1.25153 -0.432338 -0.439149 
704 2 10.9388 2.75093 18.8113 -25.0944 -0.606443 -0.0815861 0.301711 
705 2 10.9265 2.80894 24.3199 -25.1513 -0.356636 -0.620054 1.00531 
1124 2 8.11575 5.58156 18.912 -26.0287 -0.0348419 -0.284187 0.412 
1125 2 8.27886 5.48645 24.2943 -25.5211 0.712143 -0.483083 1.1486 
1605 2 8.21314 2.82988 21.6017 -25.92 0.148645 0.0613816 -0.083674 
2205 1 12.0954 1.43303 22.9545 -8.30785 1.17683 0.812821 0.598238 
2604 1 9.48237 4.37813 20.1804 -6.67834 1.807 -2.6366 0.710142 
2605 1 9.66058 4.10814 25.7661 -7.56539 -0.493463 -0.343647 -1.3181 
3105 1 9.60542 4.17885 22.882 -7.76373 1.97681 -1.06636 0.733361 
3704 1 12.3947 1.42229 20.2046 -7.92273 -1.30815 -0.98324 -0.998486 
3705 1 12.1761 1.28845 25.8454 -7.30937 0.804774 1.09249 -0.514411 
4104 1 9.59106 1.49172 20.1364 -7.54032 0.346973 0.0102248 0.438861 
4105 1 9.52128 1.22834 25.5275 -7.02315 0.0638721 1.65496 1.10872 
4705 1 12.5244 4.23428 23.122 -7.83714 -1.24779 -0.375357 -1.81378 
5204 1 12.3774 3.98917 20.2974 -7.80515 -1.35597 1.80956 0.178514 
5205 1 12.2807 4.11533 25.6958 -6.96438 0.446517 -1.18721 0.161296 
5605 1 9.37702 1.30437 22.8669 -7.23351 0.108285 1.32899 -0.478321 
1205 2 13.5597 0.0376406 24.2817 -25.5584 -0.267252 -0.992721 1.23924 
3625 1 7.07698 6.70143 25.7499 -7.78398 -1.38084 1.33543 0.702172 
3725 1 12.2724 6.76315 25.749 -7.68672 2.43385 2.39008 -0.747509 
1705 2 13.6117 2.71736 21.595 -25.0796 1.5212 0.0303997 0.76688 
226 2 11.0787 5.46867 26.9893 -25.6413 -0.944497 -0.136101 1.59855 
1606 2 8.25745 2.81095 27.1346 -25.2307 -0.190984 -1.64419 -0.191497 
1105 2 8.0143 0.0250962 24.3219 -26.0962 0.606736 -0.648413 1.1583 
1104 2 8.10912 -0.0661831 18.942 -25.4859 -0.488363 1.65564 -0.121165 
205 2 11.0147 0.138801 21.5859 -24.9559 -1.94811 -1.53936 -0.381653 
3525 1 1.2819 6.91658 25.8321 -7.08762 1.88431 2.08135 -0.443119 
3524 1 1.33851 6.9917 20.3871 -8.02279 -0.54977 -1.70532 -0.355368 
4024 1 4.10781 6.9615 20.4017 -7.02326 -1.68434 0.176466 -1.63607 
4025 1 4.11932 6.86897 25.7993 -7.88627 -0.0563797 -0.375328 -1.49347 
2025 1 1.31794 6.82353 23.1484 -7.17812 0.947978 -0.437359 -0.524206 
45 2 -0.0986252 11.1259 21.7042 -24.7289 0.946558 -0.673024 0.586236 
5525 1 4.06667 6.89836 22.9712 -7.68067 -1.45999 -1.1144 2.45792 
3624 1 6.69684 6.85922 20.5616 -6.49951 1.38627 -0.987956 -2.08835 
145 2 5.40642 10.9958 21.5807 -25.3654 1.219 -1.00214 0.783417 
624 2 5.41299 8.20643 18.8452 -25.7067 0.429486 1.78255 3.7048 
625 2 5.40281 8.05967 24.3498 -24.8395 0.742248 2.19714 0.583052 
1044 2 2.78797 10.963 18.9726 -25.5647 -2.52785 2.3827 -0.904263 
1045 2 2.76284 11.1071 24.3317 -24.7752 0.0850046 -1.15508 1.66282 
1525 2 2.59236 8.24324 21.7129 -25.6681 1.22803 -0.0319487 -0.190306 
2045 1 1.22397 12.4042 23.2557 -8.39111 1.37406 -0.819062 -2.62777 
2524 1 4.00247 9.68347 20.1427 -7.31582 2.04392 -0.450615 2.32057 
2525 1 4.04326 9.56443 25.8634 -7.13954 0.117387 0.723226 -1.75772 
3025 1 4.05538 9.46613 22.9101 -7.78889 0.639033 2.48412 1.12145 
3544 1 1.27158 12.3551 20.248 -7.60643 -0.169745 -0.362065 2.48324 
3545 1 1.2934 12.5715 25.8669 -7.38889 0.884355 -0.203822 1.65122 
4044 1 4.13858 12.5045 20.5432 -7.43857 -1.05454 -0.940919 -0.96726 
4045 1 4.03307 12.3649 25.8589 -7.77021 0.0294627 0.194138 0.894013 
4525 1 1.2843 9.5943 22.9559 -7.62148 0.402616 1.14296 0.231071 
5024 1 1.39639 9.64681 20.3561 -7.20559 -1.05187 0.585991 -0.844628 
5025 1 1.24428 9.97202 25.5753 -7.51467 1.0062 -1.1318 0.795992 
5545 1 4.1715 12.5045 23.2132 -7.64923 -2.03903 -2.44737 -0.481885 
2145 1 6.71055 12.3906 22.9802 -6.87108 0.134243 -0.651938 -0.0623574 
3645 1 6.76467 12.391 25.7439 -7.92354 0.208541 -0.263457 1.52619 
3644 1 6.74612 12.1204 20.1582 -7.38492 0.416008 1.13362 0.0971628 
1526 2 2.72416 8.30251 27.1168 -25.742 0.12011 -0.241831 1.00342 
524 2 -0.0883931 8.23707 19.0971 -25.4659 0.450168 0.507499 -1.08184 
525 2 0.00584296 8.4712 24.4212 -25.7995 -0.496105 -2.7231 0.449053 
2125 1 6.80382 6.78381 23.0506 -7.53846 0.206533 1.07382 1.8107 
4124 1 9.58788 6.81613 20.1018 -6.71845 -0.0101295 1.37434 2.14062 
3724 1 12.3376 6.80953 20.2962 -7.40609 0.802126 -0.126571 -1.79189 
4125 1 9.7577 6.92332 25.6223 -7.24628 -1.68407 -0.239414 1.54007 
5125 1 6.83994 9.46629 25.625 -7.61026 -0.211168 0.259761 0.245092 
4625 1 6.97617 9.62887 22.8515 -7.45754 -1.64868 0.526518 1.2767 
1626 2 8.22961 8.31515 27.0592 -25.0808 -0.28941 -1.37203 0.874919 
5625 1 9.67301 6.82539 23.0458 -7.93585 -0.377476 0.779746 -1.08288 
5124 1 6.93357 9.39676 20.1541 -6.66122 0.0826616 1.10629 0.207037 
2225 1 12.388 7.09365 22.8328 -7.01485 0.479718 -2.09707 1.83226 
245 2 10.8557 11.0096 21.6779 -25.4248 0.998817 -0.711738 -0.433021 
724 2 10.9501 8.17085 18.89 -25.6586 0.252029 -0.214118 -0.864223 
725 2 10.9743 8.23521 24.3866 -25.522 1.43584 1.14108 -1.5019 
1144 2 8.20185 10.9168 18.807 -25.887 -0.524434 0.426688 0.497323 
1145 2 8.10712 10.9973 24.4423 -25.5806 -0.331019 0.418763 -1.36783 
1625 2 8.24824 8.18397 21.8685 -25.5024 0.00942688 -0.328259 -3.27471 
2245 1 12.2175 12.3333 23.0353 -7.62102 -0.577622 0.357197 -0.25579 
2624 1 9.79857 9.44274 20.2112 -7.29451 -1.38433 2.07112 0.909989 
2625 1 9.54817 9.68626 25.6402 -8.07101 0.202631 -0.89807 1.51601 
3125 1 9.66539 9.70186 23.0574 -7.33558 -0.70511 -1.36758 -0.544822 
3744 1 12.3295 12.3747 20.2375 -8.03739 0.139771 -0.438304 -0.0614667 
3745 1 12.3073 12.2657 25.8032 -6.85399 -0.723886 1.48993 0.00972874 
4144 1 9.4703 12.3526 20.0742 -7.48948 0.701682 -0.770248 1.56188 
4145 1 9.48251 12.3855 25.8031 -7.80772 0.324671 -0.0772211 0.58393 
4725 1 12.337 9.57136 23.0501 -6.46516 0.560134 1.58275 0.278792 
5224 1 12.4611 9.58231 20.4035 -7.36599 0.126666 0.942856 -1.54384 
5225 1 12.4174 9.73252 25.6863 -7.61977 -0.752956 -2.83005 0.844881 
5645 1 9.32968 12.2983 23.0065 -7.56325 1.48376 0.77439 -0.599531 
246 2 10.9018 10.8251 27.0115 -24.9337 0.626695 2.27284 0.934186 
1506 2 2.72296 2.83378 27.324 -24.8256 0.693311 -0.535562 -0.225289 
6 2 -0.0249337 0.0218729 27.1531 -25.0064 0.671033 -0.178554 0.544113 
1006 2 2.74751 -0.0182211 29.9524 -25.2193 -0.598484 -0.614726 -0.328539 
107 2 5.39919 0.000960653 32.6568 -26.0144 -0.553068 -0.21274 1.72817 
1007 2 2.64991 -0.0586089 35.4877 -25.3813 0.740254 0.256292 -1.23842 
127 2 5.59243 5.68974 32.5384 -25.1214 -2.12193 -0.965485 0.55928 
606 2 5.56091 2.78723 29.906 -25.2069 -1.2495 1.04895 -0.438605 
607 2 5.36731 2.90687 35.4107 -25.6364 0.0582217 -2.61791 0.279135 
1026 2 2.71509 5.41522 30.1126 -25.2922 -0.181096 0.193656 -1.40214 
1027 2 2.56082 5.42088 35.5171 -25.3866 -0.995045 0.577475 -0.887275 
1507 2 2.59216 2.54769 32.6425 -25.7903 -1.1111 3.08534 2.03013 
2006 1 1.18457 1.2346 28.6802 -7.76764 0.783225 0.772441 -0.178891 
2007 1 1.33585 1.35472 34.0367 -7.48211 -0.92966 -0.789283 1.73053 
2506 1 4.01804 4.0682 31.4837 -7.53754 0.678965 0.892278 -0.329677 
3006 1 4.19104 4.19757 28.6691 -7.49514 -1.03621 -0.210923 0.154872 
3007 1 3.73894 3.97669 34.3723 -7.07418 -0.0688589 0.0935577 -1.30809 
3506 1 0.844836 1.56166 31.4932 -6.92568 1.87721 -0.872868 -1.18363 
4006 1 3.94583 1.36877 31.5596 -7.34116 0.380998 -1.10281 -2.76254 
4506 1 1.2995 4.13706 28.6173 -7.54982 2.24651 -1.04364 0.191122 
4507 1 1.02278 4.11851 34.0106 -6.61381 1.45585 -0.20478 0.258022 
5006 1 1.20937 4.08328 31.2941 -7.111 0.578606 0.378822 -0.253734 
5506 1 3.98244 1.47301 28.8586 -7.55361 -0.0751636 0.370441 -0.728701 
5507 1 4.07736 1.22225 34.1101 -6.73908 -0.487695 0.543986 0.888504 
4607 1 6.47379 4.13017 33.8231 -7.8562 1.31388 -0.206189 0.577994 
3606 1 6.73495 1.48516 31.2539 -8.16979 0.74492 -0.477805 0.564009 
2107 1 6.7521 1.20705 34.0895 -7.04655 1.21499 1.31693 -0.881064 
26 2 0.134286 5.57182 27.2789 -26.2005 -2.20612 0.980578 -0.97166 
206 2 10.8215 -0.021653 27.1754 -26.0639 0.00768934 -0.32295 -0.704165 
1106 2 8.1237 0.0516989 29.9851 -25.7068 0.892277 -0.235887 -0.710706 
207 2 11.0087 -0.0291372 32.6972 -25.9068 0.0730479 0.480406 -1.36596 
4606 1 6.92759 4.33907 28.5441 -7.22941 -0.0595272 -3.04206 -2.13769 
2106 1 6.80622 1.39603 28.4574 -7.35282 -0.727749 0.901351 1.16775 
5106 1 6.96561 4.22769 31.0335 -7.52158 0.297524 -1.09129 2.1583 
227 2 10.8554 5.53021 32.5203 -25.4532 1.28414 0.418174 2.70574 
706 2 11.0928 2.80699 29.7808 -24.8371 -0.233257 -1.328 0.956659 
707 2 10.9844 2.78631 35.5224 -25.2376 -0.216845 -0.0652377 -1.24294 
1126 2 8.40896 5.37318 29.6954 -25.3259 -1.11972 2.4629 1.23932 
1127 2 8.11425 5.54138 35.3637 -25.1229 -1.1678 1.74666 -1.03066 
1607 2 8.22497 2.75386 32.5571 -25.0187 -0.079903 -0.0219371 0.611653 
2206 1 12.2864 1.28442 28.6077 -7.72499 -0.416244 -0.342933 -0.458894 
2207 1 12.4171 1.20233 34.1719 -7.2726 -1.24927 2.47693 -1.73063 
2606 1 9.87534 4.07558 31.3117 -7.9486 -1.92535 -1.55422 -2.26593 
3106 1 9.78516 4.1591 28.3685 -8.15745 -0.344605 -1.16714 1.39069 
3107 1 9.26215 4.27159 33.9319 -7.22292 0.00987628 -0.742997 -0.136072 
3706 1 12.5318 1.3378 31.3159 -7.56862 -1.40909 -0.974369 -0.0125148 
4106 1 9.5385 1.26109 31.1943 -7.38276 0.761481 1.97503 0.417805 
4706 1 12.5328 3.99723 28.4421 -7.6491 -0.707196 -0.219796 -0.0248865 
4707 1 12.1537 4.15649 34.0848 -7.13328 -0.796948 -0.338623 -0.274666 
5206 1 12.5129 4.02068 31.2081 -7.48119 -0.299314 0.239973 -0.231617 
5606 1 9.41749 1.35982 28.4382 -7.40324 1.2096 1.51902 -0.179245 
5607 1 9.64458 1.5476 33.9359 -7.30628 -0.0663126 0.000639573 0.338672 
4126 1 9.31749 6.74974 31.1672 -7.38219 2.60391 0.663499 0.510814 
2226 1 12.2557 6.66635 28.6443 -7.31697 1.09396 0.683346 -0.947466 
1107 2 8.21265 -0.0702835 35.382 -25.7724 -0.759601 0.857619 0.470004 
527 2 0.00668068 8.10769 35.3483 -25.8676 -0.739426 1.30272 0.460804 
2026 1 1.35037 6.95466 28.4834 -7.13652 1.13104 0.0661028 1.37934 
5527 1 4.16908 6.99402 33.8928 -6.98088 -1.96423 -1.24632 -0.270129 
4026 1 4.0497 6.9593 31.1549 -7.82868 0.149679 -0.23083 0.233454 
2027 1 1.37674 6.86041 33.9978 -6.89395 0.983107 -1.79869 0.656972 
2147 1 6.71783 12.5358 34.0595 -7.57213 -0.379475 0.567893 -0.254349 