 # LAMMPS data file written by OVITO Basic 3.8.4
  
        2712  atoms
           2  atom types
 
      0.000000000000     199.013305660000  xlo xhi
      0.000000000000      50.038948060000  ylo yhi
      0.000000000000       5.212999820000  zlo zhi
 
Masses
 
            1   12.01100000             # C
            2   10.81000000             # B
 
Atoms # charge
 
         1    1   0.000000        0.000000000000       1.853294520856       0.000000000000
         2    1   0.000000       48.150001589680       1.853294520856       0.000000000000
         3    1   0.000000        1.605000517354       4.633235801751       0.000000000000
         4    1   0.000000       49.755000116901       4.633235801751       0.000000000000
         5    1   0.000000        0.000000000000       3.706588541323       0.000000000000
         6    1   0.000000       48.150001589680       3.706588541323       0.000000000000
         7    1   0.000000        1.605000517354       0.926647260428       0.000000000000
         8    1   0.000000       49.755000116901       0.926647260428       0.000000000000
         9    1   0.000000        3.210001034707       1.853294520856       0.000000000000
        10    1   0.000000       51.360004614520       1.853294520856       0.000000000000
        11    1   0.000000        4.814999561928       4.633235801751       0.000000000000
        12    1   0.000000       52.965003141741       4.633235801751       0.000000000000
        13    1   0.000000        3.210001034707       3.706588541323       0.000000000000
        14    1   0.000000       51.360004614520       3.706588541323       0.000000000000
        15    1   0.000000        4.814999561928       0.926647260428       0.000000000000
        16    1   0.000000       52.965003141741       0.926647260428       0.000000000000
        17    1   0.000000        6.420000079282       1.853294520856       0.000000000000
        18    1   0.000000       54.570001668962       1.853294520856       0.000000000000
        19    1   0.000000        8.025000596636       4.633235801751       0.000000000000
        20    1   0.000000       56.175000196182       4.633235801751       0.000000000000
        21    1   0.000000        6.420000079282       3.706588541323       0.000000000000
        22    1   0.000000       54.570001668962       3.706588541323       0.000000000000
        23    1   0.000000        8.025000596636       0.926647260428       0.000000000000
        24    1   0.000000       56.175000196182       0.926647260428       0.000000000000
        25    1   0.000000        9.630001113989       1.853294520856       0.000000000000
        26    1   0.000000       57.780004693802       1.853294520856       0.000000000000
        27    1   0.000000       11.234999641210       4.633235801751       0.000000000000
        28    1   0.000000       59.385003221023       4.633235801751       0.000000000000
        29    1   0.000000        9.630001113989       3.706588541323       0.000000000000
        30    1   0.000000       57.780004693802       3.706588541323       0.000000000000
        31    1   0.000000       11.234999641210       0.926647260428       0.000000000000
        32    1   0.000000       59.385003221023       0.926647260428       0.000000000000
        33    1   0.000000       12.840000158564       1.853294520856       0.000000000000
        34    1   0.000000       60.990001748244       1.853294520856       0.000000000000
        35    1   0.000000       14.444998685784       4.633235801751       0.000000000000
        36    1   0.000000       62.595000275464       4.633235801751       0.000000000000
        37    1   0.000000       12.840000158564       3.706588541323       0.000000000000
        38    1   0.000000       60.990001748244       3.706588541323       0.000000000000
        39    1   0.000000       14.444998685784       0.926647260428       0.000000000000
        40    1   0.000000       62.595000275464       0.926647260428       0.000000000000
        41    1   0.000000       16.049999203138       1.853294520856       0.000000000000
        42    1   0.000000       64.199998802685       1.853294520856       0.000000000000
        43    1   0.000000       17.655001710625       4.633235801751       0.000000000000
        44    1   0.000000       65.805003300305       4.633235801751       0.000000000000
        45    1   0.000000       16.049999203138       3.706588541323       0.000000000000
        46    1   0.000000       64.199998802685       3.706588541323       0.000000000000
        47    1   0.000000       17.655001710625       0.926647260428       0.000000000000
        48    1   0.000000       65.805003300305       0.926647260428       0.000000000000
        49    1   0.000000       19.260000237845       1.853294520856       0.000000000000
        50    1   0.000000       67.410001827525       1.853294520856       0.000000000000
        51    1   0.000000       20.865000755199       4.633235801751       0.000000000000
        52    1   0.000000       69.015004335012       4.633235801751       0.000000000000
        53    1   0.000000       19.260000237845       3.706588541323       0.000000000000
        54    1   0.000000       67.410001827525       3.706588541323       0.000000000000
        55    1   0.000000       20.865000755199       0.926647260428       0.000000000000
        56    1   0.000000       69.015004335012       0.926647260428       0.000000000000
        57    1   0.000000       22.469999282420       1.853294520856       0.000000000000
        58    1   0.000000       70.620002862233       1.853294520856       0.000000000000
        59    1   0.000000       24.074999799773       4.633235801751       0.000000000000
        60    1   0.000000       72.225001389453       4.633235801751       0.000000000000
        61    1   0.000000       22.469999282420       3.706588541323       0.000000000000
        62    1   0.000000       70.620002862233       3.706588541323       0.000000000000
        63    1   0.000000       24.074999799773       0.926647260428       0.000000000000
        64    1   0.000000       72.225001389453       0.926647260428       0.000000000000
        65    1   0.000000       25.680002307260       1.853294520856       0.000000000000
        66    1   0.000000       73.829999916674       1.853294520856       0.000000000000
        67    1   0.000000       27.285000834481       4.633235801751       0.000000000000
        68    1   0.000000       75.434998443895       4.633235801751       0.000000000000
        69    1   0.000000       25.680002307260       3.706588541323       0.000000000000
        70    1   0.000000       73.829999916674       3.706588541323       0.000000000000
        71    1   0.000000       27.285000834481       0.926647260428       0.000000000000
        72    1   0.000000       75.434998443895       0.926647260428       0.000000000000
        73    1   0.000000       28.889999361702       1.853294520856       0.000000000000
        74    1   0.000000       77.039996971115       1.853294520856       0.000000000000
        75    1   0.000000       30.494999879055       4.633235801751       0.000000000000
        76    1   0.000000       78.645001468735       4.633235801751       0.000000000000
        77    1   0.000000       28.889999361702       3.706588541323       0.000000000000
        78    1   0.000000       77.039996971115       3.706588541323       0.000000000000
        79    1   0.000000       30.494999879055       0.926647260428       0.000000000000
        80    1   0.000000       78.645001468735       0.926647260428       0.000000000000
        81    1   0.000000       32.099998406276       1.853294520856       0.000000000000
        82    1   0.000000       80.249999995956       1.853294520856       0.000000000000
        83    1   0.000000       33.705002903896       4.633235801751       0.000000000000
        84    1   0.000000       81.855004493576       4.633235801751       0.000000000000
        85    1   0.000000       32.099998406276       3.706588541323       0.000000000000
        86    1   0.000000       80.249999995956       3.706588541323       0.000000000000
        87    1   0.000000       33.705002903896       0.926647260428       0.000000000000
        88    1   0.000000       81.855004493576       0.926647260428       0.000000000000
        89    1   0.000000       35.310001431116       1.853294520856       0.000000000000
        90    1   0.000000       83.460003020796       1.853294520856       0.000000000000
        91    1   0.000000       36.915003938603       4.633235801751       0.000000000000
        92    1   0.000000       85.065001548017       4.633235801751       0.000000000000
        93    1   0.000000       35.310001431116       3.706588541323       0.000000000000
        94    1   0.000000       83.460003020796       3.706588541323       0.000000000000
        95    1   0.000000       36.915003938603       0.926647260428       0.000000000000
        96    1   0.000000       85.065001548017       0.926647260428       0.000000000000
        97    1   0.000000       38.520002465824       1.853294520856       0.000000000000
        98    1   0.000000       86.670000075238       1.853294520856       0.000000000000
        99    1   0.000000       40.125000993044       4.633235801751       0.000000000000
       100    1   0.000000       88.274998602458       4.633235801751       0.000000000000
       101    1   0.000000       38.520002465824       3.706588541323       0.000000000000
       102    1   0.000000       86.670000075238       3.706588541323       0.000000000000
       103    1   0.000000       40.125000993044       0.926647260428       0.000000000000
       104    1   0.000000       88.274998602458       0.926647260428       0.000000000000
       105    1   0.000000       41.730001510398       1.853294520856       0.000000000000
       106    1   0.000000       89.880003100078       1.853294520856       0.000000000000
       107    1   0.000000       43.335000037619       4.633235801751       0.000000000000
       108    1   0.000000       91.485001627299       4.633235801751       0.000000000000
       109    1   0.000000       41.730001510398       3.706588541323       0.000000000000
       110    1   0.000000       89.880003100078       3.706588541323       0.000000000000
       111    1   0.000000       43.335000037619       0.926647260428       0.000000000000
       112    1   0.000000       91.485001627299       0.926647260428       0.000000000000
       113    1   0.000000       44.939998564839       1.853294520856       0.000000000000
       114    1   0.000000       93.090000154519       1.853294520856       0.000000000000
       115    1   0.000000       46.545003062459       4.633235801751       0.000000000000
       116    1   0.000000       94.695004652139       4.633235801751       0.000000000000
       117    1   0.000000       44.939998564839       3.706588541323       0.000000000000
       118    1   0.000000       93.090000154519       3.706588541323       0.000000000000
       119    1   0.000000       46.545003062459       0.926647260428       0.000000000000
       120    1   0.000000       94.695004652139       0.926647260428       0.000000000000
       121    1   0.000000        0.000000000000       7.413177583035       0.000000000000
       122    1   0.000000       48.150001589680       7.413177583035       0.000000000000
       123    1   0.000000        1.605000517354      10.193118863930       0.000000000000
       124    1   0.000000       49.755000116901      10.193118863930       0.000000000000
       125    1   0.000000        0.000000000000       9.266471603502       0.000000000000
       126    1   0.000000       48.150001589680       9.266471603502       0.000000000000
       127    1   0.000000        1.605000517354       6.486530322607       0.000000000000
       128    1   0.000000       49.755000116901       6.486530322607       0.000000000000
       129    1   0.000000        3.210001034707       7.413177583035       0.000000000000
       130    1   0.000000       51.360004614520       7.413177583035       0.000000000000
       131    1   0.000000        4.814999561928      10.193118863930       0.000000000000
       132    1   0.000000       52.965003141741      10.193118863930       0.000000000000
       133    1   0.000000        3.210001034707       9.266471603502       0.000000000000
       134    1   0.000000       51.360004614520       9.266471603502       0.000000000000
       135    1   0.000000        4.814999561928       6.486530322607       0.000000000000
       136    1   0.000000       52.965003141741       6.486530322607       0.000000000000
       137    1   0.000000        6.420000079282       7.413177583035       0.000000000000
       138    1   0.000000       54.570001668962       7.413177583035       0.000000000000
       139    1   0.000000        8.025000596636      10.193118863930       0.000000000000
       140    1   0.000000       56.175000196182      10.193118863930       0.000000000000
       141    1   0.000000        6.420000079282       9.266471603502       0.000000000000
       142    1   0.000000       54.570001668962       9.266471603502       0.000000000000
       143    1   0.000000        8.025000596636       6.486530322607       0.000000000000
       144    1   0.000000       56.175000196182       6.486530322607       0.000000000000
       145    1   0.000000        9.630001113989       7.413177583035       0.000000000000
       146    1   0.000000       57.780004693802       7.413177583035       0.000000000000
       147    1   0.000000       11.234999641210      10.193118863930       0.000000000000
       148    1   0.000000       59.385003221023      10.193118863930       0.000000000000
       149    1   0.000000        9.630001113989       9.266471603502       0.000000000000
       150    1   0.000000       57.780004693802       9.266471603502       0.000000000000
       151    1   0.000000       11.234999641210       6.486530322607       0.000000000000
       152    1   0.000000       59.385003221023       6.486530322607       0.000000000000
       153    1   0.000000       12.840000158564       7.413177583035       0.000000000000
       154    1   0.000000       60.990001748244       7.413177583035       0.000000000000
       155    1   0.000000       14.444998685784      10.193118863930       0.000000000000
       156    1   0.000000       62.595000275464      10.193118863930       0.000000000000
       157    1   0.000000       12.840000158564       9.266471603502       0.000000000000
       158    1   0.000000       60.990001748244       9.266471603502       0.000000000000
       159    1   0.000000       14.444998685784       6.486530322607       0.000000000000
       160    1   0.000000       62.595000275464       6.486530322607       0.000000000000
       161    1   0.000000       16.049999203138       7.413177583035       0.000000000000
       162    1   0.000000       64.199998802685       7.413177583035       0.000000000000
       163    1   0.000000       17.655001710625      10.193118863930       0.000000000000
       164    1   0.000000       65.805003300305      10.193118863930       0.000000000000
       165    1   0.000000       16.049999203138       9.266471603502       0.000000000000
       166    1   0.000000       64.199998802685       9.266471603502       0.000000000000
       167    1   0.000000       17.655001710625       6.486530322607       0.000000000000
       168    1   0.000000       65.805003300305       6.486530322607       0.000000000000
       169    1   0.000000       19.260000237845       7.413177583035       0.000000000000
       170    1   0.000000       67.410001827525       7.413177583035       0.000000000000
       171    1   0.000000       20.865000755199      10.193118863930       0.000000000000
       172    1   0.000000       69.015004335012      10.193118863930       0.000000000000
       173    1   0.000000       19.260000237845       9.266471603502       0.000000000000
       174    1   0.000000       67.410001827525       9.266471603502       0.000000000000
       175    1   0.000000       20.865000755199       6.486530322607       0.000000000000
       176    1   0.000000       69.015004335012       6.486530322607       0.000000000000
       177    1   0.000000       22.469999282420       7.413177583035       0.000000000000
       178    1   0.000000       70.620002862233       7.413177583035       0.000000000000
       179    1   0.000000       24.074999799773      10.193118863930       0.000000000000
       180    1   0.000000       72.225001389453      10.193118863930       0.000000000000
       181    1   0.000000       22.469999282420       9.266471603502       0.000000000000
       182    1   0.000000       70.620002862233       9.266471603502       0.000000000000
       183    1   0.000000       24.074999799773       6.486530322607       0.000000000000
       184    1   0.000000       72.225001389453       6.486530322607       0.000000000000
       185    1   0.000000       25.680002307260       7.413177583035       0.000000000000
       186    1   0.000000       73.829999916674       7.413177583035       0.000000000000
       187    1   0.000000       27.285000834481      10.193118863930       0.000000000000
       188    1   0.000000       75.434998443895      10.193118863930       0.000000000000
       189    1   0.000000       25.680002307260       9.266471603502       0.000000000000
       190    1   0.000000       73.829999916674       9.266471603502       0.000000000000
       191    1   0.000000       27.285000834481       6.486530322607       0.000000000000
       192    1   0.000000       75.434998443895       6.486530322607       0.000000000000
       193    1   0.000000       28.889999361702       7.413177583035       0.000000000000
       194    1   0.000000       77.039996971115       7.413177583035       0.000000000000
       195    1   0.000000       30.494999879055      10.193118863930       0.000000000000
       196    1   0.000000       78.645001468735      10.193118863930       0.000000000000
       197    1   0.000000       28.889999361702       9.266471603502       0.000000000000
       198    1   0.000000       77.039996971115       9.266471603502       0.000000000000
       199    1   0.000000       30.494999879055       6.486530322607       0.000000000000
       200    1   0.000000       78.645001468735       6.486530322607       0.000000000000
       201    1   0.000000       32.099998406276       7.413177583035       0.000000000000
       202    1   0.000000       80.249999995956       7.413177583035       0.000000000000
       203    1   0.000000       33.705002903896      10.193118863930       0.000000000000
       204    1   0.000000       81.855004493576      10.193118863930       0.000000000000
       205    1   0.000000       32.099998406276       9.266471603502       0.000000000000
       206    1   0.000000       80.249999995956       9.266471603502       0.000000000000
       207    1   0.000000       33.705002903896       6.486530322607       0.000000000000
       208    1   0.000000       81.855004493576       6.486530322607       0.000000000000
       209    1   0.000000       35.310001431116       7.413177583035       0.000000000000
       210    1   0.000000       83.460003020796       7.413177583035       0.000000000000
       211    1   0.000000       36.915003938603      10.193118863930       0.000000000000
       212    1   0.000000       85.065001548017      10.193118863930       0.000000000000
       213    1   0.000000       35.310001431116       9.266471603502       0.000000000000
       214    1   0.000000       83.460003020796       9.266471603502       0.000000000000
       215    1   0.000000       36.915003938603       6.486530322607       0.000000000000
       216    1   0.000000       85.065001548017       6.486530322607       0.000000000000
       217    1   0.000000       38.520002465824       7.413177583035       0.000000000000
       218    1   0.000000       86.670000075238       7.413177583035       0.000000000000
       219    1   0.000000       40.125000993044      10.193118863930       0.000000000000
       220    1   0.000000       88.274998602458      10.193118863930       0.000000000000
       221    1   0.000000       38.520002465824       9.266471603502       0.000000000000
       222    1   0.000000       86.670000075238       9.266471603502       0.000000000000
       223    1   0.000000       40.125000993044       6.486530322607       0.000000000000
       224    1   0.000000       88.274998602458       6.486530322607       0.000000000000
       225    1   0.000000       41.730001510398       7.413177583035       0.000000000000
       226    1   0.000000       89.880003100078       7.413177583035       0.000000000000
       227    1   0.000000       43.335000037619      10.193118863930       0.000000000000
       228    1   0.000000       91.485001627299      10.193118863930       0.000000000000
       229    1   0.000000       41.730001510398       9.266471603502       0.000000000000
       230    1   0.000000       89.880003100078       9.266471603502       0.000000000000
       231    1   0.000000       43.335000037619       6.486530322607       0.000000000000
       232    1   0.000000       91.485001627299       6.486530322607       0.000000000000
       233    1   0.000000       44.939998564839       7.413177583035       0.000000000000
       234    1   0.000000       93.090000154519       7.413177583035       0.000000000000
       235    1   0.000000       46.545003062459      10.193118863930       0.000000000000
       236    1   0.000000       94.695004652139      10.193118863930       0.000000000000
       237    1   0.000000       44.939998564839       9.266471603502       0.000000000000
       238    1   0.000000       93.090000154519       9.266471603502       0.000000000000
       239    1   0.000000       46.545003062459       6.486530322607       0.000000000000
       240    1   0.000000       94.695004652139       6.486530322607       0.000000000000
       241    1   0.000000        0.000000000000      12.973060144825       0.000000000000
       242    1   0.000000       48.150001589680      12.973060144825       0.000000000000
       243    1   0.000000        1.605000517354      15.753001926109       0.000000000000
       244    1   0.000000       49.755000116901      15.753001926109       0.000000000000
       245    1   0.000000        0.000000000000      14.826355166070       0.000000000000
       246    1   0.000000       48.150001589680      14.826355166070       0.000000000000
       247    1   0.000000        1.605000517354      12.046413885175       0.000000000000
       248    1   0.000000       49.755000116901      12.046413885175       0.000000000000
       249    1   0.000000        3.210001034707      12.973060144825       0.000000000000
       250    1   0.000000       51.360004614520      12.973060144825       0.000000000000
       251    1   0.000000        4.814999561928      15.753001926109       0.000000000000
       252    1   0.000000       52.965003141741      15.753001926109       0.000000000000
       253    1   0.000000        3.210001034707      14.826355166070       0.000000000000
       254    1   0.000000       51.360004614520      14.826355166070       0.000000000000
       255    1   0.000000        4.814999561928      12.046413885175       0.000000000000
       256    1   0.000000       52.965003141741      12.046413885175       0.000000000000
       257    1   0.000000        6.420000079282      12.973060144825       0.000000000000
       258    1   0.000000       54.570001668962      12.973060144825       0.000000000000
       259    1   0.000000        8.025000596636      15.753001926109       0.000000000000
       260    1   0.000000       56.175000196182      15.753001926109       0.000000000000
       261    1   0.000000        6.420000079282      14.826355166070       0.000000000000
       262    1   0.000000       54.570001668962      14.826355166070       0.000000000000
       263    1   0.000000        8.025000596636      12.046413885175       0.000000000000
       264    1   0.000000       56.175000196182      12.046413885175       0.000000000000
       265    1   0.000000        9.630001113989      12.973060144825       0.000000000000
       266    1   0.000000       57.780004693802      12.973060144825       0.000000000000
       267    1   0.000000       11.234999641210      15.753001926109       0.000000000000
       268    1   0.000000       59.385003221023      15.753001926109       0.000000000000
       269    1   0.000000        9.630001113989      14.826355166070       0.000000000000
       270    1   0.000000       57.780004693802      14.826355166070       0.000000000000
       271    1   0.000000       11.234999641210      12.046413885175       0.000000000000
       272    1   0.000000       59.385003221023      12.046413885175       0.000000000000
       273    1   0.000000       12.840000158564      12.973060144825       0.000000000000
       274    1   0.000000       60.990001748244      12.973060144825       0.000000000000
       275    1   0.000000       14.444998685784      15.753001926109       0.000000000000
       276    1   0.000000       62.595000275464      15.753001926109       0.000000000000
       277    1   0.000000       12.840000158564      14.826355166070       0.000000000000
       278    1   0.000000       60.990001748244      14.826355166070       0.000000000000
       279    1   0.000000       14.444998685784      12.046413885175       0.000000000000
       280    1   0.000000       62.595000275464      12.046413885175       0.000000000000
       281    1   0.000000       16.049999203138      12.973060144825       0.000000000000
       282    1   0.000000       64.199998802685      12.973060144825       0.000000000000
       283    1   0.000000       17.655001710625      15.753001926109       0.000000000000
       284    1   0.000000       65.805003300305      15.753001926109       0.000000000000
       285    1   0.000000       16.049999203138      14.826355166070       0.000000000000
       286    1   0.000000       64.199998802685      14.826355166070       0.000000000000
       287    1   0.000000       17.655001710625      12.046413885175       0.000000000000
       288    1   0.000000       65.805003300305      12.046413885175       0.000000000000
       289    1   0.000000       19.260000237845      12.973060144825       0.000000000000
       290    1   0.000000       67.410001827525      12.973060144825       0.000000000000
       291    1   0.000000       20.865000755199      15.753001926109       0.000000000000
       292    1   0.000000       69.015004335012      15.753001926109       0.000000000000
       293    1   0.000000       19.260000237845      14.826355166070       0.000000000000
       294    1   0.000000       67.410001827525      14.826355166070       0.000000000000
       295    1   0.000000       20.865000755199      12.046413885175       0.000000000000
       296    1   0.000000       69.015004335012      12.046413885175       0.000000000000
       297    1   0.000000       22.469999282420      12.973060144825       0.000000000000
       298    1   0.000000       70.620002862233      12.973060144825       0.000000000000
       299    1   0.000000       24.074999799773      15.753001926109       0.000000000000
       300    1   0.000000       72.225001389453      15.753001926109       0.000000000000
       301    1   0.000000       22.469999282420      14.826355166070       0.000000000000
       302    1   0.000000       70.620002862233      14.826355166070       0.000000000000
       303    1   0.000000       24.074999799773      12.046413885175       0.000000000000
       304    1   0.000000       72.225001389453      12.046413885175       0.000000000000
       305    1   0.000000       25.680002307260      12.973060144825       0.000000000000
       306    1   0.000000       73.829999916674      12.973060144825       0.000000000000
       307    1   0.000000       27.285000834481      15.753001926109       0.000000000000
       308    1   0.000000       75.434998443895      15.753001926109       0.000000000000
       309    1   0.000000       25.680002307260      14.826355166070       0.000000000000
       310    1   0.000000       73.829999916674      14.826355166070       0.000000000000
       311    1   0.000000       27.285000834481      12.046413885175       0.000000000000
       312    1   0.000000       75.434998443895      12.046413885175       0.000000000000
       313    1   0.000000       28.889999361702      12.973060144825       0.000000000000
       314    1   0.000000       77.039996971115      12.973060144825       0.000000000000
       315    1   0.000000       30.494999879055      15.753001926109       0.000000000000
       316    1   0.000000       78.645001468735      15.753001926109       0.000000000000
       317    1   0.000000       28.889999361702      14.826355166070       0.000000000000
       318    1   0.000000       77.039996971115      14.826355166070       0.000000000000
       319    1   0.000000       30.494999879055      12.046413885175       0.000000000000
       320    1   0.000000       78.645001468735      12.046413885175       0.000000000000
       321    1   0.000000       32.099998406276      12.973060144825       0.000000000000
       322    1   0.000000       80.249999995956      12.973060144825       0.000000000000
       323    1   0.000000       33.705002903896      15.753001926109       0.000000000000
       324    1   0.000000       81.855004493576      15.753001926109       0.000000000000
       325    1   0.000000       32.099998406276      14.826355166070       0.000000000000