molecular system: Li7P3S11
42 atoms
24 bonds
38 angles
12 dihedrals
0 impropers
6 atom types
3 bond types
4 angle types
1 dihedral types
0 improper types

  0.000000  12.500900 xlo xhi
  0.000000   5.811304 ylo yhi
  0.000000  11.416204 zlo zhi
  1.615222  -4.936693  -1.519136 xy xz yz

Masses

     1   6.941000 # Li   Li  
     2  30.973762 # Pa   P2S7
     3  30.973762 # P4   PS4 
     4  32.066000 # S1   P2S7
     5  32.066000 # Sc   P2S7
     6  32.066000 # S4   PS4 

Atoms

     1      1      1   1.000000   8.122136   0.627332   1.050291 0 0 0  # Li Li
     2      2      1   1.000000   1.057294   3.664837  10.365913 0 0 0  # Li Li
     3      3      1   1.000000   4.352449   1.021028   9.883008 0 0 0  # Li Li
     4      4      1   1.000000   4.826981   3.271140   1.533196 0 0 0  # Li Li
     5      5      1   1.000000  -0.096890   1.955831   8.447991 0 0 0  # Li Li
     6      6      1   1.000000   9.276320   2.336338   2.968213 0 0 0  # Li Li
     7      7      1   1.000000  11.712506   4.157518   3.082375 0 0 0  # Li Li
     8      8      1   1.000000  -2.533076   0.134650   8.333829 0 0 0  # Li Li
     9      9      1   1.000000   3.779580   2.922255   3.844977 0 0 0  # Li Li
    10     10      1   1.000000   5.399850   1.369914   7.571226 0 0 0  # Li Li
    11     11      1   1.000000   6.690174   3.508968   5.685269 0 0 0  # Li Li
    12     12      1   1.000000   2.489256   0.783201   5.730934 0 0 0  # Li Li
    13     13      1   1.000000   1.550984   1.504959   1.529771 0 0 0  # Li Li
    14     14      1   1.000000   7.628446   2.787209   9.886432 0 0 0  # Li Li
    15     15      2   5.000000   7.679626  -0.512908   5.313101 0 0 0  # Pa P2S7
    16     16      2   5.000000   1.499804   4.805076   6.103103 0 0 0  # Pa P2S7
    17     15      2   5.000000   4.758849  -0.229746   3.386046 0 0 0  # Pa P2S7
    18     16      2   5.000000   4.420581   4.521914   8.030158 0 0 0  # Pa P2S7
    19     17      3   5.000000  10.647746   1.479020   0.667848 0 0 0  # P4 PS4
    20     18      3   5.000000  -1.468317   2.813148  10.748356 0 0 0  # P4 PS4
    21     15      4  -2.000000   8.081670   0.432106   7.072338 0 0 0  # S1 P2S7
    22     16      4  -2.000000   1.097759   3.860062   4.343866 0 0 0  # S1 P2S7
    23     15      4  -2.000000   8.814570   0.103654   3.815295 0 0 0  # S1 P2S7
    24     16      4  -2.000000   0.364860   4.188514   7.600908 0 0 0  # S1 P2S7
    25     15      4  -2.000000   9.293419   3.257584   5.342783 0 -1 0  # S1 P2S7
    26     16      4  -2.000000  -0.113990   1.034584   6.073420 0 1 0  # S1 P2S7
    27     15      5  -2.000000   5.742679   0.240049   5.170399 0 0 0  # Sc P2S7
    28     16      5  -2.000000   3.436751   4.052120   6.245805 0 0 0  # Sc P2S7
    29     15      4  -2.000000   3.075226   0.879304   3.292433 0 0 0  # S1 P2S7
    30     16      4  -2.000000   6.104203   3.412864   8.123771 0 0 0  # S1 P2S7
    31     15      4  -2.000000   5.742408   0.233065   1.720422 0 0 0  # S1 P2S7
    32     16      4  -2.000000   3.437021   4.059103   9.695782 0 0 0  # S1 P2S7
    33     15      4  -2.000000   5.981236   3.601512   3.509341 0 -1 0  # S1 P2S7
    34     16      4  -2.000000   3.198193   0.690657   7.906863 0 1 0  # S1 P2S7
    35     17      6  -2.000000   6.582288   0.546657  10.312257 0 0 -1  # S4 PS4
    36     18      6  -2.000000   2.597141   3.745511   1.103947 0 0 1  # S4 PS4
    37     17      6  -2.000000  11.618085   5.314570   0.527429 0 -1 0  # S4 PS4
    38     18      6  -2.000000  -2.438655  -1.022402  10.888775 0 1 0  # S4 PS4
    39     17      6  -2.000000   8.948171   2.735205   0.730637 0 0 0  # S4 PS4
    40     18      6  -2.000000   0.231258   1.556963  10.685567 0 0 0  # S4 PS4
    41     17      6  -2.000000  11.856537   1.754197   2.141680 0 0 0  # S4 PS4
    42     18      6  -2.000000  -2.677108   2.537971   9.274524 0 0 0  # S4 PS4

Bonds

     1      1     15     21 # Pa-S1
     2      1     15     23 # Pa-S1
     3      1     15     25 # Pa-S1
     4      2     15     27 # Pa-Sc
     5      1     16     22 # Pa-S1
     6      1     16     24 # Pa-S1
     7      1     16     26 # Pa-S1
     8      2     16     28 # Pa-Sc
     9      2     17     27 # Pa-Sc
    10      1     17     29 # Pa-S1
    11      1     17     31 # Pa-S1
    12      1     17     33 # Pa-S1
    13      2     18     28 # Pa-Sc
    14      1     18     30 # Pa-S1
    15      1     18     32 # Pa-S1
    16      1     18     34 # Pa-S1
    17      3     19     35 # P4-S4
    18      3     19     37 # P4-S4
    19      3     19     39 # P4-S4
    20      3     19     41 # P4-S4
    21      3     20     36 # P4-S4
    22      3     20     38 # P4-S4
    23      3     20     40 # P4-S4
    24      3     20     42 # P4-S4

Angles

     1      1     15     27     17 # Pa-Sc-Pa
     2      1     16     28     18 # Pa-Sc-Pa
     3      2     21     15     23 # S1-Pa-S1
     4      2     21     15     25 # S1-Pa-S1
     5      3     21     15     27 # S1-Pa-Sc
     6      2     22     16     24 # S1-Pa-S1
     7      2     22     16     26 # S1-Pa-S1
     8      3     22     16     28 # S1-Pa-Sc
     9      2     23     15     25 # S1-Pa-S1
    10      3     23     15     27 # S1-Pa-Sc
    11      2     24     16     26 # S1-Pa-S1
    12      3     24     16     28 # S1-Pa-Sc
    13      3     25     15     27 # S1-Pa-Sc
    14      3     26     16     28 # S1-Pa-Sc
    15      3     27     17     29 # S1-Pa-Sc
    16      3     27     17     31 # S1-Pa-Sc
    17      3     27     17     33 # S1-Pa-Sc
    18      3     28     18     30 # S1-Pa-Sc
    19      3     28     18     32 # S1-Pa-Sc
    20      3     28     18     34 # S1-Pa-Sc
    21      2     29     17     31 # S1-Pa-S1
    22      2     29     17     33 # S1-Pa-S1
    23      2     30     18     32 # S1-Pa-S1
    24      2     30     18     34 # S1-Pa-S1
    25      2     31     17     33 # S1-Pa-S1
    26      2     32     18     34 # S1-Pa-S1
    27      4     35     19     37 # S4-P4-S4
    28      4     35     19     39 # S4-P4-S4
    29      4     35     19     41 # S4-P4-S4
    30      4     36     20     38 # S4-P4-S4
    31      4     36     20     40 # S4-P4-S4
    32      4     36     20     42 # S4-P4-S4
    33      4     37     19     39 # S4-P4-S4
    34      4     37     19     41 # S4-P4-S4
    35      4     38     20     40 # S4-P4-S4
    36      4     38     20     42 # S4-P4-S4
    37      4     39     19     41 # S4-P4-S4
    38      4     40     20     42 # S4-P4-S4

Dihedrals

     1      1     15     27     17     29 # Pa-Sc-Pa-S1
     2      1     15     27     17     31 # Pa-Sc-Pa-S1
     3      1     15     27     17     33 # Pa-Sc-Pa-S1
     4      1     16     28     18     30 # Pa-Sc-Pa-S1
     5      1     16     28     18     32 # Pa-Sc-Pa-S1
     6      1     16     28     18     34 # Pa-Sc-Pa-S1
     7      1     17     27     15     21 # Pa-Sc-Pa-S1
     8      1     17     27     15     23 # Pa-Sc-Pa-S1
     9      1     17     27     15     25 # Pa-Sc-Pa-S1
    10      1     18     28     16     22 # Pa-Sc-Pa-S1
    11      1     18     28     16     24 # Pa-Sc-Pa-S1
    12      1     18     28     16     26 # Pa-Sc-Pa-S1
