LAMMPS data file via write_data, version 22 Dec 2022, timestep = 110000

21952 atoms
2 atom types

-4.113922617498773 54.113922617498766 xlo xhi
-8.227845234997545 108.22784523499753 ylo yhi
-4.113922617498773 54.113922617498766 zlo zhi

Masses

1 63.546
2 91.224

Atoms # atomic

59 1 -2.6132269784085764 -6.991460303211897 0.10590096903765911 0 0 0
64 2 -0.3244953314570558 -6.665794489526285 -1.8946799880484702 0 0 0
117 2 -2.268233481364474 -4.124383187633608 -3.2702650810104323 0 0 0
846 1 0.545354192939393 -4.27716614821794 -3.1778378152276963 0 0 0
785 1 -1.4732339542344208 -4.429705181532639 -0.6150372839070761 0 0 0
16515 2 45.969446451505085 48.62176629390969 24.785336705531236 0 0 0
63 1 1.1468687226463237 -4.85054653316274 -0.5809242479698153 0 0 0
5 1 2.1602177333314705 -6.8118456239806076 0.13806698394898387 0 0 0
10203 1 2.9640253108388848 -5.456403183282575 -2.1877398743330523 0 0 1
7 1 4.481693475186349 -7.592978431162024 -0.08535866004392112 0 0 0
790 2 3.850019494243287 -4.488496470612748 0.35390355023877973 0 0 0
16426 2 13.42235116391332 -8.224126245942116 23.860097325962133 0 1 0
800 2 5.776990525402672 -6.006030571178474 -2.0101047967248853 0 0 0
798 2 8.738667003221616 -5.084791417962853 -0.8595190201674807 0 0 0
1581 1 7.297219327853179 -7.68973568732419 -0.7568536146888389 0 0 0
11722 2 10.009965742950834 -7.429708559637667 -2.2397303731199356 0 1 0
15 1 8.172580875126183 -5.326630276321046 -3.572444907947277 0 0 0
12 1 6.445664139582373 -3.6720358043516397 0.047900132263591466 0 0 0
70 1 7.184325313427092 -3.3327467659413204 -2.3430602689024047 0 0 0
10211 1 11.815987456307456 -5.054550445956888 -2.5079409673714474 0 0 1
19 2 14.440686691938911 -5.110848750082905 -1.4502933189804375 0 0 0
12511 1 12.720452722334464 -7.476771969621919 -2.689600903235884 0 1 0
857 2 11.66512973017514 -6.0485403874587895 0.006177442822737689 0 0 0
799 1 10.755147535531652 -3.5159680226472894 -0.07491165336068573 0 0 0
5434 2 53.9855213335597 47.02324528106958 24.015697943848792 -1 0 0
80 1 15.945341203997959 -7.158455898539053 -2.1284530424817514 0 0 0
25 2 18.879247995439993 -6.918896097136335 -1.643449837195429 0 0 0
808 1 17.306044453322645 -4.778615057739893 -0.9829311712743265 0 0 0
863 1 19.616274983175753 -4.685412940096109 -4.031171420985272 0 0 0
6268 2 51.60521143966267 45.79302390523796 22.8545064885282 0 0 0
12510 2 16.679570991307504 -7.285191493360251 0.5569495606640498 0 1 0
809 1 20.09505067475134 -4.512571334797464 -1.5300633630151843 0 0 0
810 1 22.039206509082895 -6.388259841357605 -1.5776285914304489 0 0 0
813 2 24.496579593396376 -6.44375038283279 -0.3650106479931243 0 0 0
10220 2 24.865024148444427 -5.772409275927584 -3.6062064843284167 0 0 1
28 1 22.005075795021366 -5.203086193543086 -3.649493540971041 0 0 0
871 2 23.38289186508578 -3.601520653077684 -1.9953209904398785 0 0 0
10271 1 22.81411370078128 -7.697361007703175 -3.703845950167675 0 0 1
15736 2 52.127682293903035 48.633797536099145 21.922990192384642 0 0 0
32 1 25.887038183044424 -4.290593503986398 -1.4693438369387706 0 0 0
36 2 28.59985234261685 -4.5947930424831736 -1.889195910284153 0 0 0
877 1 27.20126870286506 -6.014349762074245 0.33108375099783327 0 0 0
12522 1 28.990760384845203 -7.352736680764842 -0.7415364223516918 0 1 0
11734 1 26.91045434530861 -6.695719152812931 -2.0774094313619775 0 1 0
21932 2 29.136425923543918 -7.37907054911898 -3.4934359333229437 0 1 1
824 1 31.126820009703636 -6.0825183560243685 -1.9426276719862776 0 0 0
881 2 32.76412184119474 -4.0202052836606965 -0.21194259691877848 0 0 0
821 2 32.034809598879804 -7.275695051407454 0.4418818401788256 0 0 0
91 2 33.895266162164354 -5.961703471232736 -2.3553893395220986 0 0 0
883 2 36.08204844292348 -3.6367506841946504 -1.4677514476645288 0 0 0
43 2 38.18800548368908 -5.692627943550538 0.4995091283100894 0 0 0
1665 1 36.71180861969638 -6.824742748548915 -1.7333083491121433 0 0 0
101 2 38.93134305397684 -5.113315869906042 -2.5728683034340447 0 0 0
879 2 35.25725945219522 -6.052886500487972 0.7159792631193236 0 0 0
10291 1 36.42393191295587 -5.363828261250633 -3.917505597209863 0 0 1
12530 1 40.98678042849703 -6.33698588735765 -0.8424676417480712 0 1 0
831 2 41.8021611496508 -3.9291197721214424 -1.4159477463737242 0 0 0
837 1 43.79174891543593 -5.685142752912126 -1.5393636919042488 0 0 0
833 1 41.64580745198693 -5.720192298674638 -3.3572838700573255 0 0 0
53 1 45.95907914345538 -5.341210240913606 -2.9907134771863086 0 0 0
12542 2 46.54386140016497 -6.660905305170624 -0.6923563290332462 0 1 0
894 1 48.117725698797265 -3.976170514878855 -2.116580455737858 0 0 0
886 2 45.67922831324977 -3.7119150353494756 -0.7783453728259002 0 0 0
57 2 48.72772968718505 -6.11033022272012 -3.3291066536091427 -1 0 0
827 1 49.229039007597514 -6.3739484045417125 -0.45826446796800324 0 0 0
896 2 48.456227686496874 -3.89364479999662 0.6545841701604393 0 0 0
897 1 -4.031997732462812 -3.734557601500631 -1.0795935094050955 0 0 0
4 2 54.022385428183696 -6.379539377733753 -2.1579340488807803 -1 0 0
56 2 51.024730983934646 -4.485330121816446 -1.351228929879225 0 0 0
10359 1 53.06091965535615 -5.860674118152453 0.3724783286365101 0 0 1
11760 2 51.20841408921756 -7.877449961428537 -2.1202619963402247 0 1 0
10251 1 51.60079839097631 -5.754108581207024 -3.767960942526805 -1 0 1
901 2 -0.6521877400200835 -2.1029113400747663 -1.8512698762374735 0 0 0
792 2 -3.687550512074552 -0.9831572384342797 -2.157893550652605 0 0 0
899 1 -2.1664914184320025 0.4616612888498519 -0.6444330312114022 0 0 0
171 2 -1.1263290461755986 0.3048603070054394 -3.4722220284554552 0 0 0
1685 2 -2.5880878213042013 -2.054900062019539 0.7102163355625883 0 0 0
845 1 -0.5392038918697031 -0.43890786213601984 0.7834202901601408 0 0 0
10 2 3.1401294162339175 -3.1720096478380997 -3.910396829444818 0 0 0
847 1 4.716924513200649 -3.1727756905238014 -1.6976440785454523 0 0 0
917 1 2.0708638760662677 -2.805402365091634 -1.4664901437469449 0 0 0
902 2 1.3378579550184835 0.1611082691439485 -1.0620976779683824 0 0 0
10260 1 3.6189538759711777 -0.8944179759034157 -2.2329336428439293 0 0 1
851 1 3.512077496620611 -1.76439461308689 0.24138071206763279 0 0 0
173 1 1.4468267727115842 -1.1460607704196795 -3.47043646684246 0 0 0
852 2 4.261084559097368 0.9155529696321949 -0.11864485548177273 0 0 0
850 1 5.659040683282855 0.5250737143579318 -3.03337880104265 0 0 0
794 1 5.5684338374646405 -2.0204603887028156 -3.65589241524584 0 0 0
71 2 9.911731890339532 -3.153795340052257 -3.0276650753147507 0 0 0
65 1 6.067775243906597 -1.0879864575366351 -1.1330334495747438 0 0 0
132 2 8.576307760084855 -1.7738890102997047 -0.4492129611415967 0 0 0
68 1 7.978226071229276 -1.0405935693274984 -3.2891365585712746 0 0 0
1705 1 10.007572490232702 -0.08730333791659817 -1.978486949173667 0 0 0
856 1 7.703799609278345 1.3690049009307543 -2.075242099631039 0 0 0
67 1 11.497792237958546 -1.152806141166506 0.02960359439303062 0 0 0
135 2 12.8229131869438 -2.31761349088136 -1.7099793100765925 0 0 0
971 2 14.918497998660602 -0.12738619523962846 -2.180963444059252 0 0 0
76 2 12.10316126697278 1.246023564689084 -0.7685723724653557 0 0 0
915 1 12.482378137684488 1.2829176929771915 -3.350338813284111 0 0 0
78 2 15.33337631126432 -2.9783223932233014 -3.7992323471026257 0 0 0
806 1 15.715583452459988 -2.5347865874813786 -0.8857177970088954 0 0 0
22 2 18.176364985515367 -2.6177969033638284 -2.1360264231284845 0 0 0
921 1 17.47034739852561 -0.12916175864590684 -1.2700534456943586 0 0 0
812 1 19.148523249654097 -0.33401106324448726 -3.314056835163237 0 0 0
868 2 20.22834783433279 0.16243399899618183 -0.7520729383476787 0 0 0
27 2 21.176179088326236 -2.4988085809099863 -3.5333447168390784 0 0 0
865 1 23.02243574893258 -0.9487698951992369 -1.2175772158946807 0 0 0
13294 1 20.920359451496104 -2.4146458691891386 -1.03220439035494 0 1 0
142 1 24.373871579010483 0.9781012160275857 -2.2297594195327246 0 0 0
141 2 21.975352300028838 0.37874133823452993 -3.371519979764803 0 0 0
866 1 23.06100334837703 1.0012145992432107 0.3160336213675867 0 0 0
869 1 24.06552246495167 -1.3490618101641667 -3.396293156198269 0 0 0
867 1 24.42061715362352 -3.217339812854937 0.4978588235414536 0 0 0
87 2 27.25557230184704 -3.0655248913475326 0.5543267432191312 0 0 0
90 1 28.523895958912036 -1.6960839184721141 -2.206241302056943 0 0 0
143 1 28.68877349689268 1.030603293089289 -0.12308009698190725 0 0 0
145 2 25.89458264667785 -1.2052657985511406 -1.252884605166031 0 0 0
814 2 26.45092492833252 -2.94159046111427 -3.8291020463803385 0 0 0
10337 1 26.05719671432425 -0.01872272049396173 -3.8266589765587007 0 0 1
147 1 30.020563839409945 0.33341964172917926 -2.3362621275442517 0 0 0
933 2 29.953804156665782 -1.890719191959768 0.07564190728816378 0 0 0
870 1 30.991865562592835 -3.31518683851432 -1.9777517769440642 0 0 0
828 1 33.65662938223265 -2.89224466770699 -2.5577468383129944 0 0 0
151 1 32.36756693450813 -1.1054482083625645 -1.1709472290097547 0 0 0
930 1 31.099022097514876 0.7092268029154312 -0.0759532124245279 0 0 0
149 2 32.57250383659804 1.3804243204509756 -3.0154491088734803 0 0 0
96 2 31.315591514872075 -1.433284966640092 -3.846310608010627 0 0 0
150 1 34.540491182840924 -1.7950657109458685 0.7348069227204679 0 0 0
885 2 38.841621278626015 -2.8962231617705783 -0.42555310600352403 0 0 0
100 2 35.15934651034424 -0.5858683262252136 -1.8553511700779657 0 0 0
939 1 37.909175577859465 0.06505049781843475 -1.7486389025784694 0 0 0
98 2 38.139239310880605 -2.1198036925185457 -3.2460342998335845 0 0 0
882 1 36.89278147468346 -0.9451536758824952 0.1579363437023682 0 0 0
159 1 39.27195834796186 0.7077233154550626 -4.038984429498721 0 0 0
684 1 8.575831863371505 49.48576990080516 -3.819060944986484 0 0 0
153 2 39.53763352536872 -0.2101829908562145 0.6651471759211116 0 0 0
9561 1 40.74527827800616 -3.3089313747996147 -3.6820548572618486 0 0 1
9508 2 43.6974927947902 -3.2894056265973273 -3.5663625737271802 0 0 1
160 2 40.88526288651836 -1.004288220690838 -2.114113731371211 0 0 0
48 1 43.59361428804065 -0.12267913021554655 -3.2504333074486325 0 0 0
829 2 43.77214355316355 -1.49219242189311 -0.6466071047581963 0 0 0
210 1 39.99760102643991 1.4959921493782815 -1.5565344924346567 0 0 0
52 2 46.12826794233624 -1.3799293392915368 -2.9628413835155767 0 0 0
106 1 46.75093631603985 -1.191403243978474 -0.2921338409922183 0 0 0
223 1 48.65222599133554 0.48064699672722533 -0.24835296571215393 0 0 0
102 2 45.66452969597817 1.2107833496069027 -1.5384702471894771 0 0 0
949 2 48.606899146150454 1.1538439783644705 -3.0836556315404815 0 0 0
842 2 53.018072230309855 -3.2466747096917468 -3.727960052537904 -1 0 0
112 2 49.32322948006691 -1.7521171885848625 -1.7363021413405324 0 0 0
115 1 52.060373472520425 -1.8420485740304597 -1.3195495517674813 -1 0 0
947 2 51.14846847890158 1.0673893370477021 -1.269367223948601 0 0 0
116 2 53.25045732121399 0.08360966291276384 0.786602138798222 -1 0 0
10307 2 51.48157027216336 -0.4958509747254194 -3.942991372814719 -1 0 1
120 2 -1.7245036734226105 4.5411625255492005 -1.586948782776556 0 0 0
960 1 0.6836732435147308 5.7979452513872385 -2.1166397514859483 0 0 0
170 2 0.650960335664025 2.8867994156728756 -3.179093468706424 0 0 0
1734 2 -0.4148661633467583 2.1835338469382464 0.29784380741089134 1 0 0
175 1 -2.156471107261923 2.9449492728705877 -3.53352906893701 0 0 0
954 2 0.40744185308528547 5.0123378961446665 0.518162423819696 0 0 0
952 2 -3.2758756499416446 3.0209517993724226 0.6799055027568812 1 0 0
66 2 3.4047271001226207 1.9170402740467765 -3.143305703000522 0 0 0
121 2 3.204392664543068 4.935801647677829 -2.300399211081597 0 0 0
903 1 2.2429153517648333 2.8931552098997617 -0.6230737385292682 0 0 0
965 2 5.815149879576451 3.481167917448433 -0.9182757499537919 0 0 0
118 1 5.867483355510892 3.1629175078870286 -3.3060559932155575 0 0 0
126 1 9.42704132246755 2.1563077343475054 -0.8268186683562142 0 0 0
231 1 5.942709342162846 5.816517750026634 -2.584164836492156 0 0 0
119 2 8.486304544624854 4.095261192941583 -2.4502215203230433 0 0 0
967 2 10.169127782422526 5.451360183888223 -0.29035160272443283 0 0 0
184 1 7.441404194163157 5.768892398532497 -0.42287403627026876 0 0 0
182 1 10.04205605342342 1.9968946912437548 -3.4421401313190563 0 0 0
1746 1 7.909577361844445 3.708873169158638 0.7249411326938997 0 0 0
10380 1 10.861140537021468 5.689355843730494 -2.850754517981701 0 0 1
125 1 11.513730008030768 3.607105789803736 -1.7882525602724249 0 0 0
910 2 14.20240962326146 3.4155316971326943 -2.124789918215681 0 0 0
131 2 15.040184784840822 1.617762209596572 0.3480602183524848 0 0 0
966 2 13.097444109933619 6.223763684442783 -0.8522482536658478 0 0 0
188 1 15.296534732164286 6.060127140121056 -2.7314863261166353 0 0 0
919 2 17.024546161070017 2.0343314522429115 -3.0479896207965176 0 0 0
918 1 16.726788160376866 4.258845685103111 -1.5096254093780566 0 0 0
82 2 19.610821877924124 4.729564392520622 -1.3379463042706612 0 0 0
187 2 17.615326368678385 5.268783855793419 -3.825750256269172 0 0 0
10280 1 19.64417930601485 2.1327139676709876 -2.447249083004974 0 0 1
136 2 18.007713278804182 2.3452376920010476 0.1507296612845277 0 0 0
194 2 22.144359846433346 2.8351775356516473 -1.461713162138715 0 0 0
193 1 22.156433304631417 5.387756982232197 -2.835092308679533 0 0 0
10334 1 24.198701841574046 3.412368850364098 -3.026704457602116 0 0 1
922 1 24.14994839553954 4.8816461796491915 -0.7665331013408663 0 0 0
10940 2 14.171402235887932 49.62617004755233 -3.9850838249431124 0 0 1
144 2 27.72769208565218 1.8500506138820043 -2.6311320358605004 0 0 0
199 1 26.248716761604026 4.07506107823083 -1.85825534100834 0 0 0
1765 2 25.75763687719279 1.8316605387974896 -0.009254589079175979 0 0 0
201 1 28.06197468260934 3.4628542057880285 -0.5398259383617625 0 0 0
255 2 29.2302801247246 4.978627991855431 -2.987326036227571 0 0 0
1825 2 29.557349071747012 5.606377717695636 0.5317596218923493 0 0 0
1826 1 33.37962042266795 1.1770654799911409 -0.45392243262743115 0 0 0
982 2 30.688700142672985 3.0782707490631207 -1.1006995014593919 0 0 0
203 2 32.58839678005952 4.368072759509609 -2.9343663241603744 0 0 0
988 1 32.314014516313144 5.023261319453198 0.3464283178392895 0 0 0
936 2 34.74237100993244 3.6697879254950294 -0.09416367867755326 0 0 0
99 1 35.4063431580272 2.012420234907488 -2.0071978547536133 0 0 0
10456 2 38.69545910796398 5.756324911303393 -3.1212083388739567 0 0 1
152 2 35.61961412357426 5.018627826118411 -2.998480990183059 0 0 0
938 2 37.871693109435455 2.630258984443044 -2.990289594448564 0 0 0
942 1 37.49191208443855 4.629149854919898 -0.7224853387028687 0 0 0
935 2 37.76141908671222 2.1130362284073954 0.2697475703165937 0 0 0
104 2 42.82366245796138 1.7786837146776033 -1.0209736201226498 0 0 0
937 2 40.52197591178595 4.150101082728165 -1.0516573653775123 0 0 0
1051 2 43.502970104912976 6.316554408493181 -0.7221901739032646 0 0 0
10343 2 41.66300289761363 2.1407627123878115 -3.756421940560256 0 0 1
994 2 41.63646293938357 5.396767457903811 -3.8683234559142967 0 0 0
158 2 44.33168044006062 3.981640168512552 -2.4688762437926166 0 0 0
164 2 47.3501924716286 3.6703614353337315 -0.9744272836878496 0 0 0
168 1 48.97771471181733 5.722117512938837 -2.46552887194864 0 0 0
275 2 48.91117042130581 6.035404831682307 0.40803311132169995 0 0 0
9791 1 45.47906858210259 26.868823786281155 -4.046494613062769 0 0 1
946 1 49.57368179378816 3.0393031323413275 0.07758052778052349 0 0 0
279 2 54.0768196982709 4.9542796595475025 -3.237396547993358 0 0 0
113 2 53.92923356112808 2.032354673217359 -1.9482828188291892 -1 0 0
219 1 49.86792501475993 3.4066303171385783 -2.705858703158486 0 0 0
224 2 51.878167995122986 4.4545959141721365 -0.9069340829888279 0 0 0
10416 1 51.5028358982836 5.705311310394462 -3.3798977474466376 0 0 1
1007 1 52.15559456705655 2.5437986929584326 0.7416110991697256 0 0 0
956 2 -3.975946701317561 6.289129105598509 -0.37237975162073056 0 0 0
955 2 -1.223671143433608 7.63883176879909 -0.8089157670085623 0 0 0
172 1 -2.6320782667337728 7.2014053710444035 -2.9979376804258826 0 0 0
228 2 -3.470068925207877 9.886570585102355 -0.9831672377178635 0 0 0
236 2 -0.27186769787540666 10.547762377196111 -0.7412991068498158 0 0 0
1013 1 -1.915825949487314 9.721477476846879 -3.0518168223384343 0 0 0
1066 1 0.21130158260722443 11.027589967125959 -3.3758276375883653 0 0 0
13219 1 -3.375856290430245 -8.149286541450184 10.536785892553537 0 1 0
227 2 0.7082956665064177 8.115785028369594 -3.296942297302339 0 0 0
1021 1 4.675465616297879 6.801218429099068 -0.3731891415464288 0 0 0
180 2 3.927633456439912 8.041415088536532 -2.8118553168143796 0 0 0
296 2 4.635869308430847 9.520218929690103 0.2244482282241833 0 0 0
962 2 1.940084058402352 7.586133086738341 -0.2810491575610845 0 0 0
10424 1 2.330508842242219 10.074798535397235 -1.7264441968570652 0 0 1
234 2 6.537280299415174 9.82098125068341 -2.8226470328240336 0 0 0
9639 1 6.62228196994711 8.0394807525552 -0.8497157223854495 0 0 1
968 1 9.058479093080757 9.869499576416416 -2.1190713713538005 0 0 0
235 2 8.477204910141587 7.191313269534806 -2.6854917424276485 0 0 0
1023 1 7.711892708115062 10.224417275627353 -0.26498973824809635 0 0 0
1079 2 10.903717870012922 10.503625941952283 -0.14283755454848635 0 0 0
243 1 10.835601893157556 8.001113551680568 -1.7523677937783955 0 0 0
1029 1 13.079635510752524 9.348894131514406 -1.220588345089741 0 0 0
920 1 15.045732381517663 8.253285301593706 -1.8720528198109845 0 0 0
244 2 13.150940062656659 7.124883554097911 -3.7167784483461745 0 0 0
240 2 11.465895496304116 10.109319341173787 -3.4939903742739435 0 0 0
1022 1 11.518587066434145 7.830283461922555 0.6900604211254562 0 0 0
3152 1 7.183697356372198 -7.9328752615878955 13.433508580166144 0 0 0
1082 1 15.288615343942883 11.120533208345805 -1.55503637505011 0 0 0
1089 1 19.53984944541806 10.476707265391234 -3.762545743627355 0 0 0
189 1 16.946897259272315 8.050612938676188 -3.3523829982503344 0 0 0
248 2 17.722197715593673 9.874307544404864 -1.5338893378569005 0 0 0
974 2 19.732343454412185 7.489450147646611 -3.171889922172475 0 0 0
973 2 16.987630108986224 6.733387418676834 -0.654607883870812 0 0 0
1028 1 15.573795038766828 9.468150918233537 0.523630911227837 0 0 0
196 2 19.61882082027671 7.614776564128833 0.25163912716377546 0 0 0
10389 2 24.631609455724742 6.402591626189711 -3.0592168674892326 0 0 1
923 2 22.270926481819135 7.097575311571925 -0.7673335614186714 0 0 0
186 1 20.446403814560433 9.804004197049615 -1.2133097015810748 0 0 0
1038 2 22.786635460087943 10.265630185588115 0.0013211841760432108 0 0 0
1033 2 22.287924518333813 9.215145092310081 -2.9764811948883434 0 0 0
10452 2 25.240852933057994 9.384657703365992 -3.7616022902928363 0 0 1
200 2 27.484875352622854 6.480478944824082 -1.410547848638878 0 0 0
195 2 25.022154197031504 8.143967284915924 -0.6189279648383228 0 0 0
1093 1 25.32076126208726 10.80982819144608 -1.2215694169195297 0 0 0
1043 2 29.290340725509253 8.893506538425054 -0.011914432437796663 0 0 0
256 1 27.281642203421242 9.457766336886738 -2.002003040763056 0 0 0
1041 2 29.485166664826934 8.274478910907199 -3.336269421017133 0 0 0
1151 1 29.40074910099954 10.813822069853241 -2.0086453264336295 0 0 0
13374 2 36.62982335495112 49.93709602955087 5.313000017833135 0 0 0
261 1 33.981614143594136 6.309558939350849 -1.3171771489195194 0 0 0
986 2 31.364230457885803 7.071313362181577 -1.4025632725501511 0 0 0
1042 2 32.16788010968117 10.10930331790658 -2.861981705861706 0 0 0
1044 2 33.58995460936157 9.003966648747049 -0.16073223669499148 0 0 0
998 1 39.041859418257424 6.512754101650971 -0.05907497120503802 0 0 0
264 2 34.683816418139294 8.290038095002735 -2.9975545761078273 0 0 0
1774 2 36.616548073338365 7.2396617972744775 -0.7822209583749209 0 0 0
208 2 36.59694249578487 10.382188650567645 -1.2250923678717425 0 0 0
990 1 37.482128174709224 8.250093260355651 -3.259117117960926 0 0 0
1046 2 38.145715107707744 10.95485795902874 -3.6793292101384463 0 0 0
266 2 39.559815461061135 8.91799857806166 -1.5817989883036065 0 0 0
212 2 42.6625298729911 8.645667448619943 -2.9389500513585025 0 0 0
996 1 42.3384062163422 9.018709614143006 -0.33943225124651377 0 0 0
993 1 41.123315073422084 6.810369610736849 -1.5676923930987208 0 0 0
213 1 44.39008107662054 6.697226161428837 -3.6041345375982745 0 0 0
15648 1 15.15116957493775 -8.087801896734335 19.726764220088704 0 1 0
214 2 46.60736025372929 6.459210798918402 -1.9581384552614622 0 0 0
1055 2 45.12521280068086 9.321901255255469 -1.5058485135313964 0 0 0
10467 1 47.45997673009569 9.08223117319157 -3.3143265187554776 0 0 1
10463 1 48.30094894379919 10.641646901979083 -1.2087790383880468 0 0 1
1062 1 48.954476934502345 8.25038971091421 -1.5050057427627492 0 0 0
276 2 46.989262648847664 8.610847899765865 0.6234486945693902 0 0 0
286 2 53.159194442116295 7.97151218740872 -3.0218911200419516 -1 0 0
1796 1 53.82431984795343 10.74475282532569 -3.367756304797814 -1 0 0
10420 2 51.32183055942618 10.221874313831922 -2.236680554326326 -1 0 1
277 1 51.042120113982676 7.050012689335759 -1.1711431458706465 0 0 0
1009 1 52.72483200958431 8.724397784689298 0.02123867790588818 -1 0 0
953 2 50.25293166762099 9.509181730498753 0.5296783162192691 -1 0 0
10465 2 49.95320694392049 8.067010098494016 -3.9357569149804155 0 0 1
1068 2 -2.1751855561396263 12.479130345124481 -2.711503736546277 0 0 0
282 2 -3.5443261383301836 14.603101821392087 -0.9550763842719321 0 0 0
1123 2 -0.5553001266610367 15.061321960430206 -1.7773617577756848 0 0 0
1010 1 -2.6298099882129717 12.191648439045668 0.12895076855609133 0 0 0
1014 1 -2.3457599497410566 14.863220010769396 -4.0207758720576035 0 0 0
1015 1 1.4633153451124716 12.768537730223315 -1.924364776079393 0 0 0
1131 1 4.494418998196052 11.538959762541424 -1.8364013011006635 0 0 0
288 2 4.373258902193591 14.022450659505083 -3.119860652855607 0 0 0
1070 2 4.9018317828622155 13.839439695463383 0.11925166023489009 0 0 0
1069 1 2.177964010253582 14.477063301531508 -0.5492911333843167 0 0 0
292 1 1.8375713880742817 14.908114196614406 -3.160932889329629 0 0 0
232 2 2.589714168799599 11.996717635990507 0.4596260650953594 0 0 0
10200 1 -2.389516095606446 -7.325987935348783 -3.8890911585748587 0 0 1
293 2 7.247937422011537 12.81033816249527 -1.5228395339684782 0 0 0
1136 1 9.423090000685503 14.614877963289484 -0.7699642793357175 0 0 0
354 1 10.092530599527052 12.46540054880197 -1.972599487431168 0 0 0
297 1 9.04666425206534 14.515645614476409 -3.1852609837889254 0 0 0
1078 2 11.576564183339284 14.856678115755923 -2.244698855963443 0 0 0
239 1 11.859632668929294 13.211915408044426 0.08336206334625018 0 0 0
295 2 13.043604786500243 12.33088983907064 -2.3445092412868647 0 0 0
1134 2 14.916794131894221 13.656895124309774 -0.057361032468730144 0 0 0
1083 1 14.169070469070924 15.256865152023277 -2.3615024212892584 0 0 0
1192 2 13.236678837662417 15.93151880503143 0.3603635282979196 0 0 0
1086 1 16.963309136595765 11.089729925141441 -3.5734404745973327 0 0 0
10544 1 16.28312793283114 15.421129224496205 -1.4421556401993896 0 0 1
304 2 17.746645126379978 13.150985799543662 -1.5668661950500398 0 0 0
1034 1 19.28048066772472 11.753288718598693 0.36792598929208253 0 0 0
1141 2 18.864087037312217 15.858197974252672 -2.5354676405873082 0 0 0
1871 1 16.57185233865399 11.79037023002655 0.7129601621080868 0 0 0
1081 2 15.546990814699853 13.37996939730067 -3.77289222644524 0 0 0
1087 1 20.369776607072925 14.396040774880412 0.005319957209216852 0 0 0
10441 1 23.47465538060678 11.653974251979609 -2.605580195957355 0 0 1
359 2 20.8492489486328 12.539717902077566 -2.0797523547489845 0 0 0
1145 2 22.94505951246411 13.208361005836469 -0.4096126530818589 0 0 0
360 1 21.847276844790745 15.54813898491637 -1.8119742638286365 0 0 0
303 1 23.110444378163642 14.01780046862071 -3.251771525006008 0 0 0
368 2 24.97262296235089 15.932030852816986 -1.528876728730526 0 0 0
250 1 25.305645506733967 13.27794443695112 -2.121460661303071 0 0 0
260 1 27.61028050123327 14.726640673808589 -2.5224383345429526 0 0 0
1037 2 27.35660787802243 12.397897208911644 -0.4680487188006217 0 0 0
311 1 29.51054317264954 13.120797318321827 -1.7128712117707865 0 0 0
1934 1 27.61241320658327 15.183898856721754 -0.05348788168261365 0 0 0
307 2 27.255743348188357 12.027611414048788 -3.58123033638397 0 0 0
367 1 25.284615035290017 14.087372939559216 0.44069348677625086 0 0 0
1878 2 31.466191984149695 11.273726822131838 0.05611259343516384 0 0 0
1097 1 34.022647538671855 11.68151042772691 -0.8786075488410776 0 0 0
259 2 32.23151778708842 13.61658181127282 -2.127482337871613 0 0 0
1325 1 35.198717734087914 34.61688705350209 -3.963787107963447 0 0 0
254 2 30.024287991158538 15.977120239814393 -1.4718287177343665 0 0 0
10509 2 34.94160335721493 11.974226319755239 -3.54513476110944 0 0 1
375 2 35.20623024064609 14.249635412846413 -1.4860001452620284 0 0 0
262 1 37.55811738218421 13.297558905010924 -2.132294388763492 0 0 0
1881 1 36.51058572764012 12.762905935612007 0.30610307079095644 0 0 0
321 1 37.877750510928074 14.908122743861863 -0.07039378842354793 0 0 0
1052 2 39.08700425354941 12.207448175646729 -0.5067958669537815 0 0 0
1109 2 41.43242434195162 11.32020119076839 -2.0277938929886186 0 0 0
216 1 39.88327892971402 13.196126523685809 -3.480378883475526 0 0 0
1835 2 43.42904959052981 11.496381358536919 0.32833494158435705 0 0 0
1050 1 43.940897215128324 11.514541687193429 -2.979892949351516 0 0 0
379 2 39.92687032081298 15.13169066962752 -1.5959125561992913 0 0 0
331 1 41.91831472667406 13.697075428984398 -0.35281279417656064 0 0 0
10571 2 42.54369260130587 13.918395218277084 -3.153268961952155 0 0 1
332 1 42.88729974664137 15.887091535189494 -0.911748618861274 0 0 0
1111 1 46.20685237875215 11.344182039980588 -0.024979479213554256 0 0 0
1167 2 44.87974375767064 13.677889843478091 -1.2265290545478753 0 0 0
1054 2 46.97107114924352 11.799257779499236 -3.0440369866900467 0 0 0
1114 2 47.962426343968595 13.52965125897451 -0.1925663730223497 0 0 0
280 2 47.27069664237058 15.68772493263489 -3.138437615538134 0 0 0
10528 1 44.59076348363722 15.992775142253457 -2.8925962525822637 0 0 1
10578 1 49.07598987529713 16.032488667588414 -0.8283604574066792 0 0 1
10519 1 49.23160766240991 13.836458600704535 -2.393285538577185 0 0 1
10531 1 53.387828715961405 12.447254626795068 -1.8828478950349492 -1 0 1
283 2 51.49259992829419 14.456308241764958 -0.7461339685856685 -1 0 0
281 1 53.19640840009026 14.837337434122535 -3.0796949068274557 -1 0 0
1058 1 50.26305143262768 12.081896626635423 -0.9449008677546504 0 0 0
1121 2 51.369911092592865 12.820200787845653 -3.786171028209615 -1 0 0
1067 2 52.72686944061512 11.59059590327385 0.5671680288801966 -1 0 0
391 1 -1.7254971347561052 16.174431583017405 0.6703676174789788 1 0 0
10532 1 -1.1054183808321558 17.78847622690241 -1.1477435667757945 0 0 1
1177 1 -2.339356717584919 19.836342177582825 -1.520836145902582 0 0 0
226 2 -3.3422573295226323 17.403986440404832 -3.2721664314717422 0 0 0
445 2 -3.8128853557193625 17.68554346611662 0.009790401376466917 1 0 0
339 2 -0.8852993185498468 18.894713254390965 -3.9250758385692928 0 0 0
10535 1 -2.972204149676357 20.338772075512907 -3.8047643320643587 0 0 1
394 2 0.7974686218065079 20.122210133780538 -1.0546792673656977 0 0 0
1176 1 -3.919957245028266 20.528359720176766 0.7306470571791763 1 0 0
401 1 1.7020567810355223 19.66759505413887 -3.7318751914642374 0 0 0
1125 2 4.089350397482184 16.293838648913617 -1.30300120236438 0 0 0
349 2 4.3460239814687345 19.029122646846748 -2.7167003675500587 0 0 0
345 2 1.4090006359195915 17.3634118244812 -2.087602550720265 0 0 0
395 2 3.492309280912022 18.528392008177377 0.4149739556292369 0 0 0
10488 2 7.34196613174 16.228001210843303 -1.6439348598872057 0 0 1
1074 1 5.444352301987202 16.459457646499086 -3.6203860361283136 0 0 0
1132 1 7.2943972071196495 18.881455142389097 -3.2641124138989044 0 0 0
1187 2 6.525242507074941 18.833450728110144 -0.3221420866881122 0 0 0
1196 2 9.546780215881181 19.4597727628762 -1.52035325404263 0 0 0
1133 1 9.888334541448584 17.055488825058475 -2.698332331256448 0 0 0
1914 1 10.719656261906518 17.07162614966339 -0.30621161565015553 0 0 0
409 2 12.576566782598729 17.467584094234354 -3.072852312757884 0 0 0
1142 2 12.657778956523426 19.030056583854726 -0.5946710175577783 0 0 0
408 1 12.202024538379582 20.34146726727149 -2.796376527945686 0 0 0
1870 1 14.916313846784597 17.568295172264776 -1.3614943598912417 0 0 0
412 2 14.900787737967399 19.658910839633336 -3.359137237887467 0 0 0
406 1 16.089667169354144 19.74836887835924 -0.8460185509320519 0 0 0
417 2 18.98063486462344 20.07494075920613 -1.3977435568507164 0 0 0
411 2 17.33436528299111 17.328659296109308 0.14112297792803297 0 0 0
1257 1 17.021878207165848 18.121507506580613 -2.429360505361883 0 0 0
10659 1 17.487908171751663 20.434765340069564 -3.6688260294631716 0 0 1
1144 2 20.457142653815932 17.05577864627106 -0.05217892701344873 0 0 0
363 2 21.15094814444581 18.188107245007103 -2.671594750132997 0 0 0
369 1 23.202523520755328 17.80034523600584 -0.6833551718816984 0 0 0
357 2 21.497595974981433 19.818063710401432 0.4133303075628678 0 0 0
421 1 23.066669753075725 20.203663581491185 -2.158291979911663 0 0 0
423 2 25.404159532557564 19.365710182863157 -1.3668675180147796 0 0 0
10508 1 27.63086237475441 19.551476791752748 -2.808755443763034 0 0 1
313 1 27.5371784703274 17.34651403177513 -1.5286678023322016 0 0 0
10619 2 28.65144870774663 19.478303814731788 -0.07613187113576725 0 0 1
365 1 26.01511922964564 17.284115500712428 -3.6251584977229023 0 0 0
1926 1 26.711735027445236 17.655873080391515 0.6457985816856011 0 0 0
10564 2 29.04598422073041 17.218310638480432 -3.931866126472934 0 0 1
315 2 33.17401591742195 16.749833081945976 -1.4967714587149912 0 0 0
10622 1 30.426580158885464 19.156336185361443 -2.1377791294563644 0 0 1
1102 1 32.95778859725 19.327063628618692 -1.3516572656078192 0 0 0
1098 1 31.10060344736582 18.202795991130962 0.025578893805690228 0 0 0
370 1 34.82741531294302 17.972605277549764 -3.499334128830685 0 0 0
10760 1 1.3130300858923514 30.969069003714665 -3.723532689609799 0 0 1
1049 2 35.718841508143214 16.551681824629718 0.392477801286109 0 0 0