ITEM: TIMESTEP
0
ITEM: NUMBER OF ATOMS
6000
ITEM: BOX BOUNDS pp pp pp
1.8840875208346475e-01 2.7152591247916540e+01
1.8647095730495877e-01 2.7154529042695188e+01
7.4816734395736972e-01 1.0861583265604246e+02
ITEM: ATOMS id type x y z c_peratom fx fy fz 
122 2 5.64742 5.64141 6.21899 -25.8665 -0.828565 -0.406628 -0.81716 
601 2 5.51229 2.93858 3.38894 -26.0697 0.808682 -0.122634 0.0476219 
602 2 5.56219 2.76442 8.89341 -25.6595 -0.0656693 2.28566 0.128789 
1021 2 2.80062 5.61637 3.44563 -25.525 1.04008 -0.182247 -0.434752 
1022 2 2.86612 5.54104 8.85934 -25.5436 -0.119339 0.0599463 0.329472 
1502 2 2.85702 3.01921 6.09636 -25.7015 1.26111 -1.86732 0.657118 
2001 1 1.58797 1.47911 2.06901 -7.4244 0.193397 0.032876 -0.246324 
2002 1 1.47842 1.60806 7.44924 -7.31563 0.490979 -0.493568 0.192058 
2501 1 4.25435 4.37414 4.80673 -7.2127 -0.302588 -0.880447 -0.568195 
3001 1 4.18952 4.22142 2.00812 -7.42693 -0.497072 0.334478 0.384897 
3002 1 4.26442 4.28555 7.47624 -7.33779 -0.460341 -0.254638 0.517472 
3501 1 1.51709 1.54534 4.76679 -7.28894 1.43382 -0.867753 0.0196158 
4001 1 4.28632 1.59563 4.821 -7.47822 -1.19463 -0.350978 -0.452047 
4501 1 1.4297 4.14907 2.04608 -7.49902 1.18395 1.16575 0.0514658 
4502 1 1.52972 4.1665 7.44717 -7.7172 -0.370102 1.38683 0.319137 
5001 1 1.59986 4.18698 4.72437 -7.7758 -1.09517 1.16111 0.215897 
5501 1 4.33628 1.52839 2.0478 -7.31132 -1.40826 -0.201759 0.00715903 
5502 1 4.23212 1.57293 7.48008 -7.44326 -0.559493 -0.450046 0.134007 
2101 1 6.84976 1.53673 2.0634 -7.04971 1.38704 -0.0958348 -0.136916 
4601 1 6.87142 4.24633 2.05433 -7.56635 0.428613 0.291726 -0.435384 
5101 1 6.89617 4.24273 4.74551 -7.36168 0.120298 -0.0576257 0.642399 
5521 1 4.14688 6.90164 2.07185 -7.48773 -0.270586 0.345057 0.0210727 
3601 1 6.86895 1.56116 4.7506 -7.21933 0.624742 -0.852711 0.461019 
2021 1 1.38854 6.9119 2.08287 -8.10908 0.395111 0.185084 0.601758 
3521 1 1.47846 6.88084 4.86795 -7.70887 -0.624368 -0.220138 -0.0218335 
2022 1 1.49376 6.84255 7.61424 -7.7435 0.259302 0.594817 -0.801234 
1002 2 2.79788 0.211475 8.79736 -25.5898 0.344356 0.642214 0.881785 
2102 1 6.91646 1.50822 7.54564 -7.64653 -0.30823 0.0111943 -0.151529 
501 2 0.267644 2.89195 3.4199 -25.7345 -1.30345 -0.566292 0.620391 
4602 1 6.93361 4.25175 7.58992 -7.554 0.242604 -0.186116 -0.0577427 
222 2 11.0335 5.6423 6.14305 -25.3413 -0.653384 -0.821798 0.0503721 
701 2 10.8592 2.94657 3.4422 -25.8329 1.27389 -0.232796 -0.798606 
702 2 10.9094 2.80009 8.82369 -25.3525 0.830764 0.535408 -0.0535643 
1121 2 8.25687 5.58785 3.44409 -25.7198 -0.880924 0.508662 -1.03809 
1122 2 8.34329 5.60259 8.91017 -25.3874 -0.755466 -0.416973 -0.3173 
1602 2 8.20793 2.91321 6.12985 -25.708 -0.0340296 -0.293628 0.156031 
2201 1 12.3531 1.5345 2.08808 -7.43873 -0.963856 -0.6059 -0.817699 
2202 1 12.3855 1.55589 7.47529 -7.64899 -0.679161 -0.170061 0.100733 
2601 1 9.55326 4.32369 4.74502 -7.51802 0.602439 0.170274 0.593808 
3101 1 9.5883 4.30042 1.97554 -7.5999 -0.293151 -1.20134 1.0132 
3102 1 9.62146 4.16825 7.49877 -7.6695 -0.0131481 0.0581619 0.200881 
3701 1 12.2214 1.56458 4.75511 -7.1509 0.927223 0.18527 0.265378 
4101 1 9.57251 1.70239 4.75026 -7.26654 -0.504818 -1.19806 0.534317 
4701 1 12.3454 4.18373 2.13736 -7.27741 -0.515353 0.225606 -1.32196 
4702 1 12.2987 4.2255 7.52941 -7.69999 0.801599 0.410447 -0.505446 
5201 1 12.285 4.24682 4.73063 -7.57246 0.152464 0.773614 1.15503 
5601 1 9.58726 1.54754 2.08479 -7.53917 -0.0424655 0.52236 -0.365664 
5602 1 9.53369 1.35982 7.46578 -7.49918 1.13585 1.48444 -0.179651 
1101 2 8.25594 0.225825 3.38086 -25.6158 -1.21938 0.313296 0.218283 
2221 1 12.2872 6.84256 1.98193 -7.57345 -0.30693 0.75392 1.58078 
3621 1 6.95724 6.90088 4.80915 -7.47799 -0.520908 0.493461 -0.144273 
5621 1 9.53306 6.8896 2.04346 -7.66109 0.435452 1.41677 -0.318204 
5622 1 9.67611 6.89402 7.43345 -7.7108 0.320021 0.259819 0.788666 
1221 2 13.6446 5.62456 3.41158 -25.6247 0.152765 -0.388503 0.269296 
4021 1 4.15498 6.95175 4.73771 -7.14159 0.449643 1.08322 0.703964 
2121 1 6.81487 6.97135 2.02954 -7.38045 0.483059 -0.451493 -0.0310717 
5522 1 4.2763 6.96976 7.53042 -7.52968 -0.448837 -0.044679 -0.0354399 
142 2 5.62489 10.8926 6.05127 -25.6022 -1.11116 1.12272 0.761125 
621 2 5.57195 8.31546 3.34289 -25.8058 -0.10511 -0.979378 0.0775198 
622 2 5.59218 8.39746 8.85138 -25.3648 -0.43288 -1.25648 -0.471405 
1041 2 2.88305 11.0252 3.40428 -25.4961 0.198211 0.372511 -0.10333 
1042 2 2.73818 10.922 8.78498 -25.6422 0.986719 0.694064 0.804733 
1522 2 2.77901 8.26015 6.1757 -25.4191 0.463977 -0.684956 -0.248048 
2041 1 1.51373 12.4683 2.11573 -7.56516 0.153426 -1.477 0.00238857 
2042 1 1.55875 12.3821 7.606 -7.61844 -0.682884 -0.261909 -0.565632 
2521 1 4.24704 9.69151 4.62971 -7.45683 -0.372797 -0.244198 0.795772 
3021 1 4.35017 9.71089 1.98166 -7.43093 -1.14263 -0.62146 1.27895 
3022 1 4.11163 9.59068 7.39384 -7.62694 0.269387 0.372571 0.0996923 
3541 1 1.53389 12.2456 4.84095 -7.70121 -0.789982 0.364273 -0.109816 
4041 1 4.1945 12.4045 4.80405 -7.27959 0.61273 -0.838431 -0.4686 
4521 1 1.58905 9.67578 2.07063 -7.82731 -0.510684 0.0437487 0.335872 
4522 1 1.35002 9.64299 7.50337 -7.72377 0.877203 -0.879219 0.237778 
5021 1 1.51165 9.55915 4.82833 -7.65583 -0.129891 0.317705 -0.605175 
5541 1 4.27085 12.5181 2.04392 -7.71402 -0.152349 -0.951859 0.087825 
5542 1 4.24142 12.2788 7.55102 -7.16181 -0.301343 -0.180801 -1.20547 
3641 1 6.89312 12.3109 4.77536 -7.71229 0.381362 -0.519124 -0.289449 
2142 1 6.9277 12.2408 7.47326 -7.29503 0.5811 0.820944 -0.181132 
1542 2 2.86023 13.658 6.12424 -25.7776 -0.00998644 0.310863 0.343151 
642 2 5.44914 13.6642 8.8387 -25.598 0.903339 -0.33712 0.0352497 
141 2 5.61189 11.0127 0.79056 -25.6524 0.0483279 0.387809 -1.59062 
4622 1 6.88541 9.66367 7.48977 -7.7 0.500076 -0.467637 -0.867486 
5121 1 6.88968 9.5853 4.63457 -7.53937 0.443239 0.53239 1.48056 
1521 2 2.74194 8.20253 0.750232 -25.511 1.24802 1.51767 -0.501677 
2122 1 7.0192 6.96875 7.50887 -7.65696 -0.503047 -0.0108924 0.636734 
4621 1 7.06249 9.66521 2.06611 -7.28593 -0.17152 0.312065 0.0871378 
2222 1 12.356 6.98387 7.57511 -7.69318 0.0304728 -0.463952 -0.200729 
2141 1 6.98632 12.354 2.08418 -7.88618 0.130476 -0.564979 0.0292617 
3721 1 12.3238 7.00572 4.84834 -7.80519 0.0213426 -0.82189 -0.749733 
1642 2 8.24888 13.6428 6.12703 -25.5488 -0.323195 0.243064 0.144608 
242 2 10.9194 11.0107 6.06404 -25.5115 0.552957 -0.535573 0.393566 
721 2 10.9495 8.27328 3.43413 -25.2351 0.0601143 0.270549 -0.564317 
722 3 11.0533 8.26143 8.78269 -28.9203 -0.756967 0.66598 0.176207 
1141 3 8.26596 10.9876 3.44964 -29.1301 0.139385 -0.249299 -0.605649 
1142 3 8.29707 11.0466 8.82427 -29.0489 -0.303995 -1.07759 -0.56385 
1622 2 8.27251 8.26237 6.17356 -25.5784 0.382693 0.667941 -0.781695 
2241 1 12.3721 12.3132 2.04909 -7.55496 -0.305235 -0.69823 0.20862 
2242 1 12.2926 12.3763 7.44872 -7.59869 0.577679 -0.293769 0.295675 
2621 1 9.50725 9.67903 4.78804 -7.54778 0.744121 -0.00186249 -0.389748 
3121 1 9.69671 9.73002 2.07235 -7.78595 0.0748861 -1.34293 0.696857 
3122 1 9.61374 9.61822 7.43416 -7.54753 0.311917 -0.015894 0.567026 
3741 1 12.3796 12.3215 4.73693 -7.65088 -0.656941 -0.212179 0.112383 
4121 1 9.63299 7.00474 4.74046 -7.49908 0.199816 -0.310711 0.263924 
4141 1 9.53678 12.3092 4.72848 -7.8283 0.662977 0.275452 0.0975223 
4721 1 12.4403 9.51537 1.98688 -7.79397 -0.658798 0.479536 0.595289 
4722 1 12.3849 9.63059 7.29581 -7.4903 -1.16014 0.926109 1.54415 
5221 1 12.3174 9.6053 4.70295 -7.50696 -0.433878 0.702149 -0.486236 
5641 1 9.67517 12.3781 2.07186 -7.35724 -0.391693 -0.171137 0.185256 
5642 1 9.64695 12.3115 7.46146 -7.73229 -0.632368 0.54702 -0.208523 
1721 3 13.6557 8.27538 0.803396 -29.2106 0.041546 -0.148965 -0.725751 
1741 2 13.6412 13.6557 0.752305 -25.5925 0.894677 0.122998 -0.644716 
241 2 11.0205 10.8906 0.771313 -25.514 -0.0119637 1.77935 -1.2166 
1003 2 2.83625 0.248531 14.2713 -25.803 0.0253102 -0.619386 -0.277703 
24 3 0.247295 5.53242 16.7595 -29.1279 -0.00612212 0.366719 0.960239 
103 2 5.58222 0.216638 11.5049 -25.8004 -0.707122 -0.383387 1.12098 
123 3 5.62336 5.68199 11.4576 -29.0477 -0.228388 -1.44208 0.554086 
124 2 5.63847 5.6277 16.9532 -25.2444 -0.9462 -0.423276 -0.409974 
603 2 5.51248 2.95912 14.2038 -25.4849 1.37442 -0.891987 -0.648186 
1023 2 3.00419 5.62597 14.1762 -25.3248 -1.98479 -0.280391 0.813517 
1503 2 2.81366 2.86368 11.5487 -26.0464 0.209892 0.968773 -0.893809 
1504 3 2.87963 2.95073 16.9598 -28.7734 -0.0704504 -0.082093 -0.114532 
2003 1 1.59275 1.51536 12.8217 -7.53606 -1.48737 0.191899 0.626394 
2004 1 1.56089 1.50521 18.1226 -8.3243 -0.201646 1.09086 0.397331 
2502 1 4.18039 4.22746 10.1909 -7.43173 0.0158074 0.33626 -0.311949 
2503 1 4.28252 4.23947 15.5068 -8.00989 -0.608996 0.816816 1.17055 
3003 1 4.21674 4.22017 12.8117 -7.56111 0.409698 1.52874 0.214031 
3004 1 4.08301 4.23761 18.3222 -7.51288 0.685075 -0.611098 -1.18938 
3502 1 1.50065 1.60897 10.1674 -7.09889 0.195069 -0.849791 -0.755749 
3503 1 1.38424 1.54576 15.4601 -7.56459 0.0265705 0.597717 0.222025 
4002 1 4.13098 1.53477 10.1805 -7.494 0.47764 -0.485716 -0.167303 
4003 1 4.0161 1.51741 15.7252 -7.70911 0.481723 0.65362 -0.77477 
4503 1 1.54265 4.26458 12.8434 -7.69208 -0.49113 -0.0245592 0.761431 
4504 1 1.4832 4.27249 18.3269 -7.35837 0.0967845 -0.981782 -0.502674 
5002 1 1.37801 4.20392 10.1582 -7.36198 0.574953 0.919594 -0.12238 
5003 1 1.61362 4.26799 15.6374 -7.79898 -0.0167745 -0.218282 -0.230852 
5503 1 4.25017 1.61997 12.8739 -7.48391 0.25587 -0.832806 0.868162 
5504 1 4.29295 1.51956 18.3182 -7.46622 -1.12463 0.287626 0.0147272 
3603 1 6.77071 1.49894 15.5485 -7.54589 0.0364424 0.873108 -0.839469 
5102 1 6.91021 4.22655 10.3454 -7.20598 0.0105457 0.380261 -0.965508 
5524 1 4.33089 6.92369 18.3154 -7.62203 0.0411648 0.62228 -0.295652 
3522 1 1.50363 6.90876 10.2273 -7.69128 0.658644 -0.180388 0.548724 
4604 1 6.77697 4.19366 18.2407 -7.75452 0.690217 -0.14016 0.22867 
2104 1 6.92183 1.44938 18.1742 -7.44477 0.787254 0.139727 0.727712 
3602 1 6.86091 1.55561 10.314 -7.51032 0.915526 0.14606 -1.94959 
2123 1 6.90745 6.87358 12.7729 -7.5223 -0.0355172 0.154333 1.2064 
2024 1 1.60837 6.91427 18.2383 -7.47439 0.459209 0.16741 -0.816943 
104 2 5.52395 0.196543 16.8909 -25.7809 -0.561566 -0.89617 0.71873 
1703 2 13.6646 2.81033 11.5836 -25.645 0.819508 -0.210354 -0.130311 
3722 1 12.2957 6.88836 10.2001 -7.73988 0.468653 0.184573 -0.32026 
1704 2 13.6611 2.8368 16.8932 -25.7689 0.0627652 0.175063 0.292199 
4603 1 6.96982 4.20225 12.929 -7.20566 -0.0243397 0.385584 0.492655 
5103 1 6.93503 4.19416 15.563 -7.57425 0.0117202 0.44017 0.0806583 
1103 2 8.20095 0.197294 14.2514 -25.6492 -0.0151415 -0.181593 -1.34492 
4123 1 9.65342 6.77937 15.5203 -7.53631 0.215524 0.587773 1.07562 
3723 1 12.343 6.88576 15.471 -7.54494 -0.258214 0.395035 0.766538 
223 2 10.9848 5.55928 11.5284 -25.4109 -0.36547 -0.203424 0.739429 
224 3 11.017 5.56694 16.804 -29.0028 0.0722714 -0.325343 0.757253 
703 2 10.9529 2.81332 14.2186 -25.6376 0.0903747 0.340311 0.533352 
1123 3 8.31739 5.46213 14.2894 -29.1673 -0.319847 0.285384 -0.812104 
1603 3 8.31751 2.89127 11.5766 -29.5291 -0.889985 0.138716 0.204321 
1604 2 8.25343 2.87494 16.9128 -25.602 -0.550079 -0.875341 0.00925548 
2103 1 7.00011 1.52958 12.7933 -7.17231 -0.223836 0.248709 1.57315 
2203 1 12.3609 1.49239 12.9482 -7.66111 -0.0266816 -0.703875 -0.477882 
2204 1 12.2725 1.45859 18.3748 -7.21691 0.65565 0.0189531 -1.69102 
2602 1 9.57752 4.23953 10.2972 -7.73425 0.0193689 0.687467 -0.854912 
2603 1 9.55838 4.18592 15.5945 -7.73357 1.05786 0.0291233 0.0310141 
3103 1 9.64463 4.14742 12.9036 -7.54752 -0.358551 0.367527 0.262305 
3104 1 9.51207 4.09714 18.3107 -7.50965 0.27752 0.991853 -0.645131 
3702 1 12.3311 1.39942 10.2364 -7.64549 -0.0840936 0.359295 -0.281077 
3703 1 12.3009 1.4897 15.6337 -7.66791 -0.11223 0.0429017 0.0705542 
4102 1 9.57508 1.62487 10.1484 -7.86398 -0.207934 -1.19315 0.653128 
4103 1 9.5074 1.5071 15.4971 -7.63589 0.636239 0.558204 0.935553 
4703 1 12.3152 4.12117 12.9556 -7.42545 0.305927 0.996954 -0.958724 
4704 1 12.2697 4.14955 18.2137 -7.21335 -0.420311 0.488616 -0.228882 
5202 1 12.2613 4.09958 10.2356 -7.68546 0.492299 0.560765 -0.188807 
5203 1 12.3378 4.26405 15.5427 -7.46019 -0.531056 -0.569628 0.591925 
5603 1 9.64774 1.4724 12.8631 -7.56086 -0.0123988 -0.0681008 -0.540151 
5604 1 9.62696 1.43143 18.2302 -7.33438 -0.867459 0.150943 -0.10126 
2223 1 12.3462 6.90307 12.8277 -7.58535 -0.0791352 0.0230523 -0.100045 
2224 1 12.3437 6.83736 18.1681 -7.70465 0.373029 0.0216604 0.0880311 
2124 1 7.06413 6.88936 18.3289 -7.88494 -1.18498 0.802933 -0.623167 
3623 1 7.01045 6.8647 15.5856 -7.94091 -0.337009 0.4112 -0.541428 
5624 1 9.69212 6.88414 18.2231 -7.44965 0.35152 -0.563003 0.0228682 
5623 1 9.61733 6.84375 12.999 -7.6409 -0.395495 0.158778 -1.6655 
3622 1 6.9211 6.9319 10.2089 -7.81933 -0.287881 0.0928009 -0.728683 
3523 1 1.55592 6.95157 15.5398 -7.6027 0.468108 0.250907 0.535729 
5523 1 4.23616 7.01716 12.9638 -7.85134 0.340451 -0.34465 -1.04034 
1543 3 2.68024 13.578 11.4607 -29.1596 0.88888 0.170176 0.598224 
4023 1 4.29193 7.0689 15.6156 -7.95229 -0.55418 -1.20816 0.547962 
44 2 0.265491 11.1345 16.7967 -25.3115 -0.447611 -1.7308 1.23929 
143 2 5.48799 10.9639 11.5065 -25.4589 0.212748 0.843619 -0.0491509 
144 2 5.60673 11.0668 16.9493 -25.6897 -0.416995 -0.857764 -0.972248 
523 3 0.198235 8.32244 14.2071 -29.0209 0.233931 -0.598868 -0.133142 
623 2 5.59342 8.31338 14.2885 -25.3888 0.211988 0.311145 -0.516436 
1043 3 2.89388 10.9768 14.1101 -29.5365 -0.211083 0.661702 0.46062 
1523 2 2.83813 8.28469 11.5112 -25.4041 0.0290413 0.326015 0.815164 
1524 3 2.88297 8.34936 16.7915 -28.8789 0.147251 -0.183833 0.378991 
2023 1 1.5448 6.96431 12.9633 -7.61467 0.67312 0.667655 -0.813658 
2043 1 1.53841 12.3757 12.8432 -7.29918 -0.659978 -0.577983 0.344174 
2044 1 1.56173 12.5113 18.1584 -7.63498 0.200997 -0.496686 0.169585 
2522 1 4.2092 9.67686 10.1316 -7.87031 0.112091 -0.458493 0.491553 
2523 1 4.24166 9.68643 15.5455 -7.2404 -0.507293 -0.0675392 0.121987 
3023 1 4.16525 9.70259 12.9399 -7.62658 -0.0444565 -0.416015 -0.89835 
3024 1 4.20679 9.67248 18.1483 -7.52926 0.544318 -0.301323 0.448001 
3542 1 1.30221 12.2435 10.2781 -7.56032 0.614663 0.290926 -0.512284 
3543 1 1.57231 12.3133 15.4791 -7.75377 0.338639 0.668038 0.0210718 
4022 1 4.2269 6.94829 10.2419 -7.77267 0.0712822 -0.0212181 0.100483 
4042 1 4.03832 12.3471 10.1376 -7.42297 -0.44116 -0.104279 0.741877 
4043 1 4.25327 12.3124 15.4259 -7.22723 -0.731357 0.0926448 0.585621 
4523 1 1.52263 9.78651 12.714 -7.3832 0.106038 -0.926859 0.624535 
4524 1 1.58701 9.59101 18.1533 -7.84692 -0.278722 0.775905 -0.924335 
5022 1 1.57124 9.58006 10.1639 -7.49731 -0.665777 -0.327412 -0.496258 
5023 1 1.55401 9.66037 15.3384 -7.85645 -0.272641 -0.345522 0.840226 
5543 1 4.17702 12.3686 12.804 -7.54313 -0.275221 -0.0887329 -0.531445 
5544 1 4.21246 12.4134 18.0911 -7.70116 0.171292 -0.103739 0.693749 
2143 1 6.90366 12.3119 12.858 -7.33573 -0.309243 -1.09604 -0.529041 
4623 1 6.83618 9.60293 12.8384 -7.84046 0.345709 -0.104189 0.304823 
3643 1 6.91645 12.3531 15.5786 -7.37116 0.215598 -0.446099 0.0969157 
3642 1 6.8079 12.311 10.1073 -7.82917 0.614701 0.356733 0.519862 
643 2 5.52335 13.6135 14.1593 -25.9283 0.461578 0.810005 -0.292705 
1743 3 13.6255 13.6524 11.5431 -28.8708 0.671166 0.0592633 -0.225134 
244 3 11.0755 10.8735 16.9704 -29.0145 -0.992718 0.395541 -0.202264 
243 2 10.9716 10.9602 11.5086 -25.2392 -0.00910739 0.196617 -0.245225 
4724 1 12.3967 9.52822 18.3525 -8.01744 0.357391 0.422012 -0.976948 
3742 1 12.359 12.3987 10.236 -7.85464 -0.0488788 -0.405632 -0.238767 
3743 1 12.3326 12.3619 15.5901 -7.72545 -0.240484 -1.15753 -0.546398 
5222 1 12.3221 9.65825 10.0176 -7.85026 0.284463 -0.298047 0.607263 
2244 1 12.2877 12.192 18.2278 -7.34102 0.767102 -0.142752 0.168486 
5223 1 12.3519 9.59128 15.6281 -8.0593 -0.303665 0.417805 0.00939027 
4142 1 9.6097 12.2681 10.0738 -8.06793 -0.21478 0.355305 0.651644 
4122 1 9.61661 7.05531 10.1533 -7.80788 0.313428 -0.958398 0.392246 
4143 1 9.60536 12.3193 15.5802 -7.43561 0.826512 -0.709192 -0.571716 
2144 1 6.97786 12.3813 18.3072 -7.95258 0.034084 -0.539731 -0.299254 
4624 1 7.01454 9.63368 18.2701 -7.69179 -0.494529 0.342902 0.833801 
4723 1 12.3064 9.63359 12.8678 -7.99348 0.00900196 -0.351927 -0.284347 
2243 1 12.3296 12.3264 12.906 -7.71945 -0.216492 0.302714 -0.0812125 
1624 2 8.29933 8.24221 16.9184 -25.615 0.794323 0.214185 0.25666 
1623 2 8.19918 8.27418 11.5262 -25.298 1.15376 0.292336 -0.0885906 
1143 2 8.2921 10.9774 14.2198 -25.6143 -0.581769 0.433447 0.592245 
5122 1 6.95441 9.67498 10.106 -7.73882 0.320119 -0.053789 0.893713 
5123 1 6.93552 9.66222 15.6486 -7.65453 0.15193 -0.538967 -0.932254 
3124 1 9.7073 9.55435 18.2148 -7.30016 0.248549 0.215926 0.920552 
723 2 10.9592 8.18741 14.2182 -25.3259 -0.00959173 0.628376 0.155274 
3123 1 9.55879 9.66413 12.8934 -7.92244 0.422466 -0.788723 -0.318213 
2623 1 9.63891 9.5649 15.646 -7.58935 0.557952 0.00962351 -1.15165 
2622 1 9.68569 9.66026 10.1278 -7.2711 -0.462686 -0.0497333 0.310449 
5644 1 9.66984 12.205 18.1681 -7.682 -0.313022 0.484718 0.666134 
5643 1 9.55136 12.3899 12.8434 -7.68284 1.08532 -0.375877 -0.30125 
1643 2 8.27379 13.5873 11.3791 -25.3958 -0.668973 1.04012 1.06193 
1644 2 8.34413 13.6219 16.9349 -25.5621 -0.673963 0.720247 -0.0853669 
125 3 5.66287 5.52581 22.2808 -29.1769 -0.869375 0.285082 0.0851901 
504 3 0.277958 2.819 19.5082 -29.0348 -1.01078 1.2129 0.665673 
505 3 0.278894 2.89206 24.9948 -28.8034 -0.657807 -0.178213 -1.19969 
604 2 5.61845 2.78073 19.6288 -25.6817 -0.916327 0.811559 0.129649 
605 2 5.50786 2.85425 24.8719 -25.2587 0.164218 -0.0830811 0.0081734 
1024 2 2.96397 5.63729 19.6315 -25.6747 -0.872105 -1.0942 -0.0691085 
1025 3 2.87627 5.50903 24.9534 -28.7486 0.166138 0.272666 -0.892333 
1505 3 2.85544 2.92374 22.2676 -29.6477 0.538052 -0.203672 -0.19076 
2005 1 1.70112 1.60294 23.5338 -7.48647 -1.52695 -0.422391 -0.0577025 
2504 1 4.31026 4.24132 20.9948 -7.255 0.239348 0.285744 -0.478198 
2505 1 4.22954 4.1801 26.2767 -7.98194 -0.801082 0.128855 -1.00844 
3005 1 4.10349 4.22382 23.5383 -7.43073 1.14393 -1.05993 1.21272 
3504 1 1.49296 1.55578 20.8367 -7.81083 -0.321691 0.236613 -0.191954 
3505 1 1.51951 1.44716 26.1839 -7.6772 -0.287123 0.626356 0.0143234 
4004 1 4.16875 1.58335 20.9871 -7.37842 0.192717 -0.310028 0.0380229 
4005 1 4.07994 1.47409 26.1289 -7.6645 1.19393 0.410789 1.36829 
4505 1 1.54525 4.20628 23.6184 -7.53579 -0.519249 0.0246795 0.228568 
5004 1 1.63623 4.20186 20.9786 -7.49052 -0.164863 0.259838 -0.0683452 
5005 1 1.48794 4.12835 26.164 -8.18618 0.20397 1.0294 0.734972 
5505 1 4.16903 1.49186 23.6289 -7.10867 1.15916 0.400782 -0.871567 
2105 1 6.87199 1.40022 23.5503 -7.96418 0.446403 1.08421 0.634391 
5525 1 4.32331 6.7384 23.5863 -7.23371 -0.321486 1.05238 0.441261 
126 2 5.59736 5.52548 27.5013 -25.7738 -0.386309 0.352996 2.40209 
25 2 0.327113 5.60632 22.3264 -25.4798 -1.80099 -0.991123 -0.6382 
1005 3 2.82903 0.222474 24.9059 -29.4863 0.907383 -0.48999 -0.0262389 
4605 1 6.92918 4.24255 23.5855 -7.96484 -0.390895 -0.471647 -0.0774504 
106 2 5.55637 0.234574 27.5788 -25.6645 0.209996 0.0319194 0.240267 
5105 1 6.91629 4.19859 26.236 -7.55764 -0.156286 0.503899 -0.565578 
3605 1 6.9052 1.60103 26.346 -7.63644 -0.336174 -0.584906 -1.23954 
2025 1 1.59701 6.83883 23.6465 -7.67284 0.733021 0.469768 0.530876 
4025 1 4.14182 6.90845 26.2504 -7.86407 -0.599503 -0.223107 -0.280732 
1506 2 2.81884 2.75208 27.5294 -25.3746 0.517326 0.975643 1.15316 
26 2 0.200997 5.62939 27.5773 -25.2438 -1.25256 -0.412615 0.675935 
5 2 0.246415 0.252531 22.3201 -25.4717 -0.485654 -0.203677 -0.110472 
5104 1 6.97195 4.19088 20.936 -7.7578 0.162246 -0.266428 0.232636 
3604 1 6.96648 1.42771 20.8442 -7.64601 -0.429448 0.416855 0.439682 
225 2 11.0678 5.6125 22.2893 -25.4967 0.158029 -1.21115 -0.216509 
704 2 10.9534 2.84209 19.6185 -26.1811 0.752202 0.00703536 -0.315389 
705 2 10.9621 2.91508 24.9663 -25.38 0.834319 -0.628972 -0.0550575 
1124 2 8.24659 5.54462 19.5834 -25.4701 1.52217 -0.660342 0.885163 
1125 2 8.30155 5.6324 24.9425 -25.38 -0.291939 -0.761891 0.603239 
1605 2 8.29336 2.7672 22.2994 -25.3592 0.0272002 0.955278 -0.704939 
2205 1 12.3168 1.43664 23.6065 -7.45987 0.0177582 1.07504 -0.0849857 
2604 1 9.73712 4.21465 20.9327 -7.19115 -0.959153 0.189463 0.777019 
2605 1 9.5169 4.15331 26.3267 -7.58512 0.920014 0.783156 -0.432785 
3105 1 9.69221 4.15074 23.6557 -7.69933 -0.665146 0.447512 -0.556474 
3704 1 12.3908 1.38924 20.9027 -7.19898 -0.568215 0.807999 1.38935 
3705 1 12.255 1.56201 26.3558 -7.90543 0.789787 -0.063241 -0.125326 
4104 1 9.57877 1.53085 20.87 -7.52218 0.387945 -1.09308 0.317851 
4105 1 9.59289 1.49408 26.1906 -7.67838 -0.120977 0.457397 0.294343 
4705 1 12.4475 4.20209 23.6093 -7.7417 0.160847 0.25404 0.305327 
5204 1 12.3791 4.22037 20.9004 -7.4711 0.6662 0.00933789 0.305603 
5205 1 12.3243 4.29592 26.3536 -7.38062 -0.260013 -0.786839 -0.316835 
5605 1 9.64266 1.38865 23.5189 -7.72782 -0.481973 -0.111422 0.466983 
3724 1 12.413 6.92004 20.8975 -7.72689 0.0119062 -0.660187 0.145772 
226 2 10.9699 5.58281 27.6979 -25.834 0.462163 0.00552369 -0.32279 
1606 3 8.27479 2.89345 27.4764 -29.5362 -0.39764 -0.242254 1.90401 
5625 1 9.7235 6.87202 23.7075 -7.73805 0.140982 0.186586 -0.956728 
4124 1 9.69306 6.87184 21.0038 -7.76403 -0.276657 0.766022 -0.776651 
3624 1 6.93151 6.91538 21.0066 -7.84951 0.45059 -0.15327 -0.172435 
3725 1 12.4008 6.91922 26.3269 -7.24264 0.586436 0.670593 -0.214871 
3525 1 1.39322 6.98124 26.3295 -7.92081 1.16326 -0.445522 -0.603007 
4024 1 4.32049 6.96962 20.9874 -7.84254 -0.529865 -0.122823 -0.348256 
3625 1 6.86525 6.96768 26.3623 -7.57686 0.773144 -0.26783 -0.612456 
3524 1 1.52092 6.92943 20.9442 -8.08942 1.16967 0.0743688 0.044078 
46 2 0.189727 11.0001 27.7083 -25.5857 -0.737534 0.210319 -0.920085 
45 2 0.237983 10.9981 22.1738 -25.7204 -0.383303 -0.227084 0.932406 
145 2 5.62548 11.0596 22.193 -25.6877 -0.792822 -0.911175 1.27446 
524 2 0.276871 8.1936 19.541 -25.9034 -1.21298 1.08124 -0.287406 
624 2 5.6549 8.31549 19.6758 -25.2091 0.064074 0.0109443 -1.20295 
625 2 5.51303 8.27872 24.9341 -26.0078 0.636836 0.0818539 0.199113 
1044 2 2.86146 10.9884 19.4844 -25.4399 0.268349 1.16796 -0.233505 
1045 2 2.83859 11.0631 24.9974 -25.4672 0.256989 -0.805596 -0.513237 
1525 2 2.93838 8.26712 22.1885 -25.3392 -0.196315 0.19428 1.48164 
2045 1 1.45414 12.3525 23.646 -7.67519 0.792171 -0.277699 0.18241 
2524 1 4.3186 9.73543 20.8277 -7.80391 -0.212202 -0.458199 0.312482 
2525 1 4.24544 9.73336 26.2786 -7.23453 -0.714908 -1.17505 0.111144 
3025 1 4.25113 9.54353 23.5823 -7.41759 -1.41347 0.427244 -0.594151 
3544 1 1.55218 12.3592 20.9179 -7.60638 0.216058 0.190583 -0.770706 
3545 1 1.45901 12.4028 26.3818 -7.67224 1.02312 -0.393646 -0.755015 
4044 1 4.26248 12.4213 20.8549 -7.76043 -0.0953114 0.0758531 0.061384 
4045 1 4.2838 12.3285 26.3211 -7.5322 -0.668269 1.22898 0.30815 
4525 1 1.45948 9.52204 23.4754 -7.28204 1.18122 0.462593 0.877445 
5024 1 1.62 9.68136 20.8718 -7.62312 0.0263235 -0.651693 -0.682319 
5025 1 1.4714 9.6683 26.2265 -7.77071 0.142083 -0.0791846 0.269833 
5545 1 4.2124 12.3558 23.6786 -7.42818 -0.634245 -0.308732 -1.04259 
1526 2 2.82039 8.26228 27.6297 -25.5508 0.656678 0.969715 -0.0254279 
4625 1 6.85764 9.65156 23.6088 -6.84362 0.802581 -0.737466 -0.502423 
2145 1 6.85734 12.2344 23.6851 -7.49724 0.968699 1.64802 -0.567556 
146 2 5.59154 11.0815 27.6899 -25.7806 0.092231 -1.03696 -0.12884 
2125 1 6.98482 6.97221 23.6756 -7.49191 0.144321 -0.42602 -0.477401 
4125 1 9.68884 6.93064 26.3381 -7.56215 -0.475833 -0.137426 -0.196983 
3644 1 6.96656 12.3115 20.9066 -7.71177 0.35617 0.602776 0.0396758 
3645 1 7.00946 12.2649 26.3836 -7.35296 0.588742 0.938763 0.364286 
5125 1 6.96592 9.64386 26.2527 -7.14541 -0.231641 -0.623746 1.14456 
245 2 11.0806 10.9225 22.2763 -25.2929 -1.0788 0.0876378 0.0546767 
724 2 11.1343 8.21748 19.5917 -25.4164 -1.54542 -0.306902 0.18053 
725 2 11.0601 8.26675 24.9095 -25.511 0.0464102 0.0802804 1.38426 
1144 3 8.33568 11.0242 19.5585 -28.8603 0.336746 -0.580177 0.0249844 
1145 2 8.29153 10.888 24.9442 -25.9202 -0.077006 0.970726 0.0835256 
1625 2 8.34002 8.27326 22.2017 -25.436 -0.459527 0.100562 1.06082 
2225 1 12.4786 6.93857 23.6019 -8.10107 0.179542 -0.12772 -0.183365 
2245 1 12.2591 12.2903 23.7829 -8.09819 0.700452 0.331372 -1.03731 
2624 1 9.78774 9.64758 20.9283 -7.68675 -0.110722 -0.370441 -0.939641 
2625 1 9.6546 9.64142 26.355 -7.69719 0.563931 0.0771899 -0.448145 
3125 1 9.60577 9.56666 23.5476 -7.71981 0.751618 -0.0229707 0.862339 
3744 1 12.3424 12.1884 20.9357 -7.64468 0.850854 -0.627821 0.486114 
3745 1 12.4493 12.2642 26.4603 -7.36368 -0.173955 0.383922 -0.371852 
4144 1 9.66332 12.3532 20.8321 -7.66464 -0.581754 -0.735461 0.500922 
4145 1 9.74555 12.3415 26.2615 -7.51402 -0.0403477 -0.299472 0.329527 
4725 1 12.3853 9.57173 23.5694 -7.83117 0.312752 0.209694 0.00338108 
5124 1 7.0493 9.69459 20.9802 -7.76139 0.216217 -0.495307 -1.14264 
5224 1 12.575 9.52461 21.0104 -7.52267 -0.737198 -0.0587535 0.0388151 
5225 1 12.3899 9.6502 26.1828 -7.113 -0.314459 -0.530415 0.742045 
5645 1 9.57947 12.2476 23.5655 -7.67235 0.429607 0.429847 -0.112526 
246 2 10.9958 10.9883 27.7127 -25.5375 0.281683 0.0484235 -0.633355 
1645 2 8.30533 13.6102 22.2589 -25.3101 0.5081 0.400461 -0.442463 
1626 2 8.34019 8.33274 27.6461 -25.7176 -1.40098 -0.613318 0.478234 
745 3 11.0063 13.6263 24.9433 -28.8978 -0.389278 0.114208 0.900468 
1646 3 8.42335 13.664 27.6838 -28.9919 -0.922161 -0.151665 -0.231384 
744 2 11.0032 13.5973 19.5562 -25.7679 -0.087756 0.328935 -0.65367 
127 2 5.52531 5.63863 33.0668 -25.6957 0.819894 0.307114 -0.816398 
606 2 5.54721 2.84775 30.3156 -26.363 0.571207 0.961651 -0.14605 
607 2 5.60382 2.93047 35.7429 -25.3965 -0.6796 0.339135 0.490014 
1026 2 2.87307 5.62032 30.2916 -25.8493 0.544653 -0.48374 -0.00502618 
1027 2 2.89484 5.71245 35.7645 -25.4049 -0.552559 -0.86075 -0.42125 
1507 2 2.85078 2.93581 33.0437 -25.7176 0.0264479 0.054101 -0.555254 
2006 1 1.42791 1.47732 28.9517 -7.70913 1.21051 0.59057 0.378486 
2007 1 1.44804 1.61834 34.4096 -7.66793 0.997846 -0.231385 -0.206311 
2506 1 4.25128 4.25496 31.6171 -7.14789 0.0431094 0.365259 0.508872 
3006 1 4.2461 4.16383 28.9284 -7.02553 -0.530554 1.00903 -0.330964 
3007 1 4.18279 4.29908 34.316 -7.55326 0.189746 -0.366769 0.665022 
3506 1 1.49413 1.59788 31.69 -7.44905 -0.229538 -0.391668 0.347988 
4006 1 4.13021 1.5764 31.6456 -7.03486 0.374703 -0.138449 0.518057 
4506 1 1.5141 4.15559 28.8595 -7.42566 -0.169766 0.689273 -0.279955 
4507 1 1.48453 4.33771 34.3416 -7.51039 0.464001 -0.393473 0.381348 
5006 1 1.58264 4.24508 31.5594 -7.40586 -0.527654 0.46377 0.952209 
5506 1 4.28091 1.53661 28.9425 -7.37371 -1.22869 -0.33899 -0.66845 
5507 1 4.27248 1.56655 34.3738 -7.94723 -0.818435 0.316929 0.498549 
3606 1 6.85282 1.57906 31.726 -7.37711 0.210828 -0.476844 0.604302 
4607 1 6.92602 4.30896 34.4218 -7.86809 -0.297478 0.404985 -0.0546318 
2126 1 6.91114 6.89617 29.0506 -6.91346 -0.132431 0.792794 -0.596242 
107 2 5.59477 0.229074 33.2011 -25.3984 -0.442493 -0.762847 -2.01246 
1007 2 2.87186 0.270181 35.7678 -25.4234 -0.751634 -0.754011 -0.0716923 
1706 2 13.6309 2.8465 27.72 -25.2618 -0.557905 1.35218 -0.497444 
2107 1 6.97142 1.57491 34.508 -7.95586 -0.0738439 0.0856186 -0.477609 
4606 1 6.9544 4.25112 28.9376 -6.87798 0.186872 0.118915 -0.155049 
5106 1 6.96156 4.26981 31.7015 -7.30749 -0.00676204 0.0794129 0.271237 
2106 1 6.95968 1.64476 28.9639 -7.06996 0.0224712 -0.954496 0.146304 
1707 2 13.6141 2.97315 33.1383 -25.4303 1.19985 0.207003 -1.14596 
227 3 10.9661 5.74357 32.9914 -29.2691 -0.373091 -0.290477 0.795467 
706 2 10.9564 2.92618 30.422 -25.8011 -0.265806 0.369827 -0.731567 
707 2 10.9382 2.99961 35.8011 -25.3239 0.270523 -0.239002 0.269284 
1126 2 8.26904 5.61962 30.3451 -26.0598 -0.318254 -0.460999 -0.150183 
1127 2 8.30359 5.66802 35.7435 -25.5619 -0.372046 0.681424 -0.159892 
1607 2 8.27902 3.00643 33.1382 -25.3521 0.0640159 -0.51049 -1.05994 
2206 1 12.2513 1.54111 29.1555 -7.43076 0.372415 -0.331837 -1.3252 
2207 1 12.398 1.72495 34.4609 -7.65633 -0.730678 -1.11124 0.524379 
2606 1 9.69469 4.38098 31.7022 -7.49719 -0.784384 0.275786 0.439393 
3106 1 9.66811 4.14923 28.9407 -7.26312 -0.388574 0.577918 0.500562 
3107 1 9.61599 4.33326 34.4542 -7.80245 0.0196709 0.147873 -0.511627 
3706 1 12.3393 1.61975 31.7634 -7.66497 -0.533787 0.0802761 0.666326 
4106 1 9.53906 1.71237 31.681 -7.69112 0.490754 -0.44416 1.04568 
4706 1 12.3324 4.24378 29.1012 -7.48583 0.27955 0.00260646 -0.256066 
4707 1 12.2496 4.39993 34.3861 -7.44633 0.421275 -0.34989 0.529133 
5206 1 12.2502 4.37615 31.7858 -7.43501 1.049 -0.378817 -0.179453 
5606 1 9.58682 1.47177 28.9149 -7.21594 0.193213 -0.00098703 -0.17396 
5607 1 9.64235 1.58824 34.5509 -7.77316 0.187097 -0.0643591 -1.04507 
1206 2 13.6513 0.218491 30.4144 -25.6102 -0.524648 0.193933 0.144291 
207 2 11.0217 0.290212 33.1456 -25.3266 -0.480477 -0.557978 -0.153428 
1107 2 8.20148 0.190879 35.8342 -25.3791 1.12294 0.123393 0.693588 
1106 2 8.28479 0.269917 30.3457 -25.767 -0.710492 -0.0489764 -0.436906 
5526 1 4.20425 7.00894 28.9507 -7.31313 -0.128107 -0.725943 -0.00274698 
2026 1 1.47795 6.93575 29.061 -7.5507 0.224385 -0.0710466 -0.51937 
2147 1 6.89121 12.4016 34.4587 -7.74612 -0.210285 0.20395 -0.582697 
3526 1 1.49507 6.96212 31.7625 -7.30834 0.2762 0.570319 -0.849763 
147 3 5.60068 11.1311 33.1415 -29.0589 0.109286 -0.933921 -0.365821 
626 2 5.58226 8.36844 30.3741 -25.8325 0.123759 -0.632408 -0.0227168 
627 2 5.60407 8.44655 35.7911 -25.3212 0.112004 -0.863028 -0.703925 
1046 2 2.88358 11.0791 30.4721 -25.5103 -0.420479 -0.550951 -1.46723 
1047 3 2.92133 11.0016 35.8422 -28.5327 -0.507042 0.387296 -0.801149 
1527 2 2.856 8.39414 33.0348 -25.5089 0.0827955 -0.740779 0.616678 
2027 1 1.36343 7.05494 34.3464 -7.31419 1.59976 0.0742798 1.51351 