LAMMPS data file via write_data, version 22 Dec 2022, timestep = 5

4 atoms
1 atom types

-0.0013814506313239623 3.845279450631324 xlo xhi
-0.0013814506313239623 3.845279450631324 ylo yhi
-0.0013814506313239623 3.845279450631324 zlo zhi

Masses

1 102.91

Atoms # atomic

1 1 -0.00138145063132396 -0.001381450631323962 -0.0013814506313239623 0 0 0
2 1 -0.0013814506313239623 1.9219490000000001 1.9219490000000001 0 0 0
3 1 1.9219490000000001 -0.0013814506313239623 1.9219490000000001 0 0 0
4 1 1.9219490000000001 1.9219490000000001 -0.0013814506313239623 0 0 0

Velocities

1 0 0 0
2 0 0 0
3 0 0 0
4 0 0 0
