LAMMPS data file via write_data, version 22 Dec 2022, timestep = 9

4 atoms
1 atom types

-0.005656119430369349 3.9824261194303703 xlo xhi
-0.005656119430369349 3.9824261194303703 ylo yhi
-0.005656119430369349 3.9824261194303703 zlo zhi

Masses

1 195.08

Atoms # atomic

4 1 1.9883849999999996 1.9883849999999996 -0.005656119430369255 0 0 0
3 1 1.9883849999999996 -0.005656119430369255 1.9883849999999998 0 0 0
2 1 -0.005656119430369255 1.9883849999999996 1.9883849999999998 0 0 0
1 1 -0.005656119430369255 3.98242611943037 3.98242611943037 0 -1 -1

Velocities

4 0 0 0
3 0 0 0
2 0 0 0
1 0 0 0
