LAMMPS (22 Dec 2022)
  using 1 OpenMP thread(s) per MPI task
Loaded 1 plugins from C:\Program Files\LAMMPS 64-bit 23Jun2022\plugins
Loaded 0 plugins from C:\Program Files\LAMMPS 64-bit 23Jun2022-MPI\plugins
Loaded 1 plugins from C:\Program Files\LAMMPS 64-bit 22Dec2022-MSMPI\plugins
Loaded 1 plugins from C:\Program Files\LAMMPS 64-bit 28Mar2023-MPI\plugins
# Compute elastic constant tensor for a crystal
#
# Written by Aidan Thompson (Sandia, athomps@sandia.gov)
#
#  This script uses the following three include files.
#
#   init.mod      (must be modified for different crystal structures)
# 	       	  Define units, deformation parameters and initial
#		  configuration of the atoms and simulation cell.
#
#
#   potential.mod    (must be modified for different pair styles)
# 		     Define pair style and other attributes
#		     not stored in restart file
#
#
#   displace.mod    (displace.mod should not need to be modified)
# 		    Perform positive and negative box displacements
# 		    in direction ${dir} and size ${up}.
# 		    It uses the resultant changes
#		    in stress to compute one
# 		    row of the elastic stiffness tensor
#
#		    Inputs variables:
#		    	   dir = the Voigt deformation component
#		    		    (1,2,3,4,5,6)
#		    Global constants:
#       	    	   up = the deformation magnitude (strain units)
#       		   cfac = conversion from LAMMPS pressure units to
#               	   output units for elastic constants
#
#
#  To run this on a different system, it should only be necessary to
#  modify the files init.mod and potential.mod. In order to calculate
#  the elastic constants correctly, care must be taken to specify
#  the correct units in init.mod (units, cfac and cunits). It is also
#  important to verify that the minimization of energy w.r.t atom
#  positions in the deformed cell is fully converged.
#  One indication of this is that the elastic constants are insensitive
#  to the choice of the variable ${up} in init.mod. Another is to check
#  the final max and two-norm forces reported in the log file. If you know
#  that minimization is not required, you can set maxiter = 0.0 in
#  init.mod.
#

include init.mod
# NOTE: This script can be modified for different atomic structures,
# units, etc. See in.elastic for more info.
#

# Define the finite deformation size. Try several values of this
# variable to verify that results do not depend on it.
variable up equal 1.0e-6

# Define the amount of random jiggle for atoms
# This prevents atoms from staying on saddle points
variable atomjiggle equal 1.0e-5

# Uncomment one of these blocks, depending on what units
# you are using in LAMMPS and for output

# metal units, elastic constants in eV/A^3
#units		metal
#variable cfac equal 6.2414e-7
#variable cunits string eV/A^3

# metal units, elastic constants in GPa
units		metal
variable cfac equal 1.0e-4
variable cunits string GPa

# real units, elastic constants in GPa
#units		real
#variable cfac equal 1.01325e-4
#variable cunits string GPa

# Define minimization parameters
variable etol equal 0.0
variable ftol equal 1.0e-10
variable maxiter equal 1000
variable maxeval equal 100000
variable dmax equal 1.0e-2

# generate the box and atom positions using a diamond lattice

dimension    3
boundary     p p p
read_data    data.in
Reading data file ...
  orthogonal box = (-0.0013814506 -0.0013814506 -0.0013814506) to (3.8452795 3.8452795 3.8452795)
  1 by 2 by 2 MPI processor grid
  reading atoms ...
  4 atoms
  reading velocities ...
  4 velocities
  read_data CPU = 0.001 seconds
#replicate    2 3 4
replicate    2 3 4
Replication is creating a 2x3x4 = 24 times larger system...
  orthogonal box = (-0.0013814506 -0.0013814506 -0.0013814506) to (7.6919404 11.538601 15.385262)
  1 by 2 by 2 MPI processor grid
  96 atoms
  replicate CPU = 0.000 seconds
change_box   all triclinic
Changing box ...
  triclinic box = (-0.0013814506 -0.0013814506 -0.0013814506) to (7.6919404 11.538601 15.385262) with tilt (0 0 0)

# Need to set mass to something, just to satisfy LAMMPS
mass 1 1.0e-20

include potential.mod
# NOTE: This script can be modified for different pair styles
# See in.elastic for more info.

# Choose potential
#-----------------------
#pair_style	sw
#pair_coeff * * Si.sw Si
#-----------------------
#pair_style morse	2.83994742	# D0[eV] a[1/A] r0[A] rc[A], 1NN for BCC
#pair_coeff 1 1	2.1173	1.0202	2.4595	2.6497	#	Fe-Fe
#-----------------------
#pair_style smatb # R0(A)   p       q     A(eV)   xi(eV)  Rcs(A)   Rc(A), 4NN: Rcs=4NN, Rc=(4NN+5NN)/2
#pair_coeff 1 1	2.4802	7.0149	2.3779	0.3144	3.0551	4.033	4.176	#	Co	Co
#-----------------------
#pair_style eam/alloy
#pair_coeff * * AlCrFeCoNi_Zhou04.eam.alloy Fe
#-----------------------
pair_style meam
#pair_coeff * * ./../../library.meam Pt Pd Rh ./../../PtPdRh.meam Pt
#pair_coeff * * ./../../library.meam Pt Pd Rh ./../../PtPdRh.meam Pd
pair_coeff * * ./../../library.meam Pt Pd Rh ./../../PtPdRh.meam Rh
#-----------------------

# Setup neighbor style
neighbor 1.0 nsq
neigh_modify once no every 1 delay 0 check yes

# Setup minimization style
min_style	     cg
min_modify	     dmax ${dmax} line quadratic
min_modify	     dmax 0.01 line quadratic

# Setup output
thermo		1
thermo_style custom step temp pe press pxx pyy pzz pxy pxz pyz lx ly lz vol
thermo_modify norm no

# Compute initial state
fix 3 all box/relax  aniso 0.0
minimize ${etol} ${ftol} ${maxiter} ${maxeval}
minimize 0 ${ftol} ${maxiter} ${maxeval}
minimize 0 1e-10 ${maxiter} ${maxeval}
minimize 0 1e-10 1000 ${maxeval}
minimize 0 1e-10 1000 100000
Neighbor list info ...
  update: every = 1 steps, delay = 0 steps, check = yes
  max neighbors/atom: 2000, page size: 100000
  master list distance cutoff = 5
  ghost atom cutoff = 5
  2 neighbor lists, perpetual/occasional/extra = 2 0 0
  (1) pair meam, perpetual
      attributes: full, newton on
      pair build: full/nsq
      stencil: none
      bin: none
  (2) pair meam, perpetual, half/full from (1)
      attributes: half, newton on
      pair build: halffull/newton
      stencil: none
      bin: none
Per MPI rank memory allocation (min/avg/max) = 9.775 | 9.775 | 9.775 Mbytes
   Step          Temp          PotEng         Press           Pxx            Pyy            Pzz            Pxy            Pxz            Pyz             Lx             Ly             Lz           Volume    
         0   0             -549.12         3.4461167e-10  2.5845875e-10  4.2926192e-10  3.4611433e-10 -1.6105559e-11 -1.5397559e-11 -1.0371781e-11  7.6933218      11.539983      15.386644      1366.0385    
         1   0             -549.12         1.2267608e-10  3.7566679e-11  2.1062385e-10  1.1983771e-10  2.4302572e-11  2.3231014e-11  1.4366785e-11  7.6933218      11.539983      15.386644      1366.0385    
Loop time of 0.00046025 on 4 procs for 1 steps with 96 atoms

0.0% CPU use with 4 MPI tasks x 1 OpenMP threads

Minimization stats:
  Stopping criterion = force tolerance
  Energy initial, next-to-last, final = 
     -549.120000010431  -549.120000010431  -549.120000010431
  Force two-norm initial, final = 5.4299435e-13 3.7439899e-13
  Force max component initial, final = 3.6599483e-13 1.795809e-13
  Final line search alpha, max atom move = 1 1.795809e-13
  Iterations, force evaluations = 1 2

MPI task timing breakdown:
Section |  min time  |  avg time  |  max time  |%varavg| %total
---------------------------------------------------------------
Pair    | 0.000331   | 0.00033325 | 0.000335   |   0.0 | 72.41
Neigh   | 0          | 0          | 0          |   0.0 |  0.00
Comm    | 3.4e-05    | 3.675e-05  | 4e-05      |   0.0 |  7.98
Output  | 0          | 0          | 0          |   0.0 |  0.00
Modify  | 0          | 0          | 0          |   0.0 |  0.00
Other   |            | 9.025e-05  |            |       | 19.61

Nlocal:             24 ave          24 max          24 min
Histogram: 4 0 0 0 0 0 0 0 0 0
Nghost:            300 ave         300 max         300 min
Histogram: 4 0 0 0 0 0 0 0 0 0
Neighs:            504 ave         504 max         504 min
Histogram: 4 0 0 0 0 0 0 0 0 0
FullNghs:         1008 ave        1008 max        1008 min
Histogram: 4 0 0 0 0 0 0 0 0 0

Total # of neighbors = 4032
Ave neighs/atom = 42
Neighbor list builds = 0
Dangerous builds = 0

variable tmp equal pxx
variable pxx0 equal ${tmp}
variable pxx0 equal 3.75666788823822e-11
variable tmp equal pyy
variable pyy0 equal ${tmp}
variable pyy0 equal 2.10623846267234e-10
variable tmp equal pzz
variable pzz0 equal ${tmp}
variable pzz0 equal 1.19837705634801e-10
variable tmp equal pyz
variable pyz0 equal ${tmp}
variable pyz0 equal 1.43667847045698e-11
variable tmp equal pxz
variable pxz0 equal ${tmp}
variable pxz0 equal 2.32310141822457e-11
variable tmp equal pxy
variable pxy0 equal ${tmp}
variable pxy0 equal 2.43025721158191e-11

variable tmp equal lx
variable lx0 equal ${tmp}
variable lx0 equal 7.6933218025253
variable tmp equal ly
variable ly0 equal ${tmp}
variable ly0 equal 11.5399827037879
variable tmp equal lz
variable lz0 equal ${tmp}
variable lz0 equal 15.3866436050506

# These formulas define the derivatives w.r.t. strain components
# Constants uses $, variables use v_
variable d1 equal -(v_pxx1-${pxx0})/(v_delta/v_len0)*${cfac}
variable d1 equal -(v_pxx1-3.75666788823822e-11)/(v_delta/v_len0)*${cfac}
variable d1 equal -(v_pxx1-3.75666788823822e-11)/(v_delta/v_len0)*0.0001
variable d2 equal -(v_pyy1-${pyy0})/(v_delta/v_len0)*${cfac}
variable d2 equal -(v_pyy1-2.10623846267234e-10)/(v_delta/v_len0)*${cfac}
variable d2 equal -(v_pyy1-2.10623846267234e-10)/(v_delta/v_len0)*0.0001
variable d3 equal -(v_pzz1-${pzz0})/(v_delta/v_len0)*${cfac}
variable d3 equal -(v_pzz1-1.19837705634801e-10)/(v_delta/v_len0)*${cfac}
variable d3 equal -(v_pzz1-1.19837705634801e-10)/(v_delta/v_len0)*0.0001
variable d4 equal -(v_pyz1-${pyz0})/(v_delta/v_len0)*${cfac}
variable d4 equal -(v_pyz1-1.43667847045698e-11)/(v_delta/v_len0)*${cfac}
variable d4 equal -(v_pyz1-1.43667847045698e-11)/(v_delta/v_len0)*0.0001
variable d5 equal -(v_pxz1-${pxz0})/(v_delta/v_len0)*${cfac}
variable d5 equal -(v_pxz1-2.32310141822457e-11)/(v_delta/v_len0)*${cfac}
variable d5 equal -(v_pxz1-2.32310141822457e-11)/(v_delta/v_len0)*0.0001
variable d6 equal -(v_pxy1-${pxy0})/(v_delta/v_len0)*${cfac}
variable d6 equal -(v_pxy1-2.43025721158191e-11)/(v_delta/v_len0)*${cfac}
variable d6 equal -(v_pxy1-2.43025721158191e-11)/(v_delta/v_len0)*0.0001

displace_atoms all random ${atomjiggle} ${atomjiggle} ${atomjiggle} 87287 units box
displace_atoms all random 1e-05 ${atomjiggle} ${atomjiggle} 87287 units box
displace_atoms all random 1e-05 1e-05 ${atomjiggle} 87287 units box
displace_atoms all random 1e-05 1e-05 1e-05 87287 units box
Displacing atoms ...

# Write restart
unfix 3
write_restart restart.equil
System init for write_restart ...

# uxx Perturbation

variable dir equal 1
include displace.mod
# NOTE: This script should not need to be
# modified. See in.elastic for more info.
#
# Find which reference length to use

if "${dir} == 1" then    "variable len0 equal ${lx0}"
variable len0 equal ${lx0}
variable len0 equal 7.6933218025253
if "${dir} == 2" then    "variable len0 equal ${ly0}"
if "${dir} == 3" then    "variable len0 equal ${lz0}"
if "${dir} == 4" then    "variable len0 equal ${lz0}"
if "${dir} == 5" then    "variable len0 equal ${lz0}"
if "${dir} == 6" then    "variable len0 equal ${ly0}"

# Reset box and simulation parameters

clear
  using 1 OpenMP thread(s) per MPI task
Loaded 1 plugins from C:\Program Files\LAMMPS 64-bit 23Jun2022\plugins
Loaded 0 plugins from C:\Program Files\LAMMPS 64-bit 23Jun2022-MPI\plugins
Loaded 1 plugins from C:\Program Files\LAMMPS 64-bit 22Dec2022-MSMPI\plugins
Loaded 1 plugins from C:\Program Files\LAMMPS 64-bit 28Mar2023-MPI\plugins
box tilt large

The 'box' command has been removed and will be ignored

read_restart restart.equil
Reading restart file ...
  restart file = 22 Dec 2022, LAMMPS = 22 Dec 2022
  restoring atom style atomic from restart
  triclinic box = (-0.0013814506 -0.0013814506 -0.0013814506) to (7.6919404 11.538601 15.385262) with tilt (0 0 0)
  1 by 2 by 2 MPI processor grid
  pair style meam stores no restart info
  96 atoms
  read_restart CPU = 0.000 seconds
include potential.mod
# NOTE: This script can be modified for different pair styles
# See in.elastic for more info.

# Choose potential
#-----------------------
#pair_style	sw
#pair_coeff * * Si.sw Si
#-----------------------
#pair_style morse	2.83994742	# D0[eV] a[1/A] r0[A] rc[A], 1NN for BCC
#pair_coeff 1 1	2.1173	1.0202	2.4595	2.6497	#	Fe-Fe
#-----------------------
#pair_style smatb # R0(A)   p       q     A(eV)   xi(eV)  Rcs(A)   Rc(A), 4NN: Rcs=4NN, Rc=(4NN+5NN)/2
#pair_coeff 1 1	2.4802	7.0149	2.3779	0.3144	3.0551	4.033	4.176	#	Co	Co
#-----------------------
#pair_style eam/alloy
#pair_coeff * * AlCrFeCoNi_Zhou04.eam.alloy Fe
#-----------------------
pair_style meam
#pair_coeff * * ./../../library.meam Pt Pd Rh ./../../PtPdRh.meam Pt
#pair_coeff * * ./../../library.meam Pt Pd Rh ./../../PtPdRh.meam Pd
pair_coeff * * ./../../library.meam Pt Pd Rh ./../../PtPdRh.meam Rh
#-----------------------

# Setup neighbor style
neighbor 1.0 nsq
neigh_modify once no every 1 delay 0 check yes

# Setup minimization style
min_style	     cg
min_modify	     dmax ${dmax} line quadratic
min_modify	     dmax 0.01 line quadratic

# Setup output
thermo		1
thermo_style custom step temp pe press pxx pyy pzz pxy pxz pyz lx ly lz vol
thermo_modify norm no

# Negative deformation

variable delta equal -${up}*${len0}
variable delta equal -1e-06*${len0}
variable delta equal -1e-06*7.6933218025253
variable deltaxy equal -${up}*xy
variable deltaxy equal -1e-06*xy
variable deltaxz equal -${up}*xz
variable deltaxz equal -1e-06*xz
variable deltayz equal -${up}*yz
variable deltayz equal -1e-06*yz
if "${dir} == 1" then    "change_box all x delta 0 ${delta} xy delta ${deltaxy} xz delta ${deltaxz} remap units box"
change_box all x delta 0 ${delta} xy delta ${deltaxy} xz delta ${deltaxz} remap units box
change_box all x delta 0 -7.6933218025253e-06 xy delta ${deltaxy} xz delta ${deltaxz} remap units box
change_box all x delta 0 -7.6933218025253e-06 xy delta -0 xz delta ${deltaxz} remap units box
change_box all x delta 0 -7.6933218025253e-06 xy delta -0 xz delta -0 remap units box
Changing box ...
  triclinic box = (-0.0013814506 -0.0013814506 -0.0013814506) to (7.6919327 11.538601 15.385262) with tilt (0 0 0)
  triclinic box = (-0.0013814506 -0.0013814506 -0.0013814506) to (7.6919327 11.538601 15.385262) with tilt (0 0 0)
  triclinic box = (-0.0013814506 -0.0013814506 -0.0013814506) to (7.6919327 11.538601 15.385262) with tilt (0 0 0)
if "${dir} == 2" then    "change_box all y delta 0 ${delta} yz delta ${deltayz} remap units box"
if "${dir} == 3" then    "change_box all z delta 0 ${delta} remap units box"
if "${dir} == 4" then    "change_box all yz delta ${delta} remap units box"
if "${dir} == 5" then    "change_box all xz delta ${delta} remap units box"
if "${dir} == 6" then    "change_box all xy delta ${delta} remap units box"

# Relax atoms positions

minimize ${etol} ${ftol} ${maxiter} ${maxeval}
minimize 0 ${ftol} ${maxiter} ${maxeval}
minimize 0 1e-10 ${maxiter} ${maxeval}
minimize 0 1e-10 1000 ${maxeval}
minimize 0 1e-10 1000 100000
Neighbor list info ...
  update: every = 1 steps, delay = 0 steps, check = yes
  max neighbors/atom: 2000, page size: 100000
  master list distance cutoff = 5
  ghost atom cutoff = 5
  2 neighbor lists, perpetual/occasional/extra = 2 0 0
  (1) pair meam, perpetual
      attributes: full, newton on
      pair build: full/nsq
      stencil: none
      bin: none
  (2) pair meam, perpetual, half/full from (1)
      attributes: half, newton on
      pair build: halffull/newton
      stencil: none
      bin: none
Per MPI rank memory allocation (min/avg/max) = 9.76 | 9.762 | 9.766 Mbytes
   Step          Temp          PotEng         Press           Pxx            Pyy            Pzz            Pxy            Pxz            Pyz             Lx             Ly             Lz           Volume    
         1   0             -549.12         2.4828132      3.5285063      1.9599714      1.959962      -8.1178182e-06  1.570783e-05  -1.1981014e-05  7.6933141      11.539983      15.386644      1366.0372    
         2   0             -549.12         2.4826012      3.5282963      1.9597547      1.9597527     -2.0256056e-08  1.6128367e-06 -1.8923418e-06  7.6933141      11.539983      15.386644      1366.0372    
         3   0             -549.12         2.4825822      3.5282764      1.9597352      1.9597349     -3.5588177e-07  1.901044e-07  -5.9282006e-07  7.6933141      11.539983      15.386644      1366.0372    
         4   0             -549.12         2.4825796      3.5282736      1.9597325      1.9597326     -5.1991322e-08  6.2679383e-08 -1.7778268e-07  7.6933141      11.539983      15.386644      1366.0372    
         5   0             -549.12         2.482579       3.5282731      1.959732       1.9597321      1.2982918e-08  2.4409359e-08 -6.66067e-08    7.6933141      11.539983      15.386644      1366.0372    
         6   0             -549.12         2.4825788      3.5282729      1.9597318      1.9597319      2.0665061e-08  4.4190582e-09 -4.2270053e-09  7.6933141      11.539983      15.386644      1366.0372    
         7   0             -549.12         2.4825787      3.5282728      1.9597317      1.9597317      6.9616263e-09 -2.4415595e-09  1.2391105e-08  7.6933141      11.539983      15.386644      1366.0372    
         8   0             -549.12         2.4825787      3.5282728      1.9597316      1.9597316      8.8692245e-10 -1.1837527e-09  7.1039617e-09  7.6933141      11.539983      15.386644      1366.0372    
         9   0             -549.12         2.4825787      3.5282728      1.9597316      1.9597316      4.2768921e-10 -3.2697312e-10  2.1119278e-09  7.6933141      11.539983      15.386644      1366.0372    
        10   0             -549.12         2.4825787      3.5282728      1.9597316      1.9597316      5.8879655e-10  5.801066e-11   1.6400078e-11  7.6933141      11.539983      15.386644      1366.0372    
        11   0             -549.12         2.4825787      3.5282728      1.9597316      1.9597316      9.2216252e-11  6.6955288e-11 -1.3207459e-10  7.6933141      11.539983      15.386644      1366.0372    
        12   0             -549.12         2.4825787      3.5282728      1.9597316      1.9597316     -4.1667904e-12  1.070435e-11  -1.6787534e-11  7.6933141      11.539983      15.386644      1366.0372    
        13   0             -549.12         2.4825787      3.5282728      1.9597316      1.9597316      3.9459469e-13 -7.4947743e-12  2.727863e-11   7.6933141      11.539983      15.386644      1366.0372    
        14   0             -549.12         2.4825787      3.5282728      1.9597316      1.9597316      1.5528744e-12 -1.9963849e-11 -2.1877225e-13  7.6933141      11.539983      15.386644      1366.0372    
        15   0             -549.12         2.4825787      3.5282728      1.9597316      1.9597316     -7.0907293e-12  5.1822895e-12 -1.0847445e-11  7.6933141      11.539983      15.386644      1366.0372    
        16   0             -549.12         2.4825787      3.5282728      1.9597316      1.9597316      6.2600825e-13  2.1616468e-12 -2.6830568e-11  7.6933141      11.539983      15.386644      1366.0372    
        17   0             -549.12         2.4825787      3.5282728      1.9597316      1.9597316     -2.0392806e-11  1.4221869e-11 -1.4595832e-13  7.6933141      11.539983      15.386644      1366.0372    
        18   0             -549.12         2.4825787      3.5282728      1.9597316      1.9597316      9.2739641e-12 -2.3083128e-12  2.864785e-11   7.6933141      11.539983      15.386644      1366.0372    
        19   0             -549.12         2.4825787      3.5282728      1.9597316      1.9597316      1.0924682e-12 -1.0359616e-11  1.5290666e-11  7.6933141      11.539983      15.386644      1366.0372    
        20   0             -549.12         2.4825787      3.5282728      1.9597316      1.9597316      3.3969329e-12  1.0948848e-11  1.7012645e-11  7.6933141      11.539983      15.386644      1366.0372    
        21   0             -549.12         2.4825787      3.5282728      1.9597316      1.9597316     -7.5793639e-12 -1.216585e-11  -2.2405516e-12  7.6933141      11.539983      15.386644      1366.0372    
        22   0             -549.12         2.4825787      3.5282728      1.9597316      1.9597316      1.5669654e-12 -1.601059e-11  -2.2472188e-11  7.6933141      11.539983      15.386644      1366.0372    
        23   0             -549.12         2.4825787      3.5282728      1.9597316      1.9597316     -5.6965852e-12  2.2695028e-11 -1.1012572e-11  7.6933141      11.539983      15.386644      1366.0372    
        24   0             -549.12         2.4825787      3.5282728      1.9597316      1.9597316      2.6659767e-11 -1.1090799e-11  1.2213568e-11  7.6933141      11.539983      15.386644      1366.0372    
Loop time of 0.00626425 on 4 procs for 23 steps with 96 atoms

0.0% CPU use with 4 MPI tasks x 1 OpenMP threads

Minimization stats:
  Stopping criterion = force tolerance
  Energy initial, next-to-last, final = 
     -549.119999943989  -549.120000008926  -549.120000008926
  Force two-norm initial, final = 0.0015161492 7.5745812e-11
  Force max component initial, final = 0.00022933006 1.1810147e-11
  Final line search alpha, max atom move = 1 1.1810147e-11
  Iterations, force evaluations = 23 46

MPI task timing breakdown:
Section |  min time  |  avg time  |  max time  |%varavg| %total
---------------------------------------------------------------
Pair    | 0.004819   | 0.0050498  | 0.005204   |   0.2 | 80.61
Neigh   | 0          | 0          | 0          |   0.0 |  0.00
Comm    | 0.00054    | 0.00069525 | 0.000927   |   0.0 | 11.10
Output  | 0.000197   | 0.000225   | 0.000263   |   0.0 |  3.59
Modify  | 0          | 0          | 0          |   0.0 |  0.00
Other   |            | 0.0002943  |            |       |  4.70

Nlocal:             24 ave          29 max          21 min
Histogram: 1 0 2 0 0 0 0 0 0 1
Nghost:            300 ave         303 max         295 min
Histogram: 1 0 0 0 0 0 0 2 0 1
Neighs:            504 ave         616 max         436 min
Histogram: 1 0 2 0 0 0 0 0 0 1
FullNghs:         1008 ave        1218 max         882 min
Histogram: 1 0 2 0 0 0 0 0 0 1

Total # of neighbors = 4032
Ave neighs/atom = 42
Neighbor list builds = 0
Dangerous builds = 0

# Obtain new stress tensor

variable tmp equal pxx
variable pxx1 equal ${tmp}
variable pxx1 equal 3.52827279701894
variable tmp equal pyy
variable pyy1 equal ${tmp}
variable pyy1 equal 1.95973159316298
variable tmp equal pzz
variable pzz1 equal ${tmp}
variable pzz1 equal 1.95973159310851
variable tmp equal pxy
variable pxy1 equal ${tmp}
variable pxy1 equal 2.66597674205797e-11
variable tmp equal pxz
variable pxz1 equal ${tmp}
variable pxz1 equal -1.10907993047581e-11
variable tmp equal pyz
variable pyz1 equal ${tmp}
variable pyz1 equal 1.22135675300995e-11

# Compute elastic constant from pressure tensor

variable C1neg equal ${d1}
variable C1neg equal 352.827279698137
variable C2neg equal ${d2}
variable C2neg equal 195.973159295236
variable C3neg equal ${d3}
variable C3neg equal 195.973159298867
variable C4neg equal ${d4}
variable C4neg equal -2.1532171744703e-10
variable C5neg equal ${d5}
variable C5neg equal -3.43218134870038e-09
variable C6neg equal ${d6}
variable C6neg equal 2.3571953047606e-10

# Reset box and simulation parameters

clear
  using 1 OpenMP thread(s) per MPI task
Loaded 1 plugins from C:\Program Files\LAMMPS 64-bit 23Jun2022\plugins
Loaded 0 plugins from C:\Program Files\LAMMPS 64-bit 23Jun2022-MPI\plugins
Loaded 1 plugins from C:\Program Files\LAMMPS 64-bit 22Dec2022-MSMPI\plugins
Loaded 1 plugins from C:\Program Files\LAMMPS 64-bit 28Mar2023-MPI\plugins
box tilt large

The 'box' command has been removed and will be ignored

read_restart restart.equil
Reading restart file ...
  restart file = 22 Dec 2022, LAMMPS = 22 Dec 2022
  restoring atom style atomic from restart
  triclinic box = (-0.0013814506 -0.0013814506 -0.0013814506) to (7.6919404 11.538601 15.385262) with tilt (0 0 0)
  1 by 2 by 2 MPI processor grid
  pair style meam stores no restart info
  96 atoms
  read_restart CPU = 0.000 seconds
include potential.mod
# NOTE: This script can be modified for different pair styles
# See in.elastic for more info.

# Choose potential
#-----------------------
#pair_style	sw
#pair_coeff * * Si.sw Si
#-----------------------
#pair_style morse	2.83994742	# D0[eV] a[1/A] r0[A] rc[A], 1NN for BCC
#pair_coeff 1 1	2.1173	1.0202	2.4595	2.6497	#	Fe-Fe
#-----------------------
#pair_style smatb # R0(A)   p       q     A(eV)   xi(eV)  Rcs(A)   Rc(A), 4NN: Rcs=4NN, Rc=(4NN+5NN)/2
#pair_coeff 1 1	2.4802	7.0149	2.3779	0.3144	3.0551	4.033	4.176	#	Co	Co
#-----------------------
#pair_style eam/alloy
#pair_coeff * * AlCrFeCoNi_Zhou04.eam.alloy Fe
#-----------------------
pair_style meam
#pair_coeff * * ./../../library.meam Pt Pd Rh ./../../PtPdRh.meam Pt
#pair_coeff * * ./../../library.meam Pt Pd Rh ./../../PtPdRh.meam Pd
pair_coeff * * ./../../library.meam Pt Pd Rh ./../../PtPdRh.meam Rh
#-----------------------

# Setup neighbor style
neighbor 1.0 nsq
neigh_modify once no every 1 delay 0 check yes

# Setup minimization style
min_style	     cg
min_modify	     dmax ${dmax} line quadratic
min_modify	     dmax 0.01 line quadratic

# Setup output
thermo		1
thermo_style custom step temp pe press pxx pyy pzz pxy pxz pyz lx ly lz vol
thermo_modify norm no

# Positive deformation

variable delta equal ${up}*${len0}
variable delta equal 1e-06*${len0}
variable delta equal 1e-06*7.6933218025253
variable deltaxy equal ${up}*xy
variable deltaxy equal 1e-06*xy
variable deltaxz equal ${up}*xz
variable deltaxz equal 1e-06*xz
variable deltayz equal ${up}*yz
variable deltayz equal 1e-06*yz
if "${dir} == 1" then    "change_box all x delta 0 ${delta} xy delta ${deltaxy} xz delta ${deltaxz} remap units box"
change_box all x delta 0 ${delta} xy delta ${deltaxy} xz delta ${deltaxz} remap units box
change_box all x delta 0 7.6933218025253e-06 xy delta ${deltaxy} xz delta ${deltaxz} remap units box
change_box all x delta 0 7.6933218025253e-06 xy delta 0 xz delta ${deltaxz} remap units box
change_box all x delta 0 7.6933218025253e-06 xy delta 0 xz delta 0 remap units box
Changing box ...
  triclinic box = (-0.0013814506 -0.0013814506 -0.0013814506) to (7.691948 11.538601 15.385262) with tilt (0 0 0)
  triclinic box = (-0.0013814506 -0.0013814506 -0.0013814506) to (7.691948 11.538601 15.385262) with tilt (0 0 0)
  triclinic box = (-0.0013814506 -0.0013814506 -0.0013814506) to (7.691948 11.538601 15.385262) with tilt (0 0 0)
if "${dir} == 2" then    "change_box all y delta 0 ${delta} yz delta ${deltayz} remap units box"
if "${dir} == 3" then    "change_box all z delta 0 ${delta} remap units box"
if "${dir} == 4" then    "change_box all yz delta ${delta} remap units box"
if "${dir} == 5" then    "change_box all xz delta ${delta} remap units box"
if "${dir} == 6" then    "change_box all xy delta ${delta} remap units box"

# Relax atoms positions

minimize ${etol} ${ftol} ${maxiter} ${maxeval}
minimize 0 ${ftol} ${maxiter} ${maxeval}
minimize 0 1e-10 ${maxiter} ${maxeval}
minimize 0 1e-10 1000 ${maxeval}
minimize 0 1e-10 1000 100000
Neighbor list info ...
  update: every = 1 steps, delay = 0 steps, check = yes
  max neighbors/atom: 2000, page size: 100000
  master list distance cutoff = 5
  ghost atom cutoff = 5
  2 neighbor lists, perpetual/occasional/extra = 2 0 0
  (1) pair meam, perpetual
      attributes: full, newton on
      pair build: full/nsq
      stencil: none
      bin: none
  (2) pair meam, perpetual, half/full from (1)
      attributes: half, newton on
      pair build: halffull/newton
      stencil: none
      bin: none
Per MPI rank memory allocation (min/avg/max) = 9.76 | 9.762 | 9.766 Mbytes
   Step          Temp          PotEng         Press           Pxx            Pyy            Pzz            Pxy            Pxz            Pyz             Lx             Ly             Lz           Volume    
         1   0             -549.12        -2.4823283     -3.5280219     -1.9594768     -1.9594862     -8.1177922e-06  1.5707878e-05 -1.1981123e-05  7.6933295      11.539983      15.386644      1366.0399    
         2   0             -549.12        -2.4825403     -3.5282319     -1.9596934     -1.9596955     -2.0277361e-08  1.6128073e-06 -1.8923355e-06  7.6933295      11.539983      15.386644      1366.0399    
         3   0             -549.12        -2.4825594     -3.5282518     -1.9597129     -1.9597133     -3.5588292e-07  1.9011922e-07 -5.9278907e-07  7.6933295      11.539983      15.386644      1366.0399    
         4   0             -549.12        -2.4825619     -3.5282546     -1.9597156     -1.9597156     -5.2023582e-08  6.2664641e-08 -1.7778223e-07  7.6933295      11.539983      15.386644      1366.0399    
         5   0             -549.12        -2.4825625     -3.5282551     -1.9597162     -1.9597161      1.2998437e-08  2.4435704e-08 -6.6615037e-08  7.6933295      11.539983      15.386644      1366.0399    
         6   0             -549.12        -2.4825627     -3.5282553     -1.9597164     -1.9597163      2.0678982e-08  4.4426839e-09 -4.2556158e-09  7.6933295      11.539983      15.386644      1366.0399    
         7   0             -549.12        -2.4825628     -3.5282554     -1.9597165     -1.9597165      6.9346257e-09 -2.4726029e-09  1.2394178e-08  7.6933295      11.539983      15.386644      1366.0399    
         8   0             -549.12        -2.4825628     -3.5282554     -1.9597166     -1.9597165      8.6466989e-10 -1.1980535e-09  7.1026217e-09  7.6933295      11.539983      15.386644      1366.0399    
         9   0             -549.12        -2.4825628     -3.5282554     -1.9597166     -1.9597166      4.3751792e-10 -3.2172481e-10  2.0740713e-09  7.6933295      11.539983      15.386644      1366.0399    
        10   0             -549.12        -2.4825628     -3.5282554     -1.9597166     -1.9597166      5.7871815e-10  6.1351767e-11 -1.9414424e-11  7.6933295      11.539983      15.386644      1366.0399    
        11   0             -549.12        -2.4825629     -3.5282554     -1.9597166     -1.9597166      1.0597944e-10  5.7930056e-11 -1.3182342e-10  7.6933295      11.539983      15.386644      1366.0399    
        12   0             -549.12        -2.4825629     -3.5282554     -1.9597166     -1.9597166     -1.8089314e-11  3.561019e-12  -1.587175e-11   7.6933295      11.539983      15.386644      1366.0399    
        13   0             -549.12        -2.4825629     -3.5282554     -1.9597166     -1.9597166     -8.5468826e-13 -1.0550387e-11  2.6024487e-12  7.6933295      11.539983      15.386644      1366.0399    
        14   0             -549.12        -2.4825629     -3.5282554     -1.9597166     -1.9597166      1.7001346e-11  2.2714649e-11  1.3493426e-11  7.6933295      11.539983      15.386644      1366.0399    
        15   0             -549.12        -2.4825629     -3.5282554     -1.9597166     -1.9597166      5.072923e-12  -2.9511233e-11 -8.1021221e-12  7.6933295      11.539983      15.386644      1366.0399    
        16   0             -549.12        -2.4825629     -3.5282554     -1.9597166     -1.9597166      3.2413874e-11 -1.3972529e-11 -3.7369845e-11  7.6933295      11.539983      15.386644      1366.0399    
        17   0             -549.12        -2.4825629     -3.5282554     -1.9597166     -1.9597166     -9.4752536e-13 -3.8317576e-11  2.8656141e-12  7.6933295      11.539983      15.386644      1366.0399    
        18   0             -549.12        -2.4825629     -3.5282554     -1.9597166     -1.9597166      1.7224938e-11  1.9175998e-11 -7.3996338e-12  7.6933295      11.539983      15.386644      1366.0399    
        19   0             -549.12        -2.4825629     -3.5282554     -1.9597166     -1.9597166      4.5869609e-13 -1.0609587e-11 -2.0524941e-12  7.6933295      11.539983      15.386644      1366.0399    
        20   0             -549.12        -2.4825629     -3.5282554     -1.9597166     -1.9597166      1.9005466e-11  2.1907408e-11 -2.5220203e-12  7.6933295      11.539983      15.386644      1366.0399    
        21   0             -549.12        -2.4825629     -3.5282554     -1.9597166     -1.9597166      1.4241072e-11 -1.1135551e-12  1.1423465e-11  7.6933295      11.539983      15.386644      1366.0399    
        22   0             -549.12        -2.4825629     -3.5282554     -1.9597166     -1.9597166      3.643754e-11   2.4603223e-12  7.4827109e-12  7.6933295      11.539983      15.386644      1366.0399    
        23   0             -549.12        -2.4825629     -3.5282554     -1.9597166     -1.9597166     -2.0506447e-11 -3.2870818e-11  6.3645528e-12  7.6933295      11.539983      15.386644      1366.0399    
        24   0             -549.12        -2.4825629     -3.5282554     -1.9597166     -1.9597166     -2.8365667e-11  1.0604808e-11 -2.898726e-11   7.6933295      11.539983      15.386644      1366.0399    
Loop time of 0.005834 on 4 procs for 23 steps with 96 atoms

0.0% CPU use with 4 MPI tasks x 1 OpenMP threads

Minimization stats:
  Stopping criterion = force tolerance
  Energy initial, next-to-last, final = 
      -549.11999994399  -549.120000008926  -549.120000008926
  Force two-norm initial, final = 0.0015161384 7.5352291e-11
  Force max component initial, final = 0.00022932858 1.3059839e-11
  Final line search alpha, max atom move = 1 1.3059839e-11
  Iterations, force evaluations = 23 46

MPI task timing breakdown:
Section |  min time  |  avg time  |  max time  |%varavg| %total
---------------------------------------------------------------
Pair    | 0.004793   | 0.0049252  | 0.0051     |   0.2 | 84.42
Neigh   | 0          | 0          | 0          |   0.0 |  0.00
Comm    | 0.000308   | 0.00047725 | 0.000618   |   0.0 |  8.18
Output  | 0.000193   | 0.00020275 | 0.000227   |   0.0 |  3.48
Modify  | 0          | 0          | 0          |   0.0 |  0.00
Other   |            | 0.0002288  |            |       |  3.92

Nlocal:             24 ave          29 max          21 min
Histogram: 1 0 2 0 0 0 0 0 0 1
Nghost:            300 ave         303 max         295 min
Histogram: 1 0 0 0 0 0 0 2 0 1
Neighs:            504 ave         616 max         436 min
Histogram: 1 0 2 0 0 0 0 0 0 1
FullNghs:         1008 ave        1218 max         882 min
Histogram: 1 0 2 0 0 0 0 0 0 1

Total # of neighbors = 4032
Ave neighs/atom = 42
Neighbor list builds = 0
Dangerous builds = 0

# Obtain new stress tensor

variable tmp equal pe
variable e1 equal ${tmp}
variable e1 equal -549.120000008926
variable tmp equal press
variable p1 equal ${tmp}
variable p1 equal -2.48256285161286
variable tmp equal pxx
variable pxx1 equal ${tmp}
variable pxx1 equal -3.52825539964389
variable tmp equal pyy
variable pyy1 equal ${tmp}
variable pyy1 equal -1.95971657755734
variable tmp equal pzz
variable pzz1 equal ${tmp}
variable pzz1 equal -1.95971657763736
variable tmp equal pxy
variable pxy1 equal ${tmp}
variable pxy1 equal -2.83656666586354e-11
variable tmp equal pxz
variable pxz1 equal ${tmp}
variable pxz1 equal 1.06048075400495e-11
variable tmp equal pyz
variable pyz1 equal ${tmp}
variable pyz1 equal -2.89872603678672e-11

# Compute elastic constant from pressure tensor

variable C1pos equal ${d1}
variable C1pos equal 352.825539968146
variable C2pos equal ${d2}
variable C2pos equal 195.971657776796
variable C3pos equal ${d3}
variable C3pos equal 195.97165777572
variable C4pos equal ${d4}
variable C4pos equal 4.3354045072437e-09
variable C5pos equal ${d5}
variable C5pos equal 1.26262066421962e-09
variable C6pos equal ${d6}
variable C6pos equal 5.26682387744545e-09

# Combine positive and negative

variable C1${dir} equal 0.5*(${C1neg}+${C1pos})
variable C11 equal 0.5*(${C1neg}+${C1pos})
variable C11 equal 0.5*(352.827279698137+${C1pos})
variable C11 equal 0.5*(352.827279698137+352.825539968146)
variable C2${dir} equal 0.5*(${C2neg}+${C2pos})
variable C21 equal 0.5*(${C2neg}+${C2pos})
variable C21 equal 0.5*(195.973159295236+${C2pos})
variable C21 equal 0.5*(195.973159295236+195.971657776796)
variable C3${dir} equal 0.5*(${C3neg}+${C3pos})
variable C31 equal 0.5*(${C3neg}+${C3pos})
variable C31 equal 0.5*(195.973159298867+${C3pos})
variable C31 equal 0.5*(195.973159298867+195.97165777572)
variable C4${dir} equal 0.5*(${C4neg}+${C4pos})
variable C41 equal 0.5*(${C4neg}+${C4pos})
variable C41 equal 0.5*(-2.1532171744703e-10+${C4pos})
variable C41 equal 0.5*(-2.1532171744703e-10+4.3354045072437e-09)
variable C5${dir} equal 0.5*(${C5neg}+${C5pos})
variable C51 equal 0.5*(${C5neg}+${C5pos})
variable C51 equal 0.5*(-3.43218134870038e-09+${C5pos})
variable C51 equal 0.5*(-3.43218134870038e-09+1.26262066421962e-09)
variable C6${dir} equal 0.5*(${C6neg}+${C6pos})
variable C61 equal 0.5*(${C6neg}+${C6pos})
variable C61 equal 0.5*(2.3571953047606e-10+${C6pos})
variable C61 equal 0.5*(2.3571953047606e-10+5.26682387744545e-09)

# Delete dir to make sure it is not reused

variable dir delete

# uyy Perturbation

variable dir equal 2
include displace.mod
# NOTE: This script should not need to be
# modified. See in.elastic for more info.
#
# Find which reference length to use

if "${dir} == 1" then    "variable len0 equal ${lx0}"
if "${dir} == 2" then    "variable len0 equal ${ly0}"
variable len0 equal ${ly0}
variable len0 equal 11.5399827037879
if "${dir} == 3" then    "variable len0 equal ${lz0}"
if "${dir} == 4" then    "variable len0 equal ${lz0}"
if "${dir} == 5" then    "variable len0 equal ${lz0}"
if "${dir} == 6" then    "variable len0 equal ${ly0}"

# Reset box and simulation parameters

clear
  using 1 OpenMP thread(s) per MPI task
Loaded 1 plugins from C:\Program Files\LAMMPS 64-bit 23Jun2022\plugins
Loaded 0 plugins from C:\Program Files\LAMMPS 64-bit 23Jun2022-MPI\plugins
Loaded 1 plugins from C:\Program Files\LAMMPS 64-bit 22Dec2022-MSMPI\plugins
Loaded 1 plugins from C:\Program Files\LAMMPS 64-bit 28Mar2023-MPI\plugins
box tilt large

The 'box' command has been removed and will be ignored

read_restart restart.equil
Reading restart file ...
  restart file = 22 Dec 2022, LAMMPS = 22 Dec 2022
  restoring atom style atomic from restart
  triclinic box = (-0.0013814506 -0.0013814506 -0.0013814506) to (7.6919404 11.538601 15.385262) with tilt (0 0 0)
  1 by 2 by 2 MPI processor grid
  pair style meam stores no restart info
  96 atoms
  read_restart CPU = 0.000 seconds
include potential.mod
# NOTE: This script can be modified for different pair styles
# See in.elastic for more info.

# Choose potential
#-----------------------
#pair_style	sw
#pair_coeff * * Si.sw Si
#-----------------------
#pair_style morse	2.83994742	# D0[eV] a[1/A] r0[A] rc[A], 1NN for BCC
#pair_coeff 1 1	2.1173	1.0202	2.4595	2.6497	#	Fe-Fe
#-----------------------
#pair_style smatb # R0(A)   p       q     A(eV)   xi(eV)  Rcs(A)   Rc(A), 4NN: Rcs=4NN, Rc=(4NN+5NN)/2
#pair_coeff 1 1	2.4802	7.0149	2.3779	0.3144	3.0551	4.033	4.176	#	Co	Co
#-----------------------
#pair_style eam/alloy
#pair_coeff * * AlCrFeCoNi_Zhou04.eam.alloy Fe
#-----------------------
pair_style meam
#pair_coeff * * ./../../library.meam Pt Pd Rh ./../../PtPdRh.meam Pt
#pair_coeff * * ./../../library.meam Pt Pd Rh ./../../PtPdRh.meam Pd
pair_coeff * * ./../../library.meam Pt Pd Rh ./../../PtPdRh.meam Rh
#-----------------------

# Setup neighbor style
neighbor 1.0 nsq
neigh_modify once no every 1 delay 0 check yes

# Setup minimization style
min_style	     cg
min_modify	     dmax ${dmax} line quadratic
min_modify	     dmax 0.01 line quadratic

# Setup output
thermo		1
thermo_style custom step temp pe press pxx pyy pzz pxy pxz pyz lx ly lz vol
thermo_modify norm no

# Negative deformation

variable delta equal -${up}*${len0}
variable delta equal -1e-06*${len0}
variable delta equal -1e-06*11.5399827037879
variable deltaxy equal -${up}*xy
variable deltaxy equal -1e-06*xy
variable deltaxz equal -${up}*xz
variable deltaxz equal -1e-06*xz
variable deltayz equal -${up}*yz
variable deltayz equal -1e-06*yz
if "${dir} == 1" then    "change_box all x delta 0 ${delta} xy delta ${deltaxy} xz delta ${deltaxz} remap units box"
if "${dir} == 2" then    "change_box all y delta 0 ${delta} yz delta ${deltayz} remap units box"
change_box all y delta 0 ${delta} yz delta ${deltayz} remap units box
change_box all y delta 0 -1.15399827037879e-05 yz delta ${deltayz} remap units box
change_box all y delta 0 -1.15399827037879e-05 yz delta -0 remap units box
Changing box ...
  triclinic box = (-0.0013814506 -0.0013814506 -0.0013814506) to (7.6919404 11.53859 15.385262) with tilt (0 0 0)
  triclinic box = (-0.0013814506 -0.0013814506 -0.0013814506) to (7.6919404 11.53859 15.385262) with tilt (0 0 0)
if "${dir} == 3" then    "change_box all z delta 0 ${delta} remap units box"
if "${dir} == 4" then    "change_box all yz delta ${delta} remap units box"
if "${dir} == 5" then    "change_box all xz delta ${delta} remap units box"
if "${dir} == 6" then    "change_box all xy delta ${delta} remap units box"

# Relax atoms positions

minimize ${etol} ${ftol} ${maxiter} ${maxeval}
minimize 0 ${ftol} ${maxiter} ${maxeval}
minimize 0 1e-10 ${maxiter} ${maxeval}
minimize 0 1e-10 1000 ${maxeval}
minimize 0 1e-10 1000 100000
Neighbor list info ...
  update: every = 1 steps, delay = 0 steps, check = yes
  max neighbors/atom: 2000, page size: 100000
  master list distance cutoff = 5
  ghost atom cutoff = 5
  2 neighbor lists, perpetual/occasional/extra = 2 0 0
  (1) pair meam, perpetual
      attributes: full, newton on
      pair build: full/nsq
      stencil: none
      bin: none
  (2) pair meam, perpetual, half/full from (1)
      attributes: half, newton on
      pair build: halffull/newton
      stencil: none
      bin: none
Per MPI rank memory allocation (min/avg/max) = 9.76 | 9.762 | 9.766 Mbytes
   Step          Temp          PotEng         Press           Pxx            Pyy            Pzz            Pxy            Pxz            Pyz             Lx             Ly             Lz           Volume    
         1   0             -549.12         2.4828132      1.9599651      3.5285126      1.959962      -8.1177282e-06  1.5707883e-05 -1.1980983e-05  7.6933218      11.539971      15.386644      1366.0372    
         2   0             -549.12         2.4826012      1.9597551      3.5282959      1.9597527     -2.0260275e-08  1.6128338e-06 -1.8923331e-06  7.6933218      11.539971      15.386644      1366.0372    
         3   0             -549.12         2.4825822      1.9597352      3.5282764      1.9597349     -3.5589429e-07  1.9011725e-07 -5.9281495e-07  7.6933218      11.539971      15.386644      1366.0372    
         4   0             -549.12         2.4825796      1.9597324      3.5282737      1.9597326     -5.203326e-08   6.2696561e-08 -1.7771184e-07  7.6933218      11.539971      15.386644      1366.0372    
         5   0             -549.12         2.482579       1.9597318      3.5282732      1.9597321      1.2985549e-08  2.4418874e-08 -6.6622097e-08  7.6933218      11.539971      15.386644      1366.0372    
         6   0             -549.12         2.4825788      1.9597317      3.528273       1.9597319      2.0700625e-08  4.4492543e-09 -4.1849392e-09  7.6933218      11.539971      15.386644      1366.0372    
         7   0             -549.12         2.4825787      1.9597316      3.5282729      1.9597317      6.9548068e-09 -2.4652371e-09  1.2376805e-08  7.6933218      11.539971      15.386644      1366.0372    
         8   0             -549.12         2.4825787      1.9597316      3.5282728      1.9597316      8.5698016e-10 -1.2037335e-09  7.1303371e-09  7.6933218      11.539971      15.386644      1366.0372    
         9   0             -549.12         2.4825787      1.9597316      3.5282728      1.9597316      4.2741739e-10 -3.1505894e-10  2.065274e-09   7.6933218      11.539971      15.386644      1366.0372    
        10   0             -549.12         2.4825787      1.9597316      3.5282728      1.9597316      5.5749319e-10  7.0540639e-11  1.0113101e-11  7.6933218      11.539971      15.386644      1366.0372    
        11   0             -549.12         2.4825787      1.9597316      3.5282728      1.9597316      8.6752194e-11  3.3082726e-11 -1.0883158e-10  7.6933218      11.539971      15.386644      1366.0372    
        12   0             -549.12         2.4825787      1.9597316      3.5282728      1.9597316      4.286076e-12  -3.7719544e-11 -4.8070297e-11  7.6933218      11.539971      15.386644      1366.0372    
        13   0             -549.12         2.4825787      1.9597316      3.5282728      1.9597316     -1.8556037e-11  1.0065482e-11  7.1166813e-12  7.6933218      11.539971      15.386644      1366.0372    
        14   0             -549.12         2.4825787      1.9597316      3.5282728      1.9597316     -9.6790111e-12 -1.0203047e-11 -1.3089496e-11  7.6933218      11.539971      15.386644      1366.0372    
        15   0             -549.12         2.4825787      1.9597316      3.5282728      1.9597316      2.6972716e-11  3.0079645e-12  2.7096787e-11  7.6933218      11.539971      15.386644      1366.0372    
        16   0             -549.12         2.4825787      1.9597316      3.5282728      1.9597316     -4.1911591e-11 -2.0800151e-11 -1.841555e-11   7.6933218      11.539971      15.386644      1366.0372    
        17   0             -549.12         2.4825787      1.9597316      3.5282728      1.9597316      3.0856592e-12 -3.2471933e-11  1.4734876e-11  7.6933218      11.539971      15.386644      1366.0372    
        18   0             -549.12         2.4825787      1.9597316      3.5282728      1.9597316     -3.1306433e-11 -1.0804065e-12  2.542272e-11   7.6933218      11.539971      15.386644      1366.0372    
        19   0             -549.12         2.4825787      1.9597316      3.5282728      1.9597316     -2.2430679e-11 -1.6730866e-11  1.0752141e-11  7.6933218      11.539971      15.386644      1366.0372    
        20   0             -549.12         2.4825787      1.9597316      3.5282728      1.9597316      1.1707348e-11 -1.2380795e-11 -6.9236648e-12  7.6933218      11.539971      15.386644      1366.0372    
        21   0             -549.12         2.4825787      1.9597316      3.5282728      1.9597316      2.4670843e-11  4.3203557e-12  6.9456226e-13  7.6933218      11.539971      15.386644      1366.0372    
        22   0             -549.12         2.4825787      1.9597316      3.5282728      1.9597316     -2.4278984e-12  3.1582837e-12 -2.2132005e-12  7.6933218      11.539971      15.386644      1366.0372    
        23   0             -549.12         2.4825787      1.9597316      3.5282728      1.9597316     -1.1230126e-11  1.7232879e-11  2.5950592e-12  7.6933218      11.539971      15.386644      1366.0372    
        24   0             -549.12         2.4825787      1.9597316      3.5282728      1.9597316      1.0532265e-11  1.5964544e-12 -1.0961126e-11  7.6933218      11.539971      15.386644      1366.0372    
Loop time of 0.0057115 on 4 procs for 23 steps with 96 atoms

0.0% CPU use with 4 MPI tasks x 1 OpenMP threads

Minimization stats:
  Stopping criterion = force tolerance
  Energy initial, next-to-last, final = 
      -549.11999994399  -549.120000008926  -549.120000008926
  Force two-norm initial, final = 0.0015161494 7.6679521e-11
  Force max component initial, final = 0.00022933057 1.3973957e-11
  Final line search alpha, max atom move = 1 1.3973957e-11
  Iterations, force evaluations = 23 46

MPI task timing breakdown:
Section |  min time  |  avg time  |  max time  |%varavg| %total
---------------------------------------------------------------
Pair    | 0.004719   | 0.0048338  | 0.004984   |   0.1 | 84.63
Neigh   | 0          | 0          | 0          |   0.0 |  0.00
Comm    | 0.000287   | 0.0004375  | 0.000555   |   0.0 |  7.66
Output  | 0.000196   | 0.00020925 | 0.000241   |   0.0 |  3.66
Modify  | 0          | 0          | 0          |   0.0 |  0.00
Other   |            | 0.000231   |            |       |  4.04

Nlocal:             24 ave          29 max          21 min
Histogram: 1 0 2 0 0 0 0 0 0 1
Nghost:            300 ave         303 max         295 min
Histogram: 1 0 0 0 0 0 0 2 0 1
Neighs:            504 ave         616 max         436 min
Histogram: 1 0 2 0 0 0 0 0 0 1
FullNghs:         1008 ave        1218 max         882 min
Histogram: 1 0 2 0 0 0 0 0 0 1

Total # of neighbors = 4032
Ave neighs/atom = 42
Neighbor list builds = 0
Dangerous builds = 0

# Obtain new stress tensor

variable tmp equal pxx
variable pxx1 equal ${tmp}
variable pxx1 equal 1.95973159307746
variable tmp equal pyy
variable pyy1 equal ${tmp}
variable pyy1 equal 3.52827279746887
variable tmp equal pzz
variable pzz1 equal ${tmp}
variable pzz1 equal 1.95973159327719
variable tmp equal pxy
variable pxy1 equal ${tmp}
variable pxy1 equal 1.05322652394621e-11
variable tmp equal pxz
variable pxz1 equal ${tmp}
variable pxz1 equal 1.59645441113707e-12
variable tmp equal pyz
variable pyz1 equal ${tmp}
variable pyz1 equal -1.0961125599074e-11

# Compute elastic constant from pressure tensor

variable C1neg equal ${d1}
variable C1neg equal 195.973159303989
variable C2neg equal ${d2}
variable C2neg equal 352.827279725825
variable C3neg equal ${d3}
variable C3neg equal 195.973159315735
variable C4neg equal ${d4}
variable C4neg equal -2.53279103036438e-09
variable C5neg equal ${d5}
variable C5neg equal -2.16345597711086e-09
variable C6neg equal ${d6}
variable C6neg equal -1.3770306876357e-09

# Reset box and simulation parameters

clear
  using 1 OpenMP thread(s) per MPI task
Loaded 1 plugins from C:\Program Files\LAMMPS 64-bit 23Jun2022\plugins
Loaded 0 plugins from C:\Program Files\LAMMPS 64-bit 23Jun2022-MPI\plugins
Loaded 1 plugins from C:\Program Files\LAMMPS 64-bit 22Dec2022-MSMPI\plugins
Loaded 1 plugins from C:\Program Files\LAMMPS 64-bit 28Mar2023-MPI\plugins
box tilt large

The 'box' command has been removed and will be ignored

read_restart restart.equil
Reading restart file ...
  restart file = 22 Dec 2022, LAMMPS = 22 Dec 2022
  restoring atom style atomic from restart
  triclinic box = (-0.0013814506 -0.0013814506 -0.0013814506) to (7.6919404 11.538601 15.385262) with tilt (0 0 0)
  1 by 2 by 2 MPI processor grid
  pair style meam stores no restart info
  96 atoms
  read_restart CPU = 0.000 seconds
include potential.mod
# NOTE: This script can be modified for different pair styles
# See in.elastic for more info.

# Choose potential
#-----------------------
#pair_style	sw
#pair_coeff * * Si.sw Si
#-----------------------
#pair_style morse	2.83994742	# D0[eV] a[1/A] r0[A] rc[A], 1NN for BCC
#pair_coeff 1 1	2.1173	1.0202	2.4595	2.6497	#	Fe-Fe
#-----------------------
#pair_style smatb # R0(A)   p       q     A(eV)   xi(eV)  Rcs(A)   Rc(A), 4NN: Rcs=4NN, Rc=(4NN+5NN)/2
#pair_coeff 1 1	2.4802	7.0149	2.3779	0.3144	3.0551	4.033	4.176	#	Co	Co
#-----------------------
#pair_style eam/alloy
#pair_coeff * * AlCrFeCoNi_Zhou04.eam.alloy Fe
#-----------------------
pair_style meam
#pair_coeff * * ./../../library.meam Pt Pd Rh ./../../PtPdRh.meam Pt
#pair_coeff * * ./../../library.meam Pt Pd Rh ./../../PtPdRh.meam Pd
pair_coeff * * ./../../library.meam Pt Pd Rh ./../../PtPdRh.meam Rh
#-----------------------

# Setup neighbor style
neighbor 1.0 nsq
neigh_modify once no every 1 delay 0 check yes

# Setup minimization style
min_style	     cg
min_modify	     dmax ${dmax} line quadratic
min_modify	     dmax 0.01 line quadratic

# Setup output
thermo		1
thermo_style custom step temp pe press pxx pyy pzz pxy pxz pyz lx ly lz vol
thermo_modify norm no

# Positive deformation

variable delta equal ${up}*${len0}
variable delta equal 1e-06*${len0}
variable delta equal 1e-06*11.5399827037879
variable deltaxy equal ${up}*xy
variable deltaxy equal 1e-06*xy
variable deltaxz equal ${up}*xz
variable deltaxz equal 1e-06*xz
variable deltayz equal ${up}*yz
variable deltayz equal 1e-06*yz
if "${dir} == 1" then    "change_box all x delta 0 ${delta} xy delta ${deltaxy} xz delta ${deltaxz} remap units box"
if "${dir} == 2" then    "change_box all y delta 0 ${delta} yz delta ${deltayz} remap units box"
change_box all y delta 0 ${delta} yz delta ${deltayz} remap units box
change_box all y delta 0 1.15399827037879e-05 yz delta ${deltayz} remap units box
change_box all y delta 0 1.15399827037879e-05 yz delta 0 remap units box
Changing box ...
  triclinic box = (-0.0013814506 -0.0013814506 -0.0013814506) to (7.6919404 11.538613 15.385262) with tilt (0 0 0)
  triclinic box = (-0.0013814506 -0.0013814506 -0.0013814506) to (7.6919404 11.538613 15.385262) with tilt (0 0 0)
if "${dir} == 3" then    "change_box all z delta 0 ${delta} remap units box"
if "${dir} == 4" then    "change_box all yz delta ${delta} remap units box"
if "${dir} == 5" then    "change_box all xz delta ${delta} remap units box"
if "${dir} == 6" then    "change_box all xy delta ${delta} remap units box"

# Relax atoms positions

minimize ${etol} ${ftol} ${maxiter} ${maxeval}
minimize 0 ${ftol} ${maxiter} ${maxeval}
minimize 0 1e-10 ${maxiter} ${maxeval}
minimize 0 1e-10 1000 ${maxeval}
minimize 0 1e-10 1000 100000
Neighbor list info ...
  update: every = 1 steps, delay = 0 steps, check = yes
  max neighbors/atom: 2000, page size: 100000
  master list distance cutoff = 5
  ghost atom cutoff = 5
  2 neighbor lists, perpetual/occasional/extra = 2 0 0
  (1) pair meam, perpetual
      attributes: full, newton on
      pair build: full/nsq
      stencil: none
      bin: none
  (2) pair meam, perpetual, half/full from (1)
      attributes: half, newton on
      pair build: halffull/newton
      stencil: none
      bin: none
Per MPI rank memory allocation (min/avg/max) = 9.76 | 9.762 | 9.766 Mbytes
   Step          Temp          PotEng         Press           Pxx            Pyy            Pzz            Pxy            Pxz            Pyz             Lx             Ly             Lz           Volume    
         1   0             -549.12        -2.4823283     -1.9594831     -3.5280156     -1.9594862     -8.1178353e-06  1.5707871e-05 -1.1981054e-05  7.6933218      11.539994      15.386644      1366.0399    
         2   0             -549.12        -2.4825403     -1.9596931     -3.5282323     -1.9596955     -2.0277903e-08  1.6128101e-06 -1.892288e-06   7.6933218      11.539994      15.386644      1366.0399    
         3   0             -549.12        -2.4825594     -1.959713      -3.5282518     -1.9597133     -3.5588588e-07  1.9011611e-07 -5.9280906e-07  7.6933218      11.539994      15.386644      1366.0399    
         4   0             -549.12        -2.4825619     -1.9597158     -3.5282545     -1.9597156     -5.2001657e-08  6.2695083e-08 -1.777288e-07   7.6933218      11.539994      15.386644      1366.0399    
         5   0             -549.12        -2.4825625     -1.9597163     -3.528255      -1.9597161      1.2959741e-08  2.4417418e-08 -6.66081e-08    7.6933218      11.539994      15.386644      1366.0399    
         6   0             -549.12        -2.4825627     -1.9597165     -3.5282552     -1.9597163      2.0663425e-08  4.4324835e-09 -4.2376254e-09  7.6933218      11.539994      15.386644      1366.0399    
         7   0             -549.12        -2.4825628     -1.9597166     -3.5282553     -1.9597165      6.9385748e-09 -2.4171136e-09  1.2384018e-08  7.6933218      11.539994      15.386644      1366.0399    
         8   0             -549.12        -2.4825628     -1.9597166     -3.5282554     -1.9597165      8.7046994e-10 -1.188217e-09   7.101016e-09   7.6933218      11.539994      15.386644      1366.0399    
         9   0             -549.12        -2.4825628     -1.9597166     -3.5282554     -1.9597166      4.1518875e-10 -3.6063408e-10  2.0692657e-09  7.6933218      11.539994      15.386644      1366.0399    
        10   0             -549.12        -2.4825628     -1.9597166     -3.5282554     -1.9597166      5.537809e-10   4.7610212e-11 -1.2420003e-11  7.6933218      11.539994      15.386644      1366.0399    
        11   0             -549.12        -2.4825629     -1.9597166     -3.5282554     -1.9597166      9.9064792e-11  8.3472465e-11 -8.572871e-11   7.6933218      11.539994      15.386644      1366.0399    
        12   0             -549.12        -2.4825629     -1.9597166     -3.5282554     -1.9597166     -2.7104862e-12  1.796215e-11  -2.1537761e-11  7.6933218      11.539994      15.386644      1366.0399    
        13   0             -549.12        -2.4825629     -1.9597166     -3.5282554     -1.9597166      5.320173e-12   2.2862162e-11 -1.4614102e-12  7.6933218      11.539994      15.386644      1366.0399    
        14   0             -549.12        -2.4825629     -1.9597166     -3.5282554     -1.9597166      3.2020202e-12 -7.9274684e-12  3.0134036e-12  7.6933218      11.539994      15.386644      1366.0399    
        15   0             -549.12        -2.4825629     -1.9597166     -3.5282554     -1.9597166     -1.22289e-11   -6.4163851e-12 -9.8650727e-12  7.6933218      11.539994      15.386644      1366.0399    
        16   0             -549.12        -2.4825629     -1.9597166     -3.5282554     -1.9597166      2.7878252e-12 -2.0175092e-11  8.5433423e-12  7.6933218      11.539994      15.386644      1366.0399    
        17   0             -549.12        -2.4825629     -1.9597166     -3.5282554     -1.9597166      2.1938521e-11  2.7731172e-11  2.7624816e-11  7.6933218      11.539994      15.386644      1366.0399    
        18   0             -549.12        -2.4825629     -1.9597166     -3.5282554     -1.9597166      3.5425742e-11  1.7056983e-11 -3.7994164e-12  7.6933218      11.539994      15.386644      1366.0399    
        19   0             -549.12        -2.4825629     -1.9597166     -3.5282554     -1.9597166     -1.0061721e-11  2.3536059e-11  1.0091592e-11  7.6933218      11.539994      15.386644      1366.0399    
        20   0             -549.12        -2.4825629     -1.9597166     -3.5282554     -1.9597166     -3.8005493e-11 -1.5980299e-11  4.1188013e-12  7.6933218      11.539994      15.386644      1366.0399    
        21   0             -549.12        -2.4825629     -1.9597166     -3.5282554     -1.9597166     -8.8113177e-12 -2.017048e-11   1.1780689e-11  7.6933218      11.539994      15.386644      1366.0399    
        22   0             -549.12        -2.4825629     -1.9597166     -3.5282554     -1.9597166      2.1021409e-11 -1.9536586e-11 -9.7885366e-12  7.6933218      11.539994      15.386644      1366.0399    
        23   0             -549.12        -2.4825629     -1.9597166     -3.5282554     -1.9597166      2.8122727e-11  8.1992436e-12  1.0682888e-11  7.6933218      11.539994      15.386644      1366.0399    
        24   0             -549.12        -2.4825629     -1.9597166     -3.5282554     -1.9597166      1.4006418e-11  1.0491214e-11  1.537125e-11   7.6933218      11.539994      15.386644      1366.0399    
Loop time of 0.006116 on 4 procs for 23 steps with 96 atoms

0.0% CPU use with 4 MPI tasks x 1 OpenMP threads

Minimization stats:
  Stopping criterion = force tolerance
  Energy initial, next-to-last, final = 
      -549.11999994399  -549.120000008926  -549.120000008926
  Force two-norm initial, final = 0.0015161382 7.5708796e-11
  Force max component initial, final = 0.00022932807 1.3629546e-11
  Final line search alpha, max atom move = 1 1.3629546e-11
  Iterations, force evaluations = 23 46

MPI task timing breakdown:
Section |  min time  |  avg time  |  max time  |%varavg| %total
---------------------------------------------------------------
Pair    | 0.004993   | 0.0051212  | 0.005292   |   0.2 | 83.74
Neigh   | 0          | 0          | 0          |   0.0 |  0.00
Comm    | 0.000384   | 0.00050125 | 0.000689   |   0.0 |  8.20
Output  | 0.000199   | 0.00020825 | 0.00023    |   0.0 |  3.41
Modify  | 0          | 0          | 0          |   0.0 |  0.00
Other   |            | 0.0002853  |            |       |  4.66

Nlocal:             24 ave          29 max          21 min
Histogram: 1 0 2 0 0 0 0 0 0 1
Nghost:            300 ave         303 max         295 min
Histogram: 1 0 0 0 0 0 0 2 0 1
Neighs:            504 ave         616 max         436 min
Histogram: 1 0 2 0 0 0 0 0 0 1
FullNghs:         1008 ave        1218 max         882 min
Histogram: 1 0 2 0 0 0 0 0 0 1

Total # of neighbors = 4032
Ave neighs/atom = 42
Neighbor list builds = 0
Dangerous builds = 0

# Obtain new stress tensor

variable tmp equal pe
variable e1 equal ${tmp}
variable e1 equal -549.120000008926
variable tmp equal press
variable p1 equal ${tmp}
variable p1 equal -2.48256285174205
variable tmp equal pxx
variable pxx1 equal ${tmp}
variable pxx1 equal -1.95971657790333
variable tmp equal pyy
variable pyy1 equal ${tmp}
variable pyy1 equal -3.52825539954709
variable tmp equal pzz
variable pzz1 equal ${tmp}
variable pzz1 equal -1.95971657777573
variable tmp equal pxy
variable pxy1 equal ${tmp}
variable pxy1 equal 1.40064183338089e-11
variable tmp equal pxz
variable pxz1 equal ${tmp}
variable pxz1 equal 1.04912136535212e-11
variable tmp equal pyz
variable pyz1 equal ${tmp}
variable pyz1 equal 1.53712496225771e-11

# Compute elastic constant from pressure tensor

variable C1pos equal ${d1}
variable C1pos equal 195.97165779409
variable C2pos equal ${d2}
variable C2pos equal 352.825539975771
variable C3pos equal ${d3}
variable C3pos equal 195.971657789557
variable C4pos equal ${d4}
variable C4pos equal -1.0044649180073e-10
variable C5pos equal ${d5}
variable C5pos equal 1.27398005287245e-09
variable C6pos equal ${d6}
variable C6pos equal 1.02961537820102e-09

# Combine positive and negative

variable C1${dir} equal 0.5*(${C1neg}+${C1pos})
variable C12 equal 0.5*(${C1neg}+${C1pos})
variable C12 equal 0.5*(195.973159303989+${C1pos})
variable C12 equal 0.5*(195.973159303989+195.97165779409)
variable C2${dir} equal 0.5*(${C2neg}+${C2pos})
variable C22 equal 0.5*(${C2neg}+${C2pos})
variable C22 equal 0.5*(352.827279725825+${C2pos})
variable C22 equal 0.5*(352.827279725825+352.825539975771)
variable C3${dir} equal 0.5*(${C3neg}+${C3pos})
variable C32 equal 0.5*(${C3neg}+${C3pos})
variable C32 equal 0.5*(195.973159315735+${C3pos})
variable C32 equal 0.5*(195.973159315735+195.971657789557)
variable C4${dir} equal 0.5*(${C4neg}+${C4pos})
variable C42 equal 0.5*(${C4neg}+${C4pos})
variable C42 equal 0.5*(-2.53279103036438e-09+${C4pos})
variable C42 equal 0.5*(-2.53279103036438e-09+-1.0044649180073e-10)
variable C5${dir} equal 0.5*(${C5neg}+${C5pos})
variable C52 equal 0.5*(${C5neg}+${C5pos})
variable C52 equal 0.5*(-2.16345597711086e-09+${C5pos})
variable C52 equal 0.5*(-2.16345597711086e-09+1.27398005287245e-09)
variable C6${dir} equal 0.5*(${C6neg}+${C6pos})
variable C62 equal 0.5*(${C6neg}+${C6pos})
variable C62 equal 0.5*(-1.3770306876357e-09+${C6pos})
variable C62 equal 0.5*(-1.3770306876357e-09+1.02961537820102e-09)

# Delete dir to make sure it is not reused

variable dir delete

# uzz Perturbation

variable dir equal 3
include displace.mod
# NOTE: This script should not need to be
# modified. See in.elastic for more info.
#
# Find which reference length to use

if "${dir} == 1" then    "variable len0 equal ${lx0}"
if "${dir} == 2" then    "variable len0 equal ${ly0}"
if "${dir} == 3" then    "variable len0 equal ${lz0}"
variable len0 equal ${lz0}
variable len0 equal 15.3866436050506
if "${dir} == 4" then    "variable len0 equal ${lz0}"
if "${dir} == 5" then    "variable len0 equal ${lz0}"
if "${dir} == 6" then    "variable len0 equal ${ly0}"

# Reset box and simulation parameters

clear
  using 1 OpenMP thread(s) per MPI task
Loaded 1 plugins from C:\Program Files\LAMMPS 64-bit 23Jun2022\plugins
Loaded 0 plugins from C:\Program Files\LAMMPS 64-bit 23Jun2022-MPI\plugins
Loaded 1 plugins from C:\Program Files\LAMMPS 64-bit 22Dec2022-MSMPI\plugins
Loaded 1 plugins from C:\Program Files\LAMMPS 64-bit 28Mar2023-MPI\plugins
box tilt large

The 'box' command has been removed and will be ignored

read_restart restart.equil
Reading restart file ...
  restart file = 22 Dec 2022, LAMMPS = 22 Dec 2022
  restoring atom style atomic from restart
  triclinic box = (-0.0013814506 -0.0013814506 -0.0013814506) to (7.6919404 11.538601 15.385262) with tilt (0 0 0)
  1 by 2 by 2 MPI processor grid
  pair style meam stores no restart info
  96 atoms
  read_restart CPU = 0.000 seconds
include potential.mod
# NOTE: This script can be modified for different pair styles
# See in.elastic for more info.

# Choose potential
#-----------------------
#pair_style	sw
#pair_coeff * * Si.sw Si
#-----------------------
#pair_style morse	2.83994742	# D0[eV] a[1/A] r0[A] rc[A], 1NN for BCC
#pair_coeff 1 1	2.1173	1.0202	2.4595	2.6497	#	Fe-Fe
#-----------------------
#pair_style smatb # R0(A)   p       q     A(eV)   xi(eV)  Rcs(A)   Rc(A), 4NN: Rcs=4NN, Rc=(4NN+5NN)/2
#pair_coeff 1 1	2.4802	7.0149	2.3779	0.3144	3.0551	4.033	4.176	#	Co	Co
#-----------------------
#pair_style eam/alloy
#pair_coeff * * AlCrFeCoNi_Zhou04.eam.alloy Fe
#-----------------------
pair_style meam
#pair_coeff * * ./../../library.meam Pt Pd Rh ./../../PtPdRh.meam Pt
#pair_coeff * * ./../../library.meam Pt Pd Rh ./../../PtPdRh.meam Pd
pair_coeff * * ./../../library.meam Pt Pd Rh ./../../PtPdRh.meam Rh
#-----------------------

# Setup neighbor style
neighbor 1.0 nsq
neigh_modify once no every 1 delay 0 check yes

# Setup minimization style
min_style	     cg
min_modify	     dmax ${dmax} line quadratic
min_modify	     dmax 0.01 line quadratic

# Setup output
thermo		1
thermo_style custom step temp pe press pxx pyy pzz pxy pxz pyz lx ly lz vol
thermo_modify norm no

# Negative deformation

variable delta equal -${up}*${len0}
variable delta equal -1e-06*${len0}
variable delta equal -1e-06*15.3866436050506
variable deltaxy equal -${up}*xy
variable deltaxy equal -1e-06*xy
variable deltaxz equal -${up}*xz
variable deltaxz equal -1e-06*xz
variable deltayz equal -${up}*yz
variable deltayz equal -1e-06*yz
if "${dir} == 1" then    "change_box all x delta 0 ${delta} xy delta ${deltaxy} xz delta ${deltaxz} remap units box"
if "${dir} == 2" then    "change_box all y delta 0 ${delta} yz delta ${deltayz} remap units box"
if "${dir} == 3" then    "change_box all z delta 0 ${delta} remap units box"
change_box all z delta 0 ${delta} remap units box
change_box all z delta 0 -1.53866436050506e-05 remap units box
Changing box ...
  triclinic box = (-0.0013814506 -0.0013814506 -0.0013814506) to (7.6919404 11.538601 15.385247) with tilt (0 0 0)
if "${dir} == 4" then    "change_box all yz delta ${delta} remap units box"
if "${dir} == 5" then    "change_box all xz delta ${delta} remap units box"
if "${dir} == 6" then    "change_box all xy delta ${delta} remap units box"

# Relax atoms positions

minimize ${etol} ${ftol} ${maxiter} ${maxeval}
minimize 0 ${ftol} ${maxiter} ${maxeval}
minimize 0 1e-10 ${maxiter} ${maxeval}
minimize 0 1e-10 1000 ${maxeval}
minimize 0 1e-10 1000 100000
Neighbor list info ...
  update: every = 1 steps, delay = 0 steps, check = yes
  max neighbors/atom: 2000, page size: 100000
  master list distance cutoff = 5
  ghost atom cutoff = 5
  2 neighbor lists, perpetual/occasional/extra = 2 0 0
  (1) pair meam, perpetual
      attributes: full, newton on
      pair build: full/nsq
      stencil: none
      bin: none
  (2) pair meam, perpetual, half/full from (1)
      attributes: half, newton on
      pair build: halffull/newton
      stencil: none
      bin: none
Per MPI rank memory allocation (min/avg/max) = 9.76 | 9.762 | 9.766 Mbytes
   Step          Temp          PotEng         Press           Pxx            Pyy            Pzz            Pxy            Pxz            Pyz             Lx             Ly             Lz           Volume    
         1   0             -549.12         2.4828132      1.9599651      1.9599714      3.5285032     -8.117787e-06   1.5707801e-05 -1.1981007e-05  7.6933218      11.539983      15.386628      1366.0372    
         2   0             -549.12         2.4826012      1.9597551      1.9597547      3.5282939     -2.0274421e-08  1.6128366e-06 -1.8923457e-06  7.6933218      11.539983      15.386628      1366.0372    
         3   0             -549.12         2.4825822      1.9597352      1.9597352      3.5282761     -3.5589264e-07  1.9012646e-07 -5.9281516e-07  7.6933218      11.539983      15.386628      1366.0372    
         4   0             -549.12         2.4825796      1.9597324      1.9597325      3.5282738     -5.2007239e-08  6.269292e-08  -1.7774078e-07  7.6933218      11.539983      15.386628      1366.0372    
         5   0             -549.12         2.482579       1.9597318      1.959732       3.5282733      1.2970473e-08  2.4398879e-08 -6.6576062e-08  7.6933218      11.539983      15.386628      1366.0372    
         6   0             -549.12         2.4825788      1.9597317      1.9597318      3.5282731      2.065553e-08   4.4358276e-09 -4.1870648e-09  7.6933218      11.539983      15.386628      1366.0372    
         7   0             -549.12         2.4825787      1.9597316      1.9597317      3.5282729      6.9588125e-09 -2.4320209e-09  1.2417149e-08  7.6933218      11.539983      15.386628      1366.0372    
         8   0             -549.12         2.4825787      1.9597316      1.9597316      3.5282728      8.6648761e-10 -1.2127354e-09  7.098115e-09   7.6933218      11.539983      15.386628      1366.0372    
         9   0             -549.12         2.4825787      1.9597316      1.9597316      3.5282728      4.3744497e-10 -3.0998555e-10  2.1168673e-09  7.6933218      11.539983      15.386628      1366.0372    
        10   0             -549.12         2.4825787      1.9597316      1.9597316      3.5282728      5.4804765e-10  7.1300862e-11  4.1762173e-11  7.6933218      11.539983      15.386628      1366.0372    
        11   0             -549.12         2.4825787      1.9597316      1.9597316      3.5282728      9.0851957e-11  5.2121387e-11 -9.750555e-11   7.6933218      11.539983      15.386628      1366.0372    
        12   0             -549.12         2.4825787      1.9597316      1.9597316      3.5282728     -3.4299651e-11  2.5786681e-11 -4.5818245e-11  7.6933218      11.539983      15.386628      1366.0372    
        13   0             -549.12         2.4825787      1.9597316      1.9597316      3.5282728     -2.1256754e-11  2.5288247e-11  3.9335235e-12  7.6933218      11.539983      15.386628      1366.0372    
        14   0             -549.12         2.4825787      1.9597316      1.9597316      3.5282728     -1.0151289e-11  1.5993082e-11 -4.9375087e-12  7.6933218      11.539983      15.386628      1366.0372    
        15   0             -549.12         2.4825787      1.9597316      1.9597316      3.5282728      2.5760613e-11  1.5282553e-11 -6.2739768e-12  7.6933218      11.539983      15.386628      1366.0372    
        16   0             -549.12         2.4825787      1.9597316      1.9597316      3.5282728     -2.1986095e-11  1.0610271e-11  1.3808508e-11  7.6933218      11.539983      15.386628      1366.0372    
        17   0             -549.12         2.4825787      1.9597316      1.9597316      3.5282728     -3.3412834e-13 -2.6065454e-12 -4.5775789e-11  7.6933218      11.539983      15.386628      1366.0372    
        18   0             -549.12         2.4825787      1.9597316      1.9597316      3.5282728     -2.6816014e-11  2.6561782e-11  5.1649537e-12  7.6933218      11.539983      15.386628      1366.0372    
        19   0             -549.12         2.4825787      1.9597316      1.9597316      3.5282728      1.4384909e-11  1.0254171e-11 -9.0942279e-12  7.6933218      11.539983      15.386628      1366.0372    
        20   0             -549.12         2.4825787      1.9597316      1.9597316      3.5282728     -5.1805771e-12  1.9908041e-12  2.4085686e-11  7.6933218      11.539983      15.386628      1366.0372    
        21   0             -549.12         2.4825787      1.9597316      1.9597316      3.5282728     -2.9293766e-11  9.388987e-12  -2.2610212e-11  7.6933218      11.539983      15.386628      1366.0372    
        22   0             -549.12         2.4825787      1.9597316      1.9597316      3.5282728     -2.9154346e-11 -1.4886482e-11 -1.5453851e-11  7.6933218      11.539983      15.386628      1366.0372    
        23   0             -549.12         2.4825787      1.9597316      1.9597316      3.5282728     -3.2823406e-12 -1.5566415e-11  2.357618e-11   7.6933218      11.539983      15.386628      1366.0372    
        24   0             -549.12         2.4825787      1.9597316      1.9597316      3.5282728     -2.6095543e-11  4.4134133e-11  3.4014475e-11  7.6933218      11.539983      15.386628      1366.0372    
Loop time of 0.0058195 on 4 procs for 23 steps with 96 atoms

0.0% CPU use with 4 MPI tasks x 1 OpenMP threads

Minimization stats:
  Stopping criterion = force tolerance
  Energy initial, next-to-last, final = 
     -549.119999943989  -549.120000008926  -549.120000008926
  Force two-norm initial, final = 0.0015161492 7.5693709e-11
  Force max component initial, final = 0.00022933016 1.2454672e-11
  Final line search alpha, max atom move = 1 1.2454672e-11
  Iterations, force evaluations = 23 46

MPI task timing breakdown:
Section |  min time  |  avg time  |  max time  |%varavg| %total
---------------------------------------------------------------
Pair    | 0.004755   | 0.0048963  | 0.005075   |   0.2 | 84.14
Neigh   | 0          | 0          | 0          |   0.0 |  0.00
Comm    | 0.000287   | 0.0004605  | 0.000602   |   0.0 |  7.91
Output  | 0.000201   | 0.00021775 | 0.00026    |   0.0 |  3.74
Modify  | 0          | 0          | 0          |   0.0 |  0.00
Other   |            | 0.000245   |            |       |  4.21

Nlocal:             24 ave          29 max          21 min
Histogram: 1 0 2 0 0 0 0 0 0 1
Nghost:            300 ave         303 max         295 min
Histogram: 1 0 0 0 0 0 0 2 0 1
Neighs:            504 ave         616 max         436 min
Histogram: 1 0 2 0 0 0 0 0 0 1
FullNghs:         1008 ave        1218 max         882 min
Histogram: 1 0 2 0 0 0 0 0 0 1

Total # of neighbors = 4032
Ave neighs/atom = 42
Neighbor list builds = 0
Dangerous builds = 0

# Obtain new stress tensor

variable tmp equal pxx
variable pxx1 equal ${tmp}
variable pxx1 equal 1.95973159299068
variable tmp equal pyy
variable pyy1 equal ${tmp}
variable pyy1 equal 1.95973159325627
variable tmp equal pzz
variable pzz1 equal ${tmp}
variable pzz1 equal 3.52827279728579
variable tmp equal pxy
variable pxy1 equal ${tmp}
variable pxy1 equal -2.60955431236694e-11
variable tmp equal pxz
variable pxz1 equal ${tmp}
variable pxz1 equal 4.41341333488012e-11
variable tmp equal pyz
variable pyz1 equal ${tmp}
variable pyz1 equal 3.40144752968936e-11

# Compute elastic constant from pressure tensor

variable C1neg equal ${d1}
variable C1neg equal 195.973159295311
variable C2neg equal ${d2}
variable C2neg equal 195.973159304565
variable C3neg equal ${d3}
variable C3neg equal 352.827279716595
variable C4neg equal ${d4}
variable C4neg equal 1.96476905923238e-09
variable C5neg equal ${d5}
variable C5neg equal 2.09031191665555e-09
variable C6neg equal ${d6}
variable C6neg equal -5.03981152394885e-09

# Reset box and simulation parameters

clear
  using 1 OpenMP thread(s) per MPI task
Loaded 1 plugins from C:\Program Files\LAMMPS 64-bit 23Jun2022\plugins
Loaded 0 plugins from C:\Program Files\LAMMPS 64-bit 23Jun2022-MPI\plugins
Loaded 1 plugins from C:\Program Files\LAMMPS 64-bit 22Dec2022-MSMPI\plugins
Loaded 1 plugins from C:\Program Files\LAMMPS 64-bit 28Mar2023-MPI\plugins
box tilt large

The 'box' command has been removed and will be ignored

read_restart restart.equil
Reading restart file ...
  restart file = 22 Dec 2022, LAMMPS = 22 Dec 2022
  restoring atom style atomic from restart
  triclinic box = (-0.0013814506 -0.0013814506 -0.0013814506) to (7.6919404 11.538601 15.385262) with tilt (0 0 0)
  1 by 2 by 2 MPI processor grid
  pair style meam stores no restart info
  96 atoms
  read_restart CPU = 0.000 seconds
include potential.mod
# NOTE: This script can be modified for different pair styles
# See in.elastic for more info.

# Choose potential
#-----------------------
#pair_style	sw
#pair_coeff * * Si.sw Si
#-----------------------
#pair_style morse	2.83994742	# D0[eV] a[1/A] r0[A] rc[A], 1NN for BCC
#pair_coeff 1 1	2.1173	1.0202	2.4595	2.6497	#	Fe-Fe
#-----------------------
#pair_style smatb # R0(A)   p       q     A(eV)   xi(eV)  Rcs(A)   Rc(A), 4NN: Rcs=4NN, Rc=(4NN+5NN)/2
#pair_coeff 1 1	2.4802	7.0149	2.3779	0.3144	3.0551	4.033	4.176	#	Co	Co
#-----------------------
#pair_style eam/alloy
#pair_coeff * * AlCrFeCoNi_Zhou04.eam.alloy Fe
#-----------------------
pair_style meam
#pair_coeff * * ./../../library.meam Pt Pd Rh ./../../PtPdRh.meam Pt
#pair_coeff * * ./../../library.meam Pt Pd Rh ./../../PtPdRh.meam Pd
pair_coeff * * ./../../library.meam Pt Pd Rh ./../../PtPdRh.meam Rh
#-----------------------

# Setup neighbor style
neighbor 1.0 nsq
neigh_modify once no every 1 delay 0 check yes

# Setup minimization style
min_style	     cg
min_modify	     dmax ${dmax} line quadratic
min_modify	     dmax 0.01 line quadratic

# Setup output
thermo		1
thermo_style custom step temp pe press pxx pyy pzz pxy pxz pyz lx ly lz vol
thermo_modify norm no

# Positive deformation

variable delta equal ${up}*${len0}
variable delta equal 1e-06*${len0}
variable delta equal 1e-06*15.3866436050506
variable deltaxy equal ${up}*xy
variable deltaxy equal 1e-06*xy
variable deltaxz equal ${up}*xz
variable deltaxz equal 1e-06*xz
variable deltayz equal ${up}*yz
variable deltayz equal 1e-06*yz
if "${dir} == 1" then    "change_box all x delta 0 ${delta} xy delta ${deltaxy} xz delta ${deltaxz} remap units box"
if "${dir} == 2" then    "change_box all y delta 0 ${delta} yz delta ${deltayz} remap units box"
if "${dir} == 3" then    "change_box all z delta 0 ${delta} remap units box"
change_box all z delta 0 ${delta} remap units box
change_box all z delta 0 1.53866436050506e-05 remap units box
Changing box ...
  triclinic box = (-0.0013814506 -0.0013814506 -0.0013814506) to (7.6919404 11.538601 15.385278) with tilt (0 0 0)
if "${dir} == 4" then    "change_box all yz delta ${delta} remap units box"
if "${dir} == 5" then    "change_box all xz delta ${delta} remap units box"
[...]
#pair_style eam/alloy
#pair_coeff * * AlCrFeCoNi_Zhou04.eam.alloy Fe
#-----------------------
pair_style meam
#pair_coeff * * ./../../library.meam Pt Pd Rh ./../../PtPdRh.meam Pt
#pair_coeff * * ./../../library.meam Pt Pd Rh ./../../PtPdRh.meam Pd
pair_coeff * * ./../../library.meam Pt Pd Rh ./../../PtPdRh.meam Rh
#-----------------------

# Setup neighbor style
neighbor 1.0 nsq
neigh_modify once no every 1 delay 0 check yes

# Setup minimization style
min_style	     cg
min_modify	     dmax ${dmax} line quadratic
min_modify	     dmax 0.01 line quadratic

# Setup output
thermo		1
thermo_style custom step temp pe press pxx pyy pzz pxy pxz pyz lx ly lz vol
thermo_modify norm no

# Positive deformation

variable delta equal ${up}*${len0}
variable delta equal 1e-06*${len0}
variable delta equal 1e-06*11.5399827037879
variable deltaxy equal ${up}*xy
variable deltaxy equal 1e-06*xy
variable deltaxz equal ${up}*xz
variable deltaxz equal 1e-06*xz
variable deltayz equal ${up}*yz
variable deltayz equal 1e-06*yz
if "${dir} == 1" then    "change_box all x delta 0 ${delta} xy delta ${deltaxy} xz delta ${deltaxz} remap units box"
if "${dir} == 2" then    "change_box all y delta 0 ${delta} yz delta ${deltayz} remap units box"
if "${dir} == 3" then    "change_box all z delta 0 ${delta} remap units box"
if "${dir} == 4" then    "change_box all yz delta ${delta} remap units box"
if "${dir} == 5" then    "change_box all xz delta ${delta} remap units box"
if "${dir} == 6" then    "change_box all xy delta ${delta} remap units box"
change_box all xy delta ${delta} remap units box
change_box all xy delta 1.15399827037879e-05 remap units box
Changing box ...
  triclinic box = (-0.0013814506 -0.0013814506 -0.0013814506) to (7.6919404 11.538601 15.385262) with tilt (1.1539983e-05 0 0)

# Relax atoms positions

minimize ${etol} ${ftol} ${maxiter} ${maxeval}
minimize 0 ${ftol} ${maxiter} ${maxeval}
minimize 0 1e-10 ${maxiter} ${maxeval}
minimize 0 1e-10 1000 ${maxeval}
minimize 0 1e-10 1000 100000
Neighbor list info ...
  update: every = 1 steps, delay = 0 steps, check = yes
  max neighbors/atom: 2000, page size: 100000
  master list distance cutoff = 5
  ghost atom cutoff = 5
  2 neighbor lists, perpetual/occasional/extra = 2 0 0
  (1) pair meam, perpetual
      attributes: full, newton on
      pair build: full/nsq
      stencil: none
      bin: none
  (2) pair meam, perpetual, half/full from (1)
      attributes: half, newton on
      pair build: halffull/newton
      stencil: none
      bin: none
Per MPI rank memory allocation (min/avg/max) = 9.76 | 9.762 | 9.766 Mbytes
   Step          Temp          PotEng         Press           Pxx            Pyy            Pzz            Pxy            Pxz            Pyz             Lx             Ly             Lz           Volume    
         1   0             -549.12         0.00023652624  0.0002357924   0.00024391907  0.00022986724 -1.3214363      1.5707754e-05 -1.1981044e-05  7.6933218      11.539983      15.386644      1366.0385    
         2   0             -549.12         2.4548516e-05  2.5787749e-05  2.7289612e-05  2.0568187e-05 -1.3214282      1.6128033e-06 -1.8923428e-06  7.6933218      11.539983      15.386644      1366.0385    
         3   0             -549.12         5.4829944e-06  5.8558538e-06  7.7900603e-06  2.803069e-06  -1.3214286      1.9011359e-07 -5.9281198e-07  7.6933218      11.539983      15.386644      1366.0385    
         4   0             -549.12         2.8899748e-06  3.1100715e-06  5.0981893e-06  4.6166351e-07 -1.3214283      6.2702836e-08 -1.777555e-07   7.6933218      11.539983      15.386644      1366.0385    
         5   0             -549.12         2.3730361e-06  2.5513633e-06  4.5660437e-06  1.701469e-09  -1.3214282      2.4405767e-08 -6.661297e-08   7.6933218      11.539983      15.386644      1366.0385    
         6   0             -549.12         2.1697525e-06  2.3878671e-06  4.3455898e-06 -2.2419934e-07 -1.3214282      4.4061038e-09 -4.2067784e-09  7.6933218      11.539983      15.386644      1366.0385    
         7   0             -549.12         2.0509632e-06  2.3248055e-06  4.2203168e-06 -3.9223262e-07 -1.3214282     -2.4674917e-09  1.2371846e-08  7.6933218      11.539983      15.386644      1366.0385    
         8   0             -549.12         2.0093155e-06  2.3089111e-06  4.18165e-06   -4.6261468e-07 -1.3214282     -1.1782666e-09  7.1216302e-09  7.6933218      11.539983      15.386644      1366.0385    
         9   0             -549.12         1.9953178e-06  2.305214e-06   4.1675113e-06 -4.8677174e-07 -1.3214282     -3.3715186e-10  2.0989459e-09  7.6933218      11.539983      15.386644      1366.0385    
        10   0             -549.12         1.9879962e-06  2.3014421e-06  4.1606704e-06 -4.9812381e-07 -1.3214282      4.9445663e-11  5.1205055e-11  7.6933218      11.539983      15.386644      1366.0385    
        11   0             -549.12         1.9854867e-06  2.2991609e-06  4.1581445e-06 -5.0084533e-07 -1.3214282      2.5780493e-11 -1.4018404e-10  7.6933218      11.539983      15.386644      1366.0385    
        12   0             -549.12         1.9849459e-06  2.2986632e-06  4.1574835e-06 -5.0130904e-07 -1.3214282      1.1128146e-11 -3.9084598e-11  7.6933218      11.539983      15.386644      1366.0385    
        13   0             -549.12         1.9847834e-06  2.2984765e-06  4.1573207e-06 -5.0144711e-07 -1.3214282      9.6073897e-12  1.5561789e-11  7.6933218      11.539983      15.386644      1366.0385    
        14   0             -549.12         1.984788e-06   2.2984715e-06  4.1573112e-06 -5.0141885e-07 -1.3214282      1.0009811e-11 -1.3865955e-11  7.6933218      11.539983      15.386644      1366.0385    
        15   0             -549.12         1.9847835e-06  2.2984765e-06  4.1572949e-06 -5.0142072e-07 -1.3214282     -3.1803832e-11 -1.3842149e-11  7.6933218      11.539983      15.386644      1366.0385    
        16   0             -549.12         1.9847069e-06  2.2984024e-06  4.1572289e-06 -5.0151074e-07 -1.3214282      3.0488632e-11  6.655515e-12   7.6933218      11.539983      15.386644      1366.0385    
        17   0             -549.12         1.9847166e-06  2.2984236e-06  4.157255e-06  -5.0152885e-07 -1.3214282      1.2520633e-11  4.8520394e-12  7.6933218      11.539983      15.386644      1366.0385    
        18   0             -549.12         1.9848609e-06  2.298525e-06   4.1573861e-06 -5.0132834e-07 -1.3214282      2.9436056e-12  1.3994798e-11  7.6933218      11.539983      15.386644      1366.0385    
        19   0             -549.12         1.9847244e-06  2.2984369e-06  4.1572188e-06 -5.0148248e-07 -1.3214282     -6.269301e-12  -2.8562949e-11  7.6933218      11.539983      15.386644      1366.0385    
        20   0             -549.12         1.9847953e-06  2.2984986e-06  4.1573319e-06 -5.0144466e-07 -1.3214282     -3.8759824e-12 -9.8158793e-12  7.6933218      11.539983      15.386644      1366.0385    
        21   0             -549.12         1.9847528e-06  2.2984851e-06  4.1572671e-06 -5.0149388e-07 -1.3214282     -3.7782072e-12  9.5138046e-12  7.6933218      11.539983      15.386644      1366.0385    
        22   0             -549.12         1.984749e-06   2.2984384e-06  4.1572739e-06 -5.0146532e-07 -1.3214282      1.4402513e-11 -1.5804721e-11  7.6933218      11.539983      15.386644      1366.0385    
        23   0             -549.12         1.9848185e-06  2.298503e-06   4.1573135e-06 -5.0136101e-07 -1.3214282      1.957138e-13  -9.9513113e-12  7.6933218      11.539983      15.386644      1366.0385    
        24   0             -549.12         1.9847153e-06  2.2984217e-06  4.157241e-06  -5.0151679e-07 -1.3214282     -1.0875805e-11 -2.4952138e-11  7.6933218      11.539983      15.386644      1366.0385    
Loop time of 0.00596075 on 4 procs for 23 steps with 96 atoms

0.0% CPU use with 4 MPI tasks x 1 OpenMP threads

Minimization stats:
  Stopping criterion = force tolerance
  Energy initial, next-to-last, final = 
     -549.119999944931  -549.120000009867  -549.120000009867
  Force two-norm initial, final = 0.001516144 6.8720907e-11
  Force max component initial, final = 0.00022932954 1.029212e-11
  Final line search alpha, max atom move = 1 1.029212e-11
  Iterations, force evaluations = 23 46

MPI task timing breakdown:
Section |  min time  |  avg time  |  max time  |%varavg| %total
---------------------------------------------------------------
Pair    | 0.00489    | 0.005016   | 0.005095   |   0.1 | 84.15
Neigh   | 0          | 0          | 0          |   0.0 |  0.00
Comm    | 0.00042    | 0.00050225 | 0.000634   |   0.0 |  8.43
Output  | 0.000209   | 0.00021925 | 0.00024    |   0.0 |  3.68
Modify  | 0          | 0          | 0          |   0.0 |  0.00
Other   |            | 0.0002232  |            |       |  3.75

Nlocal:             24 ave          29 max          21 min
Histogram: 1 0 2 0 0 0 0 0 0 1
Nghost:            300 ave         303 max         295 min
Histogram: 1 0 0 0 0 0 0 2 0 1
Neighs:            504 ave         616 max         436 min
Histogram: 1 0 2 0 0 0 0 0 0 1
FullNghs:         1008 ave        1218 max         882 min
Histogram: 1 0 2 0 0 0 0 0 0 1

Total # of neighbors = 4032
Ave neighs/atom = 42
Neighbor list builds = 0
Dangerous builds = 0

# Obtain new stress tensor

variable tmp equal pe
variable e1 equal ${tmp}
variable e1 equal -549.120000009867
variable tmp equal press
variable p1 equal ${tmp}
variable p1 equal 1.98471531222495e-06
variable tmp equal pxx
variable pxx1 equal ${tmp}
variable pxx1 equal 2.2984217181008e-06
variable tmp equal pyy
variable pyy1 equal ${tmp}
variable pyy1 equal 4.15724100954343e-06
variable tmp equal pzz
variable pzz1 equal ${tmp}
variable pzz1 equal -5.01516790969366e-07
variable tmp equal pxy
variable pxy1 equal ${tmp}
variable pxy1 equal -1.32142820043596
variable tmp equal pxz
variable pxz1 equal ${tmp}
variable pxz1 equal -1.0875804902515e-11
variable tmp equal pyz
variable pyz1 equal ${tmp}
variable pyz1 equal -2.49521378961437e-11

# Compute elastic constant from pressure tensor

variable C1pos equal ${d1}
variable C1pos equal -0.000229838415142192
variable C2pos equal ${d2}
variable C2pos equal -0.000415703038569716
variable C3pos equal ${d3}
variable C3pos equal 5.01636628675001e-05
variable C4pos equal ${d4}
variable C4pos equal 3.93189226007135e-09
variable C5pos equal ${d5}
variable C5pos equal 3.41068190847607e-09
variable C6pos equal ${d6}
variable C6pos equal 132.142820046026

# Combine positive and negative

variable C1${dir} equal 0.5*(${C1neg}+${C1pos})
variable C16 equal 0.5*(${C1neg}+${C1pos})
variable C16 equal 0.5*(0.000229837576154499+${C1pos})
variable C16 equal 0.5*(0.000229837576154499+-0.000229838415142192)
variable C2${dir} equal 0.5*(${C2neg}+${C2pos})
variable C26 equal 0.5*(${C2neg}+${C2pos})
variable C26 equal 0.5*(0.000415703564508209+${C2pos})
variable C26 equal 0.5*(0.000415703564508209+-0.000415703038569716)
variable C3${dir} equal 0.5*(${C3neg}+${C3pos})
variable C36 equal 0.5*(${C3neg}+${C3pos})
variable C36 equal 0.5*(-5.01589419881872e-05+${C3pos})
variable C36 equal 0.5*(-5.01589419881872e-05+5.01636628675001e-05)
variable C4${dir} equal 0.5*(${C4neg}+${C4pos})
variable C46 equal 0.5*(${C4neg}+${C4pos})
variable C46 equal 0.5*(-3.63113365409863e-09+${C4pos})
variable C46 equal 0.5*(-3.63113365409863e-09+3.93189226007135e-09)
variable C5${dir} equal 0.5*(${C5neg}+${C5pos})
variable C56 equal 0.5*(${C5neg}+${C5pos})
variable C56 equal 0.5*(-2.13328664493638e-09+${C5pos})
variable C56 equal 0.5*(-2.13328664493638e-09+3.41068190847607e-09)
variable C6${dir} equal 0.5*(${C6neg}+${C6pos})
variable C66 equal 0.5*(${C6neg}+${C6pos})
variable C66 equal 0.5*(132.142820041711+${C6pos})
variable C66 equal 0.5*(132.142820041711+132.142820046026)

# Delete dir to make sure it is not reused

variable dir delete

# Output final values

variable C11all equal ${C11}
variable C11all equal 352.826409833141
variable C22all equal ${C22}
variable C22all equal 352.826409850798
variable C33all equal ${C33}
variable C33all equal 352.826409836115

variable C12all equal 0.5*(${C12}+${C21})
variable C12all equal 0.5*(195.972408549039+${C21})
variable C12all equal 0.5*(195.972408549039+195.972408536016)
variable C13all equal 0.5*(${C13}+${C31})
variable C13all equal 0.5*(195.972408542415+${C31})
variable C13all equal 0.5*(195.972408542415+195.972408537293)
variable C23all equal 0.5*(${C23}+${C32})
variable C23all equal 0.5*(195.972408542189+${C32})
variable C23all equal 0.5*(195.972408542189+195.972408552646)

variable C44all equal ${C44}
variable C44all equal 132.142820046499
variable C55all equal ${C55}
variable C55all equal 132.142820043971
variable C66all equal ${C66}
variable C66all equal 132.142820043868

variable C14all equal 0.5*(${C14}+${C41})
variable C14all equal 0.5*(6.63677993601098e-10+${C41})
variable C14all equal 0.5*(6.63677993601098e-10+2.06004139489834e-09)
variable C15all equal 0.5*(${C15}+${C51})
variable C15all equal 0.5*(2.12252521149801e-09+${C51})
variable C15all equal 0.5*(2.12252521149801e-09+-1.08478034224038e-09)
variable C16all equal 0.5*(${C16}+${C61})
variable C16all equal 0.5*(-4.19493846506424e-10+${C61})
variable C16all equal 0.5*(-4.19493846506424e-10+2.75127170396075e-09)

variable C24all equal 0.5*(${C24}+${C42})
variable C24all equal 0.5*(7.57609232998353e-10+${C42})
variable C24all equal 0.5*(7.57609232998353e-10+-1.31661876108255e-09)
variable C25all equal 0.5*(${C25}+${C52})
variable C25all equal 0.5*(1.94720618874717e-09+${C52})
variable C25all equal 0.5*(1.94720618874717e-09+-4.44737962119205e-10)
variable C26all equal 0.5*(${C26}+${C62})
variable C26all equal 0.5*(2.62969246503158e-10+${C62})
variable C26all equal 0.5*(2.62969246503158e-10+-1.7370765471734e-10)

variable C34all equal 0.5*(${C34}+${C43})
variable C34all equal 0.5*(7.95156713503985e-10+${C43})
variable C34all equal 0.5*(7.95156713503985e-10+1.17451240092251e-09)
variable C35all equal 0.5*(${C35}+${C53})
variable C35all equal 0.5*(2.27904678148146e-09+${C53})
variable C35all equal 0.5*(2.27904678148146e-09+2.34628540697947e-09)
variable C36all equal 0.5*(${C36}+${C63})
variable C36all equal 0.5*(2.36043965645173e-09+${C63})
variable C36all equal 0.5*(2.36043965645173e-09+-1.94123646571435e-09)

variable C45all equal 0.5*(${C45}+${C54})
variable C45all equal 0.5*(-2.03858320204544e-09+${C54})
variable C45all equal 0.5*(-2.03858320204544e-09+1.59447706290002e-09)
variable C46all equal 0.5*(${C46}+${C64})
variable C46all equal 0.5*(1.5037930298636e-10+${C64})
variable C46all equal 0.5*(1.5037930298636e-10+2.5882618597098e-10)
variable C56all equal 0.5*(${C56}+${C65})
variable C56all equal 0.5*(6.38697631769845e-10+${C65})
variable C56all equal 0.5*(6.38697631769845e-10+-2.70253427845867e-09)

# Average moduli for cubic crystals

variable C11cubic equal (${C11all}+${C22all}+${C33all})/3.0
variable C11cubic equal (352.826409833141+${C22all}+${C33all})/3.0
variable C11cubic equal (352.826409833141+352.826409850798+${C33all})/3.0
variable C11cubic equal (352.826409833141+352.826409850798+352.826409836115)/3.0
variable C12cubic equal (${C12all}+${C13all}+${C23all})/3.0
variable C12cubic equal (195.972408542527+${C13all}+${C23all})/3.0
variable C12cubic equal (195.972408542527+195.972408539854+${C23all})/3.0
variable C12cubic equal (195.972408542527+195.972408539854+195.972408547418)/3.0
variable C44cubic equal (${C44all}+${C55all}+${C66all})/3.0
variable C44cubic equal (132.142820046499+${C55all}+${C66all})/3.0
variable C44cubic equal (132.142820046499+132.142820043971+${C66all})/3.0
variable C44cubic equal (132.142820046499+132.142820043971+132.142820043868)/3.0

variable bulkmodulus equal (${C11cubic}+2*${C12cubic})/3.0
variable bulkmodulus equal (352.826409840018+2*${C12cubic})/3.0
variable bulkmodulus equal (352.826409840018+2*195.972408543266)/3.0
variable shearmodulus1 equal ${C44cubic}
variable shearmodulus1 equal 132.142820044779
variable shearmodulus2 equal (${C11cubic}-${C12cubic})/2.0
variable shearmodulus2 equal (352.826409840018-${C12cubic})/2.0
variable shearmodulus2 equal (352.826409840018-195.972408543266)/2.0
variable poissonratio equal 1.0/(1.0+${C11cubic}/${C12cubic})
variable poissonratio equal 1.0/(1.0+352.826409840018/${C12cubic})
variable poissonratio equal 1.0/(1.0+352.826409840018/195.972408543266)

# For Stillinger-Weber silicon, the analytical results
# are known to be (E. R. Cowley, 1988):
#               C11 = 151.4 GPa
#               C12 = 76.4 GPa
#               C44 = 56.4 GPa

print "========================================="
=========================================
print "Components of the Elastic Constant Tensor"
Components of the Elastic Constant Tensor
print "========================================="
=========================================

print "Elastic Constant C11all = ${C11all} ${cunits}"
Elastic Constant C11all = 352.826409833141 GPa
print "Elastic Constant C22all = ${C22all} ${cunits}"
Elastic Constant C22all = 352.826409850798 GPa
print "Elastic Constant C33all = ${C33all} ${cunits}"
Elastic Constant C33all = 352.826409836115 GPa

print "Elastic Constant C12all = ${C12all} ${cunits}"
Elastic Constant C12all = 195.972408542527 GPa
print "Elastic Constant C13all = ${C13all} ${cunits}"
Elastic Constant C13all = 195.972408539854 GPa
print "Elastic Constant C23all = ${C23all} ${cunits}"
Elastic Constant C23all = 195.972408547418 GPa

print "Elastic Constant C44all = ${C44all} ${cunits}"
Elastic Constant C44all = 132.142820046499 GPa
print "Elastic Constant C55all = ${C55all} ${cunits}"
Elastic Constant C55all = 132.142820043971 GPa
print "Elastic Constant C66all = ${C66all} ${cunits}"
Elastic Constant C66all = 132.142820043868 GPa

print "Elastic Constant C14all = ${C14all} ${cunits}"
Elastic Constant C14all = 1.36185969424972e-09 GPa
print "Elastic Constant C15all = ${C15all} ${cunits}"
Elastic Constant C15all = 5.18872434628815e-10 GPa
print "Elastic Constant C16all = ${C16all} ${cunits}"
Elastic Constant C16all = 1.16588892872716e-09 GPa

print "Elastic Constant C24all = ${C24all} ${cunits}"
Elastic Constant C24all = -2.79504764042099e-10 GPa
print "Elastic Constant C25all = ${C25all} ${cunits}"
Elastic Constant C25all = 7.51234113313983e-10 GPa
print "Elastic Constant C26all = ${C26all} ${cunits}"
Elastic Constant C26all = 4.4630795892909e-11 GPa

print "Elastic Constant C34all = ${C34all} ${cunits}"
Elastic Constant C34all = 9.84834557213247e-10 GPa
print "Elastic Constant C35all = ${C35all} ${cunits}"
Elastic Constant C35all = 2.31266609423046e-09 GPa
print "Elastic Constant C36all = ${C36all} ${cunits}"
Elastic Constant C36all = 2.0960159536869e-10 GPa

print "Elastic Constant C45all = ${C45all} ${cunits}"
Elastic Constant C45all = -2.2205306957271e-10 GPa
print "Elastic Constant C46all = ${C46all} ${cunits}"
Elastic Constant C46all = 2.0460274447867e-10 GPa
print "Elastic Constant C56all = ${C56all} ${cunits}"
Elastic Constant C56all = -1.03191832334441e-09 GPa

print "========================================="
=========================================
print "Average properties for a cubic crystal"
Average properties for a cubic crystal
print "========================================="
=========================================

print "Bulk Modulus = ${bulkmodulus} ${cunits}"
Bulk Modulus = 248.257075642183 GPa
print "Shear Modulus 1 = ${shearmodulus1} ${cunits}"
Shear Modulus 1 = 132.142820044779 GPa
print "Shear Modulus 2 = ${shearmodulus2} ${cunits}"
Shear Modulus 2 = 78.427000648376 GPa
print "Poisson Ratio = ${poissonratio}"
Poisson Ratio = 0.357093350019565
Total wall time: 0:00:00
