LAMMPS data file via write_data, version 22 Dec 2022, timestep = 30

4 atoms
1 atom types

0.049176474745555775 4.122111525254442 xlo xhi
0.049176474745555775 4.122111525254442 ylo yhi
0.049176474745555775 4.122111525254442 zlo zhi

Masses

1 196.97

Atoms # atomic

1 1 4.122111525254441 4.122111525254441 0.049176474745555865 -1 -1 0
2 1 4.122111525254441 2.085643999999999 2.085643999999999 -1 0 0
3 1 2.085643999999999 4.122111525254441 2.085643999999999 0 -1 0
4 1 2.085643999999999 2.085643999999999 4.122111525254441 0 0 -1

Velocities

1 0 0 0
2 0 0 0
3 0 0 0
4 0 0 0
