# LAMMPS data file written by OVITO Basic 3.8.4

8 atoms
2 atom types

0.0 5.529 xlo xhi
0.0 5.529 ylo yhi
0.0 5.529 zlo zhi

Masses

1 72.64  # Ge
2 28.0855  # Si

Atoms  # atomic

1 1 0.0 0.0 0.0
2 1 0.0 2.7645 2.7645
3 1 2.7645 0.0 2.7645
4 1 2.7645 2.7645 0.0
5 2 1.38225 1.38225 1.38225
6 2 1.38225 4.14675 4.14675
7 2 4.14675 1.38225 4.14675
8 2 4.14675 4.14675 1.38225
