# LAMMPS data file written by Ovito Basic 3.0.0-dev791
17 atoms
3 atom types
0.0 3.3285639286 xlo xhi
0.0 3.3285639286 ylo yhi
0.0 49.9856920242 zlo zhi

Atoms  # atomic

1 1 0.0 0.0 0.0
2 1 0.0 0.0 3.328564167
3 1 0.0 0.0 6.657128334
4 1 0.0 0.0 9.985692024
5 2 1.664281964 1.664281964 1.664282084
6 2 1.664281964 1.664281964 4.992846012
7 2 1.664281964 1.664281964 8.321410179
8 3 1.664281964 1.664281964 0.0
9 3 1.664281964 1.664281964 3.328564167
10 3 1.664281964 1.664281964 6.657128334
11 3 1.664281964 0.0 1.664282084
12 3 1.664281964 0.0 4.992846012
13 3 1.664281964 0.0 8.321410179
14 3 0.0 1.664281964 1.664282084
15 3 0.0 1.664281964 4.992846012
16 3 0.0 1.664281964 8.321410179
17 3 1.664281964 1.664281964 9.985692024
