LAMMPS (22 Dec 2022)
  using 1 OpenMP thread(s) per MPI task
Loaded 1 plugins from C:\Program Files\LAMMPS 64-bit 23Jun2022\plugins
Loaded 0 plugins from C:\Program Files\LAMMPS 64-bit 23Jun2022-MPI\plugins
Loaded 1 plugins from C:\Program Files\LAMMPS 64-bit 22Dec2022-MSMPI\plugins
Loaded 1 plugins from C:\Program Files\LAMMPS 64-bit 28Mar2023-MPI\plugins
#------------------------------------------------------------------------------------------
# LAMMPS 64-bit 22Dec2022-MSMPI
#------------------------------------------------------------------------------------------
clear
  using 1 OpenMP thread(s) per MPI task
Loaded 1 plugins from C:\Program Files\LAMMPS 64-bit 23Jun2022\plugins
Loaded 0 plugins from C:\Program Files\LAMMPS 64-bit 23Jun2022-MPI\plugins
Loaded 1 plugins from C:\Program Files\LAMMPS 64-bit 22Dec2022-MSMPI\plugins
Loaded 1 plugins from C:\Program Files\LAMMPS 64-bit 28Mar2023-MPI\plugins
#echo both
# ---------- Initializing Simulation ---------------------------------
units metal
dimension 3
boundary p p p
atom_style atomic
atom_modify map array

read_data ./../../TiN.data
Reading data file ...
  orthogonal box = (0 0 0) to (4.253534 4.253534 4.253534)
  2 by 2 by 2 MPI processor grid
  reading atoms ...
  8 atoms
  read_data CPU = 0.001 seconds

replicate 1 1 1
Replication is creating a 1x1x1 = 1 times larger system...
  orthogonal box = (0 0 0) to (4.253534 4.253534 4.253534)
  2 by 2 by 2 MPI processor grid
  8 atoms
  replicate CPU = 0.000 seconds

# ---------- Defining the Interatomic Potential ---------------------
pair_style meam
pair_coeff * * ./../../library.meam Ti V Cr Fe N ./../../TiVCrFeN.meam Ti N

# ---------- Running Minimization -------------------------------------
fix 1 all box/relax iso 0.0 vmax 0.001

thermo 10
thermo_style custom step pe etotal lx ly lz vol press pxx pyy pzz

min_style cg
minimize 1e-25 1e-25 5000 10000
Neighbor list info ...
  update: every = 1 steps, delay = 0 steps, check = yes
  max neighbors/atom: 2000, page size: 100000
  master list distance cutoff = 6
  ghost atom cutoff = 6
  binsize = 3, bins = 2 2 2
  2 neighbor lists, perpetual/occasional/extra = 2 0 0
  (1) pair meam, perpetual
      attributes: full, newton on
      pair build: full/bin/atomonly
      stencil: full/bin/3d
      bin: standard
  (2) pair meam, perpetual, half/full from (1)
      attributes: half, newton on
      pair build: halffull/newton
      stencil: none
      bin: none
Per MPI rank memory allocation (min/avg/max) = 9.633 | 9.633 | 9.633 Mbytes
   Step         PotEng         TotEng           Lx             Ly             Lz           Volume         Press           Pxx            Pyy            Pzz      
         0  -52.875481     -52.875481      4.253534       4.253534       4.253534       76.957283     -23026.676     -23026.676     -23026.676     -23026.676    
         5  -52.88         -52.88          4.242          4.242          4.242          76.332941     -1.193265e-06  -1.193265e-06  -1.193265e-06  -1.193265e-06 
Loop time of 0.00115113 on 8 procs for 5 steps with 8 atoms

0.0% CPU use with 8 MPI tasks x 1 OpenMP threads

Minimization stats:
  Stopping criterion = energy tolerance
  Energy initial, next-to-last, final = 
     -52.8754814940893  -52.8800000000333  -52.8800000000333
  Force two-norm initial, final = 3.3181184 1.710169e-10
  Force max component initial, final = 3.3181184 1.710169e-10
  Final line search alpha, max atom move = 1 1.710169e-10
  Iterations, force evaluations = 5 8

MPI task timing breakdown:
Section |  min time  |  avg time  |  max time  |%varavg| %total
---------------------------------------------------------------
Pair    | 0.000623   | 0.0006305  | 0.00064    |   0.0 | 54.77
Neigh   | 0          | 0          | 0          |   0.0 |  0.00
Comm    | 0.000163   | 0.00017262 | 0.000181   |   0.0 | 15.00
Output  | 0          | 0          | 0          |   0.0 |  0.00
Modify  | 0          | 0          | 0          |   0.0 |  0.00
Other   |            | 0.000348   |            |       | 30.23

Nlocal:              1 ave           1 max           1 min
Histogram: 8 0 0 0 0 0 0 0 0 0
Nghost:            215 ave         215 max         215 min
Histogram: 8 0 0 0 0 0 0 0 0 0
Neighs:             40 ave          40 max          40 min
Histogram: 8 0 0 0 0 0 0 0 0 0
FullNghs:           80 ave          80 max          80 min
Histogram: 8 0 0 0 0 0 0 0 0 0

Total # of neighbors = 640
Ave neighs/atom = 80
Neighbor list builds = 0
Dangerous builds = 0

variable  natoms equal "count(all)"
variable      x0 equal "lx"
variable      y0 equal "ly"
variable      z0 equal "lz"
variable      v0 equal "vol"
variable   etot0 equal "etotal"
variable   ecoh0 equal "pe/v_natoms"

unfix 1
write_data ./../step2_elastic/data.in
System init for write_data ...

# ---------- For Equation of States -------------------------------------
change_box all x scale 0.94 y scale 0.94 z scale 0.94 remap
Changing box ...
  orthogonal box = (0.133027 0.0057669986 0.0057669986) to (4.120507 4.247767 4.247767)
  orthogonal box = (0.133027 0.133027 0.0057669986) to (4.120507 4.120507 4.247767)
  orthogonal box = (0.133027 0.133027 0.133027) to (4.120507 4.120507 4.120507)
run 1
WARNING: No fixes with time integration, atoms won't move (src/verlet.cpp:60)
WARNING: Proc sub-domain size < neighbor skin, could lead to lost atoms (src/domain.cpp:966)
Per MPI rank memory allocation (min/avg/max) = 8.559 | 8.559 | 8.559 Mbytes
   Step         PotEng         TotEng           Lx             Ly             Lz           Volume         Press           Pxx            Pyy            Pzz      
         5  -50.181228     -50.181228      3.98748        3.98748        3.98748        63.400919      782728.23      782728.23      782728.23      782728.23    
         6  -50.181228     -50.181228      3.98748        3.98748        3.98748        63.400919      782728.23      782728.23      782728.23      782728.23    
Loop time of 0.000155 on 8 procs for 1 steps with 8 atoms

Performance: 557.419 ns/day, 0.043 hours/ns, 6451.613 timesteps/s, 51.613 katom-step/s
0.0% CPU use with 8 MPI tasks x 1 OpenMP threads

MPI task timing breakdown:
Section |  min time  |  avg time  |  max time  |%varavg| %total
---------------------------------------------------------------
Pair    | 0.000113   | 0.000115   | 0.000116   |   0.0 | 74.19
Neigh   | 0          | 0          | 0          |   0.0 |  0.00
Comm    | 2.2e-05    | 2.2875e-05 | 2.4e-05    |   0.0 | 14.76
Output  | 1.1e-05    | 1.1625e-05 | 1.3e-05    |   0.0 |  7.50
Modify  | 0          | 6.25e-07   | 2e-06      |   0.0 |  0.40
Other   |            | 4.875e-06  |            |       |  3.15

Nlocal:              1 ave           1 max           1 min
Histogram: 8 0 0 0 0 0 0 0 0 0
Nghost:            511 ave         511 max         511 min
Histogram: 8 0 0 0 0 0 0 0 0 0
Neighs:             61 ave          61 max          61 min
Histogram: 8 0 0 0 0 0 0 0 0 0
FullNghs:          122 ave         122 max         122 min
Histogram: 8 0 0 0 0 0 0 0 0 0

Total # of neighbors = 976
Ave neighs/atom = 122
Neighbor list builds = 0
Dangerous builds = 0
print "# Lattice constant (Angstroms), Volume (Angstrom), Total energy (eV), Cohesive energy (eV/atom)" file lattice_cohesive_energy.txt screen no


# Loop over lattice constants
variable i loop 49 # Number of steps
label loop

change_box all x scale 1.0025 y scale 1.0025 z scale 1.0025 remap
Changing box ...
  orthogonal box = (0.12804265 0.133027 0.133027) to (4.1254914 4.120507 4.120507)
  orthogonal box = (0.12804265 0.12804265 0.133027) to (4.1254914 4.1254914 4.120507)
  orthogonal box = (0.12804265 0.12804265 0.12804265) to (4.1254914 4.1254914 4.1254914)

run 1
WARNING: No fixes with time integration, atoms won't move (src/verlet.cpp:60)
WARNING: Proc sub-domain size < neighbor skin, could lead to lost atoms (src/domain.cpp:966)
Per MPI rank memory allocation (min/avg/max) = 8.614 | 8.615 | 8.624 Mbytes
   Step         PotEng         TotEng           Lx             Ly             Lz           Volume         Press           Pxx            Pyy            Pzz      
         6  -50.407705     -50.407705      3.9974487      3.9974487      3.9974487      63.877616      739880.98      739880.98      739880.98      739880.98    
         7  -50.407705     -50.407705      3.9974487      3.9974487      3.9974487      63.877616      739880.98      739880.98      739880.98      739880.98    
Loop time of 0.000235125 on 8 procs for 1 steps with 8 atoms

Performance: 367.464 ns/day, 0.065 hours/ns, 4253.057 timesteps/s, 34.024 katom-step/s
0.0% CPU use with 8 MPI tasks x 1 OpenMP threads

MPI task timing breakdown:
Section |  min time  |  avg time  |  max time  |%varavg| %total
---------------------------------------------------------------
Pair    | 0.000189   | 0.00019325 | 0.000197   |   0.0 | 82.19
Neigh   | 0          | 0          | 0          |   0.0 |  0.00
Comm    | 1.6e-05    | 2e-05      | 2.9e-05    |   0.0 |  8.51
Output  | 1.2e-05    | 1.75e-05   | 2.6e-05    |   0.0 |  7.44
Modify  | 0          | 1.25e-07   | 1e-06      |   0.0 |  0.05
Other   |            | 4.25e-06   |            |       |  1.81

Nlocal:              1 ave           8 max           0 min
Histogram: 7 0 0 0 0 0 0 0 0 1
Nghost:            511 ave         512 max         504 min
Histogram: 1 0 0 0 0 0 0 0 0 7
Neighs:             61 ave         488 max           0 min
Histogram: 7 0 0 0 0 0 0 0 0 1
FullNghs:          122 ave         976 max           0 min
Histogram: 7 0 0 0 0 0 0 0 0 1

Total # of neighbors = 976
Ave neighs/atom = 122
Neighbor list builds = 0
Dangerous builds = 0
variable  natoms equal "count(all)"
variable xlength equal "lx"
variable  volume equal "vol"
variable  etotal equal "etotal"
variable    ecoh equal "pe/v_natoms"
print "${xlength}, ${volume}, ${etotal}, ${ecoh}" append lattice_cohesive_energy.txt screen no

next i
jump SELF loop

change_box all x scale 1.0025 y scale 1.0025 z scale 1.0025 remap
Changing box ...
  orthogonal box = (0.12304584 0.12804265 0.12804265) to (4.1304882 4.1254914 4.1254914)
  orthogonal box = (0.12304584 0.12304584 0.12804265) to (4.1304882 4.1304882 4.1254914)
  orthogonal box = (0.12304584 0.12304584 0.12304584) to (4.1304882 4.1304882 4.1304882)

run 1
WARNING: No fixes with time integration, atoms won't move (src/verlet.cpp:60)
Per MPI rank memory allocation (min/avg/max) = 8.591 | 8.592 | 8.601 Mbytes
   Step         PotEng         TotEng           Lx             Ly             Lz           Volume         Press           Pxx            Pyy            Pzz      
         7  -50.623203     -50.623203      4.0074423      4.0074423      4.0074423      64.357897      698123.1       698123.1       698123.1       698123.1     
         8  -50.623203     -50.623203      4.0074423      4.0074423      4.0074423      64.357897      698123.1       698123.1       698123.1       698123.1     
Loop time of 0.0001405 on 8 procs for 1 steps with 8 atoms

Performance: 614.947 ns/day, 0.039 hours/ns, 7117.438 timesteps/s, 56.940 katom-step/s
0.0% CPU use with 8 MPI tasks x 1 OpenMP threads

MPI task timing breakdown:
Section |  min time  |  avg time  |  max time  |%varavg| %total
---------------------------------------------------------------
Pair    | 0.000106   | 0.00010738 | 0.000111   |   0.0 | 76.42
Neigh   | 0          | 0          | 0          |   0.0 |  0.00
Comm    | 9e-06      | 1.275e-05  | 1.8e-05    |   0.0 |  9.07
Output  | 1.1e-05    | 1.6e-05    | 2.1e-05    |   0.0 | 11.39
Modify  | 0          | 0          | 0          |   0.0 |  0.00
Other   |            | 4.375e-06  |            |       |  3.11

Nlocal:              1 ave           8 max           0 min
Histogram: 7 0 0 0 0 0 0 0 0 1
Nghost:            215 ave         216 max         208 min
Histogram: 1 0 0 0 0 0 0 0 0 7
Neighs:             46 ave         368 max           0 min
Histogram: 7 0 0 0 0 0 0 0 0 1
FullNghs:           92 ave         736 max           0 min
Histogram: 7 0 0 0 0 0 0 0 0 1

Total # of neighbors = 736
Ave neighs/atom = 92
Neighbor list builds = 0
Dangerous builds = 0
variable  natoms equal "count(all)"
variable xlength equal "lx"
variable  volume equal "vol"
variable  etotal equal "etotal"
variable    ecoh equal "pe/v_natoms"
print "${xlength}, ${volume}, ${etotal}, ${ecoh}" append lattice_cohesive_energy.txt screen no

next i
jump SELF loop

change_box all x scale 1.0025 y scale 1.0025 z scale 1.0025 remap
Changing box ...
  orthogonal box = (0.11803653 0.12304584 0.12304584) to (4.1354975 4.1304882 4.1304882)
  orthogonal box = (0.11803653 0.11803653 0.12304584) to (4.1354975 4.1354975 4.1304882)
  orthogonal box = (0.11803653 0.11803653 0.11803653) to (4.1354975 4.1354975 4.1354975)

run 1
WARNING: No fixes with time integration, atoms won't move (src/verlet.cpp:60)
Per MPI rank memory allocation (min/avg/max) = 8.591 | 8.592 | 8.601 Mbytes
   Step         PotEng         TotEng           Lx             Ly             Lz           Volume         Press           Pxx            Pyy            Pzz      
         8  -50.827873     -50.827873      4.0174609      4.0174609      4.0174609      64.841789      657434.36      657434.36      657434.36      657434.36    
         9  -50.827873     -50.827873      4.0174609      4.0174609      4.0174609      64.841789      657434.36      657434.36      657434.36      657434.36    
Loop time of 0.0001355 on 8 procs for 1 steps with 8 atoms

Performance: 637.638 ns/day, 0.038 hours/ns, 7380.074 timesteps/s, 59.041 katom-step/s
0.0% CPU use with 8 MPI tasks x 1 OpenMP threads

MPI task timing breakdown:
Section |  min time  |  avg time  |  max time  |%varavg| %total
---------------------------------------------------------------
Pair    | 0.000104   | 0.00010538 | 0.000107   |   0.0 | 77.77
Neigh   | 0          | 0          | 0          |   0.0 |  0.00
Comm    | 9e-06      | 1.2e-05    | 1.5e-05    |   0.0 |  8.86
Output  | 1.1e-05    | 1.4375e-05 | 1.8e-05    |   0.0 | 10.61
Modify  | 0          | 1.25e-07   | 1e-06      |   0.0 |  0.09
Other   |            | 3.625e-06  |            |       |  2.68

Nlocal:              1 ave           8 max           0 min
Histogram: 7 0 0 0 0 0 0 0 0 1
Nghost:            215 ave         216 max         208 min
Histogram: 1 0 0 0 0 0 0 0 0 7
Neighs:             46 ave         368 max           0 min
Histogram: 7 0 0 0 0 0 0 0 0 1
FullNghs:           92 ave         736 max           0 min
Histogram: 7 0 0 0 0 0 0 0 0 1

Total # of neighbors = 736
Ave neighs/atom = 92
Neighbor list builds = 0
Dangerous builds = 0
variable  natoms equal "count(all)"
variable xlength equal "lx"
variable  volume equal "vol"
variable  etotal equal "etotal"
variable    ecoh equal "pe/v_natoms"
print "${xlength}, ${volume}, ${etotal}, ${ecoh}" append lattice_cohesive_energy.txt screen no

next i
jump SELF loop

change_box all x scale 1.0025 y scale 1.0025 z scale 1.0025 remap
Changing box ...
  orthogonal box = (0.11301471 0.11803653 0.11803653) to (4.1405193 4.1354975 4.1354975)
  orthogonal box = (0.11301471 0.11301471 0.11803653) to (4.1405193 4.1405193 4.1354975)
  orthogonal box = (0.11301471 0.11301471 0.11301471) to (4.1405193 4.1405193 4.1405193)

run 1
WARNING: No fixes with time integration, atoms won't move (src/verlet.cpp:60)
Per MPI rank memory allocation (min/avg/max) = 8.591 | 8.592 | 8.601 Mbytes
   Step         PotEng         TotEng           Lx             Ly             Lz           Volume         Press           Pxx            Pyy            Pzz      
         9  -51.02186      -51.02186       4.0275046      4.0275046      4.0275046      65.329319      617794.77      617794.77      617794.77      617794.77    
        10  -51.02186      -51.02186       4.0275046      4.0275046      4.0275046      65.329319      617794.77      617794.77      617794.77      617794.77    
Loop time of 0.000135 on 8 procs for 1 steps with 8 atoms

Performance: 640.000 ns/day, 0.037 hours/ns, 7407.407 timesteps/s, 59.259 katom-step/s
0.0% CPU use with 8 MPI tasks x 1 OpenMP threads

MPI task timing breakdown:
Section |  min time  |  avg time  |  max time  |%varavg| %total
---------------------------------------------------------------
Pair    | 0.000103   | 0.00010388 | 0.000105   |   0.0 | 76.94
Neigh   | 0          | 0          | 0          |   0.0 |  0.00
Comm    | 9e-06      | 1.2e-05    | 1.6e-05    |   0.0 |  8.89
Output  | 1.2e-05    | 1.5e-05    | 1.8e-05    |   0.0 | 11.11
Modify  | 0          | 0          | 0          |   0.0 |  0.00
Other   |            | 4.125e-06  |            |       |  3.06

Nlocal:              1 ave           8 max           0 min
Histogram: 7 0 0 0 0 0 0 0 0 1
Nghost:            215 ave         216 max         208 min
Histogram: 1 0 0 0 0 0 0 0 0 7
Neighs:             46 ave         368 max           0 min
Histogram: 7 0 0 0 0 0 0 0 0 1
FullNghs:           92 ave         736 max           0 min
Histogram: 7 0 0 0 0 0 0 0 0 1

Total # of neighbors = 736
Ave neighs/atom = 92
Neighbor list builds = 0
Dangerous builds = 0
variable  natoms equal "count(all)"
variable xlength equal "lx"
variable  volume equal "vol"
variable  etotal equal "etotal"
variable    ecoh equal "pe/v_natoms"
print "${xlength}, ${volume}, ${etotal}, ${ecoh}" append lattice_cohesive_energy.txt screen no

next i
jump SELF loop

change_box all x scale 1.0025 y scale 1.0025 z scale 1.0025 remap
Changing box ...
  orthogonal box = (0.10798033 0.11301471 0.11301471) to (4.1455537 4.1405193 4.1405193)
  orthogonal box = (0.10798033 0.10798033 0.11301471) to (4.1455537 4.1455537 4.1405193)
  orthogonal box = (0.10798033 0.10798033 0.10798033) to (4.1455537 4.1455537 4.1455537)

run 1
WARNING: No fixes with time integration, atoms won't move (src/verlet.cpp:60)
Per MPI rank memory allocation (min/avg/max) = 8.591 | 8.592 | 8.601 Mbytes
   Step         PotEng         TotEng           Lx             Ly             Lz           Volume         Press           Pxx            Pyy            Pzz      
        10  -51.205312     -51.205312      4.0375733      4.0375733      4.0375733      65.820515      579184.67      579184.67      579184.67      579184.67    
        11  -51.205312     -51.205312      4.0375733      4.0375733      4.0375733      65.820515      579184.67      579184.67      579184.67      579184.67    
Loop time of 0.000137875 on 8 procs for 1 steps with 8 atoms

Performance: 626.655 ns/day, 0.038 hours/ns, 7252.947 timesteps/s, 58.024 katom-step/s
0.0% CPU use with 8 MPI tasks x 1 OpenMP threads

MPI task timing breakdown:
Section |  min time  |  avg time  |  max time  |%varavg| %total
---------------------------------------------------------------
Pair    | 0.000105   | 0.000106   | 0.000108   |   0.0 | 76.88
Neigh   | 0          | 0          | 0          |   0.0 |  0.00
Comm    | 9e-06      | 1.2125e-05 | 1.6e-05    |   0.0 |  8.79
Output  | 1.2e-05    | 1.5625e-05 | 1.8e-05    |   0.0 | 11.33
Modify  | 0          | 1.25e-07   | 1e-06      |   0.0 |  0.09
Other   |            | 4e-06      |            |       |  2.90

Nlocal:              1 ave           8 max           0 min
Histogram: 7 0 0 0 0 0 0 0 0 1
Nghost:            215 ave         216 max         208 min
Histogram: 1 0 0 0 0 0 0 0 0 7
Neighs:             46 ave         368 max           0 min
Histogram: 7 0 0 0 0 0 0 0 0 1
FullNghs:           92 ave         736 max           0 min
Histogram: 7 0 0 0 0 0 0 0 0 1

Total # of neighbors = 736
Ave neighs/atom = 92
Neighbor list builds = 0
Dangerous builds = 0
variable  natoms equal "count(all)"
variable xlength equal "lx"
variable  volume equal "vol"
variable  etotal equal "etotal"
variable    ecoh equal "pe/v_natoms"
print "${xlength}, ${volume}, ${etotal}, ${ecoh}" append lattice_cohesive_energy.txt screen no

next i
jump SELF loop

change_box all x scale 1.0025 y scale 1.0025 z scale 1.0025 remap
Changing box ...
  orthogonal box = (0.10293336 0.10798033 0.10798033) to (4.1506006 4.1455537 4.1455537)
  orthogonal box = (0.10293336 0.10293336 0.10798033) to (4.1506006 4.1506006 4.1455537)
  orthogonal box = (0.10293336 0.10293336 0.10293336) to (4.1506006 4.1506006 4.1506006)

run 1
WARNING: No fixes with time integration, atoms won't move (src/verlet.cpp:60)
Per MPI rank memory allocation (min/avg/max) = 8.591 | 8.592 | 8.601 Mbytes
   Step         PotEng         TotEng           Lx             Ly             Lz           Volume         Press           Pxx            Pyy            Pzz      
        11  -51.378374     -51.378374      4.0476673      4.0476673      4.0476673      66.315404      541584.67      541584.67      541584.67      541584.67    
        12  -51.378374     -51.378374      4.0476673      4.0476673      4.0476673      66.315404      541584.67      541584.67      541584.67      541584.67    
Loop time of 0.00013525 on 8 procs for 1 steps with 8 atoms

Performance: 638.817 ns/day, 0.038 hours/ns, 7393.715 timesteps/s, 59.150 katom-step/s
0.0% CPU use with 8 MPI tasks x 1 OpenMP threads

MPI task timing breakdown:
Section |  min time  |  avg time  |  max time  |%varavg| %total
---------------------------------------------------------------
Pair    | 0.000104   | 0.00010487 | 0.000106   |   0.0 | 77.54
Neigh   | 0          | 0          | 0          |   0.0 |  0.00
Comm    | 9e-06      | 1.2125e-05 | 1.7e-05    |   0.0 |  8.96
Output  | 1.1e-05    | 1.4625e-05 | 1.7e-05    |   0.0 | 10.81
Modify  | 0          | 2.5e-07    | 1e-06      |   0.0 |  0.18
Other   |            | 3.375e-06  |            |       |  2.50

Nlocal:              1 ave           8 max           0 min
Histogram: 7 0 0 0 0 0 0 0 0 1
Nghost:            215 ave         216 max         208 min
Histogram: 1 0 0 0 0 0 0 0 0 7
Neighs:             46 ave         368 max           0 min
Histogram: 7 0 0 0 0 0 0 0 0 1
FullNghs:           92 ave         736 max           0 min
Histogram: 7 0 0 0 0 0 0 0 0 1

Total # of neighbors = 736
Ave neighs/atom = 92
Neighbor list builds = 0
Dangerous builds = 0
variable  natoms equal "count(all)"
variable xlength equal "lx"
variable  volume equal "vol"
variable  etotal equal "etotal"
variable    ecoh equal "pe/v_natoms"
print "${xlength}, ${volume}, ${etotal}, ${ecoh}" append lattice_cohesive_energy.txt screen no

next i
jump SELF loop

change_box all x scale 1.0025 y scale 1.0025 z scale 1.0025 remap
Changing box ...
  orthogonal box = (0.097873777 0.10293336 0.10293336) to (4.1556602 4.1506006 4.1506006)
  orthogonal box = (0.097873777 0.097873777 0.10293336) to (4.1556602 4.1556602 4.1506006)
  orthogonal box = (0.097873777 0.097873777 0.097873777) to (4.1556602 4.1556602 4.1556602)

run 1
WARNING: No fixes with time integration, atoms won't move (src/verlet.cpp:60)
Per MPI rank memory allocation (min/avg/max) = 8.591 | 8.592 | 8.601 Mbytes
   Step         PotEng         TotEng           Lx             Ly             Lz           Volume         Press           Pxx            Pyy            Pzz      
        12  -51.54119      -51.54119       4.0577864      4.0577864      4.0577864      66.814014      504975.65      504975.65      504975.65      504975.65    
        13  -51.54119      -51.54119       4.0577864      4.0577864      4.0577864      66.814014      504975.65      504975.65      504975.65      504975.65    
Loop time of 0.000136875 on 8 procs for 1 steps with 8 atoms

Performance: 631.233 ns/day, 0.038 hours/ns, 7305.936 timesteps/s, 58.447 katom-step/s
0.0% CPU use with 8 MPI tasks x 1 OpenMP threads

MPI task timing breakdown:
Section |  min time  |  avg time  |  max time  |%varavg| %total
---------------------------------------------------------------
Pair    | 0.000105   | 0.00010613 | 0.000109   |   0.0 | 77.53
Neigh   | 0          | 0          | 0          |   0.0 |  0.00
Comm    | 9e-06      | 1.2e-05    | 1.6e-05    |   0.0 |  8.77
Output  | 1.1e-05    | 1.4625e-05 | 1.8e-05    |   0.0 | 10.68
Modify  | 0          | 1.25e-07   | 1e-06      |   0.0 |  0.09
Other   |            | 4e-06      |            |       |  2.92

Nlocal:              1 ave           8 max           0 min
Histogram: 7 0 0 0 0 0 0 0 0 1
Nghost:            215 ave         216 max         208 min
Histogram: 1 0 0 0 0 0 0 0 0 7
Neighs:             46 ave         368 max           0 min
Histogram: 7 0 0 0 0 0 0 0 0 1
FullNghs:           92 ave         736 max           0 min
Histogram: 7 0 0 0 0 0 0 0 0 1

Total # of neighbors = 736
Ave neighs/atom = 92
Neighbor list builds = 0
Dangerous builds = 0
variable  natoms equal "count(all)"
variable xlength equal "lx"
variable  volume equal "vol"
variable  etotal equal "etotal"
variable    ecoh equal "pe/v_natoms"
print "${xlength}, ${volume}, ${etotal}, ${ecoh}" append lattice_cohesive_energy.txt screen no

next i
jump SELF loop

change_box all x scale 1.0025 y scale 1.0025 z scale 1.0025 remap
Changing box ...
  orthogonal box = (0.092801544 0.097873777 0.097873777) to (4.1607325 4.1556602 4.1556602)
  orthogonal box = (0.092801544 0.092801544 0.097873777) to (4.1607325 4.1607325 4.1556602)
  orthogonal box = (0.092801544 0.092801544 0.092801544) to (4.1607325 4.1607325 4.1607325)

run 1
WARNING: No fixes with time integration, atoms won't move (src/verlet.cpp:60)
Per MPI rank memory allocation (min/avg/max) = 8.591 | 8.592 | 8.601 Mbytes
   Step         PotEng         TotEng           Lx             Ly             Lz           Volume         Press           Pxx            Pyy            Pzz      
        13  -51.693905     -51.693905      4.0679309      4.0679309      4.0679309      67.316373      469338.76      469338.76      469338.76      469338.76    
        14  -51.693905     -51.693905      4.0679309      4.0679309      4.0679309      67.316373      469338.76      469338.76      469338.76      469338.76    
Loop time of 0.000135125 on 8 procs for 1 steps with 8 atoms

Performance: 639.408 ns/day, 0.038 hours/ns, 7400.555 timesteps/s, 59.204 katom-step/s
0.0% CPU use with 8 MPI tasks x 1 OpenMP threads

MPI task timing breakdown:
Section |  min time  |  avg time  |  max time  |%varavg| %total
---------------------------------------------------------------
Pair    | 0.000104   | 0.0001045  | 0.000106   |   0.0 | 77.34
Neigh   | 0          | 0          | 0          |   0.0 |  0.00
Comm    | 1e-05      | 1.225e-05  | 1.6e-05    |   0.0 |  9.07
Output  | 1.1e-05    | 1.5125e-05 | 1.8e-05    |   0.0 | 11.19
Modify  | 0          | 0          | 0          |   0.0 |  0.00
Other   |            | 3.25e-06   |            |       |  2.41

Nlocal:              1 ave           8 max           0 min
Histogram: 7 0 0 0 0 0 0 0 0 1
Nghost:            215 ave         216 max         208 min
Histogram: 1 0 0 0 0 0 0 0 0 7
Neighs:             46 ave         368 max           0 min
Histogram: 7 0 0 0 0 0 0 0 0 1
FullNghs:           92 ave         736 max           0 min
Histogram: 7 0 0 0 0 0 0 0 0 1

Total # of neighbors = 736
Ave neighs/atom = 92
Neighbor list builds = 0
Dangerous builds = 0
variable  natoms equal "count(all)"
variable xlength equal "lx"
variable  volume equal "vol"
variable  etotal equal "etotal"
variable    ecoh equal "pe/v_natoms"
print "${xlength}, ${volume}, ${etotal}, ${ecoh}" append lattice_cohesive_energy.txt screen no

next i
jump SELF loop

change_box all x scale 1.0025 y scale 1.0025 z scale 1.0025 remap
Changing box ...
  orthogonal box = (0.087716631 0.092801544 0.092801544) to (4.1658174 4.1607325 4.1607325)
  orthogonal box = (0.087716631 0.087716631 0.092801544) to (4.1658174 4.1658174 4.1607325)
  orthogonal box = (0.087716631 0.087716631 0.087716631) to (4.1658174 4.1658174 4.1658174)

run 1
WARNING: No fixes with time integration, atoms won't move (src/verlet.cpp:60)
Per MPI rank memory allocation (min/avg/max) = 8.591 | 8.592 | 8.601 Mbytes
   Step         PotEng         TotEng           Lx             Ly             Lz           Volume         Press           Pxx            Pyy            Pzz      
        14  -51.836662     -51.836662      4.0781007      4.0781007      4.0781007      67.822509      434655.43      434655.43      434655.43      434655.43    
        15  -51.836662     -51.836662      4.0781007      4.0781007      4.0781007      67.822509      434655.43      434655.43      434655.43      434655.43    
Loop time of 0.000136 on 8 procs for 1 steps with 8 atoms

Performance: 635.294 ns/day, 0.038 hours/ns, 7352.941 timesteps/s, 58.824 katom-step/s
0.0% CPU use with 8 MPI tasks x 1 OpenMP threads

MPI task timing breakdown:
Section |  min time  |  avg time  |  max time  |%varavg| %total
---------------------------------------------------------------
Pair    | 0.000104   | 0.00010512 | 0.000106   |   0.0 | 77.30
Neigh   | 0          | 0          | 0          |   0.0 |  0.00
Comm    | 1e-05      | 1.225e-05  | 1.6e-05    |   0.0 |  9.01
Output  | 1.1e-05    | 1.45e-05   | 1.7e-05    |   0.0 | 10.66
Modify  | 0          | 0          | 0          |   0.0 |  0.00
Other   |            | 4.125e-06  |            |       |  3.03

Nlocal:              1 ave           8 max           0 min
Histogram: 7 0 0 0 0 0 0 0 0 1
Nghost:            215 ave         216 max         208 min
Histogram: 1 0 0 0 0 0 0 0 0 7
Neighs:             46 ave         368 max           0 min
Histogram: 7 0 0 0 0 0 0 0 0 1
FullNghs:           92 ave         736 max           0 min
Histogram: 7 0 0 0 0 0 0 0 0 1

Total # of neighbors = 736
Ave neighs/atom = 92
Neighbor list builds = 0
Dangerous builds = 0
variable  natoms equal "count(all)"
variable xlength equal "lx"
variable  volume equal "vol"
variable  etotal equal "etotal"
variable    ecoh equal "pe/v_natoms"
print "${xlength}, ${volume}, ${etotal}, ${ecoh}" append lattice_cohesive_energy.txt screen no

next i
jump SELF loop

change_box all x scale 1.0025 y scale 1.0025 z scale 1.0025 remap
Changing box ...
  orthogonal box = (0.082619005 0.087716631 0.087716631) to (4.170915 4.1658174 4.1658174)
  orthogonal box = (0.082619005 0.082619005 0.087716631) to (4.170915 4.170915 4.1658174)
  orthogonal box = (0.082619005 0.082619005 0.082619005) to (4.170915 4.170915 4.170915)

run 1
WARNING: No fixes with time integration, atoms won't move (src/verlet.cpp:60)
Per MPI rank memory allocation (min/avg/max) = 8.591 | 8.592 | 8.601 Mbytes
   Step         PotEng         TotEng           Lx             Ly             Lz           Volume         Press           Pxx            Pyy            Pzz      
        15  -51.969602     -51.969602      4.088296       4.088296       4.088296       68.33245       400907.41      400907.41      400907.41      400907.41    
        16  -51.969602     -51.969602      4.088296       4.088296       4.088296       68.33245       400907.41      400907.41      400907.41      400907.41    
Loop time of 0.000135125 on 8 procs for 1 steps with 8 atoms

Performance: 639.408 ns/day, 0.038 hours/ns, 7400.555 timesteps/s, 59.204 katom-step/s
0.0% CPU use with 8 MPI tasks x 1 OpenMP threads

MPI task timing breakdown:
Section |  min time  |  avg time  |  max time  |%varavg| %total
---------------------------------------------------------------
Pair    | 0.000103   | 0.00010388 | 0.000105   |   0.0 | 76.87
Neigh   | 0          | 0          | 0          |   0.0 |  0.00
Comm    | 9e-06      | 1.175e-05  | 1.6e-05    |   0.0 |  8.70
Output  | 1.1e-05    | 1.4625e-05 | 1.8e-05    |   0.0 | 10.82
Modify  | 0          | 2.5e-07    | 1e-06      |   0.0 |  0.19
Other   |            | 4.625e-06  |            |       |  3.42

Nlocal:              1 ave           8 max           0 min
Histogram: 7 0 0 0 0 0 0 0 0 1
Nghost:            215 ave         216 max         208 min
Histogram: 1 0 0 0 0 0 0 0 0 7
Neighs:             46 ave         368 max           0 min
Histogram: 7 0 0 0 0 0 0 0 0 1
FullNghs:           92 ave         736 max           0 min
Histogram: 7 0 0 0 0 0 0 0 0 1

Total # of neighbors = 736
Ave neighs/atom = 92
Neighbor list builds = 0
Dangerous builds = 0
variable  natoms equal "count(all)"
variable xlength equal "lx"
variable  volume equal "vol"
variable  etotal equal "etotal"
variable    ecoh equal "pe/v_natoms"
print "${xlength}, ${volume}, ${etotal}, ${ecoh}" append lattice_cohesive_energy.txt screen no

next i
jump SELF loop

change_box all x scale 1.0025 y scale 1.0025 z scale 1.0025 remap
Changing box ...
  orthogonal box = (0.077508635 0.082619005 0.082619005) to (4.1760254 4.170915 4.170915)
  orthogonal box = (0.077508635 0.077508635 0.082619005) to (4.1760254 4.1760254 4.170915)
  orthogonal box = (0.077508635 0.077508635 0.077508635) to (4.1760254 4.1760254 4.1760254)

run 1
WARNING: No fixes with time integration, atoms won't move (src/verlet.cpp:60)
Per MPI rank memory allocation (min/avg/max) = 8.591 | 8.592 | 8.601 Mbytes
   Step         PotEng         TotEng           Lx             Ly             Lz           Volume         Press           Pxx            Pyy            Pzz      
        16  -52.092868     -52.092868      4.0985167      4.0985167      4.0985167      68.846226      368076.71      368076.71      368076.71      368076.71    
        17  -52.092868     -52.092868      4.0985167      4.0985167      4.0985167      68.846226      368076.71      368076.71      368076.71      368076.71    
Loop time of 0.000143 on 8 procs for 1 steps with 8 atoms

Performance: 604.196 ns/day, 0.040 hours/ns, 6993.007 timesteps/s, 55.944 katom-step/s
0.0% CPU use with 8 MPI tasks x 1 OpenMP threads

MPI task timing breakdown:
Section |  min time  |  avg time  |  max time  |%varavg| %total
---------------------------------------------------------------
Pair    | 0.000111   | 0.00011262 | 0.000114   |   0.0 | 78.76
Neigh   | 0          | 0          | 0          |   0.0 |  0.00
Comm    | 9e-06      | 1.2e-05    | 1.6e-05    |   0.0 |  8.39
Output  | 1.1e-05    | 1.425e-05  | 1.7e-05    |   0.0 |  9.97
Modify  | 0          | 3.75e-07   | 2e-06      |   0.0 |  0.26
Other   |            | 3.75e-06   |            |       |  2.62

Nlocal:              1 ave           8 max           0 min
Histogram: 7 0 0 0 0 0 0 0 0 1
Nghost:            215 ave         216 max         208 min
Histogram: 1 0 0 0 0 0 0 0 0 7
Neighs:             46 ave         368 max           0 min
Histogram: 7 0 0 0 0 0 0 0 0 1
FullNghs:           92 ave         736 max           0 min
Histogram: 7 0 0 0 0 0 0 0 0 1

Total # of neighbors = 736
Ave neighs/atom = 92
Neighbor list builds = 0
Dangerous builds = 0
variable  natoms equal "count(all)"
variable xlength equal "lx"
variable  volume equal "vol"
variable  etotal equal "etotal"
variable    ecoh equal "pe/v_natoms"
print "${xlength}, ${volume}, ${etotal}, ${ecoh}" append lattice_cohesive_energy.txt screen no

next i
jump SELF loop

change_box all x scale 1.0025 y scale 1.0025 z scale 1.0025 remap
Changing box ...
  orthogonal box = (0.072385489 0.077508635 0.077508635) to (4.1811485 4.1760254 4.1760254)
  orthogonal box = (0.072385489 0.072385489 0.077508635) to (4.1811485 4.1811485 4.1760254)
  orthogonal box = (0.072385489 0.072385489 0.072385489) to (4.1811485 4.1811485 4.1811485)

run 1
WARNING: No fixes with time integration, atoms won't move (src/verlet.cpp:60)
Per MPI rank memory allocation (min/avg/max) = 8.591 | 8.592 | 8.601 Mbytes
   Step         PotEng         TotEng           Lx             Ly             Lz           Volume         Press           Pxx            Pyy            Pzz      
        17  -52.206599     -52.206599      4.108763       4.108763       4.108763       69.363864      336145.58      336145.58      336145.58      336145.58    
        18  -52.206599     -52.206599      4.108763       4.108763       4.108763       69.363864      336145.58      336145.58      336145.58      336145.58    
Loop time of 0.000136 on 8 procs for 1 steps with 8 atoms

Performance: 635.294 ns/day, 0.038 hours/ns, 7352.941 timesteps/s, 58.824 katom-step/s
0.0% CPU use with 8 MPI tasks x 1 OpenMP threads

MPI task timing breakdown:
Section |  min time  |  avg time  |  max time  |%varavg| %total
---------------------------------------------------------------
Pair    | 0.000105   | 0.000106   | 0.000108   |   0.0 | 77.94
Neigh   | 0          | 0          | 0          |   0.0 |  0.00
Comm    | 8e-06      | 1.15e-05   | 1.5e-05    |   0.0 |  8.46
Output  | 1.1e-05    | 1.4375e-05 | 1.7e-05    |   0.0 | 10.57
Modify  | 0          | 2.5e-07    | 1e-06      |   0.0 |  0.18
Other   |            | 3.875e-06  |            |       |  2.85

Nlocal:              1 ave           8 max           0 min
Histogram: 7 0 0 0 0 0 0 0 0 1
Nghost:            215 ave         216 max         208 min
Histogram: 1 0 0 0 0 0 0 0 0 7
Neighs:             46 ave         368 max           0 min
Histogram: 7 0 0 0 0 0 0 0 0 1
FullNghs:           92 ave         736 max           0 min
Histogram: 7 0 0 0 0 0 0 0 0 1

Total # of neighbors = 736
Ave neighs/atom = 92
Neighbor list builds = 0
Dangerous builds = 0
variable  natoms equal "count(all)"
variable xlength equal "lx"
variable  volume equal "vol"
variable  etotal equal "etotal"
variable    ecoh equal "pe/v_natoms"
print "${xlength}, ${volume}, ${etotal}, ${ecoh}" append lattice_cohesive_energy.txt screen no

next i
jump SELF loop

change_box all x scale 1.0025 y scale 1.0025 z scale 1.0025 remap
Changing box ...
  orthogonal box = (0.067249535 0.072385489 0.072385489) to (4.1862845 4.1811485 4.1811485)
  orthogonal box = (0.067249535 0.067249535 0.072385489) to (4.1862845 4.1862845 4.1811485)
  orthogonal box = (0.067249535 0.067249535 0.067249535) to (4.1862845 4.1862845 4.1862845)

run 1
WARNING: No fixes with time integration, atoms won't move (src/verlet.cpp:60)
Per MPI rank memory allocation (min/avg/max) = 8.591 | 8.592 | 8.601 Mbytes
   Step         PotEng         TotEng           Lx             Ly             Lz           Volume         Press           Pxx            Pyy            Pzz      
        18  -52.310935     -52.310935      4.1190349      4.1190349      4.1190349      69.885395      305096.57      305096.57      305096.57      305096.57    
        19  -52.310935     -52.310935      4.1190349      4.1190349      4.1190349      69.885395      305096.57      305096.57      305096.57      305096.57    
Loop time of 0.000181375 on 8 procs for 1 steps with 8 atoms

Performance: 476.361 ns/day, 0.050 hours/ns, 5513.439 timesteps/s, 44.108 katom-step/s
0.0% CPU use with 8 MPI tasks x 1 OpenMP threads

MPI task timing breakdown:
Section |  min time  |  avg time  |  max time  |%varavg| %total
---------------------------------------------------------------
Pair    | 0.000121   | 0.0001285  | 0.000141   |   0.0 | 70.85
Neigh   | 0          | 0          | 0          |   0.0 |  0.00
Comm    | 1e-05      | 1.6125e-05 | 3.6e-05    |   0.0 |  8.89
Output  | 1.4e-05    | 2.7e-05    | 4e-05      |   0.0 | 14.89
Modify  | 0          | 1.25e-07   | 1e-06      |   0.0 |  0.07
Other   |            | 9.625e-06  |            |       |  5.31

Nlocal:              1 ave           8 max           0 min
Histogram: 7 0 0 0 0 0 0 0 0 1
Nghost:            215 ave         216 max         208 min
Histogram: 1 0 0 0 0 0 0 0 0 7
Neighs:             46 ave         368 max           0 min
Histogram: 7 0 0 0 0 0 0 0 0 1
FullNghs:           92 ave         736 max           0 min
Histogram: 7 0 0 0 0 0 0 0 0 1

Total # of neighbors = 736
Ave neighs/atom = 92
Neighbor list builds = 0
Dangerous builds = 0
variable  natoms equal "count(all)"
variable xlength equal "lx"
variable  volume equal "vol"
variable  etotal equal "etotal"
variable    ecoh equal "pe/v_natoms"
print "${xlength}, ${volume}, ${etotal}, ${ecoh}" append lattice_cohesive_energy.txt screen no

next i
jump SELF loop

change_box all x scale 1.0025 y scale 1.0025 z scale 1.0025 remap
Changing box ...
  orthogonal box = (0.062100741 0.067249535 0.067249535) to (4.1914333 4.1862845 4.1862845)
  orthogonal box = (0.062100741 0.062100741 0.067249535) to (4.1914333 4.1914333 4.1862845)
  orthogonal box = (0.062100741 0.062100741 0.062100741) to (4.1914333 4.1914333 4.1914333)

run 1
WARNING: No fixes with time integration, atoms won't move (src/verlet.cpp:60)
Per MPI rank memory allocation (min/avg/max) = 8.591 | 8.592 | 8.601 Mbytes
   Step         PotEng         TotEng           Lx             Ly             Lz           Volume         Press           Pxx            Pyy            Pzz      
        19  -52.406016     -52.406016      4.1293325      4.1293325      4.1293325      70.410847      274912.42      274912.42      274912.42      274912.42    
        20  -52.406016     -52.406016      4.1293325      4.1293325      4.1293325      70.410847      274912.42      274912.42      274912.42      274912.42    
Loop time of 0.00017925 on 8 procs for 1 steps with 8 atoms

Performance: 482.008 ns/day, 0.050 hours/ns, 5578.801 timesteps/s, 44.630 katom-step/s
0.0% CPU use with 8 MPI tasks x 1 OpenMP threads

MPI task timing breakdown:
Section |  min time  |  avg time  |  max time  |%varavg| %total
---------------------------------------------------------------
Pair    | 0.00012    | 0.00012725 | 0.00014    |   0.0 | 70.99
Neigh   | 0          | 0          | 0          |   0.0 |  0.00
Comm    | 9e-06      | 1.6e-05    | 3.6e-05    |   0.0 |  8.93
Output  | 1.4e-05    | 2.725e-05  | 4.1e-05    |   0.0 | 15.20
Modify  | 0          | 0          | 0          |   0.0 |  0.00
Other   |            | 8.75e-06   |            |       |  4.88

Nlocal:              1 ave           8 max           0 min
Histogram: 7 0 0 0 0 0 0 0 0 1
Nghost:            215 ave         216 max         208 min
Histogram: 1 0 0 0 0 0 0 0 0 7
Neighs:             46 ave         368 max           0 min
Histogram: 7 0 0 0 0 0 0 0 0 1
FullNghs:           92 ave         736 max           0 min
Histogram: 7 0 0 0 0 0 0 0 0 1

Total # of neighbors = 736
Ave neighs/atom = 92
Neighbor list builds = 0
Dangerous builds = 0
variable  natoms equal "count(all)"
variable xlength equal "lx"
variable  volume equal "vol"
variable  etotal equal "etotal"
variable    ecoh equal "pe/v_natoms"
print "${xlength}, ${volume}, ${etotal}, ${ecoh}" append lattice_cohesive_energy.txt screen no

next i
jump SELF loop

change_box all x scale 1.0025 y scale 1.0025 z scale 1.0025 remap
Changing box ...
  orthogonal box = (0.056939076 0.062100741 0.062100741) to (4.1965949 4.1914333 4.1914333)
  orthogonal box = (0.056939076 0.056939076 0.062100741) to (4.1965949 4.1965949 4.1914333)
  orthogonal box = (0.056939076 0.056939076 0.056939076) to (4.1965949 4.1965949 4.1965949)

run 1
WARNING: No fixes with time integration, atoms won't move (src/verlet.cpp:60)
Per MPI rank memory allocation (min/avg/max) = 8.591 | 8.592 | 8.601 Mbytes
   Step         PotEng         TotEng           Lx             Ly             Lz           Volume         Press           Pxx            Pyy            Pzz      
        20  -52.491979     -52.491979      4.1396558      4.1396558      4.1396558      70.94025       245576.19      245576.19      245576.19      245576.19    
        21  -52.491979     -52.491979      4.1396558      4.1396558      4.1396558      70.94025       245576.19      245576.19      245576.19      245576.19    
Loop time of 0.00018175 on 8 procs for 1 steps with 8 atoms

Performance: 475.378 ns/day, 0.050 hours/ns, 5502.063 timesteps/s, 44.017 katom-step/s
0.0% CPU use with 8 MPI tasks x 1 OpenMP threads

MPI task timing breakdown:
Section |  min time  |  avg time  |  max time  |%varavg| %total
---------------------------------------------------------------
Pair    | 0.00012    | 0.00012712 | 0.000139   |   0.0 | 69.94
Neigh   | 0          | 0          | 0          |   0.0 |  0.00
Comm    | 9e-06      | 1.55e-05   | 3.4e-05    |   0.0 |  8.53
Output  | 1.4e-05    | 2.65e-05   | 4e-05      |   0.0 | 14.58
Modify  | 0          | 1.25e-07   | 1e-06      |   0.0 |  0.07
Other   |            | 1.25e-05   |            |       |  6.88

Nlocal:              1 ave           8 max           0 min
Histogram: 7 0 0 0 0 0 0 0 0 1
Nghost:            215 ave         216 max         208 min
Histogram: 1 0 0 0 0 0 0 0 0 7
Neighs:             46 ave         368 max           0 min
Histogram: 7 0 0 0 0 0 0 0 0 1
FullNghs:           92 ave         736 max           0 min
Histogram: 7 0 0 0 0 0 0 0 0 1

Total # of neighbors = 736
Ave neighs/atom = 92
Neighbor list builds = 0
Dangerous builds = 0
variable  natoms equal "count(all)"
variable xlength equal "lx"
variable  volume equal "vol"
variable  etotal equal "etotal"
variable    ecoh equal "pe/v_natoms"
print "${xlength}, ${volume}, ${etotal}, ${ecoh}" append lattice_cohesive_energy.txt screen no

next i
jump SELF loop

change_box all x scale 1.0025 y scale 1.0025 z scale 1.0025 remap
Changing box ...
  orthogonal box = (0.051764506 0.056939076 0.056939076) to (4.2017695 4.1965949 4.1965949)
  orthogonal box = (0.051764506 0.051764506 0.056939076) to (4.2017695 4.2017695 4.1965949)
  orthogonal box = (0.051764506 0.051764506 0.051764506) to (4.2017695 4.2017695 4.2017695)

run 1
WARNING: No fixes with time integration, atoms won't move (src/verlet.cpp:60)
Per MPI rank memory allocation (min/avg/max) = 8.591 | 8.592 | 8.601 Mbytes
   Step         PotEng         TotEng           Lx             Ly             Lz           Volume         Press           Pxx            Pyy            Pzz      
        21  -52.56896      -52.56896       4.150005       4.150005       4.150005       71.473633      217071.19      217071.19      217071.19      217071.19    
        22  -52.56896      -52.56896       4.150005       4.150005       4.150005       71.473633      217071.19      217071.19      217071.19      217071.19    
Loop time of 0.000243875 on 8 procs for 1 steps with 8 atoms

Performance: 354.280 ns/day, 0.068 hours/ns, 4100.461 timesteps/s, 32.804 katom-step/s
0.0% CPU use with 8 MPI tasks x 1 OpenMP threads

MPI task timing breakdown:
Section |  min time  |  avg time  |  max time  |%varavg| %total
---------------------------------------------------------------
Pair    | 0.000129   | 0.00015487 | 0.000205   |   0.0 | 63.51
Neigh   | 0          | 0          | 0          |   0.0 |  0.00
Comm    | 9e-06      | 2.75e-05   | 9e-05      |   0.0 | 11.28
Output  | 1.5e-05    | 5.3375e-05 | 9.6e-05    |   0.0 | 21.89
Modify  | 0          | 1.25e-07   | 1e-06      |   0.0 |  0.05
Other   |            | 8e-06      |            |       |  3.28

Nlocal:              1 ave           8 max           0 min
Histogram: 7 0 0 0 0 0 0 0 0 1
Nghost:            215 ave         216 max         208 min
Histogram: 1 0 0 0 0 0 0 0 0 7
Neighs:             46 ave         368 max           0 min
Histogram: 7 0 0 0 0 0 0 0 0 1
FullNghs:           92 ave         736 max           0 min
Histogram: 7 0 0 0 0 0 0 0 0 1

Total # of neighbors = 736
Ave neighs/atom = 92
Neighbor list builds = 0
Dangerous builds = 0
variable  natoms equal "count(all)"
variable xlength equal "lx"
variable  volume equal "vol"
variable  etotal equal "etotal"
variable    ecoh equal "pe/v_natoms"
print "${xlength}, ${volume}, ${etotal}, ${ecoh}" append lattice_cohesive_energy.txt screen no

next i
jump SELF loop

change_box all x scale 1.0025 y scale 1.0025 z scale 1.0025 remap
Changing box ...
  orthogonal box = (0.046577 0.051764506 0.051764506) to (4.206957 4.2017695 4.2017695)
  orthogonal box = (0.046577 0.046577 0.051764506) to (4.206957 4.206957 4.2017695)
  orthogonal box = (0.046577 0.046577 0.046577) to (4.206957 4.206957 4.206957)

run 1
WARNING: No fixes with time integration, atoms won't move (src/verlet.cpp:60)
Per MPI rank memory allocation (min/avg/max) = 8.591 | 8.592 | 8.601 Mbytes
   Step         PotEng         TotEng           Lx             Ly             Lz           Volume         Press           Pxx            Pyy            Pzz      
        22  -52.637097     -52.637097      4.16038        4.16038        4.16038        72.011026      189381         189381         189381         189381       
        23  -52.637097     -52.637097      4.16038        4.16038        4.16038        72.011026      189381         189381         189381         189381       
Loop time of 0.000182 on 8 procs for 1 steps with 8 atoms

Performance: 474.725 ns/day, 0.051 hours/ns, 5494.505 timesteps/s, 43.956 katom-step/s
0.0% CPU use with 8 MPI tasks x 1 OpenMP threads

MPI task timing breakdown:
Section |  min time  |  avg time  |  max time  |%varavg| %total
---------------------------------------------------------------
Pair    | 0.000123   | 0.00013025 | 0.000142   |   0.0 | 71.57
Neigh   | 0          | 0          | 0          |   0.0 |  0.00
Comm    | 9e-06      | 1.625e-05  | 3.5e-05    |   0.0 |  8.93
Output  | 1.4e-05    | 2.6875e-05 | 4e-05      |   0.0 | 14.77
Modify  | 0          | 2.5e-07    | 1e-06      |   0.0 |  0.14
Other   |            | 8.375e-06  |            |       |  4.60

Nlocal:              1 ave           8 max           0 min
Histogram: 7 0 0 0 0 0 0 0 0 1
Nghost:            215 ave         216 max         208 min
Histogram: 1 0 0 0 0 0 0 0 0 7
Neighs:             46 ave         368 max           0 min
Histogram: 7 0 0 0 0 0 0 0 0 1
FullNghs:           92 ave         736 max           0 min
Histogram: 7 0 0 0 0 0 0 0 0 1

Total # of neighbors = 736
Ave neighs/atom = 92
Neighbor list builds = 0
Dangerous builds = 0
variable  natoms equal "count(all)"
variable xlength equal "lx"
variable  volume equal "vol"
variable  etotal equal "etotal"
variable    ecoh equal "pe/v_natoms"
print "${xlength}, ${volume}, ${etotal}, ${ecoh}" append lattice_cohesive_energy.txt screen no

next i
jump SELF loop

change_box all x scale 1.0025 y scale 1.0025 z scale 1.0025 remap
Changing box ...
  orthogonal box = (0.041376525 0.046577 0.046577) to (4.2121575 4.206957 4.206957)
  orthogonal box = (0.041376525 0.041376525 0.046577) to (4.2121575 4.2121575 4.206957)
  orthogonal box = (0.041376525 0.041376525 0.041376525) to (4.2121575 4.2121575 4.2121575)

run 1
WARNING: No fixes with time integration, atoms won't move (src/verlet.cpp:60)
Per MPI rank memory allocation (min/avg/max) = 8.591 | 8.592 | 8.601 Mbytes
   Step         PotEng         TotEng           Lx             Ly             Lz           Volume         Press           Pxx            Pyy            Pzz      
        23  -52.696524     -52.696524      4.170781       4.170781       4.170781       72.55246       162489.42      162489.42      162489.42      162489.42    
        24  -52.696524     -52.696524      4.170781       4.170781       4.170781       72.55246       162489.42      162489.42      162489.42      162489.42    
Loop time of 0.000177125 on 8 procs for 1 steps with 8 atoms

Performance: 487.791 ns/day, 0.049 hours/ns, 5645.730 timesteps/s, 45.166 katom-step/s
0.0% CPU use with 8 MPI tasks x 1 OpenMP threads

MPI task timing breakdown:
Section |  min time  |  avg time  |  max time  |%varavg| %total
---------------------------------------------------------------
Pair    | 0.000119   | 0.000127   | 0.000139   |   0.0 | 71.70
Neigh   | 0          | 0          | 0          |   0.0 |  0.00
Comm    | 8e-06      | 1.5375e-05 | 3.5e-05    |   0.0 |  8.68
Output  | 1.4e-05    | 2.625e-05  | 4e-05      |   0.0 | 14.82
Modify  | 0          | 2.5e-07    | 1e-06      |   0.0 |  0.14
Other   |            | 8.25e-06   |            |       |  4.66

Nlocal:              1 ave           8 max           0 min
Histogram: 7 0 0 0 0 0 0 0 0 1
Nghost:            215 ave         216 max         208 min
Histogram: 1 0 0 0 0 0 0 0 0 7
Neighs:             46 ave         368 max           0 min
Histogram: 7 0 0 0 0 0 0 0 0 1
FullNghs:           92 ave         736 max           0 min
Histogram: 7 0 0 0 0 0 0 0 0 1

Total # of neighbors = 736
Ave neighs/atom = 92
Neighbor list builds = 0
Dangerous builds = 0
variable  natoms equal "count(all)"
variable xlength equal "lx"
variable  volume equal "vol"
variable  etotal equal "etotal"
variable    ecoh equal "pe/v_natoms"
print "${xlength}, ${volume}, ${etotal}, ${ecoh}" append lattice_cohesive_energy.txt screen no

next i
jump SELF loop

change_box all x scale 1.0025 y scale 1.0025 z scale 1.0025 remap
Changing box ...
  orthogonal box = (0.036163048 0.041376525 0.041376525) to (4.217371 4.2121575 4.2121575)
  orthogonal box = (0.036163048 0.036163048 0.041376525) to (4.217371 4.217371 4.2121575)
  orthogonal box = (0.036163048 0.036163048 0.036163048) to (4.217371 4.217371 4.217371)

run 1
WARNING: No fixes with time integration, atoms won't move (src/verlet.cpp:60)
Per MPI rank memory allocation (min/avg/max) = 8.591 | 8.592 | 8.601 Mbytes
   Step         PotEng         TotEng           Lx             Ly             Lz           Volume         Press           Pxx            Pyy            Pzz      
        24  -52.747376     -52.747376      4.1812079      4.1812079      4.1812079      73.097965      136380.53      136380.53      136380.53      136380.53    
        25  -52.747376     -52.747376      4.1812079      4.1812079      4.1812079      73.097965      136380.53      136380.53      136380.53      136380.53    
Loop time of 0.000245 on 8 procs for 1 steps with 8 atoms

Performance: 352.653 ns/day, 0.068 hours/ns, 4081.633 timesteps/s, 32.653 katom-step/s
1594.4% CPU use with 8 MPI tasks x 1 OpenMP threads

MPI task timing breakdown:
Section |  min time  |  avg time  |  max time  |%varavg| %total
---------------------------------------------------------------
Pair    | 0.000119   | 0.000153   | 0.000189   |   0.0 | 62.45
Neigh   | 0          | 0          | 0          |   0.0 |  0.00
Comm    | 9e-06      | 2.9875e-05 | 9.1e-05    |   0.0 | 12.19
Output  | 1.9e-05    | 4.9125e-05 | 0.000101   |   0.0 | 20.05
Modify  | 0          | 3.75e-07   | 1e-06      |   0.0 |  0.15
Other   |            | 1.262e-05  |            |       |  5.15

Nlocal:              1 ave           8 max           0 min
Histogram: 7 0 0 0 0 0 0 0 0 1
Nghost:            215 ave         216 max         208 min
Histogram: 1 0 0 0 0 0 0 0 0 7
Neighs:             46 ave         368 max           0 min
Histogram: 7 0 0 0 0 0 0 0 0 1
FullNghs:           92 ave         736 max           0 min
Histogram: 7 0 0 0 0 0 0 0 0 1

Total # of neighbors = 736
Ave neighs/atom = 92
Neighbor list builds = 0
Dangerous builds = 0
variable  natoms equal "count(all)"
variable xlength equal "lx"
variable  volume equal "vol"
variable  etotal equal "etotal"
variable    ecoh equal "pe/v_natoms"
print "${xlength}, ${volume}, ${etotal}, ${ecoh}" append lattice_cohesive_energy.txt screen no

next i
jump SELF loop

change_box all x scale 1.0025 y scale 1.0025 z scale 1.0025 remap
Changing box ...
  orthogonal box = (0.030936539 0.036163048 0.036163048) to (4.2225975 4.217371 4.217371)
  orthogonal box = (0.030936539 0.030936539 0.036163048) to (4.2225975 4.2225975 4.217371)
  orthogonal box = (0.030936539 0.030936539 0.030936539) to (4.2225975 4.2225975 4.2225975)

run 1
WARNING: No fixes with time integration, atoms won't move (src/verlet.cpp:60)
Per MPI rank memory allocation (min/avg/max) = 8.591 | 8.592 | 8.601 Mbytes
   Step         PotEng         TotEng           Lx             Ly             Lz           Volume         Press           Pxx            Pyy            Pzz      
        25  -52.789786     -52.789786      4.1916609      4.1916609      4.1916609      73.647572      111038.57      111038.57      111038.57      111038.57    
        26  -52.789786     -52.789786      4.1916609      4.1916609      4.1916609      73.647572      111038.57      111038.57      111038.57      111038.57    
Loop time of 0.000261 on 8 procs for 1 steps with 8 atoms

Performance: 331.034 ns/day, 0.073 hours/ns, 3831.418 timesteps/s, 30.651 katom-step/s
0.0% CPU use with 8 MPI tasks x 1 OpenMP threads

MPI task timing breakdown:
Section |  min time  |  avg time  |  max time  |%varavg| %total
---------------------------------------------------------------
Pair    | 0.00016    | 0.00017487 | 0.000194   |   0.0 | 67.00
Neigh   | 0          | 0          | 0          |   0.0 |  0.00
Comm    | 1.1e-05    | 2.5625e-05 | 6.7e-05    |   0.0 |  9.82
Output  | 1.6e-05    | 4.4625e-05 | 7.2e-05    |   0.0 | 17.10
Modify  | 0          | 2.5e-07    | 1e-06      |   0.0 |  0.10
Other   |            | 1.562e-05  |            |       |  5.99

Nlocal:              1 ave           8 max           0 min
Histogram: 7 0 0 0 0 0 0 0 0 1
Nghost:            215 ave         216 max         208 min
Histogram: 1 0 0 0 0 0 0 0 0 7
Neighs:             46 ave         368 max           0 min
Histogram: 7 0 0 0 0 0 0 0 0 1
FullNghs:           92 ave         736 max           0 min
Histogram: 7 0 0 0 0 0 0 0 0 1

Total # of neighbors = 736
Ave neighs/atom = 92
Neighbor list builds = 0
Dangerous builds = 0
variable  natoms equal "count(all)"
variable xlength equal "lx"
variable  volume equal "vol"
variable  etotal equal "etotal"
variable    ecoh equal "pe/v_natoms"
print "${xlength}, ${volume}, ${etotal}, ${ecoh}" append lattice_cohesive_energy.txt screen no

next i
jump SELF loop

change_box all x scale 1.0025 y scale 1.0025 z scale 1.0025 remap
Changing box ...
  orthogonal box = (0.025696962 0.030936539 0.030936539) to (4.227837 4.2225975 4.2225975)
  orthogonal box = (0.025696962 0.025696962 0.030936539) to (4.227837 4.227837 4.2225975)
  orthogonal box = (0.025696962 0.025696962 0.025696962) to (4.227837 4.227837 4.227837)

run 1
WARNING: No fixes with time integration, atoms won't move (src/verlet.cpp:60)
Per MPI rank memory allocation (min/avg/max) = 8.591 | 8.592 | 8.601 Mbytes
   Step         PotEng         TotEng           Lx             Ly             Lz           Volume         Press           Pxx            Pyy            Pzz      
        26  -52.823886     -52.823886      4.2021401      4.2021401      4.2021401      74.20131       86448.1        86448.1        86448.1        86448.1      
        27  -52.823886     -52.823886      4.2021401      4.2021401      4.2021401      74.20131       86448.1        86448.1        86448.1        86448.1      
Loop time of 0.000181625 on 8 procs for 1 steps with 8 atoms

Performance: 475.705 ns/day, 0.050 hours/ns, 5505.850 timesteps/s, 44.047 katom-step/s
0.0% CPU use with 8 MPI tasks x 1 OpenMP threads

MPI task timing breakdown:
Section |  min time  |  avg time  |  max time  |%varavg| %total
---------------------------------------------------------------
Pair    | 0.000121   | 0.00012925 | 0.000142   |   0.0 | 71.16
Neigh   | 0          | 0          | 0          |   0.0 |  0.00
Comm    | 8e-06      | 1.6e-05    | 3.6e-05    |   0.0 |  8.81
Output  | 1.4e-05    | 2.7125e-05 | 4.2e-05    |   0.0 | 14.93
Modify  | 0          | 1.25e-07   | 1e-06      |   0.0 |  0.07
Other   |            | 9.125e-06  |            |       |  5.02

Nlocal:              1 ave           8 max           0 min
Histogram: 7 0 0 0 0 0 0 0 0 1
Nghost:            215 ave         216 max         208 min
Histogram: 1 0 0 0 0 0 0 0 0 7
Neighs:             46 ave         368 max           0 min
Histogram: 7 0 0 0 0 0 0 0 0 1
FullNghs:           92 ave         736 max           0 min
Histogram: 7 0 0 0 0 0 0 0 0 1

Total # of neighbors = 736
Ave neighs/atom = 92
Neighbor list builds = 0
Dangerous builds = 0
variable  natoms equal "count(all)"
variable xlength equal "lx"
variable  volume equal "vol"
variable  etotal equal "etotal"
variable    ecoh equal "pe/v_natoms"
print "${xlength}, ${volume}, ${etotal}, ${ecoh}" append lattice_cohesive_energy.txt screen no

next i
jump SELF loop

change_box all x scale 1.0025 y scale 1.0025 z scale 1.0025 remap
Changing box ...
  orthogonal box = (0.020444287 0.025696962 0.025696962) to (4.2330897 4.227837 4.227837)
  orthogonal box = (0.020444287 0.020444287 0.025696962) to (4.2330897 4.2330897 4.227837)
  orthogonal box = (0.020444287 0.020444287 0.020444287) to (4.2330897 4.2330897 4.2330897)

run 1
WARNING: No fixes with time integration, atoms won't move (src/verlet.cpp:60)
Per MPI rank memory allocation (min/avg/max) = 8.591 | 8.592 | 8.601 Mbytes
   Step         PotEng         TotEng           Lx             Ly             Lz           Volume         Press           Pxx            Pyy            Pzz      
        27  -52.849809     -52.849809      4.2126454      4.2126454      4.2126454      74.759213      62593.921      62593.921      62593.921      62593.921    
        28  -52.849809     -52.849809      4.2126454      4.2126454      4.2126454      74.759213      62593.921      62593.921      62593.921      62593.921    
Loop time of 0.000178375 on 8 procs for 1 steps with 8 atoms

Performance: 484.373 ns/day, 0.050 hours/ns, 5606.167 timesteps/s, 44.849 katom-step/s
0.0% CPU use with 8 MPI tasks x 1 OpenMP threads

MPI task timing breakdown:
Section |  min time  |  avg time  |  max time  |%varavg| %total
---------------------------------------------------------------
Pair    | 0.000119   | 0.000127   | 0.00014    |   0.0 | 71.20
Neigh   | 0          | 0          | 0          |   0.0 |  0.00
Comm    | 8e-06      | 1.6e-05    | 3.6e-05    |   0.0 |  8.97
Output  | 1.4e-05    | 2.65e-05   | 4.1e-05    |   0.0 | 14.86
Modify  | 0          | 1.25e-07   | 1e-06      |   0.0 |  0.07
Other   |            | 8.75e-06   |            |       |  4.91

Nlocal:              1 ave           8 max           0 min
Histogram: 7 0 0 0 0 0 0 0 0 1
Nghost:            215 ave         216 max         208 min
Histogram: 1 0 0 0 0 0 0 0 0 7
Neighs:             46 ave         368 max           0 min
Histogram: 7 0 0 0 0 0 0 0 0 1
FullNghs:           92 ave         736 max           0 min
Histogram: 7 0 0 0 0 0 0 0 0 1

Total # of neighbors = 736
Ave neighs/atom = 92
Neighbor list builds = 0
Dangerous builds = 0
variable  natoms equal "count(all)"
variable xlength equal "lx"
variable  volume equal "vol"
variable  etotal equal "etotal"
variable    ecoh equal "pe/v_natoms"
print "${xlength}, ${volume}, ${etotal}, ${ecoh}" append lattice_cohesive_energy.txt screen no

next i
jump SELF loop

change_box all x scale 1.0025 y scale 1.0025 z scale 1.0025 remap
Changing box ...
  orthogonal box = (0.015178481 0.020444287 0.020444287) to (4.2383555 4.2330897 4.2330897)
  orthogonal box = (0.015178481 0.015178481 0.020444287) to (4.2383555 4.2383555 4.2330897)
  orthogonal box = (0.015178481 0.015178481 0.015178481) to (4.2383555 4.2383555 4.2383555)

run 1
WARNING: No fixes with time integration, atoms won't move (src/verlet.cpp:60)
Per MPI rank memory allocation (min/avg/max) = 8.591 | 8.592 | 8.601 Mbytes
   Step         PotEng         TotEng           Lx             Ly             Lz           Volume         Press           Pxx            Pyy            Pzz      
        28  -52.867685     -52.867685      4.223177       4.223177       4.223177       75.32131       39461.063      39461.063      39461.063      39461.063    
        29  -52.867685     -52.867685      4.223177       4.223177       4.223177       75.32131       39461.063      39461.063      39461.063      39461.063    
Loop time of 0.000179375 on 8 procs for 1 steps with 8 atoms

Performance: 481.672 ns/day, 0.050 hours/ns, 5574.913 timesteps/s, 44.599 katom-step/s
0.0% CPU use with 8 MPI tasks x 1 OpenMP threads

MPI task timing breakdown:
Section |  min time  |  avg time  |  max time  |%varavg| %total
---------------------------------------------------------------
Pair    | 0.00012    | 0.00012812 | 0.000141   |   0.0 | 71.43
Neigh   | 0          | 0          | 0          |   0.0 |  0.00
Comm    | 9e-06      | 1.55e-05   | 3.6e-05    |   0.0 |  8.64
Output  | 1.5e-05    | 2.7e-05    | 4.1e-05    |   0.0 | 15.05
Modify  | 0          | 1.25e-07   | 1e-06      |   0.0 |  0.07
Other   |            | 8.625e-06  |            |       |  4.81

Nlocal:              1 ave           8 max           0 min
Histogram: 7 0 0 0 0 0 0 0 0 1
Nghost:            215 ave         216 max         208 min
Histogram: 1 0 0 0 0 0 0 0 0 7
Neighs:             46 ave         368 max           0 min
Histogram: 7 0 0 0 0 0 0 0 0 1
FullNghs:           92 ave         736 max           0 min
Histogram: 7 0 0 0 0 0 0 0 0 1

Total # of neighbors = 736
Ave neighs/atom = 92
Neighbor list builds = 0
Dangerous builds = 0
variable  natoms equal "count(all)"
variable xlength equal "lx"
variable  volume equal "vol"
variable  etotal equal "etotal"
variable    ecoh equal "pe/v_natoms"
print "${xlength}, ${volume}, ${etotal}, ${ecoh}" append lattice_cohesive_energy.txt screen no

next i
jump SELF loop

change_box all x scale 1.0025 y scale 1.0025 z scale 1.0025 remap
Changing box ...
  orthogonal box = (0.0098995092 0.015178481 0.015178481) to (4.2436345 4.2383555 4.2383555)
  orthogonal box = (0.0098995092 0.0098995092 0.015178481) to (4.2436345 4.2436345 4.2383555)
  orthogonal box = (0.0098995092 0.0098995092 0.0098995092) to (4.2436345 4.2436345 4.2436345)

run 1
WARNING: No fixes with time integration, atoms won't move (src/verlet.cpp:60)
Per MPI rank memory allocation (min/avg/max) = 8.591 | 8.592 | 8.601 Mbytes
   Step         PotEng         TotEng           Lx             Ly             Lz           Volume         Press           Pxx            Pyy            Pzz      
        29  -52.877645     -52.877645      4.233735       4.233735       4.233735       75.887633      17034.782      17034.782      17034.782      17034.782    
        30  -52.877645     -52.877645      4.233735       4.233735       4.233735       75.887633      17034.782      17034.782      17034.782      17034.782    
Loop time of 0.0001775 on 8 procs for 1 steps with 8 atoms

Performance: 486.761 ns/day, 0.049 hours/ns, 5633.803 timesteps/s, 45.070 katom-step/s
0.0% CPU use with 8 MPI tasks x 1 OpenMP threads

MPI task timing breakdown:
Section |  min time  |  avg time  |  max time  |%varavg| %total
---------------------------------------------------------------
Pair    | 0.000119   | 0.00012675 | 0.000139   |   0.0 | 71.41
Neigh   | 0          | 0          | 0          |   0.0 |  0.00
Comm    | 9e-06      | 1.5875e-05 | 3.6e-05    |   0.0 |  8.94
Output  | 1.4e-05    | 2.6625e-05 | 4e-05      |   0.0 | 15.00
Modify  | 0          | 2.5e-07    | 1e-06      |   0.0 |  0.14
Other   |            | 8e-06      |            |       |  4.51

Nlocal:              1 ave           8 max           0 min
Histogram: 7 0 0 0 0 0 0 0 0 1
Nghost:            215 ave         216 max         208 min
Histogram: 1 0 0 0 0 0 0 0 0 7
Neighs:             46 ave         368 max           0 min
Histogram: 7 0 0 0 0 0 0 0 0 1
FullNghs:           92 ave         736 max           0 min
Histogram: 7 0 0 0 0 0 0 0 0 1

Total # of neighbors = 736
Ave neighs/atom = 92
Neighbor list builds = 0
Dangerous builds = 0
variable  natoms equal "count(all)"
variable xlength equal "lx"
variable  volume equal "vol"
variable  etotal equal "etotal"
variable    ecoh equal "pe/v_natoms"
print "${xlength}, ${volume}, ${etotal}, ${ecoh}" append lattice_cohesive_energy.txt screen no

next i
jump SELF loop

change_box all x scale 1.0025 y scale 1.0025 z scale 1.0025 remap
Changing box ...
  orthogonal box = (0.0046073405 0.0098995092 0.0098995092) to (4.2489267 4.2436345 4.2436345)
  orthogonal box = (0.0046073405 0.0046073405 0.0098995092) to (4.2489267 4.2489267 4.2436345)
  orthogonal box = (0.0046073405 0.0046073405 0.0046073405) to (4.2489267 4.2489267 4.2489267)

run 1
WARNING: No fixes with time integration, atoms won't move (src/verlet.cpp:60)
Per MPI rank memory allocation (min/avg/max) = 8.591 | 8.592 | 8.601 Mbytes
   Step         PotEng         TotEng           Lx             Ly             Lz           Volume         Press           Pxx            Pyy            Pzz      
        30  -52.879816     -52.879816      4.2443193      4.2443193      4.2443193      76.458214     -4699.4839     -4699.4839     -4699.4839     -4699.4839    
        31  -52.879816     -52.879816      4.2443193      4.2443193      4.2443193      76.458214     -4699.4839     -4699.4839     -4699.4839     -4699.4839    
Loop time of 0.000201875 on 8 procs for 1 steps with 8 atoms

Performance: 427.988 ns/day, 0.056 hours/ns, 4953.560 timesteps/s, 39.628 katom-step/s
0.0% CPU use with 8 MPI tasks x 1 OpenMP threads

MPI task timing breakdown:
Section |  min time  |  avg time  |  max time  |%varavg| %total
---------------------------------------------------------------
Pair    | 0.000131   | 0.00014475 | 0.000163   |   0.0 | 71.70
Neigh   | 0          | 0          | 0          |   0.0 |  0.00
Comm    | 7e-06      | 1.625e-05  | 4.6e-05    |   0.0 |  8.05
Output  | 1.5e-05    | 3.2e-05    | 5.3e-05    |   0.0 | 15.85
Modify  | 0          | 0          | 0          |   0.0 |  0.00
Other   |            | 8.875e-06  |            |       |  4.40

Nlocal:              1 ave           8 max           0 min
Histogram: 7 0 0 0 0 0 0 0 0 1
Nghost:            215 ave         216 max         208 min
Histogram: 1 0 0 0 0 0 0 0 0 7
Neighs:             40 ave         320 max           0 min
Histogram: 7 0 0 0 0 0 0 0 0 1
FullNghs:           80 ave         640 max           0 min
Histogram: 7 0 0 0 0 0 0 0 0 1

Total # of neighbors = 640
Ave neighs/atom = 80
Neighbor list builds = 0
Dangerous builds = 0
variable  natoms equal "count(all)"
variable xlength equal "lx"
variable  volume equal "vol"
variable  etotal equal "etotal"
variable    ecoh equal "pe/v_natoms"
print "${xlength}, ${volume}, ${etotal}, ${ecoh}" append lattice_cohesive_energy.txt screen no

next i
jump SELF loop

change_box all x scale 1.0025 y scale 1.0025 z scale 1.0025 remap
Changing box ...
  orthogonal box = (-0.00069805866 0.0046073405 0.0046073405) to (4.2542321 4.2489267 4.2489267)
  orthogonal box = (-0.00069805866 -0.00069805866 0.0046073405) to (4.2542321 4.2542321 4.2489267)
  orthogonal box = (-0.00069805866 -0.00069805866 -0.00069805866) to (4.2542321 4.2542321 4.2542321)

run 1
WARNING: No fixes with time integration, atoms won't move (src/verlet.cpp:60)
Per MPI rank memory allocation (min/avg/max) = 8.591 | 8.592 | 8.601 Mbytes
   Step         PotEng         TotEng           Lx             Ly             Lz           Volume         Press           Pxx            Pyy            Pzz      
        31  -52.874327     -52.874327      4.2549301      4.2549301      4.2549301      77.033086     -25756.017     -25756.017     -25756.017     -25756.017    
        32  -52.874327     -52.874327      4.2549301      4.2549301      4.2549301      77.033086     -25756.017     -25756.017     -25756.017     -25756.017    
Loop time of 0.000191 on 8 procs for 1 steps with 8 atoms

Performance: 452.356 ns/day, 0.053 hours/ns, 5235.602 timesteps/s, 41.885 katom-step/s
0.0% CPU use with 8 MPI tasks x 1 OpenMP threads

MPI task timing breakdown:
Section |  min time  |  avg time  |  max time  |%varavg| %total
---------------------------------------------------------------
Pair    | 0.000123   | 0.00013475 | 0.000152   |   0.0 | 70.55
Neigh   | 0          | 0          | 0          |   0.0 |  0.00
Comm    | 9e-06      | 1.6375e-05 | 4.3e-05    |   0.0 |  8.57
Output  | 1.6e-05    | 3.15e-05   | 5e-05      |   0.0 | 16.49
Modify  | 0          | 1.25e-07   | 1e-06      |   0.0 |  0.07
Other   |            | 8.25e-06   |            |       |  4.32

Nlocal:              1 ave           8 max           0 min
Histogram: 7 0 0 0 0 0 0 0 0 1
Nghost:            215 ave         216 max         208 min
Histogram: 1 0 0 0 0 0 0 0 0 7
Neighs:             40 ave         320 max           0 min
Histogram: 7 0 0 0 0 0 0 0 0 1
FullNghs:           80 ave         640 max           0 min
Histogram: 7 0 0 0 0 0 0 0 0 1

Total # of neighbors = 640
Ave neighs/atom = 80
Neighbor list builds = 0
Dangerous builds = 0
variable  natoms equal "count(all)"
variable xlength equal "lx"
variable  volume equal "vol"
variable  etotal equal "etotal"
variable    ecoh equal "pe/v_natoms"
print "${xlength}, ${volume}, ${etotal}, ${ecoh}" append lattice_cohesive_energy.txt screen no

next i
jump SELF loop

change_box all x scale 1.0025 y scale 1.0025 z scale 1.0025 remap
Changing box ...
  orthogonal box = (-0.0060167213 -0.00069805866 -0.00069805866) to (4.2595507 4.2542321 4.2542321)
  orthogonal box = (-0.0060167213 -0.0060167213 -0.00069805866) to (4.2595507 4.2595507 4.2542321)
  orthogonal box = (-0.0060167213 -0.0060167213 -0.0060167213) to (4.2595507 4.2595507 4.2595507)

run 1
WARNING: No fixes with time integration, atoms won't move (src/verlet.cpp:60)
Per MPI rank memory allocation (min/avg/max) = 8.591 | 8.592 | 8.601 Mbytes
   Step         PotEng         TotEng           Lx             Ly             Lz           Volume         Press           Pxx            Pyy            Pzz      
        32  -52.861306     -52.861306      4.2655674      4.2655674      4.2655674      77.612279     -46148.868     -46148.868     -46148.868     -46148.868    
        33  -52.861306     -52.861306      4.2655674      4.2655674      4.2655674      77.612279     -46148.868     -46148.868     -46148.868     -46148.868    
Loop time of 0.00019 on 8 procs for 1 steps with 8 atoms

Performance: 454.737 ns/day, 0.053 hours/ns, 5263.158 timesteps/s, 42.105 katom-step/s
0.0% CPU use with 8 MPI tasks x 1 OpenMP threads

MPI task timing breakdown:
Section |  min time  |  avg time  |  max time  |%varavg| %total
---------------------------------------------------------------
Pair    | 0.000122   | 0.00013475 | 0.000152   |   0.0 | 70.92
Neigh   | 0          | 0          | 0          |   0.0 |  0.00
Comm    | 8e-06      | 1.5875e-05 | 4.4e-05    |   0.0 |  8.36
Output  | 1.4e-05    | 3.0875e-05 | 5e-05      |   0.0 | 16.25
Modify  | 0          | 1.25e-07   | 1e-06      |   0.0 |  0.07
Other   |            | 8.375e-06  |            |       |  4.41

Nlocal:              1 ave           8 max           0 min
Histogram: 7 0 0 0 0 0 0 0 0 1
Nghost:            215 ave         216 max         208 min
Histogram: 1 0 0 0 0 0 0 0 0 7
Neighs:             40 ave         320 max           0 min
Histogram: 7 0 0 0 0 0 0 0 0 1
FullNghs:           80 ave         640 max           0 min
Histogram: 7 0 0 0 0 0 0 0 0 1

Total # of neighbors = 640
Ave neighs/atom = 80
Neighbor list builds = 0
Dangerous builds = 0
variable  natoms equal "count(all)"
variable xlength equal "lx"
variable  volume equal "vol"
variable  etotal equal "etotal"
variable    ecoh equal "pe/v_natoms"
print "${xlength}, ${volume}, ${etotal}, ${ecoh}" append lattice_cohesive_energy.txt screen no

next i
jump SELF loop

change_box all x scale 1.0025 y scale 1.0025 z scale 1.0025 remap
Changing box ...
  orthogonal box = (-0.011348681 -0.0060167213 -0.0060167213) to (4.2648827 4.2595507 4.2595507)
  orthogonal box = (-0.011348681 -0.011348681 -0.0060167213) to (4.2648827 4.2648827 4.2595507)
  orthogonal box = (-0.011348681 -0.011348681 -0.011348681) to (4.2648827 4.2648827 4.2648827)

run 1
WARNING: No fixes with time integration, atoms won't move (src/verlet.cpp:60)
Per MPI rank memory allocation (min/avg/max) = 8.591 | 8.592 | 8.601 Mbytes
   Step         PotEng         TotEng           Lx             Ly             Lz           Volume         Press           Pxx            Pyy            Pzz      
        33  -52.840878     -52.840878      4.2762314      4.2762314      4.2762314      78.195828     -65891.862     -65891.862     -65891.862     -65891.862    
        34  -52.840878     -52.840878      4.2762314      4.2762314      4.2762314      78.195828     -65891.862     -65891.862     -65891.862     -65891.862    
Loop time of 0.000187625 on 8 procs for 1 steps with 8 atoms

Performance: 460.493 ns/day, 0.052 hours/ns, 5329.780 timesteps/s, 42.638 katom-step/s
0.0% CPU use with 8 MPI tasks x 1 OpenMP threads

MPI task timing breakdown:
Section |  min time  |  avg time  |  max time  |%varavg| %total
---------------------------------------------------------------
Pair    | 0.000119   | 0.00013225 | 0.000149   |   0.0 | 70.49
Neigh   | 0          | 0          | 0          |   0.0 |  0.00
Comm    | 8e-06      | 1.5625e-05 | 4.3e-05    |   0.0 |  8.33
Output  | 1.5e-05    | 3.1125e-05 | 5.1e-05    |   0.0 | 16.59
Modify  | 0          | 2.5e-07    | 1e-06      |   0.0 |  0.13
Other   |            | 8.375e-06  |            |       |  4.46

Nlocal:              1 ave           8 max           0 min
Histogram: 7 0 0 0 0 0 0 0 0 1
Nghost:            215 ave         216 max         208 min
Histogram: 1 0 0 0 0 0 0 0 0 7
Neighs:             40 ave         320 max           0 min
Histogram: 7 0 0 0 0 0 0 0 0 1
FullNghs:           80 ave         640 max           0 min
Histogram: 7 0 0 0 0 0 0 0 0 1

Total # of neighbors = 640
Ave neighs/atom = 80
Neighbor list builds = 0
Dangerous builds = 0
variable  natoms equal "count(all)"
variable xlength equal "lx"
variable  volume equal "vol"
variable  etotal equal "etotal"
variable    ecoh equal "pe/v_natoms"
print "${xlength}, ${volume}, ${etotal}, ${ecoh}" append lattice_cohesive_energy.txt screen no

next i
jump SELF loop

change_box all x scale 1.0025 y scale 1.0025 z scale 1.0025 remap
Changing box ...
  orthogonal box = (-0.01669397 -0.011348681 -0.011348681) to (4.270228 4.2648827 4.2648827)
  orthogonal box = (-0.01669397 -0.01669397 -0.011348681) to (4.270228 4.270228 4.2648827)
  orthogonal box = (-0.01669397 -0.01669397 -0.01669397) to (4.270228 4.270228 4.270228)

run 1
WARNING: No fixes with time integration, atoms won't move (src/verlet.cpp:60)
Per MPI rank memory allocation (min/avg/max) = 8.591 | 8.592 | 8.601 Mbytes
   Step         PotEng         TotEng           Lx             Ly             Lz           Volume         Press           Pxx            Pyy            Pzz      
        34  -52.813169     -52.813169      4.2869219      4.2869219      4.2869219      78.783764     -84998.625     -84998.625     -84998.625     -84998.625    
        35  -52.813169     -52.813169      4.2869219      4.2869219      4.2869219      78.783764     -84998.625     -84998.625     -84998.625     -84998.625    
Loop time of 0.000208125 on 8 procs for 1 steps with 8 atoms

Performance: 415.135 ns/day, 0.058 hours/ns, 4804.805 timesteps/s, 38.438 katom-step/s
0.0% CPU use with 8 MPI tasks x 1 OpenMP threads

MPI task timing breakdown:
Section |  min time  |  avg time  |  max time  |%varavg| %total
---------------------------------------------------------------
Pair    | 0.000136   | 0.00014875 | 0.000168   |   0.0 | 71.47
Neigh   | 0          | 0          | 0          |   0.0 |  0.00
Comm    | 1e-05      | 1.825e-05  | 4.7e-05    |   0.0 |  8.77
Output  | 1.7e-05    | 3.275e-05  | 5.2e-05    |   0.0 | 15.74
Modify  | 0          | 2.5e-07    | 1e-06      |   0.0 |  0.12
Other   |            | 8.125e-06  |            |       |  3.90

[...]
---------------------------------------------------------------
Pair    | 0.000131   | 0.0001375  | 0.000155   |   0.0 | 70.97
Neigh   | 0          | 0          | 0          |   0.0 |  0.00
Comm    | 8e-06      | 1.8375e-05 | 3.7e-05    |   0.0 |  9.48
Output  | 1.8e-05    | 3.075e-05  | 4.4e-05    |   0.0 | 15.87
Modify  | 0          | 0          | 0          |   0.0 |  0.00
Other   |            | 7.125e-06  |            |       |  3.68

Nlocal:              1 ave           8 max           0 min
Histogram: 7 0 0 0 0 0 0 0 0 1
Nghost:            215 ave         216 max         208 min
Histogram: 1 0 0 0 0 0 0 0 0 7
Neighs:             40 ave         320 max           0 min
Histogram: 7 0 0 0 0 0 0 0 0 1
FullNghs:           80 ave         640 max           0 min
Histogram: 7 0 0 0 0 0 0 0 0 1

Total # of neighbors = 640
Ave neighs/atom = 80
Neighbor list builds = 0
Dangerous builds = 0
variable  natoms equal "count(all)"
variable xlength equal "lx"
variable  volume equal "vol"
variable  etotal equal "etotal"
variable    ecoh equal "pe/v_natoms"
print "${xlength}, ${volume}, ${etotal}, ${ecoh}" append lattice_cohesive_energy.txt screen no

next i
jump SELF loop

change_box all x scale 1.0025 y scale 1.0025 z scale 1.0025 remap
Changing box ...
  orthogonal box = (-0.092946472 -0.087411027 -0.087411027) to (4.3464805 4.340945 4.340945)
  orthogonal box = (-0.092946472 -0.092946472 -0.087411027) to (4.3464805 4.3464805 4.340945)
  orthogonal box = (-0.092946472 -0.092946472 -0.092946472) to (4.3464805 4.3464805 4.3464805)

run 1
WARNING: No fixes with time integration, atoms won't move (src/verlet.cpp:60)
Per MPI rank memory allocation (min/avg/max) = 8.591 | 8.592 | 8.601 Mbytes
   Step         PotEng         TotEng           Lx             Ly             Lz           Volume         Press           Pxx            Pyy            Pzz      
        48  -51.728691     -51.728691      4.4394269      4.4394269      4.4394269      87.494497     -292819.54     -292819.54     -292819.54     -292819.54    
        49  -51.728691     -51.728691      4.4394269      4.4394269      4.4394269      87.494497     -292819.54     -292819.54     -292819.54     -292819.54    
Loop time of 0.000297625 on 8 procs for 1 steps with 8 atoms

Performance: 290.298 ns/day, 0.083 hours/ns, 3359.933 timesteps/s, 26.879 katom-step/s
0.0% CPU use with 8 MPI tasks x 1 OpenMP threads

MPI task timing breakdown:
Section |  min time  |  avg time  |  max time  |%varavg| %total
---------------------------------------------------------------
Pair    | 0.000235   | 0.00024087 | 0.000258   |   0.0 | 80.93
Neigh   | 0          | 0          | 0          |   0.0 |  0.00
Comm    | 9e-06      | 1.8e-05    | 3.6e-05    |   0.0 |  6.05
Output  | 1.8e-05    | 3.125e-05  | 4.5e-05    |   0.0 | 10.50
Modify  | 0          | 2.5e-07    | 1e-06      |   0.0 |  0.08
Other   |            | 7.25e-06   |            |       |  2.44

Nlocal:              1 ave           8 max           0 min
Histogram: 7 0 0 0 0 0 0 0 0 1
Nghost:            215 ave         216 max         208 min
Histogram: 1 0 0 0 0 0 0 0 0 7
Neighs:             40 ave         320 max           0 min
Histogram: 7 0 0 0 0 0 0 0 0 1
FullNghs:           80 ave         640 max           0 min
Histogram: 7 0 0 0 0 0 0 0 0 1

Total # of neighbors = 640
Ave neighs/atom = 80
Neighbor list builds = 0
Dangerous builds = 0
variable  natoms equal "count(all)"
variable xlength equal "lx"
variable  volume equal "vol"
variable  etotal equal "etotal"
variable    ecoh equal "pe/v_natoms"
print "${xlength}, ${volume}, ${etotal}, ${ecoh}" append lattice_cohesive_energy.txt screen no

next i
jump SELF loop

change_box all x scale 1.0025 y scale 1.0025 z scale 1.0025 remap
Changing box ...
  orthogonal box = (-0.098495756 -0.092946472 -0.092946472) to (4.3520298 4.3464805 4.3464805)
  orthogonal box = (-0.098495756 -0.098495756 -0.092946472) to (4.3520298 4.3520298 4.3464805)
  orthogonal box = (-0.098495756 -0.098495756 -0.098495756) to (4.3520298 4.3520298 4.3520298)

run 1
WARNING: No fixes with time integration, atoms won't move (src/verlet.cpp:60)
Per MPI rank memory allocation (min/avg/max) = 8.591 | 8.592 | 8.601 Mbytes
   Step         PotEng         TotEng           Lx             Ly             Lz           Volume         Press           Pxx            Pyy            Pzz      
        49  -51.606171     -51.606171      4.4505255      4.4505255      4.4505255      88.152348     -303876.45     -303876.45     -303876.45     -303876.45    
        50  -51.606171     -51.606171      4.4505255      4.4505255      4.4505255      88.152348     -303876.45     -303876.45     -303876.45     -303876.45    
Loop time of 0.00020825 on 8 procs for 1 steps with 8 atoms

Performance: 414.886 ns/day, 0.058 hours/ns, 4801.921 timesteps/s, 38.415 katom-step/s
0.0% CPU use with 8 MPI tasks x 1 OpenMP threads

MPI task timing breakdown:
Section |  min time  |  avg time  |  max time  |%varavg| %total
---------------------------------------------------------------
Pair    | 0.000135   | 0.000142   | 0.000159   |   0.0 | 68.19
Neigh   | 0          | 0          | 0          |   0.0 |  0.00
Comm    | 9e-06      | 1.8625e-05 | 3.6e-05    |   0.0 |  8.94
Output  | 1.7e-05    | 3.175e-05  | 4.4e-05    |   0.0 | 15.25
Modify  | 0          | 2.5e-07    | 1e-06      |   0.0 |  0.12
Other   |            | 1.563e-05  |            |       |  7.50

Nlocal:              1 ave           8 max           0 min
Histogram: 7 0 0 0 0 0 0 0 0 1
Nghost:            215 ave         216 max         208 min
Histogram: 1 0 0 0 0 0 0 0 0 7
Neighs:             40 ave         320 max           0 min
Histogram: 7 0 0 0 0 0 0 0 0 1
FullNghs:           80 ave         640 max           0 min
Histogram: 7 0 0 0 0 0 0 0 0 1

Total # of neighbors = 640
Ave neighs/atom = 80
Neighbor list builds = 0
Dangerous builds = 0
variable  natoms equal "count(all)"
variable xlength equal "lx"
variable  volume equal "vol"
variable  etotal equal "etotal"
variable    ecoh equal "pe/v_natoms"
print "${xlength}, ${volume}, ${etotal}, ${ecoh}" append lattice_cohesive_energy.txt screen no

next i
jump SELF loop

change_box all x scale 1.0025 y scale 1.0025 z scale 1.0025 remap
Changing box ...
  orthogonal box = (-0.10405891 -0.098495756 -0.098495756) to (4.3575929 4.3520298 4.3520298)
  orthogonal box = (-0.10405891 -0.10405891 -0.098495756) to (4.3575929 4.3575929 4.3520298)
  orthogonal box = (-0.10405891 -0.10405891 -0.10405891) to (4.3575929 4.3575929 4.3575929)

run 1
WARNING: No fixes with time integration, atoms won't move (src/verlet.cpp:60)
Per MPI rank memory allocation (min/avg/max) = 8.591 | 8.592 | 8.601 Mbytes
   Step         PotEng         TotEng           Lx             Ly             Lz           Volume         Press           Pxx            Pyy            Pzz      
        50  -51.47825      -51.47825       4.4616518      4.4616518      4.4616518      88.815145     -314487.32     -314487.32     -314487.32     -314487.32    
        51  -51.47825      -51.47825       4.4616518      4.4616518      4.4616518      88.815145     -314487.32     -314487.32     -314487.32     -314487.32    
Loop time of 0.000157625 on 8 procs for 1 steps with 8 atoms

Performance: 548.136 ns/day, 0.044 hours/ns, 6344.171 timesteps/s, 50.753 katom-step/s
0.0% CPU use with 8 MPI tasks x 1 OpenMP threads

MPI task timing breakdown:
Section |  min time  |  avg time  |  max time  |%varavg| %total
---------------------------------------------------------------
Pair    | 0.000114   | 0.00011688 | 0.000121   |   0.0 | 74.15
Neigh   | 0          | 0          | 0          |   0.0 |  0.00
Comm    | 1e-05      | 1.45e-05   | 2.2e-05    |   0.0 |  9.20
Output  | 1.5e-05    | 2.0375e-05 | 2.5e-05    |   0.0 | 12.93
Modify  | 0          | 2.5e-07    | 1e-06      |   0.0 |  0.16
Other   |            | 5.625e-06  |            |       |  3.57

Nlocal:              1 ave           8 max           0 min
Histogram: 7 0 0 0 0 0 0 0 0 1
Nghost:            215 ave         216 max         208 min
Histogram: 1 0 0 0 0 0 0 0 0 7
Neighs:             40 ave         320 max           0 min
Histogram: 7 0 0 0 0 0 0 0 0 1
FullNghs:           80 ave         640 max           0 min
Histogram: 7 0 0 0 0 0 0 0 0 1

Total # of neighbors = 640
Ave neighs/atom = 80
Neighbor list builds = 0
Dangerous builds = 0
variable  natoms equal "count(all)"
variable xlength equal "lx"
variable  volume equal "vol"
variable  etotal equal "etotal"
variable    ecoh equal "pe/v_natoms"
print "${xlength}, ${volume}, ${etotal}, ${ecoh}" append lattice_cohesive_energy.txt screen no

next i
jump SELF loop

change_box all x scale 1.0025 y scale 1.0025 z scale 1.0025 remap
Changing box ...
  orthogonal box = (-0.10963598 -0.10405891 -0.10405891) to (4.36317 4.3575929 4.3575929)
  orthogonal box = (-0.10963598 -0.10963598 -0.10405891) to (4.36317 4.36317 4.3575929)
  orthogonal box = (-0.10963598 -0.10963598 -0.10963598) to (4.36317 4.36317 4.36317)

run 1
WARNING: No fixes with time integration, atoms won't move (src/verlet.cpp:60)
Per MPI rank memory allocation (min/avg/max) = 8.591 | 8.592 | 8.601 Mbytes
   Step         PotEng         TotEng           Lx             Ly             Lz           Volume         Press           Pxx            Pyy            Pzz      
        51  -51.345035     -51.345035      4.472806       4.472806       4.472806       89.482925     -324662.44     -324662.44     -324662.44     -324662.44    
        52  -51.345035     -51.345035      4.472806       4.472806       4.472806       89.482925     -324662.44     -324662.44     -324662.44     -324662.44    
Loop time of 0.00014625 on 8 procs for 1 steps with 8 atoms

Performance: 590.769 ns/day, 0.041 hours/ns, 6837.607 timesteps/s, 54.701 katom-step/s
0.0% CPU use with 8 MPI tasks x 1 OpenMP threads

MPI task timing breakdown:
Section |  min time  |  avg time  |  max time  |%varavg| %total
---------------------------------------------------------------
Pair    | 0.000107   | 0.00010887 | 0.000111   |   0.0 | 74.44
Neigh   | 0          | 0          | 0          |   0.0 |  0.00
Comm    | 1e-05      | 1.3125e-05 | 1.7e-05    |   0.0 |  8.97
Output  | 1.3e-05    | 1.7875e-05 | 2.2e-05    |   0.0 | 12.22
Modify  | 0          | 5e-07      | 1e-06      |   0.0 |  0.34
Other   |            | 5.875e-06  |            |       |  4.02

Nlocal:              1 ave           8 max           0 min
Histogram: 7 0 0 0 0 0 0 0 0 1
Nghost:            215 ave         216 max         208 min
Histogram: 1 0 0 0 0 0 0 0 0 7
Neighs:             40 ave         320 max           0 min
Histogram: 7 0 0 0 0 0 0 0 0 1
FullNghs:           80 ave         640 max           0 min
Histogram: 7 0 0 0 0 0 0 0 0 1

Total # of neighbors = 640
Ave neighs/atom = 80
Neighbor list builds = 0
Dangerous builds = 0
variable  natoms equal "count(all)"
variable xlength equal "lx"
variable  volume equal "vol"
variable  etotal equal "etotal"
variable    ecoh equal "pe/v_natoms"
print "${xlength}, ${volume}, ${etotal}, ${ecoh}" append lattice_cohesive_energy.txt screen no

next i
jump SELF loop

change_box all x scale 1.0025 y scale 1.0025 z scale 1.0025 remap
Changing box ...
  orthogonal box = (-0.11522699 -0.10963598 -0.10963598) to (4.368761 4.36317 4.36317)
  orthogonal box = (-0.11522699 -0.11522699 -0.10963598) to (4.368761 4.368761 4.36317)
  orthogonal box = (-0.11522699 -0.11522699 -0.11522699) to (4.368761 4.368761 4.368761)

run 1
WARNING: No fixes with time integration, atoms won't move (src/verlet.cpp:60)
Per MPI rank memory allocation (min/avg/max) = 8.591 | 8.592 | 8.601 Mbytes
   Step         PotEng         TotEng           Lx             Ly             Lz           Volume         Press           Pxx            Pyy            Pzz      
        52  -51.206635     -51.206635      4.483988       4.483988       4.483988       90.155726     -334411.94     -334411.94     -334411.94     -334411.94    
        53  -51.206635     -51.206635      4.483988       4.483988       4.483988       90.155726     -334411.94     -334411.94     -334411.94     -334411.94    
Loop time of 0.000157625 on 8 procs for 1 steps with 8 atoms

Performance: 548.136 ns/day, 0.044 hours/ns, 6344.171 timesteps/s, 50.753 katom-step/s
0.0% CPU use with 8 MPI tasks x 1 OpenMP threads

MPI task timing breakdown:
Section |  min time  |  avg time  |  max time  |%varavg| %total
---------------------------------------------------------------
Pair    | 0.000106   | 0.0001095  | 0.000112   |   0.0 | 69.47
Neigh   | 0          | 0          | 0          |   0.0 |  0.00
Comm    | 9e-06      | 1.275e-05  | 1.8e-05    |   0.0 |  8.09
Output  | 1.3e-05    | 1.8625e-05 | 2.5e-05    |   0.0 | 11.82
Modify  | 0          | 0          | 0          |   0.0 |  0.00
Other   |            | 1.675e-05  |            |       | 10.63

Nlocal:              1 ave           8 max           0 min
Histogram: 7 0 0 0 0 0 0 0 0 1
Nghost:            215 ave         216 max         208 min
Histogram: 1 0 0 0 0 0 0 0 0 7
Neighs:             40 ave         320 max           0 min
Histogram: 7 0 0 0 0 0 0 0 0 1
FullNghs:           80 ave         640 max           0 min
Histogram: 7 0 0 0 0 0 0 0 0 1

Total # of neighbors = 640
Ave neighs/atom = 80
Neighbor list builds = 0
Dangerous builds = 0
variable  natoms equal "count(all)"
variable xlength equal "lx"
variable  volume equal "vol"
variable  etotal equal "etotal"
variable    ecoh equal "pe/v_natoms"
print "${xlength}, ${volume}, ${etotal}, ${ecoh}" append lattice_cohesive_energy.txt screen no

next i
jump SELF loop

change_box all x scale 1.0025 y scale 1.0025 z scale 1.0025 remap
Changing box ...
  orthogonal box = (-0.12083197 -0.11522699 -0.11522699) to (4.374366 4.368761 4.368761)
  orthogonal box = (-0.12083197 -0.12083197 -0.11522699) to (4.374366 4.374366 4.368761)
  orthogonal box = (-0.12083197 -0.12083197 -0.12083197) to (4.374366 4.374366 4.374366)

run 1
WARNING: No fixes with time integration, atoms won't move (src/verlet.cpp:60)
Per MPI rank memory allocation (min/avg/max) = 8.591 | 8.592 | 8.601 Mbytes
   Step         PotEng         TotEng           Lx             Ly             Lz           Volume         Press           Pxx            Pyy            Pzz      
        53  -51.063158     -51.063158      4.4951979      4.4951979      4.4951979      90.833586     -343745.72     -343745.72     -343745.72     -343745.72    
        54  -51.063158     -51.063158      4.4951979      4.4951979      4.4951979      90.833586     -343745.72     -343745.72     -343745.72     -343745.72    
Loop time of 0.000144125 on 8 procs for 1 steps with 8 atoms

Performance: 599.480 ns/day, 0.040 hours/ns, 6938.422 timesteps/s, 55.507 katom-step/s
0.0% CPU use with 8 MPI tasks x 1 OpenMP threads

MPI task timing breakdown:
Section |  min time  |  avg time  |  max time  |%varavg| %total
---------------------------------------------------------------
Pair    | 0.000105   | 0.00010713 | 0.000109   |   0.0 | 74.33
Neigh   | 0          | 0          | 0          |   0.0 |  0.00
Comm    | 9e-06      | 1.3125e-05 | 1.7e-05    |   0.0 |  9.11
Output  | 1.3e-05    | 1.8375e-05 | 2.3e-05    |   0.0 | 12.75
Modify  | 0          | 2.5e-07    | 1e-06      |   0.0 |  0.17
Other   |            | 5.25e-06   |            |       |  3.64

Nlocal:              1 ave           8 max           0 min
Histogram: 7 0 0 0 0 0 0 0 0 1
Nghost:            215 ave         216 max         208 min
Histogram: 1 0 0 0 0 0 0 0 0 7
Neighs:             40 ave         320 max           0 min
Histogram: 7 0 0 0 0 0 0 0 0 1
FullNghs:           80 ave         640 max           0 min
Histogram: 7 0 0 0 0 0 0 0 0 1

Total # of neighbors = 640
Ave neighs/atom = 80
Neighbor list builds = 0
Dangerous builds = 0
variable  natoms equal "count(all)"
variable xlength equal "lx"
variable  volume equal "vol"
variable  etotal equal "etotal"
variable    ecoh equal "pe/v_natoms"
print "${xlength}, ${volume}, ${etotal}, ${ecoh}" append lattice_cohesive_energy.txt screen no

next i
jump SELF loop

change_box all x scale 1.0025 y scale 1.0025 z scale 1.0025 remap
Changing box ...
  orthogonal box = (-0.12645097 -0.12083197 -0.12083197) to (4.379985 4.374366 4.374366)
  orthogonal box = (-0.12645097 -0.12645097 -0.12083197) to (4.379985 4.379985 4.374366)
  orthogonal box = (-0.12645097 -0.12645097 -0.12645097) to (4.379985 4.379985 4.379985)

run 1
WARNING: No fixes with time integration, atoms won't move (src/verlet.cpp:60)
Per MPI rank memory allocation (min/avg/max) = 8.591 | 8.592 | 8.601 Mbytes
   Step         PotEng         TotEng           Lx             Ly             Lz           Volume         Press           Pxx            Pyy            Pzz      
        54  -50.914711     -50.914711      4.5064359      4.5064359      4.5064359      91.516543     -352673.52     -352673.52     -352673.52     -352673.52    
        55  -50.914711     -50.914711      4.5064359      4.5064359      4.5064359      91.516543     -352673.52     -352673.52     -352673.52     -352673.52    
Loop time of 0.000174875 on 8 procs for 1 steps with 8 atoms

Performance: 494.067 ns/day, 0.049 hours/ns, 5718.370 timesteps/s, 45.747 katom-step/s
0.0% CPU use with 8 MPI tasks x 1 OpenMP threads

MPI task timing breakdown:
Section |  min time  |  avg time  |  max time  |%varavg| %total
---------------------------------------------------------------
Pair    | 0.000117   | 0.00012337 | 0.000137   |   0.0 | 70.55
Neigh   | 0          | 0          | 0          |   0.0 |  0.00
Comm    | 9e-06      | 1.5875e-05 | 3.1e-05    |   0.0 |  9.08
Output  | 1.4e-05    | 2.65e-05   | 3.9e-05    |   0.0 | 15.15
Modify  | 0          | 3.75e-07   | 1e-06      |   0.0 |  0.21
Other   |            | 8.75e-06   |            |       |  5.00

Nlocal:              1 ave           8 max           0 min
Histogram: 7 0 0 0 0 0 0 0 0 1
Nghost:            215 ave         216 max         208 min
Histogram: 1 0 0 0 0 0 0 0 0 7
Neighs:             40 ave         320 max           0 min
Histogram: 7 0 0 0 0 0 0 0 0 1
FullNghs:           80 ave         640 max           0 min
Histogram: 7 0 0 0 0 0 0 0 0 1

Total # of neighbors = 640
Ave neighs/atom = 80
Neighbor list builds = 0
Dangerous builds = 0
variable  natoms equal "count(all)"
variable xlength equal "lx"
variable  volume equal "vol"
variable  etotal equal "etotal"
variable    ecoh equal "pe/v_natoms"
print "${xlength}, ${volume}, ${etotal}, ${ecoh}" append lattice_cohesive_energy.txt screen no

next i
jump SELF loop

print "-------------------------------------------------------------"
-------------------------------------------------------------
print "Show results of 1st step (Running Minimization)"
Show results of 1st step (Running Minimization)
print "The number of atoms = ${natoms};"
The number of atoms = 8;
print "The lattice constant, x (Angstoms) = ${x0};"
The lattice constant, x (Angstoms) = 4.50643593506318;
print "The lattice constant, y (Angstoms) = ${y0};"
The lattice constant, y (Angstoms) = 4.50643593506318;
print "The lattice constant, z (Angstoms) = ${z0};"
The lattice constant, z (Angstoms) = 4.50643593506318;
print "The volume (Angstoms^3) = ${v0};"
The volume (Angstoms^3) = 91.5165425086847;
print "The total energy (eV) = ${etot0};"
The total energy (eV) = -50.9147108950198;
print "The cohesive energy (eV/atom) = ${ecoh0};"
The cohesive energy (eV/atom) = -6.36433886187747;
print "-------------------------------------------------------------"
-------------------------------------------------------------
print "Simulations completed !"
Simulations completed !
Total wall time: 0:00:00
