LAMMPS (22 Dec 2022)
  using 1 OpenMP thread(s) per MPI task
Loaded 1 plugins from C:\Program Files\LAMMPS 64-bit 23Jun2022\plugins
Loaded 0 plugins from C:\Program Files\LAMMPS 64-bit 23Jun2022-MPI\plugins
Loaded 1 plugins from C:\Program Files\LAMMPS 64-bit 22Dec2022-MSMPI\plugins
Loaded 1 plugins from C:\Program Files\LAMMPS 64-bit 28Mar2023-MPI\plugins
#------------------------------------------------------------------------------------------
# LAMMPS 64-bit 22Dec2022-MSMPI
#------------------------------------------------------------------------------------------
clear
  using 1 OpenMP thread(s) per MPI task
Loaded 1 plugins from C:\Program Files\LAMMPS 64-bit 23Jun2022\plugins
Loaded 0 plugins from C:\Program Files\LAMMPS 64-bit 23Jun2022-MPI\plugins
Loaded 1 plugins from C:\Program Files\LAMMPS 64-bit 22Dec2022-MSMPI\plugins
Loaded 1 plugins from C:\Program Files\LAMMPS 64-bit 28Mar2023-MPI\plugins
#echo both
# ---------- Initializing Simulation ---------------------------------
units metal
dimension 3
boundary p p p
atom_style atomic
atom_modify map array

#read_data ./../../TiN.data
#read_data ./../../VN.data
#read_data ./../../CrN.data
read_data ./../../FeN.data
Reading data file ...
  orthogonal box = (0 0 0) to (4.08 4.08 4.08)
  2 by 2 by 2 MPI processor grid
  reading atoms ...
  8 atoms
  read_data CPU = 0.001 seconds

replicate 1 1 1
Replication is creating a 1x1x1 = 1 times larger system...
  orthogonal box = (0 0 0) to (4.08 4.08 4.08)
  2 by 2 by 2 MPI processor grid
  8 atoms
  replicate CPU = 0.000 seconds

# ---------- Defining the Interatomic Potential ---------------------
pair_style meam
#pair_coeff * * ./../../library.meam Ti V Cr Fe N ./../../TiVCrFeN.meam Ti N
#pair_coeff * * ./../../library.meam Ti V Cr Fe N ./../../TiVCrFeN.meam V N
#pair_coeff * * ./../../library.meam Ti V Cr Fe N ./../../TiVCrFeN.meam Cr N
pair_coeff * * ./../../library.meam Ti V Cr Fe N ./../../TiVCrFeN.meam Fe N

# ---------- Running Minimization -------------------------------------
fix 1 all box/relax iso 0.0 vmax 0.001

thermo 10
thermo_style custom step pe etotal lx ly lz vol press pxx pyy pzz

min_style cg
minimize 1e-25 1e-25 5000 10000
Neighbor list info ...
  update: every = 1 steps, delay = 0 steps, check = yes
  max neighbors/atom: 2000, page size: 100000
  master list distance cutoff = 6.6
  ghost atom cutoff = 6.6
  binsize = 3.3, bins = 2 2 2
  2 neighbor lists, perpetual/occasional/extra = 2 0 0
  (1) pair meam, perpetual
      attributes: full, newton on
      pair build: full/bin/atomonly
      stencil: full/bin/3d
      bin: standard
  (2) pair meam, perpetual, half/full from (1)
      attributes: half, newton on
      pair build: halffull/newton
      stencil: none
      bin: none
Per MPI rank memory allocation (min/avg/max) = 9.684 | 9.684 | 9.684 Mbytes
   Step         PotEng         TotEng           Lx             Ly             Lz           Volume         Press           Pxx            Pyy            Pzz      
         0  -36.16         -36.16          4.08           4.08           4.08           67.917312      0.021968032    0.021968032    0.021968032    0.021968032  
         3  -36.16         -36.16          4.08           4.08           4.08           67.917313     -1.5474089e-10 -1.5452263e-10 -1.5583215e-10 -1.5386788e-10
Loop time of 0.00133187 on 8 procs for 3 steps with 8 atoms

293.3% CPU use with 8 MPI tasks x 1 OpenMP threads

Minimization stats:
  Stopping criterion = energy tolerance
  Energy initial, next-to-last, final = 
     -36.1600000006434  -36.1600000006434  -36.1600000006434
  Force two-norm initial, final = 2.7937178e-06 1.9679486e-14
  Force max component initial, final = 2.7937178e-06 1.9678703e-14
  Final line search alpha, max atom move = 1 1.9678703e-14
  Iterations, force evaluations = 3 6

MPI task timing breakdown:
Section |  min time  |  avg time  |  max time  |%varavg| %total
---------------------------------------------------------------
Pair    | 0.000829   | 0.00085487 | 0.000878   |   0.0 | 64.19
Neigh   | 0          | 0          | 0          |   0.0 |  0.00
Comm    | 0.000177   | 0.00019925 | 0.000225   |   0.0 | 14.96
Output  | 0          | 0          | 0          |   0.0 |  0.00
Modify  | 0          | 0          | 0          |   0.0 |  0.00
Other   |            | 0.0002777  |            |       | 20.85

Nlocal:              1 ave           1 max           1 min
Histogram: 8 0 0 0 0 0 0 0 0 0
Nghost:            511 ave         511 max         511 min
Histogram: 8 0 0 0 0 0 0 0 0 0
Neighs:             73 ave          73 max          73 min
Histogram: 8 0 0 0 0 0 0 0 0 0
FullNghs:          146 ave         146 max         146 min
Histogram: 8 0 0 0 0 0 0 0 0 0

Total # of neighbors = 1168
Ave neighs/atom = 146
Neighbor list builds = 0
Dangerous builds = 0

variable  natoms equal "count(all)"
variable      x0 equal "lx"
variable      y0 equal "ly"
variable      z0 equal "lz"
variable      v0 equal "vol"
variable   etot0 equal "etotal"
variable   ecoh0 equal "pe/v_natoms"

unfix 1
#write_data ./../step2_elastic/data.in

# ---------- For Equation of States -------------------------------------
change_box all x scale 0.94 y scale 0.94 z scale 0.94 remap
Changing box ...
  orthogonal box = (0.12239999 -7.6534439e-09 -7.6534439e-09) to (3.9576 4.08 4.08)
  orthogonal box = (0.12239999 0.12239999 -7.6534439e-09) to (3.9576 3.9576 4.08)
  orthogonal box = (0.12239999 0.12239999 0.12239999) to (3.9576 3.9576 3.9576)
run 1
WARNING: No fixes with time integration, atoms won't move (src/verlet.cpp:60)
WARNING: Proc sub-domain size < neighbor skin, could lead to lost atoms (src/domain.cpp:966)
Per MPI rank memory allocation (min/avg/max) = 8.559 | 8.559 | 8.559 Mbytes
   Step         PotEng         TotEng           Lx             Ly             Lz           Volume         Press           Pxx            Pyy            Pzz      
         3  -34.525594     -34.525594      3.8352         3.8352         3.8352         56.411033      533677.27      533677.27      533677.27      533677.27    
         4  -34.525594     -34.525594      3.8352         3.8352         3.8352         56.411033      533677.27      533677.27      533677.27      533677.27    
Loop time of 0.000156 on 8 procs for 1 steps with 8 atoms

Performance: 553.846 ns/day, 0.043 hours/ns, 6410.256 timesteps/s, 51.282 katom-step/s
0.0% CPU use with 8 MPI tasks x 1 OpenMP threads

MPI task timing breakdown:
Section |  min time  |  avg time  |  max time  |%varavg| %total
---------------------------------------------------------------
Pair    | 0.000115   | 0.000117   | 0.000118   |   0.0 | 75.00
Neigh   | 0          | 0          | 0          |   0.0 |  0.00
Comm    | 1.9e-05    | 2.025e-05  | 2.3e-05    |   0.0 | 12.98
Output  | 1.3e-05    | 1.35e-05   | 1.4e-05    |   0.0 |  8.65
Modify  | 0          | 6.25e-07   | 1e-06      |   0.0 |  0.40
Other   |            | 4.625e-06  |            |       |  2.96

Nlocal:              1 ave           1 max           1 min
Histogram: 8 0 0 0 0 0 0 0 0 0
Nghost:            511 ave         511 max         511 min
Histogram: 8 0 0 0 0 0 0 0 0 0
Neighs:             85 ave          85 max          85 min
Histogram: 8 0 0 0 0 0 0 0 0 0
FullNghs:          170 ave         170 max         170 min
Histogram: 8 0 0 0 0 0 0 0 0 0

Total # of neighbors = 1360
Ave neighs/atom = 170
Neighbor list builds = 0
Dangerous builds = 0
print "# Lattice constant (Angstroms), Volume (Angstrom), Total energy (eV), Cohesive energy (eV/atom)" file lattice_cohesive_energy.txt screen no


# Loop over lattice constants
variable i loop 49 # Number of steps
label loop

change_box all x scale 1.0025 y scale 1.0025 z scale 1.0025 remap
Changing box ...
  orthogonal box = (0.11760599 0.12239999 0.12239999) to (3.962394 3.9576 3.9576)
  orthogonal box = (0.11760599 0.11760599 0.12239999) to (3.962394 3.962394 3.9576)
  orthogonal box = (0.11760599 0.11760599 0.11760599) to (3.962394 3.962394 3.962394)

run 1
WARNING: No fixes with time integration, atoms won't move (src/verlet.cpp:60)
WARNING: Proc sub-domain size < neighbor skin, could lead to lost atoms (src/domain.cpp:966)
Per MPI rank memory allocation (min/avg/max) = 8.559 | 8.559 | 8.559 Mbytes
   Step         PotEng         TotEng           Lx             Ly             Lz           Volume         Press           Pxx            Pyy            Pzz      
         4  -34.662969     -34.662969      3.844788       3.844788       3.844788       56.835175      504343.12      504343.12      504343.12      504343.12    
         5  -34.662969     -34.662969      3.844788       3.844788       3.844788       56.835175      504343.12      504343.12      504343.12      504343.12    
Loop time of 0.00014975 on 8 procs for 1 steps with 8 atoms

Performance: 576.962 ns/day, 0.042 hours/ns, 6677.796 timesteps/s, 53.422 katom-step/s
0.0% CPU use with 8 MPI tasks x 1 OpenMP threads

MPI task timing breakdown:
Section |  min time  |  avg time  |  max time  |%varavg| %total
---------------------------------------------------------------
Pair    | 0.000113   | 0.00011525 | 0.000116   |   0.0 | 76.96
Neigh   | 0          | 0          | 0          |   0.0 |  0.00
Comm    | 1.9e-05    | 2.05e-05   | 2.3e-05    |   0.0 | 13.69
Output  | 1.1e-05    | 1.1e-05    | 1.1e-05    |   0.0 |  7.35
Modify  | 0          | 0          | 0          |   0.0 |  0.00
Other   |            | 3e-06      |            |       |  2.00

Nlocal:              1 ave           1 max           1 min
Histogram: 8 0 0 0 0 0 0 0 0 0
Nghost:            511 ave         511 max         511 min
Histogram: 8 0 0 0 0 0 0 0 0 0
Neighs:             85 ave          85 max          85 min
Histogram: 8 0 0 0 0 0 0 0 0 0
FullNghs:          170 ave         170 max         170 min
Histogram: 8 0 0 0 0 0 0 0 0 0

Total # of neighbors = 1360
Ave neighs/atom = 170
Neighbor list builds = 0
Dangerous builds = 0
variable  natoms equal "count(all)"
variable xlength equal "lx"
variable  volume equal "vol"
variable  etotal equal "etotal"
variable    ecoh equal "pe/v_natoms"
print "${xlength}, ${volume}, ${etotal}, ${ecoh}" append lattice_cohesive_energy.txt screen no

next i
jump SELF loop

change_box all x scale 1.0025 y scale 1.0025 z scale 1.0025 remap
Changing box ...
  orthogonal box = (0.11280001 0.11760599 0.11760599) to (3.9672 3.962394 3.962394)
  orthogonal box = (0.11280001 0.11280001 0.11760599) to (3.9672 3.9672 3.962394)
  orthogonal box = (0.11280001 0.11280001 0.11280001) to (3.9672 3.9672 3.9672)

run 1
WARNING: No fixes with time integration, atoms won't move (src/verlet.cpp:60)
WARNING: Proc sub-domain size < neighbor skin, could lead to lost atoms (src/domain.cpp:966)
Per MPI rank memory allocation (min/avg/max) = 8.559 | 8.559 | 8.559 Mbytes
   Step         PotEng         TotEng           Lx             Ly             Lz           Volume         Press           Pxx            Pyy            Pzz      
         5  -34.793655     -34.793655      3.8544         3.8544         3.8544         57.262505      475767.3       475767.3       475767.3       475767.3     
         6  -34.793655     -34.793655      3.8544         3.8544         3.8544         57.262505      475767.3       475767.3       475767.3       475767.3     
Loop time of 0.000147875 on 8 procs for 1 steps with 8 atoms

Performance: 584.277 ns/day, 0.041 hours/ns, 6762.468 timesteps/s, 54.100 katom-step/s
0.0% CPU use with 8 MPI tasks x 1 OpenMP threads

MPI task timing breakdown:
Section |  min time  |  avg time  |  max time  |%varavg| %total
---------------------------------------------------------------
Pair    | 0.000111   | 0.00011212 | 0.000113   |   0.0 | 75.82
Neigh   | 0          | 0          | 0          |   0.0 |  0.00
Comm    | 2e-05      | 2.0625e-05 | 2.2e-05    |   0.0 | 13.95
Output  | 1e-05      | 1.0875e-05 | 1.1e-05    |   0.0 |  7.35
Modify  | 0          | 1.25e-07   | 1e-06      |   0.0 |  0.08
Other   |            | 4.125e-06  |            |       |  2.79

Nlocal:              1 ave           1 max           1 min
Histogram: 8 0 0 0 0 0 0 0 0 0
Nghost:            511 ave         511 max         511 min
Histogram: 8 0 0 0 0 0 0 0 0 0
Neighs:             85 ave          85 max          85 min
Histogram: 8 0 0 0 0 0 0 0 0 0
FullNghs:          170 ave         170 max         170 min
Histogram: 8 0 0 0 0 0 0 0 0 0

Total # of neighbors = 1360
Ave neighs/atom = 170
Neighbor list builds = 0
Dangerous builds = 0
variable  natoms equal "count(all)"
variable xlength equal "lx"
variable  volume equal "vol"
variable  etotal equal "etotal"
variable    ecoh equal "pe/v_natoms"
print "${xlength}, ${volume}, ${etotal}, ${ecoh}" append lattice_cohesive_energy.txt screen no

next i
jump SELF loop

change_box all x scale 1.0025 y scale 1.0025 z scale 1.0025 remap
Changing box ...
  orthogonal box = (0.10798201 0.11280001 0.11280001) to (3.972018 3.9672 3.9672)
  orthogonal box = (0.10798201 0.10798201 0.11280001) to (3.972018 3.972018 3.9672)
  orthogonal box = (0.10798201 0.10798201 0.10798201) to (3.972018 3.972018 3.972018)

run 1
WARNING: No fixes with time integration, atoms won't move (src/verlet.cpp:60)
WARNING: Proc sub-domain size < neighbor skin, could lead to lost atoms (src/domain.cpp:966)
Per MPI rank memory allocation (min/avg/max) = 8.559 | 8.559 | 8.559 Mbytes
   Step         PotEng         TotEng           Lx             Ly             Lz           Volume         Press           Pxx            Pyy            Pzz      
         6  -34.917744     -34.917744      3.864036       3.864036       3.864036       57.693048      447935.16      447935.16      447935.16      447935.16    
         7  -34.917744     -34.917744      3.864036       3.864036       3.864036       57.693048      447935.16      447935.16      447935.16      447935.16    
Loop time of 0.000271375 on 8 procs for 1 steps with 8 atoms

Performance: 318.379 ns/day, 0.075 hours/ns, 3684.938 timesteps/s, 29.480 katom-step/s
0.0% CPU use with 8 MPI tasks x 1 OpenMP threads

MPI task timing breakdown:
Section |  min time  |  avg time  |  max time  |%varavg| %total
---------------------------------------------------------------
Pair    | 0.000224   | 0.00022512 | 0.000226   |   0.0 | 82.96
Neigh   | 0          | 0          | 0          |   0.0 |  0.00
Comm    | 2.5e-05    | 2.6625e-05 | 2.8e-05    |   0.0 |  9.81
Output  | 1.1e-05    | 1.275e-05  | 1.4e-05    |   0.0 |  4.70
Modify  | 0          | 1.25e-07   | 1e-06      |   0.0 |  0.05
Other   |            | 6.75e-06   |            |       |  2.49

Nlocal:              1 ave           1 max           1 min
Histogram: 8 0 0 0 0 0 0 0 0 0
Nghost:            511 ave         511 max         511 min
Histogram: 8 0 0 0 0 0 0 0 0 0
Neighs:             85 ave          85 max          85 min
Histogram: 8 0 0 0 0 0 0 0 0 0
FullNghs:          170 ave         170 max         170 min
Histogram: 8 0 0 0 0 0 0 0 0 0

Total # of neighbors = 1360
Ave neighs/atom = 170
Neighbor list builds = 0
Dangerous builds = 0
variable  natoms equal "count(all)"
variable xlength equal "lx"
variable  volume equal "vol"
variable  etotal equal "etotal"
variable    ecoh equal "pe/v_natoms"
print "${xlength}, ${volume}, ${etotal}, ${ecoh}" append lattice_cohesive_energy.txt screen no

next i
jump SELF loop

change_box all x scale 1.0025 y scale 1.0025 z scale 1.0025 remap
Changing box ...
  orthogonal box = (0.10315196 0.10798201 0.10798201) to (3.976848 3.972018 3.972018)
  orthogonal box = (0.10315196 0.10315196 0.10798201) to (3.976848 3.976848 3.972018)
  orthogonal box = (0.10315196 0.10315196 0.10315196) to (3.976848 3.976848 3.976848)

run 1
WARNING: No fixes with time integration, atoms won't move (src/verlet.cpp:60)
WARNING: Proc sub-domain size < neighbor skin, could lead to lost atoms (src/domain.cpp:966)
Per MPI rank memory allocation (min/avg/max) = 8.559 | 8.559 | 8.559 Mbytes
   Step         PotEng         TotEng           Lx             Ly             Lz           Volume         Press           Pxx            Pyy            Pzz      
         7  -35.03533      -35.03533       3.8736961      3.8736961      3.8736961      58.126829      420832.24      420832.24      420832.24      420832.24    
         8  -35.03533      -35.03533       3.8736961      3.8736961      3.8736961      58.126829      420832.24      420832.24      420832.24      420832.24    
Loop time of 0.00015475 on 8 procs for 1 steps with 8 atoms

Performance: 558.320 ns/day, 0.043 hours/ns, 6462.036 timesteps/s, 51.696 katom-step/s
0.0% CPU use with 8 MPI tasks x 1 OpenMP threads

MPI task timing breakdown:
Section |  min time  |  avg time  |  max time  |%varavg| %total
---------------------------------------------------------------
Pair    | 0.000116   | 0.000117   | 0.000118   |   0.0 | 75.61
Neigh   | 0          | 0          | 0          |   0.0 |  0.00
Comm    | 2.2e-05    | 2.2875e-05 | 2.4e-05    |   0.0 | 14.78
Output  | 1e-05      | 1.025e-05  | 1.1e-05    |   0.0 |  6.62
Modify  | 0          | 5e-07      | 1e-06      |   0.0 |  0.32
Other   |            | 4.125e-06  |            |       |  2.67

Nlocal:              1 ave           1 max           1 min
Histogram: 8 0 0 0 0 0 0 0 0 0
Nghost:            511 ave         511 max         511 min
Histogram: 8 0 0 0 0 0 0 0 0 0
Neighs:             85 ave          85 max          85 min
Histogram: 8 0 0 0 0 0 0 0 0 0
FullNghs:          170 ave         170 max         170 min
Histogram: 8 0 0 0 0 0 0 0 0 0

Total # of neighbors = 1360
Ave neighs/atom = 170
Neighbor list builds = 0
Dangerous builds = 0
variable  natoms equal "count(all)"
variable xlength equal "lx"
variable  volume equal "vol"
variable  etotal equal "etotal"
variable    ecoh equal "pe/v_natoms"
print "${xlength}, ${volume}, ${etotal}, ${ecoh}" append lattice_cohesive_energy.txt screen no

next i
jump SELF loop

change_box all x scale 1.0025 y scale 1.0025 z scale 1.0025 remap
Changing box ...
  orthogonal box = (0.098309843 0.10315196 0.10315196) to (3.9816902 3.976848 3.976848)
  orthogonal box = (0.098309843 0.098309843 0.10315196) to (3.9816902 3.9816902 3.976848)
  orthogonal box = (0.098309843 0.098309843 0.098309843) to (3.9816902 3.9816902 3.9816902)

run 1
WARNING: No fixes with time integration, atoms won't move (src/verlet.cpp:60)
WARNING: Proc sub-domain size < neighbor skin, could lead to lost atoms (src/domain.cpp:966)
Per MPI rank memory allocation (min/avg/max) = 8.559 | 8.559 | 8.559 Mbytes
   Step         PotEng         TotEng           Lx             Ly             Lz           Volume         Press           Pxx            Pyy            Pzz      
         8  -35.146505     -35.146505      3.8833803      3.8833803      3.8833803      58.563871      394444.32      394444.32      394444.32      394444.32    
         9  -35.146505     -35.146505      3.8833803      3.8833803      3.8833803      58.563871      394444.32      394444.32      394444.32      394444.32    
Loop time of 0.00014775 on 8 procs for 1 steps with 8 atoms

Performance: 584.772 ns/day, 0.041 hours/ns, 6768.190 timesteps/s, 54.146 katom-step/s
0.0% CPU use with 8 MPI tasks x 1 OpenMP threads

MPI task timing breakdown:
Section |  min time  |  avg time  |  max time  |%varavg| %total
---------------------------------------------------------------
Pair    | 0.000111   | 0.0001125  | 0.000114   |   0.0 | 76.14
Neigh   | 0          | 0          | 0          |   0.0 |  0.00
Comm    | 1.9e-05    | 2.025e-05  | 2.2e-05    |   0.0 | 13.71
Output  | 1e-05      | 1.075e-05  | 1.1e-05    |   0.0 |  7.28
Modify  | 0          | 1.25e-07   | 1e-06      |   0.0 |  0.08
Other   |            | 4.125e-06  |            |       |  2.79

Nlocal:              1 ave           1 max           1 min
Histogram: 8 0 0 0 0 0 0 0 0 0
Nghost:            511 ave         511 max         511 min
Histogram: 8 0 0 0 0 0 0 0 0 0
Neighs:             85 ave          85 max          85 min
Histogram: 8 0 0 0 0 0 0 0 0 0
FullNghs:          170 ave         170 max         170 min
Histogram: 8 0 0 0 0 0 0 0 0 0

Total # of neighbors = 1360
Ave neighs/atom = 170
Neighbor list builds = 0
Dangerous builds = 0
variable  natoms equal "count(all)"
variable xlength equal "lx"
variable  volume equal "vol"
variable  etotal equal "etotal"
variable    ecoh equal "pe/v_natoms"
print "${xlength}, ${volume}, ${etotal}, ${ecoh}" append lattice_cohesive_energy.txt screen no

next i
jump SELF loop

change_box all x scale 1.0025 y scale 1.0025 z scale 1.0025 remap
Changing box ...
  orthogonal box = (0.093455617 0.098309843 0.098309843) to (3.9865444 3.9816902 3.9816902)
  orthogonal box = (0.093455617 0.093455617 0.098309843) to (3.9865444 3.9865444 3.9816902)
  orthogonal box = (0.093455617 0.093455617 0.093455617) to (3.9865444 3.9865444 3.9865444)

run 1
WARNING: No fixes with time integration, atoms won't move (src/verlet.cpp:60)
WARNING: Proc sub-domain size < neighbor skin, could lead to lost atoms (src/domain.cpp:966)
Per MPI rank memory allocation (min/avg/max) = 8.559 | 8.559 | 8.559 Mbytes
   Step         PotEng         TotEng           Lx             Ly             Lz           Volume         Press           Pxx            Pyy            Pzz      
         9  -35.251361     -35.251361      3.8930888      3.8930888      3.8930888      59.004199      368757.41      368757.41      368757.41      368757.41    
        10  -35.251361     -35.251361      3.8930888      3.8930888      3.8930888      59.004199      368757.41      368757.41      368757.41      368757.41    
Loop time of 0.000152875 on 8 procs for 1 steps with 8 atoms

Performance: 565.168 ns/day, 0.042 hours/ns, 6541.292 timesteps/s, 52.330 katom-step/s
0.0% CPU use with 8 MPI tasks x 1 OpenMP threads

MPI task timing breakdown:
Section |  min time  |  avg time  |  max time  |%varavg| %total
---------------------------------------------------------------
Pair    | 0.000116   | 0.00011663 | 0.000118   |   0.0 | 76.29
Neigh   | 0          | 0          | 0          |   0.0 |  0.00
Comm    | 2e-05      | 2.1125e-05 | 2.2e-05    |   0.0 | 13.82
Output  | 1e-05      | 1.0875e-05 | 1.1e-05    |   0.0 |  7.11
Modify  | 0          | 2.5e-07    | 1e-06      |   0.0 |  0.16
Other   |            | 4e-06      |            |       |  2.62

Nlocal:              1 ave           1 max           1 min
Histogram: 8 0 0 0 0 0 0 0 0 0
Nghost:            511 ave         511 max         511 min
Histogram: 8 0 0 0 0 0 0 0 0 0
Neighs:             85 ave          85 max          85 min
Histogram: 8 0 0 0 0 0 0 0 0 0
FullNghs:          170 ave         170 max         170 min
Histogram: 8 0 0 0 0 0 0 0 0 0

Total # of neighbors = 1360
Ave neighs/atom = 170
Neighbor list builds = 0
Dangerous builds = 0
variable  natoms equal "count(all)"
variable xlength equal "lx"
variable  volume equal "vol"
variable  etotal equal "etotal"
variable    ecoh equal "pe/v_natoms"
print "${xlength}, ${volume}, ${etotal}, ${ecoh}" append lattice_cohesive_energy.txt screen no

next i
jump SELF loop

change_box all x scale 1.0025 y scale 1.0025 z scale 1.0025 remap
Changing box ...
  orthogonal box = (0.088589256 0.093455617 0.093455617) to (3.9914107 3.9865444 3.9865444)
  orthogonal box = (0.088589256 0.088589256 0.093455617) to (3.9914107 3.9914107 3.9865444)
  orthogonal box = (0.088589256 0.088589256 0.088589256) to (3.9914107 3.9914107 3.9914107)

run 1
WARNING: No fixes with time integration, atoms won't move (src/verlet.cpp:60)
WARNING: Proc sub-domain size < neighbor skin, could lead to lost atoms (src/domain.cpp:966)
Per MPI rank memory allocation (min/avg/max) = 8.559 | 8.559 | 8.559 Mbytes
   Step         PotEng         TotEng           Lx             Ly             Lz           Volume         Press           Pxx            Pyy            Pzz      
        10  -35.349988     -35.349988      3.9028215      3.9028215      3.9028215      59.447838      343757.73      343757.73      343757.73      343757.73    
        11  -35.349988     -35.349988      3.9028215      3.9028215      3.9028215      59.447838      343757.73      343757.73      343757.73      343757.73    
Loop time of 0.000203 on 8 procs for 1 steps with 8 atoms

Performance: 425.616 ns/day, 0.056 hours/ns, 4926.108 timesteps/s, 39.409 katom-step/s
0.0% CPU use with 8 MPI tasks x 1 OpenMP threads

MPI task timing breakdown:
Section |  min time  |  avg time  |  max time  |%varavg| %total
---------------------------------------------------------------
Pair    | 0.000116   | 0.00013637 | 0.000167   |   0.0 | 67.18
Neigh   | 0          | 0          | 0          |   0.0 |  0.00
Comm    | 2e-05      | 5.1375e-05 | 7.2e-05    |   0.0 | 25.31
Output  | 1.1e-05    | 1.1375e-05 | 1.2e-05    |   0.0 |  5.60
Modify  | 0          | 1.25e-07   | 1e-06      |   0.0 |  0.06
Other   |            | 3.75e-06   |            |       |  1.85

Nlocal:              1 ave           1 max           1 min
Histogram: 8 0 0 0 0 0 0 0 0 0
Nghost:            511 ave         511 max         511 min
Histogram: 8 0 0 0 0 0 0 0 0 0
Neighs:             85 ave          85 max          85 min
Histogram: 8 0 0 0 0 0 0 0 0 0
FullNghs:          170 ave         170 max         170 min
Histogram: 8 0 0 0 0 0 0 0 0 0

Total # of neighbors = 1360
Ave neighs/atom = 170
Neighbor list builds = 0
Dangerous builds = 0
variable  natoms equal "count(all)"
variable xlength equal "lx"
variable  volume equal "vol"
variable  etotal equal "etotal"
variable    ecoh equal "pe/v_natoms"
print "${xlength}, ${volume}, ${etotal}, ${ecoh}" append lattice_cohesive_energy.txt screen no

next i
jump SELF loop

change_box all x scale 1.0025 y scale 1.0025 z scale 1.0025 remap
Changing box ...
  orthogonal box = (0.08371073 0.088589256 0.088589256) to (3.9962893 3.9914107 3.9914107)
  orthogonal box = (0.08371073 0.08371073 0.088589256) to (3.9962893 3.9962893 3.9914107)
  orthogonal box = (0.08371073 0.08371073 0.08371073) to (3.9962893 3.9962893 3.9962893)

run 1
WARNING: No fixes with time integration, atoms won't move (src/verlet.cpp:60)
WARNING: Proc sub-domain size < neighbor skin, could lead to lost atoms (src/domain.cpp:966)
Per MPI rank memory allocation (min/avg/max) = 8.559 | 8.559 | 8.559 Mbytes
   Step         PotEng         TotEng           Lx             Ly             Lz           Volume         Press           Pxx            Pyy            Pzz      
        11  -35.442476     -35.442476      3.9125785      3.9125785      3.9125785      59.894812      319431.72      319431.72      319431.72      319431.72    
        12  -35.442476     -35.442476      3.9125785      3.9125785      3.9125785      59.894812      319431.72      319431.72      319431.72      319431.72    
Loop time of 0.0001475 on 8 procs for 1 steps with 8 atoms

Performance: 585.763 ns/day, 0.041 hours/ns, 6779.661 timesteps/s, 54.237 katom-step/s
0.0% CPU use with 8 MPI tasks x 1 OpenMP threads

MPI task timing breakdown:
Section |  min time  |  avg time  |  max time  |%varavg| %total
---------------------------------------------------------------
Pair    | 0.000111   | 0.00011238 | 0.000114   |   0.0 | 76.19
Neigh   | 0          | 0          | 0          |   0.0 |  0.00
Comm    | 1.9e-05    | 2.0625e-05 | 2.2e-05    |   0.0 | 13.98
Output  | 1e-05      | 1.0875e-05 | 1.1e-05    |   0.0 |  7.37
Modify  | 0          | 1.25e-07   | 1e-06      |   0.0 |  0.08
Other   |            | 3.5e-06    |            |       |  2.37

Nlocal:              1 ave           1 max           1 min
Histogram: 8 0 0 0 0 0 0 0 0 0
Nghost:            511 ave         511 max         511 min
Histogram: 8 0 0 0 0 0 0 0 0 0
Neighs:             85 ave          85 max          85 min
Histogram: 8 0 0 0 0 0 0 0 0 0
FullNghs:          170 ave         170 max         170 min
Histogram: 8 0 0 0 0 0 0 0 0 0

Total # of neighbors = 1360
Ave neighs/atom = 170
Neighbor list builds = 0
Dangerous builds = 0
variable  natoms equal "count(all)"
variable xlength equal "lx"
variable  volume equal "vol"
variable  etotal equal "etotal"
variable    ecoh equal "pe/v_natoms"
print "${xlength}, ${volume}, ${etotal}, ${ecoh}" append lattice_cohesive_energy.txt screen no

next i
jump SELF loop

change_box all x scale 1.0025 y scale 1.0025 z scale 1.0025 remap
Changing box ...
  orthogonal box = (0.078820006 0.08371073 0.08371073) to (4.00118 3.9962893 3.9962893)
  orthogonal box = (0.078820006 0.078820006 0.08371073) to (4.00118 4.00118 3.9962893)
  orthogonal box = (0.078820006 0.078820006 0.078820006) to (4.00118 4.00118 4.00118)

run 1
WARNING: No fixes with time integration, atoms won't move (src/verlet.cpp:60)
WARNING: Proc sub-domain size < neighbor skin, could lead to lost atoms (src/domain.cpp:966)
Per MPI rank memory allocation (min/avg/max) = 8.559 | 8.559 | 8.559 Mbytes
   Step         PotEng         TotEng           Lx             Ly             Lz           Volume         Press           Pxx            Pyy            Pzz      
        12  -35.528916     -35.528916      3.92236        3.92236        3.92236        60.345147      295766.03      295766.03      295766.03      295766.03    
        13  -35.528916     -35.528916      3.92236        3.92236        3.92236        60.345147      295766.03      295766.03      295766.03      295766.03    
Loop time of 0.000155375 on 8 procs for 1 steps with 8 atoms

Performance: 556.074 ns/day, 0.043 hours/ns, 6436.042 timesteps/s, 51.488 katom-step/s
0.0% CPU use with 8 MPI tasks x 1 OpenMP threads

MPI task timing breakdown:
Section |  min time  |  avg time  |  max time  |%varavg| %total
---------------------------------------------------------------
Pair    | 0.000118   | 0.00011913 | 0.000121   |   0.0 | 76.67
Neigh   | 0          | 0          | 0          |   0.0 |  0.00
Comm    | 1.9e-05    | 2.0875e-05 | 2.2e-05    |   0.0 | 13.44
Output  | 1.1e-05    | 1.1e-05    | 1.1e-05    |   0.0 |  7.08
Modify  | 0          | 0          | 0          |   0.0 |  0.00
Other   |            | 4.375e-06  |            |       |  2.82

Nlocal:              1 ave           1 max           1 min
Histogram: 8 0 0 0 0 0 0 0 0 0
Nghost:            511 ave         511 max         511 min
Histogram: 8 0 0 0 0 0 0 0 0 0
Neighs:             85 ave          85 max          85 min
Histogram: 8 0 0 0 0 0 0 0 0 0
FullNghs:          170 ave         170 max         170 min
Histogram: 8 0 0 0 0 0 0 0 0 0

Total # of neighbors = 1360
Ave neighs/atom = 170
Neighbor list builds = 0
Dangerous builds = 0
variable  natoms equal "count(all)"
variable xlength equal "lx"
variable  volume equal "vol"
variable  etotal equal "etotal"
variable    ecoh equal "pe/v_natoms"
print "${xlength}, ${volume}, ${etotal}, ${ecoh}" append lattice_cohesive_energy.txt screen no

next i
jump SELF loop

change_box all x scale 1.0025 y scale 1.0025 z scale 1.0025 remap
Changing box ...
  orthogonal box = (0.073917056 0.078820006 0.078820006) to (4.0060829 4.00118 4.00118)
  orthogonal box = (0.073917056 0.073917056 0.078820006) to (4.0060829 4.0060829 4.00118)
  orthogonal box = (0.073917056 0.073917056 0.073917056) to (4.0060829 4.0060829 4.0060829)

run 1
WARNING: No fixes with time integration, atoms won't move (src/verlet.cpp:60)
WARNING: Proc sub-domain size < neighbor skin, could lead to lost atoms (src/domain.cpp:966)
Per MPI rank memory allocation (min/avg/max) = 8.559 | 8.559 | 8.559 Mbytes
   Step         PotEng         TotEng           Lx             Ly             Lz           Volume         Press           Pxx            Pyy            Pzz      
        13  -35.609395     -35.609395      3.9321659      3.9321659      3.9321659      60.798868      272747.51      272747.51      272747.51      272747.51    
        14  -35.609395     -35.609395      3.9321659      3.9321659      3.9321659      60.798868      272747.51      272747.51      272747.51      272747.51    
Loop time of 0.0001505 on 8 procs for 1 steps with 8 atoms

Performance: 574.086 ns/day, 0.042 hours/ns, 6644.518 timesteps/s, 53.156 katom-step/s
0.0% CPU use with 8 MPI tasks x 1 OpenMP threads

MPI task timing breakdown:
Section |  min time  |  avg time  |  max time  |%varavg| %total
---------------------------------------------------------------
Pair    | 0.000115   | 0.00011525 | 0.000116   |   0.0 | 76.58
Neigh   | 0          | 0          | 0          |   0.0 |  0.00
Comm    | 1.9e-05    | 2.025e-05  | 2.1e-05    |   0.0 | 13.46
Output  | 1.1e-05    | 1.1e-05    | 1.1e-05    |   0.0 |  7.31
Modify  | 0          | 1.25e-07   | 1e-06      |   0.0 |  0.08
Other   |            | 3.875e-06  |            |       |  2.57

Nlocal:              1 ave           1 max           1 min
Histogram: 8 0 0 0 0 0 0 0 0 0
Nghost:            511 ave         511 max         511 min
Histogram: 8 0 0 0 0 0 0 0 0 0
Neighs:             85 ave          85 max          85 min
Histogram: 8 0 0 0 0 0 0 0 0 0
FullNghs:          170 ave         170 max         170 min
Histogram: 8 0 0 0 0 0 0 0 0 0

Total # of neighbors = 1360
Ave neighs/atom = 170
Neighbor list builds = 0
Dangerous builds = 0
variable  natoms equal "count(all)"
variable xlength equal "lx"
variable  volume equal "vol"
variable  etotal equal "etotal"
variable    ecoh equal "pe/v_natoms"
print "${xlength}, ${volume}, ${etotal}, ${ecoh}" append lattice_cohesive_energy.txt screen no

next i
jump SELF loop

change_box all x scale 1.0025 y scale 1.0025 z scale 1.0025 remap
Changing box ...
  orthogonal box = (0.069001849 0.073917056 0.073917056) to (4.0109982 4.0060829 4.0060829)
  orthogonal box = (0.069001849 0.069001849 0.073917056) to (4.0109982 4.0109982 4.0060829)
  orthogonal box = (0.069001849 0.069001849 0.069001849) to (4.0109982 4.0109982 4.0109982)

run 1
WARNING: No fixes with time integration, atoms won't move (src/verlet.cpp:60)
WARNING: Proc sub-domain size < neighbor skin, could lead to lost atoms (src/domain.cpp:966)
Per MPI rank memory allocation (min/avg/max) = 8.559 | 8.559 | 8.559 Mbytes
   Step         PotEng         TotEng           Lx             Ly             Lz           Volume         Press           Pxx            Pyy            Pzz      
        14  -35.684003     -35.684003      3.9419963      3.9419963      3.9419963      61.256         250363.24      250363.24      250363.24      250363.24    
        15  -35.684003     -35.684003      3.9419963      3.9419963      3.9419963      61.256         250363.24      250363.24      250363.24      250363.24    
Loop time of 0.000147 on 8 procs for 1 steps with 8 atoms

Performance: 587.755 ns/day, 0.041 hours/ns, 6802.721 timesteps/s, 54.422 katom-step/s
0.0% CPU use with 8 MPI tasks x 1 OpenMP threads

MPI task timing breakdown:
Section |  min time  |  avg time  |  max time  |%varavg| %total
---------------------------------------------------------------
Pair    | 0.000111   | 0.00011238 | 0.000114   |   0.0 | 76.45
Neigh   | 0          | 0          | 0          |   0.0 |  0.00
Comm    | 1.9e-05    | 2.0625e-05 | 2.2e-05    |   0.0 | 14.03
Output  | 1.1e-05    | 1.1e-05    | 1.1e-05    |   0.0 |  7.48
Modify  | 0          | 0          | 0          |   0.0 |  0.00
Other   |            | 3e-06      |            |       |  2.04

Nlocal:              1 ave           1 max           1 min
Histogram: 8 0 0 0 0 0 0 0 0 0
Nghost:            511 ave         511 max         511 min
Histogram: 8 0 0 0 0 0 0 0 0 0
Neighs:             85 ave          85 max          85 min
Histogram: 8 0 0 0 0 0 0 0 0 0
FullNghs:          170 ave         170 max         170 min
Histogram: 8 0 0 0 0 0 0 0 0 0

Total # of neighbors = 1360
Ave neighs/atom = 170
Neighbor list builds = 0
Dangerous builds = 0
variable  natoms equal "count(all)"
variable xlength equal "lx"
variable  volume equal "vol"
variable  etotal equal "etotal"
variable    ecoh equal "pe/v_natoms"
print "${xlength}, ${volume}, ${etotal}, ${ecoh}" append lattice_cohesive_energy.txt screen no

next i
jump SELF loop

change_box all x scale 1.0025 y scale 1.0025 z scale 1.0025 remap
Changing box ...
  orthogonal box = (0.064074354 0.069001849 0.069001849) to (4.0159256 4.0109982 4.0109982)
  orthogonal box = (0.064074354 0.064074354 0.069001849) to (4.0159256 4.0159256 4.0109982)
  orthogonal box = (0.064074354 0.064074354 0.064074354) to (4.0159256 4.0159256 4.0159256)

run 1
WARNING: No fixes with time integration, atoms won't move (src/verlet.cpp:60)
WARNING: Proc sub-domain size < neighbor skin, could lead to lost atoms (src/domain.cpp:966)
Per MPI rank memory allocation (min/avg/max) = 8.559 | 8.559 | 8.559 Mbytes
   Step         PotEng         TotEng           Lx             Ly             Lz           Volume         Press           Pxx            Pyy            Pzz      
        15  -35.752827     -35.752827      3.9518513      3.9518513      3.9518513      61.71657       228600.49      228600.49      228600.49      228600.49    
        16  -35.752827     -35.752827      3.9518513      3.9518513      3.9518513      61.71657       228600.49      228600.49      228600.49      228600.49    
Loop time of 0.00015375 on 8 procs for 1 steps with 8 atoms

Performance: 561.951 ns/day, 0.043 hours/ns, 6504.065 timesteps/s, 52.033 katom-step/s
0.0% CPU use with 8 MPI tasks x 1 OpenMP threads

MPI task timing breakdown:
Section |  min time  |  avg time  |  max time  |%varavg| %total
---------------------------------------------------------------
Pair    | 0.000117   | 0.00011825 | 0.00012    |   0.0 | 76.91
Neigh   | 0          | 0          | 0          |   0.0 |  0.00
Comm    | 1.9e-05    | 2.075e-05  | 2.2e-05    |   0.0 | 13.50
Output  | 1e-05      | 1.0625e-05 | 1.1e-05    |   0.0 |  6.91
Modify  | 0          | 3.75e-07   | 1e-06      |   0.0 |  0.24
Other   |            | 3.75e-06   |            |       |  2.44

Nlocal:              1 ave           1 max           1 min
Histogram: 8 0 0 0 0 0 0 0 0 0
Nghost:            511 ave         511 max         511 min
Histogram: 8 0 0 0 0 0 0 0 0 0
Neighs:             85 ave          85 max          85 min
Histogram: 8 0 0 0 0 0 0 0 0 0
FullNghs:          170 ave         170 max         170 min
Histogram: 8 0 0 0 0 0 0 0 0 0

Total # of neighbors = 1360
Ave neighs/atom = 170
Neighbor list builds = 0
Dangerous builds = 0
variable  natoms equal "count(all)"
variable xlength equal "lx"
variable  volume equal "vol"
variable  etotal equal "etotal"
variable    ecoh equal "pe/v_natoms"
print "${xlength}, ${volume}, ${etotal}, ${ecoh}" append lattice_cohesive_energy.txt screen no

next i
jump SELF loop

change_box all x scale 1.0025 y scale 1.0025 z scale 1.0025 remap
Changing box ...
  orthogonal box = (0.059134539 0.064074354 0.064074354) to (4.0208655 4.0159256 4.0159256)
  orthogonal box = (0.059134539 0.059134539 0.064074354) to (4.0208655 4.0208655 4.0159256)
  orthogonal box = (0.059134539 0.059134539 0.059134539) to (4.0208655 4.0208655 4.0208655)

run 1
WARNING: No fixes with time integration, atoms won't move (src/verlet.cpp:60)
WARNING: Proc sub-domain size < neighbor skin, could lead to lost atoms (src/domain.cpp:966)
Per MPI rank memory allocation (min/avg/max) = 8.559 | 8.559 | 8.559 Mbytes
   Step         PotEng         TotEng           Lx             Ly             Lz           Volume         Press           Pxx            Pyy            Pzz      
        16  -35.815954     -35.815954      3.9617309      3.9617309      3.9617309      62.180602      207446.73      207446.73      207446.73      207446.73    
        17  -35.815954     -35.815954      3.9617309      3.9617309      3.9617309      62.180602      207446.73      207446.73      207446.73      207446.73    
Loop time of 0.000149875 on 8 procs for 1 steps with 8 atoms

Performance: 576.480 ns/day, 0.042 hours/ns, 6672.227 timesteps/s, 53.378 katom-step/s
0.0% CPU use with 8 MPI tasks x 1 OpenMP threads

MPI task timing breakdown:
Section |  min time  |  avg time  |  max time  |%varavg| %total
---------------------------------------------------------------
Pair    | 0.000112   | 0.00011375 | 0.000115   |   0.0 | 75.90
Neigh   | 0          | 0          | 0          |   0.0 |  0.00
Comm    | 2.1e-05    | 2.2125e-05 | 2.4e-05    |   0.0 | 14.76
Output  | 1e-05      | 1.0875e-05 | 1.1e-05    |   0.0 |  7.26
Modify  | 0          | 0          | 0          |   0.0 |  0.00
Other   |            | 3.125e-06  |            |       |  2.09

Nlocal:              1 ave           1 max           1 min
Histogram: 8 0 0 0 0 0 0 0 0 0
Nghost:            511 ave         511 max         511 min
Histogram: 8 0 0 0 0 0 0 0 0 0
Neighs:             85 ave          85 max          85 min
Histogram: 8 0 0 0 0 0 0 0 0 0
FullNghs:          170 ave         170 max         170 min
Histogram: 8 0 0 0 0 0 0 0 0 0

Total # of neighbors = 1360
Ave neighs/atom = 170
Neighbor list builds = 0
Dangerous builds = 0
variable  natoms equal "count(all)"
variable xlength equal "lx"
variable  volume equal "vol"
variable  etotal equal "etotal"
variable    ecoh equal "pe/v_natoms"
print "${xlength}, ${volume}, ${etotal}, ${ecoh}" append lattice_cohesive_energy.txt screen no

next i
jump SELF loop

change_box all x scale 1.0025 y scale 1.0025 z scale 1.0025 remap
Changing box ...
  orthogonal box = (0.054182376 0.059134539 0.059134539) to (4.0258176 4.0208655 4.0208655)
  orthogonal box = (0.054182376 0.054182376 0.059134539) to (4.0258176 4.0258176 4.0208655)
  orthogonal box = (0.054182376 0.054182376 0.054182376) to (4.0258176 4.0258176 4.0258176)

run 1
WARNING: No fixes with time integration, atoms won't move (src/verlet.cpp:60)
WARNING: Proc sub-domain size < neighbor skin, could lead to lost atoms (src/domain.cpp:966)
Per MPI rank memory allocation (min/avg/max) = 8.559 | 8.559 | 8.559 Mbytes
   Step         PotEng         TotEng           Lx             Ly             Lz           Volume         Press           Pxx            Pyy            Pzz      
        17  -35.873471     -35.873471      3.9716352      3.9716352      3.9716352      62.648124      186889.65      186889.65      186889.65      186889.65    
        18  -35.873471     -35.873471      3.9716352      3.9716352      3.9716352      62.648124      186889.65      186889.65      186889.65      186889.65    
Loop time of 0.000151875 on 8 procs for 1 steps with 8 atoms

Performance: 568.889 ns/day, 0.042 hours/ns, 6584.362 timesteps/s, 52.675 katom-step/s
0.0% CPU use with 8 MPI tasks x 1 OpenMP threads

MPI task timing breakdown:
Section |  min time  |  avg time  |  max time  |%varavg| %total
---------------------------------------------------------------
Pair    | 0.000113   | 0.0001145  | 0.000115   |   0.0 | 75.39
Neigh   | 0          | 0          | 0          |   0.0 |  0.00
Comm    | 2e-05      | 2.1375e-05 | 2.3e-05    |   0.0 | 14.07
Output  | 1.1e-05    | 1.1e-05    | 1.1e-05    |   0.0 |  7.24
Modify  | 0          | 0          | 0          |   0.0 |  0.00
Other   |            | 5e-06      |            |       |  3.29

Nlocal:              1 ave           1 max           1 min
Histogram: 8 0 0 0 0 0 0 0 0 0
Nghost:            511 ave         511 max         511 min
Histogram: 8 0 0 0 0 0 0 0 0 0
Neighs:             85 ave          85 max          85 min
Histogram: 8 0 0 0 0 0 0 0 0 0
FullNghs:          170 ave         170 max         170 min
Histogram: 8 0 0 0 0 0 0 0 0 0

Total # of neighbors = 1360
Ave neighs/atom = 170
Neighbor list builds = 0
Dangerous builds = 0
variable  natoms equal "count(all)"
variable xlength equal "lx"
variable  volume equal "vol"
variable  etotal equal "etotal"
variable    ecoh equal "pe/v_natoms"
print "${xlength}, ${volume}, ${etotal}, ${ecoh}" append lattice_cohesive_energy.txt screen no

next i
jump SELF loop

change_box all x scale 1.0025 y scale 1.0025 z scale 1.0025 remap
Changing box ...
  orthogonal box = (0.049217832 0.054182376 0.054182376) to (4.0307822 4.0258176 4.0258176)
  orthogonal box = (0.049217832 0.049217832 0.054182376) to (4.0307822 4.0307822 4.0258176)
  orthogonal box = (0.049217832 0.049217832 0.049217832) to (4.0307822 4.0307822 4.0307822)

run 1
WARNING: No fixes with time integration, atoms won't move (src/verlet.cpp:60)
WARNING: Proc sub-domain size < neighbor skin, could lead to lost atoms (src/domain.cpp:966)
Per MPI rank memory allocation (min/avg/max) = 8.559 | 8.559 | 8.559 Mbytes
   Step         PotEng         TotEng           Lx             Ly             Lz           Volume         Press           Pxx            Pyy            Pzz      
        18  -35.925462     -35.925462      3.9815643      3.9815643      3.9815643      63.11916       166917.11      166917.11      166917.11      166917.11    
        19  -35.925462     -35.925462      3.9815643      3.9815643      3.9815643      63.11916       166917.11      166917.11      166917.11      166917.11    
Loop time of 0.000160875 on 8 procs for 1 steps with 8 atoms

Performance: 537.063 ns/day, 0.045 hours/ns, 6216.006 timesteps/s, 49.728 katom-step/s
0.0% CPU use with 8 MPI tasks x 1 OpenMP threads

MPI task timing breakdown:
Section |  min time  |  avg time  |  max time  |%varavg| %total
---------------------------------------------------------------
Pair    | 0.000119   | 0.00012    | 0.000121   |   0.0 | 74.59
Neigh   | 0          | 0          | 0          |   0.0 |  0.00
Comm    | 2e-05      | 2.1125e-05 | 2.3e-05    |   0.0 | 13.13
Output  | 1.1e-05    | 1.1125e-05 | 1.2e-05    |   0.0 |  6.92
Modify  | 0          | 0          | 0          |   0.0 |  0.00
Other   |            | 8.625e-06  |            |       |  5.36

Nlocal:              1 ave           1 max           1 min
Histogram: 8 0 0 0 0 0 0 0 0 0
Nghost:            511 ave         511 max         511 min
Histogram: 8 0 0 0 0 0 0 0 0 0
Neighs:             73 ave          73 max          73 min
Histogram: 8 0 0 0 0 0 0 0 0 0
FullNghs:          146 ave         146 max         146 min
Histogram: 8 0 0 0 0 0 0 0 0 0

Total # of neighbors = 1168
Ave neighs/atom = 146
Neighbor list builds = 0
Dangerous builds = 0
variable  natoms equal "count(all)"
variable xlength equal "lx"
variable  volume equal "vol"
variable  etotal equal "etotal"
variable    ecoh equal "pe/v_natoms"
print "${xlength}, ${volume}, ${etotal}, ${ecoh}" append lattice_cohesive_energy.txt screen no

next i
jump SELF loop

change_box all x scale 1.0025 y scale 1.0025 z scale 1.0025 remap
Changing box ...
  orthogonal box = (0.044240876 0.049217832 0.049217832) to (4.0357591 4.0307822 4.0307822)
  orthogonal box = (0.044240876 0.044240876 0.049217832) to (4.0357591 4.0357591 4.0307822)
  orthogonal box = (0.044240876 0.044240876 0.044240876) to (4.0357591 4.0357591 4.0357591)

run 1
WARNING: No fixes with time integration, atoms won't move (src/verlet.cpp:60)
WARNING: Proc sub-domain size < neighbor skin, could lead to lost atoms (src/domain.cpp:966)
Per MPI rank memory allocation (min/avg/max) = 8.615 | 8.616 | 8.626 Mbytes
   Step         PotEng         TotEng           Lx             Ly             Lz           Volume         Press           Pxx            Pyy            Pzz      
        19  -35.972013     -35.972013      3.9915182      3.9915182      3.9915182      63.593739      147517.19      147517.19      147517.19      147517.19    
        20  -35.972013     -35.972013      3.9915182      3.9915182      3.9915182      63.593739      147517.19      147517.19      147517.19      147517.19    
Loop time of 0.0004605 on 8 procs for 1 steps with 8 atoms

Performance: 187.622 ns/day, 0.128 hours/ns, 2171.553 timesteps/s, 17.372 katom-step/s
0.0% CPU use with 8 MPI tasks x 1 OpenMP threads

MPI task timing breakdown:
Section |  min time  |  avg time  |  max time  |%varavg| %total
---------------------------------------------------------------
Pair    | 0.000257   | 0.00028387 | 0.000328   |   0.0 | 61.64
Neigh   | 0          | 0          | 0          |   0.0 |  0.00
Comm    | 1.8e-05    | 7.075e-05  | 0.000155   |   0.0 | 15.36
Output  | 1.4e-05    | 8.95e-05   | 0.000167   |   0.0 | 19.44
Modify  | 0          | 3.75e-07   | 1e-06      |   0.0 |  0.08
Other   |            | 1.6e-05    |            |       |  3.47

Nlocal:              1 ave           8 max           0 min
Histogram: 7 0 0 0 0 0 0 0 0 1
Nghost:            511 ave         512 max         504 min
Histogram: 1 0 0 0 0 0 0 0 0 7
Neighs:             73 ave         584 max           0 min
Histogram: 7 0 0 0 0 0 0 0 0 1
FullNghs:          146 ave        1168 max           0 min
Histogram: 7 0 0 0 0 0 0 0 0 1

Total # of neighbors = 1168
Ave neighs/atom = 146
Neighbor list builds = 0
Dangerous builds = 0
variable  natoms equal "count(all)"
variable xlength equal "lx"
variable  volume equal "vol"
variable  etotal equal "etotal"
variable    ecoh equal "pe/v_natoms"
print "${xlength}, ${volume}, ${etotal}, ${ecoh}" append lattice_cohesive_energy.txt screen no

next i
jump SELF loop

change_box all x scale 1.0025 y scale 1.0025 z scale 1.0025 remap
Changing box ...
  orthogonal box = (0.039251479 0.044240876 0.044240876) to (4.0407485 4.0357591 4.0357591)
  orthogonal box = (0.039251479 0.039251479 0.044240876) to (4.0407485 4.0407485 4.0357591)
  orthogonal box = (0.039251479 0.039251479 0.039251479) to (4.0407485 4.0407485 4.0407485)

run 1
WARNING: No fixes with time integration, atoms won't move (src/verlet.cpp:60)
Per MPI rank memory allocation (min/avg/max) = 8.615 | 8.616 | 8.626 Mbytes
   Step         PotEng         TotEng           Lx             Ly             Lz           Volume         Press           Pxx            Pyy            Pzz      
        20  -36.013209     -36.013209      4.001497       4.001497       4.001497       64.071885      128678.15      128678.15      128678.15      128678.15    
        21  -36.013209     -36.013209      4.001497       4.001497       4.001497       64.071885      128678.15      128678.15      128678.15      128678.15    
Loop time of 0.000324875 on 8 procs for 1 steps with 8 atoms

Performance: 265.948 ns/day, 0.090 hours/ns, 3078.107 timesteps/s, 24.625 katom-step/s
1202.4% CPU use with 8 MPI tasks x 1 OpenMP threads

MPI task timing breakdown:
Section |  min time  |  avg time  |  max time  |%varavg| %total
---------------------------------------------------------------
Pair    | 0.000241   | 0.00024738 | 0.00028    |   0.0 | 76.14
Neigh   | 0          | 0          | 0          |   0.0 |  0.00
Comm    | 1.5e-05    | 3.2e-05    | 6e-05      |   0.0 |  9.85
Output  | 1.1e-05    | 3.4875e-05 | 6.3e-05    |   0.0 | 10.73
Modify  | 0          | 2.5e-07    | 1e-06      |   0.0 |  0.08
Other   |            | 1.038e-05  |            |       |  3.19

Nlocal:              1 ave           8 max           0 min
Histogram: 7 0 0 0 0 0 0 0 0 1
Nghost:            511 ave         512 max         504 min
Histogram: 1 0 0 0 0 0 0 0 0 7
Neighs:             73 ave         584 max           0 min
Histogram: 7 0 0 0 0 0 0 0 0 1
FullNghs:          146 ave        1168 max           0 min
Histogram: 7 0 0 0 0 0 0 0 0 1

Total # of neighbors = 1168
Ave neighs/atom = 146
Neighbor list builds = 0
Dangerous builds = 0
variable  natoms equal "count(all)"
variable xlength equal "lx"
variable  volume equal "vol"
variable  etotal equal "etotal"
variable    ecoh equal "pe/v_natoms"
print "${xlength}, ${volume}, ${etotal}, ${ecoh}" append lattice_cohesive_energy.txt screen no

next i
jump SELF loop

change_box all x scale 1.0025 y scale 1.0025 z scale 1.0025 remap
Changing box ...
  orthogonal box = (0.034249607 0.039251479 0.039251479) to (4.0457504 4.0407485 4.0407485)
  orthogonal box = (0.034249607 0.034249607 0.039251479) to (4.0457504 4.0457504 4.0407485)
  orthogonal box = (0.034249607 0.034249607 0.034249607) to (4.0457504 4.0457504 4.0457504)

run 1
WARNING: No fixes with time integration, atoms won't move (src/verlet.cpp:60)
Per MPI rank memory allocation (min/avg/max) = 8.615 | 8.616 | 8.626 Mbytes
   Step         PotEng         TotEng           Lx             Ly             Lz           Volume         Press           Pxx            Pyy            Pzz      
        21  -36.049134     -36.049134      4.0115008      4.0115008      4.0115008      64.553626      110388.43      110388.43      110388.43      110388.43    
        22  -36.049134     -36.049134      4.0115008      4.0115008      4.0115008      64.553626      110388.43      110388.43      110388.43      110388.43    
Loop time of 0.000311125 on 8 procs for 1 steps with 8 atoms

Performance: 277.702 ns/day, 0.086 hours/ns, 3214.142 timesteps/s, 25.713 katom-step/s
0.0% CPU use with 8 MPI tasks x 1 OpenMP threads

MPI task timing breakdown:
Section |  min time  |  avg time  |  max time  |%varavg| %total
---------------------------------------------------------------
Pair    | 0.000233   | 0.00023837 | 0.000272   |   0.0 | 76.62
Neigh   | 0          | 0          | 0          |   0.0 |  0.00
Comm    | 1.4e-05    | 3.175e-05  | 6e-05      |   0.0 | 10.20
Output  | 1.2e-05    | 3.6125e-05 | 5.8e-05    |   0.0 | 11.61
Modify  | 0          | 0          | 0          |   0.0 |  0.00
Other   |            | 4.875e-06  |            |       |  1.57

Nlocal:              1 ave           8 max           0 min
Histogram: 7 0 0 0 0 0 0 0 0 1
Nghost:            511 ave         512 max         504 min
Histogram: 1 0 0 0 0 0 0 0 0 7
Neighs:             73 ave         584 max           0 min
Histogram: 7 0 0 0 0 0 0 0 0 1
FullNghs:          146 ave        1168 max           0 min
Histogram: 7 0 0 0 0 0 0 0 0 1

Total # of neighbors = 1168
Ave neighs/atom = 146
Neighbor list builds = 0
Dangerous builds = 0
variable  natoms equal "count(all)"
variable xlength equal "lx"
variable  volume equal "vol"
variable  etotal equal "etotal"
variable    ecoh equal "pe/v_natoms"
print "${xlength}, ${volume}, ${etotal}, ${ecoh}" append lattice_cohesive_energy.txt screen no

next i
jump SELF loop

change_box all x scale 1.0025 y scale 1.0025 z scale 1.0025 remap
Changing box ...
  orthogonal box = (0.029235231 0.034249607 0.034249607) to (4.0507648 4.0457504 4.0457504)
  orthogonal box = (0.029235231 0.029235231 0.034249607) to (4.0507648 4.0507648 4.0457504)
  orthogonal box = (0.029235231 0.029235231 0.029235231) to (4.0507648 4.0507648 4.0507648)

run 1
WARNING: No fixes with time integration, atoms won't move (src/verlet.cpp:60)
Per MPI rank memory allocation (min/avg/max) = 8.615 | 8.616 | 8.626 Mbytes
   Step         PotEng         TotEng           Lx             Ly             Lz           Volume         Press           Pxx            Pyy            Pzz      
        22  -36.079869     -36.079869      4.0215295      4.0215295      4.0215295      65.03899       92636.69       92636.69       92636.69       92636.69     
        23  -36.079869     -36.079869      4.0215295      4.0215295      4.0215295      65.03899       92636.69       92636.69       92636.69       92636.69     
Loop time of 0.00031275 on 8 procs for 1 steps with 8 atoms

Performance: 276.259 ns/day, 0.087 hours/ns, 3197.442 timesteps/s, 25.580 katom-step/s
0.0% CPU use with 8 MPI tasks x 1 OpenMP threads

MPI task timing breakdown:
Section |  min time  |  avg time  |  max time  |%varavg| %total
---------------------------------------------------------------
Pair    | 0.000236   | 0.00024213 | 0.000275   |   0.0 | 77.42
Neigh   | 0          | 0          | 0          |   0.0 |  0.00
Comm    | 1.5e-05    | 3.1375e-05 | 5.9e-05    |   0.0 | 10.03
Output  | 1.3e-05    | 3.4875e-05 | 5.7e-05    |   0.0 | 11.15
Modify  | 0          | 0          | 0          |   0.0 |  0.00
Other   |            | 4.375e-06  |            |       |  1.40

Nlocal:              1 ave           8 max           0 min
Histogram: 7 0 0 0 0 0 0 0 0 1
Nghost:            511 ave         512 max         504 min
Histogram: 1 0 0 0 0 0 0 0 0 7
Neighs:             73 ave         584 max           0 min
Histogram: 7 0 0 0 0 0 0 0 0 1
FullNghs:          146 ave        1168 max           0 min
Histogram: 7 0 0 0 0 0 0 0 0 1

Total # of neighbors = 1168
Ave neighs/atom = 146
Neighbor list builds = 0
Dangerous builds = 0
variable  natoms equal "count(all)"
variable xlength equal "lx"
variable  volume equal "vol"
variable  etotal equal "etotal"
variable    ecoh equal "pe/v_natoms"
print "${xlength}, ${volume}, ${etotal}, ${ecoh}" append lattice_cohesive_energy.txt screen no

next i
jump SELF loop

change_box all x scale 1.0025 y scale 1.0025 z scale 1.0025 remap
Changing box ...
  orthogonal box = (0.024208319 0.029235231 0.029235231) to (4.0557917 4.0507648 4.0507648)
  orthogonal box = (0.024208319 0.024208319 0.029235231) to (4.0557917 4.0557917 4.0507648)
  orthogonal box = (0.024208319 0.024208319 0.024208319) to (4.0557917 4.0557917 4.0557917)

run 1
WARNING: No fixes with time integration, atoms won't move (src/verlet.cpp:60)
Per MPI rank memory allocation (min/avg/max) = 8.615 | 8.616 | 8.626 Mbytes
   Step         PotEng         TotEng           Lx             Ly             Lz           Volume         Press           Pxx            Pyy            Pzz      
        23  -36.105498     -36.105498      4.0315834      4.0315834      4.0315834      65.528003      75411.743      75411.743      75411.743      75411.743    
        24  -36.105498     -36.105498      4.0315834      4.0315834      4.0315834      65.528003      75411.743      75411.743      75411.743      75411.743    
Loop time of 0.000309 on 8 procs for 1 steps with 8 atoms

Performance: 279.612 ns/day, 0.086 hours/ns, 3236.246 timesteps/s, 25.890 katom-step/s
0.0% CPU use with 8 MPI tasks x 1 OpenMP threads

MPI task timing breakdown:
Section |  min time  |  avg time  |  max time  |%varavg| %total
---------------------------------------------------------------
Pair    | 0.000235   | 0.00024012 | 0.000272   |   0.0 | 77.71
Neigh   | 0          | 0          | 0          |   0.0 |  0.00
Comm    | 1.5e-05    | 3.1625e-05 | 5.8e-05    |   0.0 | 10.23
Output  | 1.1e-05    | 3.3875e-05 | 5.6e-05    |   0.0 | 10.96
Modify  | 0          | 1.25e-07   | 1e-06      |   0.0 |  0.04
Other   |            | 3.25e-06   |            |       |  1.05

Nlocal:              1 ave           8 max           0 min
Histogram: 7 0 0 0 0 0 0 0 0 1
Nghost:            511 ave         512 max         504 min
Histogram: 1 0 0 0 0 0 0 0 0 7
Neighs:             73 ave         584 max           0 min
Histogram: 7 0 0 0 0 0 0 0 0 1
FullNghs:          146 ave        1168 max           0 min
Histogram: 7 0 0 0 0 0 0 0 0 1

Total # of neighbors = 1168
Ave neighs/atom = 146
Neighbor list builds = 0
Dangerous builds = 0
variable  natoms equal "count(all)"
variable xlength equal "lx"
variable  volume equal "vol"
variable  etotal equal "etotal"
variable    ecoh equal "pe/v_natoms"
print "${xlength}, ${volume}, ${etotal}, ${ecoh}" append lattice_cohesive_energy.txt screen no

next i
jump SELF loop

change_box all x scale 1.0025 y scale 1.0025 z scale 1.0025 remap
Changing box ...
  orthogonal box = (0.01916884 0.024208319 0.024208319) to (4.0608312 4.0557917 4.0557917)
  orthogonal box = (0.01916884 0.01916884 0.024208319) to (4.0608312 4.0608312 4.0557917)
  orthogonal box = (0.01916884 0.01916884 0.01916884) to (4.0608312 4.0608312 4.0608312)

run 1
WARNING: No fixes with time integration, atoms won't move (src/verlet.cpp:60)
Per MPI rank memory allocation (min/avg/max) = 8.615 | 8.616 | 8.626 Mbytes
   Step         PotEng         TotEng           Lx             Ly             Lz           Volume         Press           Pxx            Pyy            Pzz      
        24  -36.126103     -36.126103      4.0416623      4.0416623      4.0416623      66.020693      58702.597      58702.597      58702.597      58702.597    
        25  -36.126103     -36.126103      4.0416623      4.0416623      4.0416623      66.020693      58702.597      58702.597      58702.597      58702.597    
Loop time of 0.000326625 on 8 procs for 1 steps with 8 atoms

Performance: 264.524 ns/day, 0.091 hours/ns, 3061.615 timesteps/s, 24.493 katom-step/s
0.0% CPU use with 8 MPI tasks x 1 OpenMP threads

MPI task timing breakdown:
Section |  min time  |  avg time  |  max time  |%varavg| %total
---------------------------------------------------------------
Pair    | 0.00025    | 0.00025587 | 0.00029    |   0.0 | 78.34
Neigh   | 0          | 0          | 0          |   0.0 |  0.00
Comm    | 1.5e-05    | 3.2125e-05 | 6.1e-05    |   0.0 |  9.84
Output  | 1.1e-05    | 3.4875e-05 | 5.8e-05    |   0.0 | 10.68
Modify  | 0          | 0          | 0          |   0.0 |  0.00
Other   |            | 3.75e-06   |            |       |  1.15

Nlocal:              1 ave           8 max           0 min
Histogram: 7 0 0 0 0 0 0 0 0 1
Nghost:            511 ave         512 max         504 min
Histogram: 1 0 0 0 0 0 0 0 0 7
Neighs:             73 ave         584 max           0 min
Histogram: 7 0 0 0 0 0 0 0 0 1
FullNghs:          146 ave        1168 max           0 min
Histogram: 7 0 0 0 0 0 0 0 0 1

Total # of neighbors = 1168
Ave neighs/atom = 146
Neighbor list builds = 0
Dangerous builds = 0
variable  natoms equal "count(all)"
variable xlength equal "lx"
variable  volume equal "vol"
variable  etotal equal "etotal"
variable    ecoh equal "pe/v_natoms"
print "${xlength}, ${volume}, ${etotal}, ${ecoh}" append lattice_cohesive_energy.txt screen no

next i
jump SELF loop

change_box all x scale 1.0025 y scale 1.0025 z scale 1.0025 remap
Changing box ...
  orthogonal box = (0.014116762 0.01916884 0.01916884) to (4.0658832 4.0608312 4.0608312)
  orthogonal box = (0.014116762 0.014116762 0.01916884) to (4.0658832 4.0658832 4.0608312)
  orthogonal box = (0.014116762 0.014116762 0.014116762) to (4.0658832 4.0658832 4.0658832)

run 1
WARNING: No fixes with time integration, atoms won't move (src/verlet.cpp:60)
Per MPI rank memory allocation (min/avg/max) = 8.615 | 8.616 | 8.626 Mbytes
   Step         PotEng         TotEng           Lx             Ly             Lz           Volume         Press           Pxx            Pyy            Pzz      
        25  -36.141764     -36.141764      4.0517665      4.0517665      4.0517665      66.517087      42498.448      42498.448      42498.448      42498.448    
        26  -36.141764     -36.141764      4.0517665      4.0517665      4.0517665      66.517087      42498.448      42498.448      42498.448      42498.448    
Loop time of 0.000322 on 8 procs for 1 steps with 8 atoms

Performance: 268.323 ns/day, 0.089 hours/ns, 3105.590 timesteps/s, 24.845 katom-step/s
0.0% CPU use with 8 MPI tasks x 1 OpenMP threads

MPI task timing breakdown:
Section |  min time  |  avg time  |  max time  |%varavg| %total
---------------------------------------------------------------
Pair    | 0.00024    | 0.000247   | 0.000282   |   0.0 | 76.71
Neigh   | 0          | 0          | 0          |   0.0 |  0.00
Comm    | 1.4e-05    | 3.325e-05  | 6.4e-05    |   0.0 | 10.33
Output  | 1.3e-05    | 3.7625e-05 | 6.2e-05    |   0.0 | 11.68
Modify  | 0          | 2.5e-07    | 2e-06      |   0.0 |  0.08
Other   |            | 3.875e-06  |            |       |  1.20

Nlocal:              1 ave           8 max           0 min
Histogram: 7 0 0 0 0 0 0 0 0 1
Nghost:            511 ave         512 max         504 min
Histogram: 1 0 0 0 0 0 0 0 0 7
Neighs:             73 ave         584 max           0 min
Histogram: 7 0 0 0 0 0 0 0 0 1
FullNghs:          146 ave        1168 max           0 min
Histogram: 7 0 0 0 0 0 0 0 0 1

Total # of neighbors = 1168
Ave neighs/atom = 146
Neighbor list builds = 0
Dangerous builds = 0
variable  natoms equal "count(all)"
variable xlength equal "lx"
variable  volume equal "vol"
variable  etotal equal "etotal"
variable    ecoh equal "pe/v_natoms"
print "${xlength}, ${volume}, ${etotal}, ${ecoh}" append lattice_cohesive_energy.txt screen no

next i
jump SELF loop

change_box all x scale 1.0025 y scale 1.0025 z scale 1.0025 remap
Changing box ...
  orthogonal box = (0.0090520541 0.014116762 0.014116762) to (4.0709479 4.0658832 4.0658832)
  orthogonal box = (0.0090520541 0.0090520541 0.014116762) to (4.0709479 4.0709479 4.0658832)
  orthogonal box = (0.0090520541 0.0090520541 0.0090520541) to (4.0709479 4.0709479 4.0709479)

run 1
WARNING: No fixes with time integration, atoms won't move (src/verlet.cpp:60)
Per MPI rank memory allocation (min/avg/max) = 8.615 | 8.616 | 8.626 Mbytes
   Step         PotEng         TotEng           Lx             Ly             Lz           Volume         Press           Pxx            Pyy            Pzz      
        26  -36.152562     -36.152562      4.0618959      4.0618959      4.0618959      67.017213      26788.653      26788.653      26788.653      26788.653    
        27  -36.152562     -36.152562      4.0618959      4.0618959      4.0618959      67.017213      26788.653      26788.653      26788.653      26788.653    
Loop time of 0.000315875 on 8 procs for 1 steps with 8 atoms

Performance: 273.526 ns/day, 0.088 hours/ns, 3165.809 timesteps/s, 25.326 katom-step/s
0.0% CPU use with 8 MPI tasks x 1 OpenMP threads

MPI task timing breakdown:
Section |  min time  |  avg time  |  max time  |%varavg| %total
---------------------------------------------------------------
Pair    | 0.00024    | 0.00024613 | 0.000279   |   0.0 | 77.92
Neigh   | 0          | 0          | 0          |   0.0 |  0.00
Comm    | 1.4e-05    | 3.15e-05   | 5.9e-05    |   0.0 |  9.97
Output  | 1.1e-05    | 3.3875e-05 | 5.7e-05    |   0.0 | 10.72
Modify  | 0          | 0          | 0          |   0.0 |  0.00
Other   |            | 4.375e-06  |            |       |  1.39

Nlocal:              1 ave           8 max           0 min
Histogram: 7 0 0 0 0 0 0 0 0 1
Nghost:            511 ave         512 max         504 min
Histogram: 1 0 0 0 0 0 0 0 0 7
Neighs:             73 ave         584 max           0 min
Histogram: 7 0 0 0 0 0 0 0 0 1
FullNghs:          146 ave        1168 max           0 min
Histogram: 7 0 0 0 0 0 0 0 0 1

Total # of neighbors = 1168
Ave neighs/atom = 146
Neighbor list builds = 0
Dangerous builds = 0
variable  natoms equal "count(all)"
variable xlength equal "lx"
variable  volume equal "vol"
variable  etotal equal "etotal"
variable    ecoh equal "pe/v_natoms"
print "${xlength}, ${volume}, ${etotal}, ${ecoh}" append lattice_cohesive_energy.txt screen no

next i
jump SELF loop

change_box all x scale 1.0025 y scale 1.0025 z scale 1.0025 remap
Changing box ...
  orthogonal box = (0.0039746843 0.0090520541 0.0090520541) to (4.0760253 4.0709479 4.0709479)
  orthogonal box = (0.0039746843 0.0039746843 0.0090520541) to (4.0760253 4.0760253 4.0709479)
  orthogonal box = (0.0039746843 0.0039746843 0.0039746843) to (4.0760253 4.0760253 4.0760253)

run 1
WARNING: No fixes with time integration, atoms won't move (src/verlet.cpp:60)
Per MPI rank memory allocation (min/avg/max) = 8.615 | 8.616 | 8.626 Mbytes
   Step         PotEng         TotEng           Lx             Ly             Lz           Volume         Press           Pxx            Pyy            Pzz      
        27  -36.158578     -36.158578      4.0720506      4.0720506      4.0720506      67.5211        11562.765      11562.765      11562.765      11562.765    
        28  -36.158578     -36.158578      4.0720506      4.0720506      4.0720506      67.5211        11562.765      11562.765      11562.765      11562.765    
Loop time of 0.0003095 on 8 procs for 1 steps with 8 atoms

Performance: 279.160 ns/day, 0.086 hours/ns, 3231.018 timesteps/s, 25.848 katom-step/s
0.0% CPU use with 8 MPI tasks x 1 OpenMP threads

MPI task timing breakdown:
Section |  min time  |  avg time  |  max time  |%varavg| %total
---------------------------------------------------------------
Pair    | 0.000235   | 0.0002405  | 0.000273   |   0.0 | 77.71
Neigh   | 0          | 0          | 0          |   0.0 |  0.00
Comm    | 1.4e-05    | 3.0625e-05 | 5.7e-05    |   0.0 |  9.89
Output  | 1.1e-05    | 3.3625e-05 | 5.5e-05    |   0.0 | 10.86
Modify  | 0          | 3.75e-07   | 1e-06      |   0.0 |  0.12
Other   |            | 4.375e-06  |            |       |  1.41

Nlocal:              1 ave           8 max           0 min
Histogram: 7 0 0 0 0 0 0 0 0 1
Nghost:            511 ave         512 max         504 min
Histogram: 1 0 0 0 0 0 0 0 0 7
Neighs:             73 ave         584 max           0 min
Histogram: 7 0 0 0 0 0 0 0 0 1
FullNghs:          146 ave        1168 max           0 min
Histogram: 7 0 0 0 0 0 0 0 0 1

Total # of neighbors = 1168
Ave neighs/atom = 146
Neighbor list builds = 0
Dangerous builds = 0
variable  natoms equal "count(all)"
variable xlength equal "lx"
variable  volume equal "vol"
variable  etotal equal "etotal"
variable    ecoh equal "pe/v_natoms"
print "${xlength}, ${volume}, ${etotal}, ${ecoh}" append lattice_cohesive_energy.txt screen no

next i
jump SELF loop

change_box all x scale 1.0025 y scale 1.0025 z scale 1.0025 remap
Changing box ...
  orthogonal box = (-0.001115379 0.0039746843 0.0039746843) to (4.0811154 4.0760253 4.0760253)
  orthogonal box = (-0.001115379 -0.001115379 0.0039746843) to (4.0811154 4.0811154 4.0760253)
  orthogonal box = (-0.001115379 -0.001115379 -0.001115379) to (4.0811154 4.0811154 4.0811154)

run 1
WARNING: No fixes with time integration, atoms won't move (src/verlet.cpp:60)
Per MPI rank memory allocation (min/avg/max) = 8.615 | 8.616 | 8.626 Mbytes
   Step         PotEng         TotEng           Lx             Ly             Lz           Volume         Press           Pxx            Pyy            Pzz      
        28  -36.159889     -36.159889      4.0822308      4.0822308      4.0822308      68.028775     -3189.5056     -3189.5056     -3189.5056     -3189.5056    
        29  -36.159889     -36.159889      4.0822308      4.0822308      4.0822308      68.028775     -3189.5056     -3189.5056     -3189.5056     -3189.5056    
Loop time of 0.000307875 on 8 procs for 1 steps with 8 atoms

Performance: 280.633 ns/day, 0.086 hours/ns, 3248.071 timesteps/s, 25.985 katom-step/s
0.0% CPU use with 8 MPI tasks x 1 OpenMP threads

MPI task timing breakdown:
Section |  min time  |  avg time  |  max time  |%varavg| %total
---------------------------------------------------------------
Pair    | 0.000231   | 0.00023675 | 0.000268   |   0.0 | 76.90
Neigh   | 0          | 0          | 0          |   0.0 |  0.00
Comm    | 1.4e-05    | 3.1e-05    | 5.9e-05    |   0.0 | 10.07
Output  | 1.2e-05    | 3.4125e-05 | 5.6e-05    |   0.0 | 11.08
Modify  | 0          | 2.5e-07    | 1e-06      |   0.0 |  0.08
Other   |            | 5.75e-06   |            |       |  1.87

Nlocal:              1 ave           8 max           0 min
Histogram: 7 0 0 0 0 0 0 0 0 1
Nghost:            511 ave         512 max         504 min
Histogram: 1 0 0 0 0 0 0 0 0 7
Neighs:             73 ave         584 max           0 min
Histogram: 7 0 0 0 0 0 0 0 0 1
FullNghs:          146 ave        1168 max           0 min
Histogram: 7 0 0 0 0 0 0 0 0 1

Total # of neighbors = 1168
Ave neighs/atom = 146
Neighbor list builds = 0
Dangerous builds = 0
variable  natoms equal "count(all)"
variable xlength equal "lx"
variable  volume equal "vol"
variable  etotal equal "etotal"
variable    ecoh equal "pe/v_natoms"
print "${xlength}, ${volume}, ${etotal}, ${ecoh}" append lattice_cohesive_energy.txt screen no

next i
jump SELF loop

change_box all x scale 1.0025 y scale 1.0025 z scale 1.0025 remap
Changing box ...
  orthogonal box = (-0.0062181675 -0.001115379 -0.001115379) to (4.0862182 4.0811154 4.0811154)
  orthogonal box = (-0.0062181675 -0.0062181675 -0.001115379) to (4.0862182 4.0862182 4.0811154)
  orthogonal box = (-0.0062181675 -0.0062181675 -0.0062181675) to (4.0862182 4.0862182 4.0862182)

run 1
WARNING: No fixes with time integration, atoms won't move (src/verlet.cpp:60)
Per MPI rank memory allocation (min/avg/max) = 8.615 | 8.616 | 8.626 Mbytes
   Step         PotEng         TotEng           Lx             Ly             Lz           Volume         Press           Pxx            Pyy            Pzz      
        29  -36.156575     -36.156575      4.0924363      4.0924363      4.0924363      68.540268     -17478.269     -17478.269     -17478.269     -17478.269    
        30  -36.156575     -36.156575      4.0924363      4.0924363      4.0924363      68.540268     -17478.269     -17478.269     -17478.269     -17478.269    
Loop time of 0.000333875 on 8 procs for 1 steps with 8 atoms

Performance: 258.779 ns/day, 0.093 hours/ns, 2995.133 timesteps/s, 23.961 katom-step/s
0.0% CPU use with 8 MPI tasks x 1 OpenMP threads

MPI task timing breakdown:
Section |  min time  |  avg time  |  max time  |%varavg| %total
---------------------------------------------------------------
Pair    | 0.000254   | 0.00027    | 0.000294   |   0.0 | 80.87
Neigh   | 0          | 0          | 0          |   0.0 |  0.00
Comm    | 1.4e-05    | 3.1e-05    | 5.9e-05    |   0.0 |  9.28
Output  | 1.3e-05    | 2.7125e-05 | 5.9e-05    |   0.0 |  8.12
Modify  | 0          | 2.5e-07    | 1e-06      |   0.0 |  0.07
Other   |            | 5.5e-06    |            |       |  1.65

Nlocal:              1 ave           8 max           0 min
Histogram: 7 0 0 0 0 0 0 0 0 1
Nghost:            511 ave         512 max         504 min
Histogram: 1 0 0 0 0 0 0 0 0 7
Neighs:             73 ave         584 max           0 min
Histogram: 7 0 0 0 0 0 0 0 0 1
FullNghs:          146 ave        1168 max           0 min
Histogram: 7 0 0 0 0 0 0 0 0 1

Total # of neighbors = 1168
Ave neighs/atom = 146
Neighbor list builds = 0
Dangerous builds = 0
variable  natoms equal "count(all)"
variable xlength equal "lx"
variable  volume equal "vol"
variable  etotal equal "etotal"
variable    ecoh equal "pe/v_natoms"
print "${xlength}, ${volume}, ${etotal}, ${ecoh}" append lattice_cohesive_energy.txt screen no

next i
jump SELF loop

change_box all x scale 1.0025 y scale 1.0025 z scale 1.0025 remap
Changing box ...
  orthogonal box = (-0.011333713 -0.0062181675 -0.0062181675) to (4.0913337 4.0862182 4.0862182)
  orthogonal box = (-0.011333713 -0.011333713 -0.0062181675) to (4.0913337 4.0913337 4.0862182)
  orthogonal box = (-0.011333713 -0.011333713 -0.011333713) to (4.0913337 4.0913337 4.0913337)

run 1
WARNING: No fixes with time integration, atoms won't move (src/verlet.cpp:60)
Per MPI rank memory allocation (min/avg/max) = 8.615 | 8.616 | 8.626 Mbytes
   Step         PotEng         TotEng           Lx             Ly             Lz           Volume         Press           Pxx            Pyy            Pzz      
        30  -36.148713     -36.148713      4.1026674      4.1026674      4.1026674      69.055606     -31313.464     -31313.464     -31313.464     -31313.464    
        31  -36.148713     -36.148713      4.1026674      4.1026674      4.1026674      69.055606     -31313.464     -31313.464     -31313.464     -31313.464    
Loop time of 0.000326 on 8 procs for 1 steps with 8 atoms

Performance: 265.031 ns/day, 0.091 hours/ns, 3067.485 timesteps/s, 24.540 katom-step/s
0.0% CPU use with 8 MPI tasks x 1 OpenMP threads

MPI task timing breakdown:
Section |  min time  |  avg time  |  max time  |%varavg| %total
---------------------------------------------------------------
Pair    | 0.000247   | 0.00025362 | 0.000289   |   0.0 | 77.80
Neigh   | 0          | 0          | 0          |   0.0 |  0.00
Comm    | 1.4e-05    | 3.2375e-05 | 6.1e-05    |   0.0 |  9.93
Output  | 1.2e-05    | 3.5625e-05 | 5.8e-05    |   0.0 | 10.93
Modify  | 0          | 0          | 0          |   0.0 |  0.00
Other   |            | 4.375e-06  |            |       |  1.34

Nlocal:              1 ave           8 max           0 min
Histogram: 7 0 0 0 0 0 0 0 0 1
Nghost:            511 ave         512 max         504 min
Histogram: 1 0 0 0 0 0 0 0 0 7
Neighs:             73 ave         584 max           0 min
Histogram: 7 0 0 0 0 0 0 0 0 1
FullNghs:          146 ave        1168 max           0 min
Histogram: 7 0 0 0 0 0 0 0 0 1

Total # of neighbors = 1168
Ave neighs/atom = 146
Neighbor list builds = 0
Dangerous builds = 0
variable  natoms equal "count(all)"
variable xlength equal "lx"
variable  volume equal "vol"
variable  etotal equal "etotal"
variable    ecoh equal "pe/v_natoms"
print "${xlength}, ${volume}, ${etotal}, ${ecoh}" append lattice_cohesive_energy.txt screen no

next i
jump SELF loop

change_box all x scale 1.0025 y scale 1.0025 z scale 1.0025 remap
Changing box ...
  orthogonal box = (-0.016462047 -0.011333713 -0.011333713) to (4.096462 4.0913337 4.0913337)
  orthogonal box = (-0.016462047 -0.016462047 -0.011333713) to (4.096462 4.096462 4.0913337)
  orthogonal box = (-0.016462047 -0.016462047 -0.016462047) to (4.096462 4.096462 4.096462)

run 1
WARNING: No fixes with time integration, atoms won't move (src/verlet.cpp:60)
Per MPI rank memory allocation (min/avg/max) = 8.615 | 8.616 | 8.626 Mbytes
   Step         PotEng         TotEng           Lx             Ly             Lz           Volume         Press           Pxx            Pyy            Pzz      
        31  -36.136381     -36.136381      4.1129241      4.1129241      4.1129241      69.574819     -44704.873     -44704.873     -44704.873     -44704.873    
        32  -36.136381     -36.136381      4.1129241      4.1129241      4.1129241      69.574819     -44704.873     -44704.873     -44704.873     -44704.873    
Loop time of 0.000315 on 8 procs for 1 steps with 8 atoms

Performance: 274.286 ns/day, 0.087 hours/ns, 3174.603 timesteps/s, 25.397 katom-step/s
0.0% CPU use with 8 MPI tasks x 1 OpenMP threads

MPI task timing breakdown:
Section |  min time  |  avg time  |  max time  |%varavg| %total
---------------------------------------------------------------
Pair    | 0.000239   | 0.00024562 | 0.000279   |   0.0 | 77.98
Neigh   | 0          | 0          | 0          |   0.0 |  0.00
Comm    | 1.5e-05    | 3.175e-05  | 6.1e-05    |   0.0 | 10.08
Output  | 1.1e-05    | 3.3625e-05 | 5.7e-05    |   0.0 | 10.67
Modify  | 0          | 3.75e-07   | 2e-06      |   0.0 |  0.12
Other   |            | 3.625e-06  |            |       |  1.15

Nlocal:              1 ave           8 max           0 min
Histogram: 7 0 0 0 0 0 0 0 0 1
Nghost:            511 ave         512 max         504 min
Histogram: 1 0 0 0 0 0 0 0 0 7
Neighs:             73 ave         584 max           0 min
Histogram: 7 0 0 0 0 0 0 0 0 1
FullNghs:          146 ave        1168 max           0 min
Histogram: 7 0 0 0 0 0 0 0 0 1

Total # of neighbors = 1168
Ave neighs/atom = 146
Neighbor list builds = 0
Dangerous builds = 0
variable  natoms equal "count(all)"
variable xlength equal "lx"
variable  volume equal "vol"
variable  etotal equal "etotal"
variable    ecoh equal "pe/v_natoms"
print "${xlength}, ${volume}, ${etotal}, ${ecoh}" append lattice_cohesive_energy.txt screen no

next i
jump SELF loop

[...]
Pair    | 0.000304   | 0.00033325 | 0.00041    |   0.0 | 72.00
Neigh   | 0          | 0          | 0          |   0.0 |  0.00
Comm    | 1.6e-05    | 5.325e-05  | 0.000131   |   0.0 | 11.50
Output  | 1.7e-05    | 6.6625e-05 | 0.000132   |   0.0 | 14.39
Modify  | 0          | 1.25e-07   | 1e-06      |   0.0 |  0.03
Other   |            | 9.625e-06  |            |       |  2.08

Nlocal:              1 ave           8 max           0 min
Histogram: 7 0 0 0 0 0 0 0 0 1
Nghost:            511 ave         512 max         504 min
Histogram: 1 0 0 0 0 0 0 0 0 7
Neighs:             61 ave         488 max           0 min
Histogram: 7 0 0 0 0 0 0 0 0 1
FullNghs:          122 ave         976 max           0 min
Histogram: 7 0 0 0 0 0 0 0 0 1

Total # of neighbors = 976
Ave neighs/atom = 122
Neighbor list builds = 0
Dangerous builds = 0
variable  natoms equal "count(all)"
variable xlength equal "lx"
variable  volume equal "vol"
variable  etotal equal "etotal"
variable    ecoh equal "pe/v_natoms"
print "${xlength}, ${volume}, ${etotal}, ${ecoh}" append lattice_cohesive_energy.txt screen no

next i
jump SELF loop

change_box all x scale 1.0025 y scale 1.0025 z scale 1.0025 remap
Changing box ...
  orthogonal box = (-0.094943658 -0.089619609 -0.089619609) to (4.1749437 4.1696196 4.1696196)
  orthogonal box = (-0.094943658 -0.094943658 -0.089619609) to (4.1749437 4.1749437 4.1696196)
  orthogonal box = (-0.094943658 -0.094943658 -0.094943658) to (4.1749437 4.1749437 4.1749437)

run 1
WARNING: No fixes with time integration, atoms won't move (src/verlet.cpp:60)
Per MPI rank memory allocation (min/avg/max) = 8.615 | 8.616 | 8.626 Mbytes
   Step         PotEng         TotEng           Lx             Ly             Lz           Volume         Press           Pxx            Pyy            Pzz      
        46  -35.465452     -35.465452      4.2698873      4.2698873      4.2698873      77.848319     -198482.59     -198482.59     -198482.59     -198482.59    
        47  -35.465452     -35.465452      4.2698873      4.2698873      4.2698873      77.848319     -198482.59     -198482.59     -198482.59     -198482.59    
Loop time of 0.000463875 on 8 procs for 1 steps with 8 atoms

Performance: 186.257 ns/day, 0.129 hours/ns, 2155.753 timesteps/s, 17.246 katom-step/s
0.0% CPU use with 8 MPI tasks x 1 OpenMP threads

MPI task timing breakdown:
Section |  min time  |  avg time  |  max time  |%varavg| %total
---------------------------------------------------------------
Pair    | 0.000303   | 0.00033412 | 0.000412   |   0.0 | 72.03
Neigh   | 0          | 0          | 0          |   0.0 |  0.00
Comm    | 1.7e-05    | 5.3625e-05 | 0.000133   |   0.0 | 11.56
Output  | 1.6e-05    | 6.65e-05   | 0.000133   |   0.0 | 14.34
Modify  | 0          | 3.75e-07   | 1e-06      |   0.0 |  0.08
Other   |            | 9.25e-06   |            |       |  1.99

Nlocal:              1 ave           8 max           0 min
Histogram: 7 0 0 0 0 0 0 0 0 1
Nghost:            511 ave         512 max         504 min
Histogram: 1 0 0 0 0 0 0 0 0 7
Neighs:             61 ave         488 max           0 min
Histogram: 7 0 0 0 0 0 0 0 0 1
FullNghs:          122 ave         976 max           0 min
Histogram: 7 0 0 0 0 0 0 0 0 1

Total # of neighbors = 976
Ave neighs/atom = 122
Neighbor list builds = 0
Dangerous builds = 0
variable  natoms equal "count(all)"
variable xlength equal "lx"
variable  volume equal "vol"
variable  etotal equal "etotal"
variable    ecoh equal "pe/v_natoms"
print "${xlength}, ${volume}, ${etotal}, ${ecoh}" append lattice_cohesive_energy.txt screen no

next i
jump SELF loop

change_box all x scale 1.0025 y scale 1.0025 z scale 1.0025 remap
Changing box ...
  orthogonal box = (-0.10028102 -0.094943658 -0.094943658) to (4.180281 4.1749437 4.1749437)
  orthogonal box = (-0.10028102 -0.10028102 -0.094943658) to (4.180281 4.180281 4.1749437)
  orthogonal box = (-0.10028102 -0.10028102 -0.10028102) to (4.180281 4.180281 4.180281)

run 1
WARNING: No fixes with time integration, atoms won't move (src/verlet.cpp:60)
Per MPI rank memory allocation (min/avg/max) = 8.615 | 8.616 | 8.626 Mbytes
   Step         PotEng         TotEng           Lx             Ly             Lz           Volume         Press           Pxx            Pyy            Pzz      
        47  -35.391561     -35.391561      4.280562       4.280562       4.280562       78.433643     -205974.86     -205974.86     -205974.86     -205974.86    
        48  -35.391561     -35.391561      4.280562       4.280562       4.280562       78.433643     -205974.86     -205974.86     -205974.86     -205974.86    
Loop time of 0.00049 on 8 procs for 1 steps with 8 atoms

Performance: 176.327 ns/day, 0.136 hours/ns, 2040.816 timesteps/s, 16.327 katom-step/s
0.0% CPU use with 8 MPI tasks x 1 OpenMP threads

MPI task timing breakdown:
Section |  min time  |  avg time  |  max time  |%varavg| %total
---------------------------------------------------------------
Pair    | 0.000305   | 0.00034275 | 0.000435   |   0.0 | 69.95
Neigh   | 0          | 0          | 0          |   0.0 |  0.00
Comm    | 1.6e-05    | 6.0375e-05 | 0.000157   |   0.0 | 12.32
Output  | 1.7e-05    | 7.725e-05  | 0.000159   |   0.0 | 15.77
Modify  | 0          | 1.25e-07   | 1e-06      |   0.0 |  0.03
Other   |            | 9.5e-06    |            |       |  1.94

Nlocal:              1 ave           8 max           0 min
Histogram: 7 0 0 0 0 0 0 0 0 1
Nghost:            511 ave         512 max         504 min
Histogram: 1 0 0 0 0 0 0 0 0 7
Neighs:             61 ave         488 max           0 min
Histogram: 7 0 0 0 0 0 0 0 0 1
FullNghs:          122 ave         976 max           0 min
Histogram: 7 0 0 0 0 0 0 0 0 1

Total # of neighbors = 976
Ave neighs/atom = 122
Neighbor list builds = 0
Dangerous builds = 0
variable  natoms equal "count(all)"
variable xlength equal "lx"
variable  volume equal "vol"
variable  etotal equal "etotal"
variable    ecoh equal "pe/v_natoms"
print "${xlength}, ${volume}, ${etotal}, ${ecoh}" append lattice_cohesive_energy.txt screen no

next i
jump SELF loop

change_box all x scale 1.0025 y scale 1.0025 z scale 1.0025 remap
Changing box ...
  orthogonal box = (-0.10563172 -0.10028102 -0.10028102) to (4.1856317 4.180281 4.180281)
  orthogonal box = (-0.10563172 -0.10563172 -0.10028102) to (4.1856317 4.1856317 4.180281)
  orthogonal box = (-0.10563172 -0.10563172 -0.10563172) to (4.1856317 4.1856317 4.1856317)

run 1
WARNING: No fixes with time integration, atoms won't move (src/verlet.cpp:60)
Per MPI rank memory allocation (min/avg/max) = 8.615 | 8.616 | 8.626 Mbytes
   Step         PotEng         TotEng           Lx             Ly             Lz           Volume         Press           Pxx            Pyy            Pzz      
        48  -35.314412     -35.314412      4.2912634      4.2912634      4.2912634      79.023367     -213166.03     -213166.03     -213166.03     -213166.03    
        49  -35.314412     -35.314412      4.2912634      4.2912634      4.2912634      79.023367     -213166.03     -213166.03     -213166.03     -213166.03    
Loop time of 0.000463 on 8 procs for 1 steps with 8 atoms

Performance: 186.609 ns/day, 0.129 hours/ns, 2159.827 timesteps/s, 17.279 katom-step/s
0.0% CPU use with 8 MPI tasks x 1 OpenMP threads

MPI task timing breakdown:
Section |  min time  |  avg time  |  max time  |%varavg| %total
---------------------------------------------------------------
Pair    | 0.000306   | 0.00033512 | 0.00041    |   0.0 | 72.38
Neigh   | 0          | 0          | 0          |   0.0 |  0.00
Comm    | 1.5e-05    | 5.225e-05  | 0.00013    |   0.0 | 11.29
Output  | 1.6e-05    | 6.6375e-05 | 0.000132   |   0.0 | 14.34
Modify  | 0          | 3.75e-07   | 2e-06      |   0.0 |  0.08
Other   |            | 8.875e-06  |            |       |  1.92

Nlocal:              1 ave           8 max           0 min
Histogram: 7 0 0 0 0 0 0 0 0 1
Nghost:            511 ave         512 max         504 min
Histogram: 1 0 0 0 0 0 0 0 0 7
Neighs:             61 ave         488 max           0 min
Histogram: 7 0 0 0 0 0 0 0 0 1
FullNghs:          122 ave         976 max           0 min
Histogram: 7 0 0 0 0 0 0 0 0 1

Total # of neighbors = 976
Ave neighs/atom = 122
Neighbor list builds = 0
Dangerous builds = 0
variable  natoms equal "count(all)"
variable xlength equal "lx"
variable  volume equal "vol"
variable  etotal equal "etotal"
variable    ecoh equal "pe/v_natoms"
print "${xlength}, ${volume}, ${etotal}, ${ecoh}" append lattice_cohesive_energy.txt screen no

next i
jump SELF loop

change_box all x scale 1.0025 y scale 1.0025 z scale 1.0025 remap
Changing box ...
  orthogonal box = (-0.1109958 -0.10563172 -0.10563172) to (4.1909958 4.1856317 4.1856317)
  orthogonal box = (-0.1109958 -0.1109958 -0.10563172) to (4.1909958 4.1909958 4.1856317)
  orthogonal box = (-0.1109958 -0.1109958 -0.1109958) to (4.1909958 4.1909958 4.1909958)

run 1
WARNING: No fixes with time integration, atoms won't move (src/verlet.cpp:60)
Per MPI rank memory allocation (min/avg/max) = 8.615 | 8.616 | 8.626 Mbytes
   Step         PotEng         TotEng           Lx             Ly             Lz           Volume         Press           Pxx            Pyy            Pzz      
        49  -35.234071     -35.234071      4.3019916      4.3019916      4.3019916      79.617525     -220063.22     -220063.22     -220063.22     -220063.22    
        50  -35.234071     -35.234071      4.3019916      4.3019916      4.3019916      79.617525     -220063.22     -220063.22     -220063.22     -220063.22    
Loop time of 0.000443 on 8 procs for 1 steps with 8 atoms

Performance: 195.034 ns/day, 0.123 hours/ns, 2257.336 timesteps/s, 18.059 katom-step/s
881.8% CPU use with 8 MPI tasks x 1 OpenMP threads

MPI task timing breakdown:
Section |  min time  |  avg time  |  max time  |%varavg| %total
---------------------------------------------------------------
Pair    | 0.000297   | 0.00031675 | 0.00039    |   0.0 | 71.50
Neigh   | 0          | 0          | 0          |   0.0 |  0.00
Comm    | 1.7e-05    | 4.9125e-05 | 0.000119   |   0.0 | 11.09
Output  | 1.6e-05    | 6.6875e-05 | 0.000119   |   0.0 | 15.10
Modify  | 0          | 3.75e-07   | 1e-06      |   0.0 |  0.08
Other   |            | 9.875e-06  |            |       |  2.23

Nlocal:              1 ave           8 max           0 min
Histogram: 7 0 0 0 0 0 0 0 0 1
Nghost:            511 ave         512 max         504 min
Histogram: 1 0 0 0 0 0 0 0 0 7
Neighs:             61 ave         488 max           0 min
Histogram: 7 0 0 0 0 0 0 0 0 1
FullNghs:          122 ave         976 max           0 min
Histogram: 7 0 0 0 0 0 0 0 0 1

Total # of neighbors = 976
Ave neighs/atom = 122
Neighbor list builds = 0
Dangerous builds = 0
variable  natoms equal "count(all)"
variable xlength equal "lx"
variable  volume equal "vol"
variable  etotal equal "etotal"
variable    ecoh equal "pe/v_natoms"
print "${xlength}, ${volume}, ${etotal}, ${ecoh}" append lattice_cohesive_energy.txt screen no

next i
jump SELF loop

change_box all x scale 1.0025 y scale 1.0025 z scale 1.0025 remap
Changing box ...
  orthogonal box = (-0.11637329 -0.1109958 -0.1109958) to (4.1963733 4.1909958 4.1909958)
  orthogonal box = (-0.11637329 -0.11637329 -0.1109958) to (4.1963733 4.1963733 4.1909958)
  orthogonal box = (-0.11637329 -0.11637329 -0.11637329) to (4.1963733 4.1963733 4.1963733)

run 1
WARNING: No fixes with time integration, atoms won't move (src/verlet.cpp:60)
Per MPI rank memory allocation (min/avg/max) = 8.615 | 8.616 | 8.626 Mbytes
   Step         PotEng         TotEng           Lx             Ly             Lz           Volume         Press           Pxx            Pyy            Pzz      
        50  -35.150603     -35.150603      4.3127466      4.3127466      4.3127466      80.216151     -226673.44     -226673.44     -226673.44     -226673.44    
        51  -35.150603     -35.150603      4.3127466      4.3127466      4.3127466      80.216151     -226673.44     -226673.44     -226673.44     -226673.44    
Loop time of 0.00044125 on 8 procs for 1 steps with 8 atoms

Performance: 195.807 ns/day, 0.123 hours/ns, 2266.289 timesteps/s, 18.130 katom-step/s
442.6% CPU use with 8 MPI tasks x 1 OpenMP threads

MPI task timing breakdown:
Section |  min time  |  avg time  |  max time  |%varavg| %total
---------------------------------------------------------------
Pair    | 0.00029    | 0.00031062 | 0.000385   |   0.0 | 70.40
Neigh   | 0          | 0          | 0          |   0.0 |  0.00
Comm    | 1.6e-05    | 4.9125e-05 | 0.000119   |   0.0 | 11.13
Output  | 2.1e-05    | 7.225e-05  | 0.000124   |   0.0 | 16.37
Modify  | 0          | 0          | 0          |   0.0 |  0.00
Other   |            | 9.25e-06   |            |       |  2.10

Nlocal:              1 ave           8 max           0 min
Histogram: 7 0 0 0 0 0 0 0 0 1
Nghost:            511 ave         512 max         504 min
Histogram: 1 0 0 0 0 0 0 0 0 7
Neighs:             61 ave         488 max           0 min
Histogram: 7 0 0 0 0 0 0 0 0 1
FullNghs:          122 ave         976 max           0 min
Histogram: 7 0 0 0 0 0 0 0 0 1

Total # of neighbors = 976
Ave neighs/atom = 122
Neighbor list builds = 0
Dangerous builds = 0
variable  natoms equal "count(all)"
variable xlength equal "lx"
variable  volume equal "vol"
variable  etotal equal "etotal"
variable    ecoh equal "pe/v_natoms"
print "${xlength}, ${volume}, ${etotal}, ${ecoh}" append lattice_cohesive_energy.txt screen no

next i
jump SELF loop

change_box all x scale 1.0025 y scale 1.0025 z scale 1.0025 remap
Changing box ...
  orthogonal box = (-0.12176422 -0.11637329 -0.11637329) to (4.2017642 4.1963733 4.1963733)
  orthogonal box = (-0.12176422 -0.12176422 -0.11637329) to (4.2017642 4.2017642 4.1963733)
  orthogonal box = (-0.12176422 -0.12176422 -0.12176422) to (4.2017642 4.2017642 4.2017642)

run 1
WARNING: No fixes with time integration, atoms won't move (src/verlet.cpp:60)
Per MPI rank memory allocation (min/avg/max) = 8.615 | 8.616 | 8.626 Mbytes
   Step         PotEng         TotEng           Lx             Ly             Lz           Volume         Press           Pxx            Pyy            Pzz      
        51  -35.064072     -35.064072      4.3235284      4.3235284      4.3235284      80.819277     -233003.56     -233003.56     -233003.56     -233003.56    
        52  -35.064072     -35.064072      4.3235284      4.3235284      4.3235284      80.819277     -233003.56     -233003.56     -233003.56     -233003.56    
Loop time of 0.000458125 on 8 procs for 1 steps with 8 atoms

Performance: 188.595 ns/day, 0.127 hours/ns, 2182.810 timesteps/s, 17.462 katom-step/s
0.0% CPU use with 8 MPI tasks x 1 OpenMP threads

MPI task timing breakdown:
Section |  min time  |  avg time  |  max time  |%varavg| %total
---------------------------------------------------------------
Pair    | 0.000307   | 0.00033038 | 0.000406   |   0.0 | 72.11
Neigh   | 0          | 0          | 0          |   0.0 |  0.00
Comm    | 1.7e-05    | 5.1125e-05 | 0.000124   |   0.0 | 11.16
Output  | 1.6e-05    | 6.8e-05    | 0.000123   |   0.0 | 14.84
Modify  | 0          | 2.5e-07    | 1e-06      |   0.0 |  0.05
Other   |            | 8.375e-06  |            |       |  1.83

Nlocal:              1 ave           8 max           0 min
Histogram: 7 0 0 0 0 0 0 0 0 1
Nghost:            511 ave         512 max         504 min
Histogram: 1 0 0 0 0 0 0 0 0 7
Neighs:             61 ave         488 max           0 min
Histogram: 7 0 0 0 0 0 0 0 0 1
FullNghs:          122 ave         976 max           0 min
Histogram: 7 0 0 0 0 0 0 0 0 1

Total # of neighbors = 976
Ave neighs/atom = 122
Neighbor list builds = 0
Dangerous builds = 0
variable  natoms equal "count(all)"
variable xlength equal "lx"
variable  volume equal "vol"
variable  etotal equal "etotal"
variable    ecoh equal "pe/v_natoms"
print "${xlength}, ${volume}, ${etotal}, ${ecoh}" append lattice_cohesive_energy.txt screen no

next i
jump SELF loop

change_box all x scale 1.0025 y scale 1.0025 z scale 1.0025 remap
Changing box ...
  orthogonal box = (-0.12716863 -0.12176422 -0.12176422) to (4.2071686 4.2017642 4.2017642)
  orthogonal box = (-0.12716863 -0.12716863 -0.12176422) to (4.2071686 4.2071686 4.2017642)
  orthogonal box = (-0.12716863 -0.12716863 -0.12716863) to (4.2071686 4.2071686 4.2071686)

run 1
WARNING: No fixes with time integration, atoms won't move (src/verlet.cpp:60)
Per MPI rank memory allocation (min/avg/max) = 8.615 | 8.616 | 8.626 Mbytes
   Step         PotEng         TotEng           Lx             Ly             Lz           Volume         Press           Pxx            Pyy            Pzz      
        52  -34.974542     -34.974542      4.3343373      4.3343373      4.3343373      81.426938     -239060.33     -239060.33     -239060.33     -239060.33    
        53  -34.974542     -34.974542      4.3343373      4.3343373      4.3343373      81.426938     -239060.33     -239060.33     -239060.33     -239060.33    
Loop time of 0.00044725 on 8 procs for 1 steps with 8 atoms

Performance: 193.181 ns/day, 0.124 hours/ns, 2235.886 timesteps/s, 17.887 katom-step/s
0.0% CPU use with 8 MPI tasks x 1 OpenMP threads

MPI task timing breakdown:
Section |  min time  |  avg time  |  max time  |%varavg| %total
---------------------------------------------------------------
Pair    | 0.0003     | 0.0003225  | 0.000396   |   0.0 | 72.11
Neigh   | 0          | 0          | 0          |   0.0 |  0.00
Comm    | 1.7e-05    | 5.025e-05  | 0.000122   |   0.0 | 11.24
Output  | 1.6e-05    | 6.575e-05  | 0.000121   |   0.0 | 14.70
Modify  | 0          | 2.5e-07    | 1e-06      |   0.0 |  0.06
Other   |            | 8.5e-06    |            |       |  1.90

Nlocal:              1 ave           8 max           0 min
Histogram: 7 0 0 0 0 0 0 0 0 1
Nghost:            511 ave         512 max         504 min
Histogram: 1 0 0 0 0 0 0 0 0 7
Neighs:             61 ave         488 max           0 min
Histogram: 7 0 0 0 0 0 0 0 0 1
FullNghs:          122 ave         976 max           0 min
Histogram: 7 0 0 0 0 0 0 0 0 1

Total # of neighbors = 976
Ave neighs/atom = 122
Neighbor list builds = 0
Dangerous builds = 0
variable  natoms equal "count(all)"
variable xlength equal "lx"
variable  volume equal "vol"
variable  etotal equal "etotal"
variable    ecoh equal "pe/v_natoms"
print "${xlength}, ${volume}, ${etotal}, ${ecoh}" append lattice_cohesive_energy.txt screen no

next i
jump SELF loop

print "-------------------------------------------------------------"
-------------------------------------------------------------
print "Show results of 1st step (Running Minimization)"
Show results of 1st step (Running Minimization)
print "The number of atoms = ${natoms};"
The number of atoms = 8;
print "The lattice constant, x (Angstoms) = ${x0};"
The lattice constant, x (Angstoms) = 4.33433726361915;
print "The lattice constant, y (Angstoms) = ${y0};"
The lattice constant, y (Angstoms) = 4.33433726361915;
print "The lattice constant, z (Angstoms) = ${z0};"
The lattice constant, z (Angstoms) = 4.33433726361915;
print "The volume (Angstoms^3) = ${v0};"
The volume (Angstoms^3) = 81.4269382132049;
print "The total energy (eV) = ${etot0};"
The total energy (eV) = -34.9745415270231;
print "The cohesive energy (eV/atom) = ${ecoh0};"
The cohesive energy (eV/atom) = -4.37181769087789;
print "-------------------------------------------------------------"
-------------------------------------------------------------
print "Simulations completed !"
Simulations completed !
Total wall time: 0:00:00
