LAMMPS (22 Dec 2022)
  using 1 OpenMP thread(s) per MPI task
Loaded 1 plugins from C:\Program Files\LAMMPS 64-bit 23Jun2022\plugins
Loaded 0 plugins from C:\Program Files\LAMMPS 64-bit 23Jun2022-MPI\plugins
Loaded 1 plugins from C:\Program Files\LAMMPS 64-bit 22Dec2022-MSMPI\plugins
Loaded 1 plugins from C:\Program Files\LAMMPS 64-bit 28Mar2023-MPI\plugins
#------------------------------------------------------------------------------------------
# LAMMPS 64-bit 22Dec2022-MSMPI
#------------------------------------------------------------------------------------------
clear
  using 1 OpenMP thread(s) per MPI task
Loaded 1 plugins from C:\Program Files\LAMMPS 64-bit 23Jun2022\plugins
Loaded 0 plugins from C:\Program Files\LAMMPS 64-bit 23Jun2022-MPI\plugins
Loaded 1 plugins from C:\Program Files\LAMMPS 64-bit 22Dec2022-MSMPI\plugins
Loaded 1 plugins from C:\Program Files\LAMMPS 64-bit 28Mar2023-MPI\plugins
#echo both
# ---------- Initializing Simulation ---------------------------------
units metal
dimension 3
boundary p p p
atom_style atomic
atom_modify map array

#read_data ./../../TiN.data
#read_data ./../../VN.data
read_data ./../../CrN.data
Reading data file ...
  orthogonal box = (0 0 0) to (4.14 4.14 4.14)
  2 by 2 by 2 MPI processor grid
  reading atoms ...
  8 atoms
  read_data CPU = 0.001 seconds
#read_data ./../../FeN.data

replicate 1 1 1
Replication is creating a 1x1x1 = 1 times larger system...
  orthogonal box = (0 0 0) to (4.14 4.14 4.14)
  2 by 2 by 2 MPI processor grid
  8 atoms
  replicate CPU = 0.000 seconds

# ---------- Defining the Interatomic Potential ---------------------
pair_style meam
#pair_coeff * * ./../../library.meam Ti V Cr Fe N ./../../TiVCrFeN.meam Ti N
#pair_coeff * * ./../../library.meam Ti V Cr Fe N ./../../TiVCrFeN.meam V N
pair_coeff * * ./../../library.meam Ti V Cr Fe N ./../../TiVCrFeN.meam Cr N
#pair_coeff * * ./../../library.meam Ti V Cr Fe N ./../../TiVCrFeN.meam Fe N

# ---------- Running Minimization -------------------------------------
fix 1 all box/relax iso 0.0 vmax 0.001

thermo 10
thermo_style custom step pe etotal lx ly lz vol press pxx pyy pzz

min_style cg
minimize 1e-25 1e-25 5000 10000
Neighbor list info ...
  update: every = 1 steps, delay = 0 steps, check = yes
  max neighbors/atom: 2000, page size: 100000
  master list distance cutoff = 6.6
  ghost atom cutoff = 6.6
  binsize = 3.3, bins = 2 2 2
  2 neighbor lists, perpetual/occasional/extra = 2 0 0
  (1) pair meam, perpetual
      attributes: full, newton on
      pair build: full/bin/atomonly
      stencil: full/bin/3d
      bin: standard
  (2) pair meam, perpetual, half/full from (1)
      attributes: half, newton on
      pair build: halffull/newton
      stencil: none
      bin: none
Per MPI rank memory allocation (min/avg/max) = 9.684 | 9.684 | 9.684 Mbytes
   Step         PotEng         TotEng           Lx             Ly             Lz           Volume         Press           Pxx            Pyy            Pzz      
         0  -41.758404     -41.758404      4.14           4.14           4.14           70.957944      12468.741      12468.741      12468.741      12468.741    
         5  -41.76         -41.76          4.148          4.148          4.148          71.370092      7.6867396e-10  7.7137398e-10  7.6265085e-10  7.7199706e-10
Loop time of 0.00187088 on 8 procs for 5 steps with 8 atoms

104.4% CPU use with 8 MPI tasks x 1 OpenMP threads

Minimization stats:
  Stopping criterion = energy tolerance
  Energy initial, next-to-last, final = 
     -41.7584039925616  -41.7599999985597  -41.7599999985597
  Force two-norm initial, final = 1.6566643 1.0252548e-13
  Force max component initial, final = 1.6566643 1.0252527e-13
  Final line search alpha, max atom move = 1 1.0252527e-13
  Iterations, force evaluations = 5 9

MPI task timing breakdown:
Section |  min time  |  avg time  |  max time  |%varavg| %total
---------------------------------------------------------------
Pair    | 0.001167   | 0.0012084  | 0.001243   |   0.1 | 64.59
Neigh   | 0          | 0          | 0          |   0.0 |  0.00
Comm    | 0.000251   | 0.00028338 | 0.000328   |   0.0 | 15.15
Output  | 0          | 0          | 0          |   0.0 |  0.00
Modify  | 0          | 0          | 0          |   0.0 |  0.00
Other   |            | 0.0003791  |            |       | 20.26

Nlocal:              1 ave           1 max           1 min
Histogram: 8 0 0 0 0 0 0 0 0 0
Nghost:            511 ave         511 max         511 min
Histogram: 8 0 0 0 0 0 0 0 0 0
Neighs:             73 ave          73 max          73 min
Histogram: 8 0 0 0 0 0 0 0 0 0
FullNghs:          146 ave         146 max         146 min
Histogram: 8 0 0 0 0 0 0 0 0 0

Total # of neighbors = 1168
Ave neighs/atom = 146
Neighbor list builds = 0
Dangerous builds = 0

variable  natoms equal "count(all)"
variable      x0 equal "lx"
variable      y0 equal "ly"
variable      z0 equal "lz"
variable      v0 equal "vol"
variable   etot0 equal "etotal"
variable   ecoh0 equal "pe/v_natoms"

unfix 1
#write_data ./../step2_elastic/data.in

# ---------- For Equation of States -------------------------------------
change_box all x scale 0.94 y scale 0.94 z scale 0.94 remap
Changing box ...
  orthogonal box = (0.12043998 -0.0040000194 -0.0040000194) to (4.01956 4.144 4.144)
  orthogonal box = (0.12043998 0.12043998 -0.0040000194) to (4.01956 4.01956 4.144)
  orthogonal box = (0.12043998 0.12043998 0.12043998) to (4.01956 4.01956 4.01956)
run 1
WARNING: No fixes with time integration, atoms won't move (src/verlet.cpp:60)
WARNING: Proc sub-domain size < neighbor skin, could lead to lost atoms (src/domain.cpp:966)
Per MPI rank memory allocation (min/avg/max) = 8.559 | 8.559 | 8.559 Mbytes
   Step         PotEng         TotEng           Lx             Ly             Lz           Volume         Press           Pxx            Pyy            Pzz      
         5  -39.916231     -39.916231      3.89912        3.89912        3.89912        59.278856      568573.02      568573.02      568573.02      568573.02    
         6  -39.916231     -39.916231      3.89912        3.89912        3.89912        59.278856      568573.02      568573.02      568573.02      568573.02    
Loop time of 0.00015125 on 8 procs for 1 steps with 8 atoms

Performance: 571.240 ns/day, 0.042 hours/ns, 6611.570 timesteps/s, 52.893 katom-step/s
0.0% CPU use with 8 MPI tasks x 1 OpenMP threads

MPI task timing breakdown:
Section |  min time  |  avg time  |  max time  |%varavg| %total
---------------------------------------------------------------
Pair    | 0.000114   | 0.000115   | 0.000116   |   0.0 | 76.03
Neigh   | 0          | 0          | 0          |   0.0 |  0.00
Comm    | 2e-05      | 2.1625e-05 | 2.3e-05    |   0.0 | 14.30
Output  | 1e-05      | 1.075e-05  | 1.1e-05    |   0.0 |  7.11
Modify  | 0          | 5e-07      | 2e-06      |   0.0 |  0.33
Other   |            | 3.375e-06  |            |       |  2.23

Nlocal:              1 ave           1 max           1 min
Histogram: 8 0 0 0 0 0 0 0 0 0
Nghost:            511 ave         511 max         511 min
Histogram: 8 0 0 0 0 0 0 0 0 0
Neighs:             85 ave          85 max          85 min
Histogram: 8 0 0 0 0 0 0 0 0 0
FullNghs:          170 ave         170 max         170 min
Histogram: 8 0 0 0 0 0 0 0 0 0

Total # of neighbors = 1360
Ave neighs/atom = 170
Neighbor list builds = 0
Dangerous builds = 0
print "# Lattice constant (Angstroms), Volume (Angstrom), Total energy (eV), Cohesive energy (eV/atom)" file lattice_cohesive_energy.txt screen no


# Loop over lattice constants
variable i loop 49 # Number of steps
label loop

change_box all x scale 1.0025 y scale 1.0025 z scale 1.0025 remap
Changing box ...
  orthogonal box = (0.11556608 0.12043998 0.12043998) to (4.0244339 4.01956 4.01956)
  orthogonal box = (0.11556608 0.11556608 0.12043998) to (4.0244339 4.0244339 4.01956)
  orthogonal box = (0.11556608 0.11556608 0.11556608) to (4.0244339 4.0244339 4.0244339)

run 1
WARNING: No fixes with time integration, atoms won't move (src/verlet.cpp:60)
WARNING: Proc sub-domain size < neighbor skin, could lead to lost atoms (src/domain.cpp:966)
Per MPI rank memory allocation (min/avg/max) = 8.559 | 8.559 | 8.559 Mbytes
   Step         PotEng         TotEng           Lx             Ly             Lz           Volume         Press           Pxx            Pyy            Pzz      
         6  -40.070102     -40.070102      3.9088678      3.9088678      3.9088678      59.72456       537839.21      537839.21      537839.21      537839.21    
         7  -40.070102     -40.070102      3.9088678      3.9088678      3.9088678      59.72456       537839.21      537839.21      537839.21      537839.21    
Loop time of 0.00036275 on 8 procs for 1 steps with 8 atoms

Performance: 238.181 ns/day, 0.101 hours/ns, 2756.720 timesteps/s, 22.054 katom-step/s
0.0% CPU use with 8 MPI tasks x 1 OpenMP threads

MPI task timing breakdown:
Section |  min time  |  avg time  |  max time  |%varavg| %total
---------------------------------------------------------------
Pair    | 0.000181   | 0.000193   | 0.000228   |   0.0 | 53.20
Neigh   | 0          | 0          | 0          |   0.0 |  0.00
Comm    | 3.1e-05    | 7.9875e-05 | 0.000127   |   0.0 | 22.02
Output  | 4e-05      | 7.775e-05  | 9.5e-05    |   0.0 | 21.43
Modify  | 0          | 3.75e-07   | 1e-06      |   0.0 |  0.10
Other   |            | 1.175e-05  |            |       |  3.24

Nlocal:              1 ave           1 max           1 min
Histogram: 8 0 0 0 0 0 0 0 0 0
Nghost:            511 ave         511 max         511 min
Histogram: 8 0 0 0 0 0 0 0 0 0
Neighs:             85 ave          85 max          85 min
Histogram: 8 0 0 0 0 0 0 0 0 0
FullNghs:          170 ave         170 max         170 min
Histogram: 8 0 0 0 0 0 0 0 0 0

Total # of neighbors = 1360
Ave neighs/atom = 170
Neighbor list builds = 0
Dangerous builds = 0
variable  natoms equal "count(all)"
variable xlength equal "lx"
variable  volume equal "vol"
variable  etotal equal "etotal"
variable    ecoh equal "pe/v_natoms"
print "${xlength}, ${volume}, ${etotal}, ${ecoh}" append lattice_cohesive_energy.txt screen no

next i
jump SELF loop

change_box all x scale 1.0025 y scale 1.0025 z scale 1.0025 remap
Changing box ...
  orthogonal box = (0.11068 0.11556608 0.11556608) to (4.02932 4.0244339 4.0244339)
  orthogonal box = (0.11068 0.11068 0.11556608) to (4.02932 4.02932 4.0244339)
  orthogonal box = (0.11068 0.11068 0.11068) to (4.02932 4.02932 4.02932)

run 1
WARNING: No fixes with time integration, atoms won't move (src/verlet.cpp:60)
WARNING: Proc sub-domain size < neighbor skin, could lead to lost atoms (src/domain.cpp:966)
Per MPI rank memory allocation (min/avg/max) = 8.559 | 8.559 | 8.559 Mbytes
   Step         PotEng         TotEng           Lx             Ly             Lz           Volume         Press           Pxx            Pyy            Pzz      
         7  -40.216622     -40.216622      3.91864        3.91864        3.91864        60.173615      507853.86      507853.86      507853.86      507853.86    
         8  -40.216622     -40.216622      3.91864        3.91864        3.91864        60.173615      507853.86      507853.86      507853.86      507853.86    
Loop time of 0.000309 on 8 procs for 1 steps with 8 atoms

Performance: 279.612 ns/day, 0.086 hours/ns, 3236.246 timesteps/s, 25.890 katom-step/s
0.0% CPU use with 8 MPI tasks x 1 OpenMP threads

MPI task timing breakdown:
Section |  min time  |  avg time  |  max time  |%varavg| %total
---------------------------------------------------------------
Pair    | 0.00019    | 0.0002195  | 0.00025    |   0.0 | 71.04
Neigh   | 0          | 0          | 0          |   0.0 |  0.00
Comm    | 3.2e-05    | 6.1625e-05 | 9.3e-05    |   0.0 | 19.94
Output  | 1.6e-05    | 1.825e-05  | 2e-05      |   0.0 |  5.91
Modify  | 0          | 0          | 0          |   0.0 |  0.00
Other   |            | 9.625e-06  |            |       |  3.11

Nlocal:              1 ave           1 max           1 min
Histogram: 8 0 0 0 0 0 0 0 0 0
Nghost:            511 ave         511 max         511 min
Histogram: 8 0 0 0 0 0 0 0 0 0
Neighs:             85 ave          85 max          85 min
Histogram: 8 0 0 0 0 0 0 0 0 0
FullNghs:          170 ave         170 max         170 min
Histogram: 8 0 0 0 0 0 0 0 0 0

Total # of neighbors = 1360
Ave neighs/atom = 170
Neighbor list builds = 0
Dangerous builds = 0
variable  natoms equal "count(all)"
variable xlength equal "lx"
variable  volume equal "vol"
variable  etotal equal "etotal"
variable    ecoh equal "pe/v_natoms"
print "${xlength}, ${volume}, ${etotal}, ${ecoh}" append lattice_cohesive_energy.txt screen no

next i
jump SELF loop

change_box all x scale 1.0025 y scale 1.0025 z scale 1.0025 remap
Changing box ...
  orthogonal box = (0.1057817 0.11068 0.11068) to (4.0342183 4.02932 4.02932)
  orthogonal box = (0.1057817 0.1057817 0.11068) to (4.0342183 4.0342183 4.02932)
  orthogonal box = (0.1057817 0.1057817 0.1057817) to (4.0342183 4.0342183 4.0342183)

run 1
WARNING: No fixes with time integration, atoms won't move (src/verlet.cpp:60)
WARNING: Proc sub-domain size < neighbor skin, could lead to lost atoms (src/domain.cpp:966)
Per MPI rank memory allocation (min/avg/max) = 8.559 | 8.559 | 8.559 Mbytes
   Step         PotEng         TotEng           Lx             Ly             Lz           Volume         Press           Pxx            Pyy            Pzz      
         8  -40.355881     -40.355881      3.9284366      3.9284366      3.9284366      60.626046      478603.75      478603.75      478603.75      478603.75    
         9  -40.355881     -40.355881      3.9284366      3.9284366      3.9284366      60.626046      478603.75      478603.75      478603.75      478603.75    
Loop time of 0.0002815 on 8 procs for 1 steps with 8 atoms

Performance: 306.927 ns/day, 0.078 hours/ns, 3552.398 timesteps/s, 28.419 katom-step/s
0.0% CPU use with 8 MPI tasks x 1 OpenMP threads

MPI task timing breakdown:
Section |  min time  |  avg time  |  max time  |%varavg| %total
---------------------------------------------------------------
Pair    | 0.000181   | 0.00019212 | 0.000225   |   0.0 | 68.25
Neigh   | 0          | 0          | 0          |   0.0 |  0.00
Comm    | 3.1e-05    | 6.25e-05   | 7.4e-05    |   0.0 | 22.20
Output  | 1.5e-05    | 1.775e-05  | 1.9e-05    |   0.0 |  6.31
Modify  | 0          | 0          | 0          |   0.0 |  0.00
Other   |            | 9.125e-06  |            |       |  3.24

Nlocal:              1 ave           1 max           1 min
Histogram: 8 0 0 0 0 0 0 0 0 0
Nghost:            511 ave         511 max         511 min
Histogram: 8 0 0 0 0 0 0 0 0 0
Neighs:             85 ave          85 max          85 min
Histogram: 8 0 0 0 0 0 0 0 0 0
FullNghs:          170 ave         170 max         170 min
Histogram: 8 0 0 0 0 0 0 0 0 0

Total # of neighbors = 1360
Ave neighs/atom = 170
Neighbor list builds = 0
Dangerous builds = 0
variable  natoms equal "count(all)"
variable xlength equal "lx"
variable  volume equal "vol"
variable  etotal equal "etotal"
variable    ecoh equal "pe/v_natoms"
print "${xlength}, ${volume}, ${etotal}, ${ecoh}" append lattice_cohesive_energy.txt screen no

next i
jump SELF loop

change_box all x scale 1.0025 y scale 1.0025 z scale 1.0025 remap
Changing box ...
  orthogonal box = (0.10087115 0.1057817 0.1057817) to (4.0391288 4.0342183 4.0342183)
  orthogonal box = (0.10087115 0.10087115 0.1057817) to (4.0391288 4.0391288 4.0342183)
  orthogonal box = (0.10087115 0.10087115 0.10087115) to (4.0391288 4.0391288 4.0391288)

run 1
WARNING: No fixes with time integration, atoms won't move (src/verlet.cpp:60)
WARNING: Proc sub-domain size < neighbor skin, could lead to lost atoms (src/domain.cpp:966)
Per MPI rank memory allocation (min/avg/max) = 8.615 | 8.616 | 8.628 Mbytes
   Step         PotEng         TotEng           Lx             Ly             Lz           Volume         Press           Pxx            Pyy            Pzz      
         9  -40.487967     -40.487967      3.9382577      3.9382577      3.9382577      61.081879      450075.8       450075.8       450075.8       450075.8     
        10  -40.487967     -40.487967      3.9382577      3.9382577      3.9382577      61.081879      450075.8       450075.8       450075.8       450075.8     
Loop time of 0.000333625 on 8 procs for 1 steps with 8 atoms

Performance: 258.973 ns/day, 0.093 hours/ns, 2997.377 timesteps/s, 23.979 katom-step/s
0.0% CPU use with 8 MPI tasks x 1 OpenMP threads

MPI task timing breakdown:
Section |  min time  |  avg time  |  max time  |%varavg| %total
---------------------------------------------------------------
Pair    | 0.000246   | 0.00025825 | 0.000287   |   0.0 | 77.41
Neigh   | 0          | 0          | 0          |   0.0 |  0.00
Comm    | 1.4e-05    | 3.2125e-05 | 5.8e-05    |   0.0 |  9.63
Output  | 1.6e-05    | 3.3125e-05 | 6.2e-05    |   0.0 |  9.93
Modify  | 0          | 2.5e-07    | 1e-06      |   0.0 |  0.07
Other   |            | 9.875e-06  |            |       |  2.96

Nlocal:              1 ave           8 max           0 min
Histogram: 7 0 0 0 0 0 0 0 0 1
Nghost:            511 ave         512 max         504 min
Histogram: 1 0 0 0 0 0 0 0 0 7
Neighs:             85 ave         680 max           0 min
Histogram: 7 0 0 0 0 0 0 0 0 1
FullNghs:          170 ave        1360 max           0 min
Histogram: 7 0 0 0 0 0 0 0 0 1

Total # of neighbors = 1360
Ave neighs/atom = 170
Neighbor list builds = 0
Dangerous builds = 0
variable  natoms equal "count(all)"
variable xlength equal "lx"
variable  volume equal "vol"
variable  etotal equal "etotal"
variable    ecoh equal "pe/v_natoms"
print "${xlength}, ${volume}, ${etotal}, ${ecoh}" append lattice_cohesive_energy.txt screen no

next i
jump SELF loop

change_box all x scale 1.0025 y scale 1.0025 z scale 1.0025 remap
Changing box ...
  orthogonal box = (0.095948329 0.10087115 0.10087115) to (4.0440517 4.0391288 4.0391288)
  orthogonal box = (0.095948329 0.095948329 0.10087115) to (4.0440517 4.0440517 4.0391288)
  orthogonal box = (0.095948329 0.095948329 0.095948329) to (4.0440517 4.0440517 4.0440517)

run 1
WARNING: No fixes with time integration, atoms won't move (src/verlet.cpp:60)
WARNING: Proc sub-domain size < neighbor skin, could lead to lost atoms (src/domain.cpp:966)
Per MPI rank memory allocation (min/avg/max) = 8.615 | 8.616 | 8.628 Mbytes
   Step         PotEng         TotEng           Lx             Ly             Lz           Volume         Press           Pxx            Pyy            Pzz      
        10  -40.612972     -40.612972      3.9481033      3.9481033      3.9481033      61.54114       422257.17      422257.17      422257.17      422257.17    
        11  -40.612972     -40.612972      3.9481033      3.9481033      3.9481033      61.54114       422257.17      422257.17      422257.17      422257.17    
Loop time of 0.000284625 on 8 procs for 1 steps with 8 atoms

Performance: 303.557 ns/day, 0.079 hours/ns, 3513.395 timesteps/s, 28.107 katom-step/s
0.0% CPU use with 8 MPI tasks x 1 OpenMP threads

MPI task timing breakdown:
Section |  min time  |  avg time  |  max time  |%varavg| %total
---------------------------------------------------------------
Pair    | 0.000182   | 0.00019325 | 0.000226   |   0.0 | 67.90
Neigh   | 0          | 0          | 0          |   0.0 |  0.00
Comm    | 3.3e-05    | 6.375e-05  | 7.5e-05    |   0.0 | 22.40
Output  | 1.7e-05    | 1.85e-05   | 2e-05      |   0.0 |  6.50
Modify  | 0          | 0          | 0          |   0.0 |  0.00
Other   |            | 9.125e-06  |            |       |  3.21

Nlocal:              1 ave           1 max           1 min
Histogram: 8 0 0 0 0 0 0 0 0 0
Nghost:            511 ave         511 max         511 min
Histogram: 8 0 0 0 0 0 0 0 0 0
Neighs:             85 ave          85 max          85 min
Histogram: 8 0 0 0 0 0 0 0 0 0
FullNghs:          170 ave         170 max         170 min
Histogram: 8 0 0 0 0 0 0 0 0 0

Total # of neighbors = 1360
Ave neighs/atom = 170
Neighbor list builds = 0
Dangerous builds = 0
variable  natoms equal "count(all)"
variable xlength equal "lx"
variable  volume equal "vol"
variable  etotal equal "etotal"
variable    ecoh equal "pe/v_natoms"
print "${xlength}, ${volume}, ${etotal}, ${ecoh}" append lattice_cohesive_energy.txt screen no

next i
jump SELF loop

change_box all x scale 1.0025 y scale 1.0025 z scale 1.0025 remap
Changing box ...
  orthogonal box = (0.0910132 0.095948329 0.095948329) to (4.0489868 4.0440517 4.0440517)
  orthogonal box = (0.0910132 0.0910132 0.095948329) to (4.0489868 4.0489868 4.0440517)
  orthogonal box = (0.0910132 0.0910132 0.0910132) to (4.0489868 4.0489868 4.0489868)

run 1
WARNING: No fixes with time integration, atoms won't move (src/verlet.cpp:60)
WARNING: Proc sub-domain size < neighbor skin, could lead to lost atoms (src/domain.cpp:966)
Per MPI rank memory allocation (min/avg/max) = 8.615 | 8.616 | 8.628 Mbytes
   Step         PotEng         TotEng           Lx             Ly             Lz           Volume         Press           Pxx            Pyy            Pzz      
        11  -40.730983     -40.730983      3.9579736      3.9579736      3.9579736      62.003853      395135.14      395135.14      395135.14      395135.14    
        12  -40.730983     -40.730983      3.9579736      3.9579736      3.9579736      62.003853      395135.14      395135.14      395135.14      395135.14    
Loop time of 0.000281375 on 8 procs for 1 steps with 8 atoms

Performance: 307.064 ns/day, 0.078 hours/ns, 3553.976 timesteps/s, 28.432 katom-step/s
0.0% CPU use with 8 MPI tasks x 1 OpenMP threads

MPI task timing breakdown:
Section |  min time  |  avg time  |  max time  |%varavg| %total
---------------------------------------------------------------
Pair    | 0.00018    | 0.00019125 | 0.000224   |   0.0 | 67.97
Neigh   | 0          | 0          | 0          |   0.0 |  0.00
Comm    | 3.1e-05    | 6.25e-05   | 7.3e-05    |   0.0 | 22.21
Output  | 1.7e-05    | 1.85e-05   | 2e-05      |   0.0 |  6.57
Modify  | 0          | 0          | 0          |   0.0 |  0.00
Other   |            | 9.125e-06  |            |       |  3.24

Nlocal:              1 ave           1 max           1 min
Histogram: 8 0 0 0 0 0 0 0 0 0
Nghost:            511 ave         511 max         511 min
Histogram: 8 0 0 0 0 0 0 0 0 0
Neighs:             85 ave          85 max          85 min
Histogram: 8 0 0 0 0 0 0 0 0 0
FullNghs:          170 ave         170 max         170 min
Histogram: 8 0 0 0 0 0 0 0 0 0

Total # of neighbors = 1360
Ave neighs/atom = 170
Neighbor list builds = 0
Dangerous builds = 0
variable  natoms equal "count(all)"
variable xlength equal "lx"
variable  volume equal "vol"
variable  etotal equal "etotal"
variable    ecoh equal "pe/v_natoms"
print "${xlength}, ${volume}, ${etotal}, ${ecoh}" append lattice_cohesive_energy.txt screen no

next i
jump SELF loop

change_box all x scale 1.0025 y scale 1.0025 z scale 1.0025 remap
Changing box ...
  orthogonal box = (0.086065733 0.0910132 0.0910132) to (4.0539343 4.0489868 4.0489868)
  orthogonal box = (0.086065733 0.086065733 0.0910132) to (4.0539343 4.0539343 4.0489868)
  orthogonal box = (0.086065733 0.086065733 0.086065733) to (4.0539343 4.0539343 4.0539343)

run 1
WARNING: No fixes with time integration, atoms won't move (src/verlet.cpp:60)
WARNING: Proc sub-domain size < neighbor skin, could lead to lost atoms (src/domain.cpp:966)
Per MPI rank memory allocation (min/avg/max) = 8.615 | 8.616 | 8.628 Mbytes
   Step         PotEng         TotEng           Lx             Ly             Lz           Volume         Press           Pxx            Pyy            Pzz      
        12  -40.84209      -40.84209       3.9678685      3.9678685      3.9678685      62.470046      368697.2       368697.2       368697.2       368697.2     
        13  -40.84209      -40.84209       3.9678685      3.9678685      3.9678685      62.470046      368697.2       368697.2       368697.2       368697.2     
Loop time of 0.000327625 on 8 procs for 1 steps with 8 atoms

Performance: 263.716 ns/day, 0.091 hours/ns, 3052.270 timesteps/s, 24.418 katom-step/s
0.0% CPU use with 8 MPI tasks x 1 OpenMP threads

MPI task timing breakdown:
Section |  min time  |  avg time  |  max time  |%varavg| %total
---------------------------------------------------------------
Pair    | 0.000177   | 0.00020025 | 0.000266   |   0.0 | 61.12
Neigh   | 0          | 0          | 0          |   0.0 |  0.00
Comm    | 3.3e-05    | 9.8375e-05 | 0.000121   |   0.0 | 30.03
Output  | 1.7e-05    | 1.8875e-05 | 2.1e-05    |   0.0 |  5.76
Modify  | 0          | 3.75e-07   | 1e-06      |   0.0 |  0.11
Other   |            | 9.75e-06   |            |       |  2.98

Nlocal:              1 ave           1 max           1 min
Histogram: 8 0 0 0 0 0 0 0 0 0
Nghost:            511 ave         511 max         511 min
Histogram: 8 0 0 0 0 0 0 0 0 0
Neighs:             85 ave          85 max          85 min
Histogram: 8 0 0 0 0 0 0 0 0 0
FullNghs:          170 ave         170 max         170 min
Histogram: 8 0 0 0 0 0 0 0 0 0

Total # of neighbors = 1360
Ave neighs/atom = 170
Neighbor list builds = 0
Dangerous builds = 0
variable  natoms equal "count(all)"
variable xlength equal "lx"
variable  volume equal "vol"
variable  etotal equal "etotal"
variable    ecoh equal "pe/v_natoms"
print "${xlength}, ${volume}, ${etotal}, ${ecoh}" append lattice_cohesive_energy.txt screen no

next i
jump SELF loop

change_box all x scale 1.0025 y scale 1.0025 z scale 1.0025 remap
Changing box ...
  orthogonal box = (0.081105897 0.086065733 0.086065733) to (4.0588941 4.0539343 4.0539343)
  orthogonal box = (0.081105897 0.081105897 0.086065733) to (4.0588941 4.0588941 4.0539343)
  orthogonal box = (0.081105897 0.081105897 0.081105897) to (4.0588941 4.0588941 4.0588941)

run 1
WARNING: No fixes with time integration, atoms won't move (src/verlet.cpp:60)
WARNING: Proc sub-domain size < neighbor skin, could lead to lost atoms (src/domain.cpp:966)
Per MPI rank memory allocation (min/avg/max) = 8.615 | 8.616 | 8.628 Mbytes
   Step         PotEng         TotEng           Lx             Ly             Lz           Volume         Press           Pxx            Pyy            Pzz      
        13  -40.94638      -40.94638       3.9777882      3.9777882      3.9777882      62.939743      342931         342931         342931         342931       
        14  -40.94638      -40.94638       3.9777882      3.9777882      3.9777882      62.939743      342931         342931         342931         342931       
Loop time of 0.000280875 on 8 procs for 1 steps with 8 atoms

Performance: 307.610 ns/day, 0.078 hours/ns, 3560.303 timesteps/s, 28.482 katom-step/s
0.0% CPU use with 8 MPI tasks x 1 OpenMP threads

MPI task timing breakdown:
Section |  min time  |  avg time  |  max time  |%varavg| %total
---------------------------------------------------------------
Pair    | 0.000178   | 0.000189   | 0.000221   |   0.0 | 67.29
Neigh   | 0          | 0          | 0          |   0.0 |  0.00
Comm    | 3.3e-05    | 6.3625e-05 | 7.5e-05    |   0.0 | 22.65
Output  | 1.6e-05    | 1.875e-05  | 2e-05      |   0.0 |  6.68
Modify  | 0          | 2.5e-07    | 1e-06      |   0.0 |  0.09
Other   |            | 9.25e-06   |            |       |  3.29

Nlocal:              1 ave           1 max           1 min
Histogram: 8 0 0 0 0 0 0 0 0 0
Nghost:            511 ave         511 max         511 min
Histogram: 8 0 0 0 0 0 0 0 0 0
Neighs:             85 ave          85 max          85 min
Histogram: 8 0 0 0 0 0 0 0 0 0
FullNghs:          170 ave         170 max         170 min
Histogram: 8 0 0 0 0 0 0 0 0 0

Total # of neighbors = 1360
Ave neighs/atom = 170
Neighbor list builds = 0
Dangerous builds = 0
variable  natoms equal "count(all)"
variable xlength equal "lx"
variable  volume equal "vol"
variable  etotal equal "etotal"
variable    ecoh equal "pe/v_natoms"
print "${xlength}, ${volume}, ${etotal}, ${ecoh}" append lattice_cohesive_energy.txt screen no

next i
jump SELF loop

change_box all x scale 1.0025 y scale 1.0025 z scale 1.0025 remap
Changing box ...
  orthogonal box = (0.076133662 0.081105897 0.081105897) to (4.0638663 4.0588941 4.0588941)
  orthogonal box = (0.076133662 0.076133662 0.081105897) to (4.0638663 4.0638663 4.0588941)
  orthogonal box = (0.076133662 0.076133662 0.076133662) to (4.0638663 4.0638663 4.0638663)

run 1
WARNING: No fixes with time integration, atoms won't move (src/verlet.cpp:60)
WARNING: Proc sub-domain size < neighbor skin, could lead to lost atoms (src/domain.cpp:966)
Per MPI rank memory allocation (min/avg/max) = 8.615 | 8.616 | 8.628 Mbytes
   Step         PotEng         TotEng           Lx             Ly             Lz           Volume         Press           Pxx            Pyy            Pzz      
        14  -41.043942     -41.043942      3.9877327      3.9877327      3.9877327      63.412972      317824.36      317824.36      317824.36      317824.36    
        15  -41.043942     -41.043942      3.9877327      3.9877327      3.9877327      63.412972      317824.36      317824.36      317824.36      317824.36    
Loop time of 0.000370875 on 8 procs for 1 steps with 8 atoms

Performance: 232.963 ns/day, 0.103 hours/ns, 2696.326 timesteps/s, 21.571 katom-step/s
0.0% CPU use with 8 MPI tasks x 1 OpenMP threads

MPI task timing breakdown:
Section |  min time  |  avg time  |  max time  |%varavg| %total
---------------------------------------------------------------
Pair    | 0.00027    | 0.00028225 | 0.000311   |   0.0 | 76.10
Neigh   | 0          | 0          | 0          |   0.0 |  0.00
Comm    | 3.3e-05    | 5.9875e-05 | 7.3e-05    |   0.0 | 16.14
Output  | 1.7e-05    | 2e-05      | 2.2e-05    |   0.0 |  5.39
Modify  | 0          | 0          | 0          |   0.0 |  0.00
Other   |            | 8.75e-06   |            |       |  2.36

Nlocal:              1 ave           1 max           1 min
Histogram: 8 0 0 0 0 0 0 0 0 0
Nghost:            511 ave         511 max         511 min
Histogram: 8 0 0 0 0 0 0 0 0 0
Neighs:             73 ave          73 max          73 min
Histogram: 8 0 0 0 0 0 0 0 0 0
FullNghs:          146 ave         146 max         146 min
Histogram: 8 0 0 0 0 0 0 0 0 0

Total # of neighbors = 1168
Ave neighs/atom = 146
Neighbor list builds = 0
Dangerous builds = 0
variable  natoms equal "count(all)"
variable xlength equal "lx"
variable  volume equal "vol"
variable  etotal equal "etotal"
variable    ecoh equal "pe/v_natoms"
print "${xlength}, ${volume}, ${etotal}, ${ecoh}" append lattice_cohesive_energy.txt screen no

next i
jump SELF loop

change_box all x scale 1.0025 y scale 1.0025 z scale 1.0025 remap
Changing box ...
  orthogonal box = (0.071148996 0.076133662 0.076133662) to (4.068851 4.0638663 4.0638663)
  orthogonal box = (0.071148996 0.071148996 0.076133662) to (4.068851 4.068851 4.0638663)
  orthogonal box = (0.071148996 0.071148996 0.071148996) to (4.068851 4.068851 4.068851)

run 1
WARNING: No fixes with time integration, atoms won't move (src/verlet.cpp:60)
WARNING: Proc sub-domain size < neighbor skin, could lead to lost atoms (src/domain.cpp:966)
Per MPI rank memory allocation (min/avg/max) = 8.615 | 8.616 | 8.628 Mbytes
   Step         PotEng         TotEng           Lx             Ly             Lz           Volume         Press           Pxx            Pyy            Pzz      
        15  -41.134862     -41.134862      3.997702       3.997702       3.997702       63.88976       293365.28      293365.28      293365.28      293365.28    
        16  -41.134862     -41.134862      3.997702       3.997702       3.997702       63.88976       293365.28      293365.28      293365.28      293365.28    
Loop time of 0.000435 on 8 procs for 1 steps with 8 atoms

Performance: 198.621 ns/day, 0.121 hours/ns, 2298.851 timesteps/s, 18.391 katom-step/s
898.0% CPU use with 8 MPI tasks x 1 OpenMP threads

MPI task timing breakdown:
Section |  min time  |  avg time  |  max time  |%varavg| %total
---------------------------------------------------------------
Pair    | 0.000179   | 0.00019187 | 0.000225   |   0.0 | 44.11
Neigh   | 0          | 0          | 0          |   0.0 |  0.00
Comm    | 3.2e-05    | 6.4e-05    | 7.8e-05    |   0.0 | 14.71
Output  | 1.6e-05    | 1.8875e-05 | 2.1e-05    |   0.0 |  4.34
Modify  | 0          | 1.25e-07   | 1e-06      |   0.0 |  0.03
Other   |            | 0.0001601  |            |       | 36.81

Nlocal:              1 ave           1 max           1 min
Histogram: 8 0 0 0 0 0 0 0 0 0
Nghost:            511 ave         511 max         511 min
Histogram: 8 0 0 0 0 0 0 0 0 0
Neighs:             73 ave          73 max          73 min
Histogram: 8 0 0 0 0 0 0 0 0 0
FullNghs:          146 ave         146 max         146 min
Histogram: 8 0 0 0 0 0 0 0 0 0

Total # of neighbors = 1168
Ave neighs/atom = 146
Neighbor list builds = 0
Dangerous builds = 0
variable  natoms equal "count(all)"
variable xlength equal "lx"
variable  volume equal "vol"
variable  etotal equal "etotal"
variable    ecoh equal "pe/v_natoms"
print "${xlength}, ${volume}, ${etotal}, ${ecoh}" append lattice_cohesive_energy.txt screen no

next i
jump SELF loop

change_box all x scale 1.0025 y scale 1.0025 z scale 1.0025 remap
Changing box ...
  orthogonal box = (0.066151869 0.071148996 0.071148996) to (4.0738481 4.068851 4.068851)
  orthogonal box = (0.066151869 0.066151869 0.071148996) to (4.0738481 4.0738481 4.068851)
  orthogonal box = (0.066151869 0.066151869 0.066151869) to (4.0738481 4.0738481 4.0738481)

run 1
WARNING: No fixes with time integration, atoms won't move (src/verlet.cpp:60)
Per MPI rank memory allocation (min/avg/max) = 8.615 | 8.616 | 8.628 Mbytes
   Step         PotEng         TotEng           Lx             Ly             Lz           Volume         Press           Pxx            Pyy            Pzz      
        16  -41.219229     -41.219229      4.0076963      4.0076963      4.0076963      64.370132      269541.92      269541.92      269541.92      269541.92    
        17  -41.219229     -41.219229      4.0076963      4.0076963      4.0076963      64.370132      269541.92      269541.92      269541.92      269541.92    
Loop time of 0.000277875 on 8 procs for 1 steps with 8 atoms

Performance: 310.931 ns/day, 0.077 hours/ns, 3598.740 timesteps/s, 28.790 katom-step/s
0.0% CPU use with 8 MPI tasks x 1 OpenMP threads

MPI task timing breakdown:
Section |  min time  |  avg time  |  max time  |%varavg| %total
---------------------------------------------------------------
Pair    | 0.000177   | 0.0001875  | 0.00022    |   0.0 | 67.48
Neigh   | 0          | 0          | 0          |   0.0 |  0.00
Comm    | 3.2e-05    | 6.3e-05    | 7.4e-05    |   0.0 | 22.67
Output  | 1.6e-05    | 1.8125e-05 | 1.9e-05    |   0.0 |  6.52
Modify  | 0          | 1.25e-07   | 1e-06      |   0.0 |  0.04
Other   |            | 9.125e-06  |            |       |  3.28

Nlocal:              1 ave           1 max           1 min
Histogram: 8 0 0 0 0 0 0 0 0 0
Nghost:            511 ave         511 max         511 min
Histogram: 8 0 0 0 0 0 0 0 0 0
Neighs:             73 ave          73 max          73 min
Histogram: 8 0 0 0 0 0 0 0 0 0
FullNghs:          146 ave         146 max         146 min
Histogram: 8 0 0 0 0 0 0 0 0 0

Total # of neighbors = 1168
Ave neighs/atom = 146
Neighbor list builds = 0
Dangerous builds = 0
variable  natoms equal "count(all)"
variable xlength equal "lx"
variable  volume equal "vol"
variable  etotal equal "etotal"
variable    ecoh equal "pe/v_natoms"
print "${xlength}, ${volume}, ${etotal}, ${ecoh}" append lattice_cohesive_energy.txt screen no

next i
jump SELF loop

change_box all x scale 1.0025 y scale 1.0025 z scale 1.0025 remap
Changing box ...
  orthogonal box = (0.061142248 0.066151869 0.066151869) to (4.0788578 4.0738481 4.0738481)
  orthogonal box = (0.061142248 0.061142248 0.066151869) to (4.0788578 4.0788578 4.0738481)
  orthogonal box = (0.061142248 0.061142248 0.061142248) to (4.0788578 4.0788578 4.0788578)

run 1
WARNING: No fixes with time integration, atoms won't move (src/verlet.cpp:60)
Per MPI rank memory allocation (min/avg/max) = 8.615 | 8.616 | 8.628 Mbytes
   Step         PotEng         TotEng           Lx             Ly             Lz           Volume         Press           Pxx            Pyy            Pzz      
        17  -41.297128     -41.297128      4.0177155      4.0177155      4.0177155      64.854116      246342.61      246342.61      246342.61      246342.61    
        18  -41.297128     -41.297128      4.0177155      4.0177155      4.0177155      64.854116      246342.61      246342.61      246342.61      246342.61    
Loop time of 0.000276375 on 8 procs for 1 steps with 8 atoms

Performance: 312.619 ns/day, 0.077 hours/ns, 3618.272 timesteps/s, 28.946 katom-step/s
0.0% CPU use with 8 MPI tasks x 1 OpenMP threads

MPI task timing breakdown:
Section |  min time  |  avg time  |  max time  |%varavg| %total
---------------------------------------------------------------
Pair    | 0.000177   | 0.00018762 | 0.00022    |   0.0 | 67.89
Neigh   | 0          | 0          | 0          |   0.0 |  0.00
Comm    | 3.1e-05    | 6.2125e-05 | 7.4e-05    |   0.0 | 22.48
Output  | 1.6e-05    | 1.7875e-05 | 1.9e-05    |   0.0 |  6.47
Modify  | 0          | 0          | 0          |   0.0 |  0.00
Other   |            | 8.75e-06   |            |       |  3.17

Nlocal:              1 ave           1 max           1 min
Histogram: 8 0 0 0 0 0 0 0 0 0
Nghost:            511 ave         511 max         511 min
Histogram: 8 0 0 0 0 0 0 0 0 0
Neighs:             73 ave          73 max          73 min
Histogram: 8 0 0 0 0 0 0 0 0 0
FullNghs:          146 ave         146 max         146 min
Histogram: 8 0 0 0 0 0 0 0 0 0

Total # of neighbors = 1168
Ave neighs/atom = 146
Neighbor list builds = 0
Dangerous builds = 0
variable  natoms equal "count(all)"
variable xlength equal "lx"
variable  volume equal "vol"
variable  etotal equal "etotal"
variable    ecoh equal "pe/v_natoms"
print "${xlength}, ${volume}, ${etotal}, ${ecoh}" append lattice_cohesive_energy.txt screen no

next i
jump SELF loop

change_box all x scale 1.0025 y scale 1.0025 z scale 1.0025 remap
Changing box ...
  orthogonal box = (0.056120104 0.061142248 0.061142248) to (4.0838799 4.0788578 4.0788578)
  orthogonal box = (0.056120104 0.056120104 0.061142248) to (4.0838799 4.0838799 4.0788578)
  orthogonal box = (0.056120104 0.056120104 0.056120104) to (4.0838799 4.0838799 4.0838799)

run 1
WARNING: No fixes with time integration, atoms won't move (src/verlet.cpp:60)
Per MPI rank memory allocation (min/avg/max) = 8.615 | 8.616 | 8.628 Mbytes
   Step         PotEng         TotEng           Lx             Ly             Lz           Volume         Press           Pxx            Pyy            Pzz      
        18  -41.368645     -41.368645      4.0277598      4.0277598      4.0277598      65.341739      223755.84      223755.84      223755.84      223755.84    
        19  -41.368645     -41.368645      4.0277598      4.0277598      4.0277598      65.341739      223755.84      223755.84      223755.84      223755.84    
Loop time of 0.00027625 on 8 procs for 1 steps with 8 atoms

Performance: 312.760 ns/day, 0.077 hours/ns, 3619.910 timesteps/s, 28.959 katom-step/s
0.0% CPU use with 8 MPI tasks x 1 OpenMP threads

MPI task timing breakdown:
Section |  min time  |  avg time  |  max time  |%varavg| %total
---------------------------------------------------------------
Pair    | 0.000178   | 0.00018762 | 0.000219   |   0.0 | 67.92
Neigh   | 0          | 0          | 0          |   0.0 |  0.00
Comm    | 3.3e-05    | 6.225e-05  | 7.4e-05    |   0.0 | 22.53
Output  | 1.6e-05    | 1.825e-05  | 2e-05      |   0.0 |  6.61
Modify  | 0          | 0          | 0          |   0.0 |  0.00
Other   |            | 8.125e-06  |            |       |  2.94

Nlocal:              1 ave           1 max           1 min
Histogram: 8 0 0 0 0 0 0 0 0 0
Nghost:            511 ave         511 max         511 min
Histogram: 8 0 0 0 0 0 0 0 0 0
Neighs:             73 ave          73 max          73 min
Histogram: 8 0 0 0 0 0 0 0 0 0
FullNghs:          146 ave         146 max         146 min
Histogram: 8 0 0 0 0 0 0 0 0 0

Total # of neighbors = 1168
Ave neighs/atom = 146
Neighbor list builds = 0
Dangerous builds = 0
variable  natoms equal "count(all)"
variable xlength equal "lx"
variable  volume equal "vol"
variable  etotal equal "etotal"
variable    ecoh equal "pe/v_natoms"
print "${xlength}, ${volume}, ${etotal}, ${ecoh}" append lattice_cohesive_energy.txt screen no

next i
jump SELF loop

change_box all x scale 1.0025 y scale 1.0025 z scale 1.0025 remap
Changing box ...
  orthogonal box = (0.051085404 0.056120104 0.056120104) to (4.0889146 4.0838799 4.0838799)
  orthogonal box = (0.051085404 0.051085404 0.056120104) to (4.0889146 4.0889146 4.0838799)
  orthogonal box = (0.051085404 0.051085404 0.051085404) to (4.0889146 4.0889146 4.0889146)

run 1
WARNING: No fixes with time integration, atoms won't move (src/verlet.cpp:60)
Per MPI rank memory allocation (min/avg/max) = 8.615 | 8.616 | 8.628 Mbytes
   Step         PotEng         TotEng           Lx             Ly             Lz           Volume         Press           Pxx            Pyy            Pzz      
        19  -41.433867     -41.433867      4.0378292      4.0378292      4.0378292      65.833028      201770.27      201770.27      201770.27      201770.27    
        20  -41.433867     -41.433867      4.0378292      4.0378292      4.0378292      65.833028      201770.27      201770.27      201770.27      201770.27    
Loop time of 0.0002765 on 8 procs for 1 steps with 8 atoms

Performance: 312.477 ns/day, 0.077 hours/ns, 3616.637 timesteps/s, 28.933 katom-step/s
706.4% CPU use with 8 MPI tasks x 1 OpenMP threads

MPI task timing breakdown:
Section |  min time  |  avg time  |  max time  |%varavg| %total
---------------------------------------------------------------
Pair    | 0.000177   | 0.0001885  | 0.000219   |   0.0 | 68.17
Neigh   | 0          | 0          | 0          |   0.0 |  0.00
Comm    | 3.2e-05    | 6.075e-05  | 7.4e-05    |   0.0 | 21.97
Output  | 1.7e-05    | 1.8375e-05 | 1.9e-05    |   0.0 |  6.65
Modify  | 0          | 0          | 0          |   0.0 |  0.00
Other   |            | 8.875e-06  |            |       |  3.21

Nlocal:              1 ave           1 max           1 min
Histogram: 8 0 0 0 0 0 0 0 0 0
Nghost:            511 ave         511 max         511 min
Histogram: 8 0 0 0 0 0 0 0 0 0
Neighs:             73 ave          73 max          73 min
Histogram: 8 0 0 0 0 0 0 0 0 0
FullNghs:          146 ave         146 max         146 min
Histogram: 8 0 0 0 0 0 0 0 0 0

Total # of neighbors = 1168
Ave neighs/atom = 146
Neighbor list builds = 0
Dangerous builds = 0
variable  natoms equal "count(all)"
variable xlength equal "lx"
variable  volume equal "vol"
variable  etotal equal "etotal"
variable    ecoh equal "pe/v_natoms"
print "${xlength}, ${volume}, ${etotal}, ${ecoh}" append lattice_cohesive_energy.txt screen no

next i
jump SELF loop

change_box all x scale 1.0025 y scale 1.0025 z scale 1.0025 remap
Changing box ...
  orthogonal box = (0.046038118 0.051085404 0.051085404) to (4.0939619 4.0889146 4.0889146)
  orthogonal box = (0.046038118 0.046038118 0.051085404) to (4.0939619 4.0939619 4.0889146)
  orthogonal box = (0.046038118 0.046038118 0.046038118) to (4.0939619 4.0939619 4.0939619)

run 1
WARNING: No fixes with time integration, atoms won't move (src/verlet.cpp:60)
Per MPI rank memory allocation (min/avg/max) = 8.615 | 8.616 | 8.628 Mbytes
   Step         PotEng         TotEng           Lx             Ly             Lz           Volume         Press           Pxx            Pyy            Pzz      
        20  -41.492879     -41.492879      4.0479238      4.0479238      4.0479238      66.328011      180374.72      180374.72      180374.72      180374.72    
        21  -41.492879     -41.492879      4.0479238      4.0479238      4.0479238      66.328011      180374.72      180374.72      180374.72      180374.72    
Loop time of 0.0002765 on 8 procs for 1 steps with 8 atoms

Performance: 312.477 ns/day, 0.077 hours/ns, 3616.637 timesteps/s, 28.933 katom-step/s
0.0% CPU use with 8 MPI tasks x 1 OpenMP threads

MPI task timing breakdown:
Section |  min time  |  avg time  |  max time  |%varavg| %total
---------------------------------------------------------------
Pair    | 0.000176   | 0.00018625 | 0.000218   |   0.0 | 67.36
Neigh   | 0          | 0          | 0          |   0.0 |  0.00
Comm    | 3.2e-05    | 6.2375e-05 | 7.3e-05    |   0.0 | 22.56
Output  | 1.6e-05    | 1.775e-05  | 1.9e-05    |   0.0 |  6.42
Modify  | 0          | 0          | 0          |   0.0 |  0.00
Other   |            | 1.013e-05  |            |       |  3.66

Nlocal:              1 ave           1 max           1 min
Histogram: 8 0 0 0 0 0 0 0 0 0
Nghost:            511 ave         511 max         511 min
Histogram: 8 0 0 0 0 0 0 0 0 0
Neighs:             73 ave          73 max          73 min
Histogram: 8 0 0 0 0 0 0 0 0 0
FullNghs:          146 ave         146 max         146 min
Histogram: 8 0 0 0 0 0 0 0 0 0

Total # of neighbors = 1168
Ave neighs/atom = 146
Neighbor list builds = 0
Dangerous builds = 0
variable  natoms equal "count(all)"
variable xlength equal "lx"
variable  volume equal "vol"
variable  etotal equal "etotal"
variable    ecoh equal "pe/v_natoms"
print "${xlength}, ${volume}, ${etotal}, ${ecoh}" append lattice_cohesive_energy.txt screen no

next i
jump SELF loop

change_box all x scale 1.0025 y scale 1.0025 z scale 1.0025 remap
Changing box ...
  orthogonal box = (0.040978213 0.046038118 0.046038118) to (4.0990218 4.0939619 4.0939619)
  orthogonal box = (0.040978213 0.040978213 0.046038118) to (4.0990218 4.0990218 4.0939619)
  orthogonal box = (0.040978213 0.040978213 0.040978213) to (4.0990218 4.0990218 4.0990218)

run 1
WARNING: No fixes with time integration, atoms won't move (src/verlet.cpp:60)
Per MPI rank memory allocation (min/avg/max) = 8.615 | 8.616 | 8.628 Mbytes
   Step         PotEng         TotEng           Lx             Ly             Lz           Volume         Press           Pxx            Pyy            Pzz      
        21  -41.545765     -41.545765      4.0580436      4.0580436      4.0580436      66.826716      159558.16      159558.16      159558.16      159558.16    
        22  -41.545765     -41.545765      4.0580436      4.0580436      4.0580436      66.826716      159558.16      159558.16      159558.16      159558.16    
Loop time of 0.00027425 on 8 procs for 1 steps with 8 atoms

Performance: 315.041 ns/day, 0.076 hours/ns, 3646.308 timesteps/s, 29.170 katom-step/s
0.0% CPU use with 8 MPI tasks x 1 OpenMP threads

MPI task timing breakdown:
Section |  min time  |  avg time  |  max time  |%varavg| %total
---------------------------------------------------------------
Pair    | 0.000176   | 0.00018637 | 0.000218   |   0.0 | 67.96
Neigh   | 0          | 0          | 0          |   0.0 |  0.00
Comm    | 3.1e-05    | 6.15e-05   | 7.3e-05    |   0.0 | 22.42
Output  | 1.6e-05    | 1.8125e-05 | 2e-05      |   0.0 |  6.61
Modify  | 0          | 2.5e-07    | 1e-06      |   0.0 |  0.09
Other   |            | 8e-06      |            |       |  2.92

Nlocal:              1 ave           1 max           1 min
Histogram: 8 0 0 0 0 0 0 0 0 0
Nghost:            511 ave         511 max         511 min
Histogram: 8 0 0 0 0 0 0 0 0 0
Neighs:             73 ave          73 max          73 min
Histogram: 8 0 0 0 0 0 0 0 0 0
FullNghs:          146 ave         146 max         146 min
Histogram: 8 0 0 0 0 0 0 0 0 0

Total # of neighbors = 1168
Ave neighs/atom = 146
Neighbor list builds = 0
Dangerous builds = 0
variable  natoms equal "count(all)"
variable xlength equal "lx"
variable  volume equal "vol"
variable  etotal equal "etotal"
variable    ecoh equal "pe/v_natoms"
print "${xlength}, ${volume}, ${etotal}, ${ecoh}" append lattice_cohesive_energy.txt screen no

next i
jump SELF loop

change_box all x scale 1.0025 y scale 1.0025 z scale 1.0025 remap
Changing box ...
  orthogonal box = (0.035905658 0.040978213 0.040978213) to (4.1040943 4.0990218 4.0990218)
  orthogonal box = (0.035905658 0.035905658 0.040978213) to (4.1040943 4.1040943 4.0990218)
  orthogonal box = (0.035905658 0.035905658 0.035905658) to (4.1040943 4.1040943 4.1040943)

run 1
WARNING: No fixes with time integration, atoms won't move (src/verlet.cpp:60)
Per MPI rank memory allocation (min/avg/max) = 8.615 | 8.616 | 8.628 Mbytes
   Step         PotEng         TotEng           Lx             Ly             Lz           Volume         Press           Pxx            Pyy            Pzz      
        22  -41.59261      -41.59261       4.0681887      4.0681887      4.0681887      67.32917       139309.72      139309.72      139309.72      139309.72    
        23  -41.59261      -41.59261       4.0681887      4.0681887      4.0681887      67.32917       139309.72      139309.72      139309.72      139309.72    
Loop time of 0.00027625 on 8 procs for 1 steps with 8 atoms

Performance: 312.760 ns/day, 0.077 hours/ns, 3619.910 timesteps/s, 28.959 katom-step/s
0.0% CPU use with 8 MPI tasks x 1 OpenMP threads

MPI task timing breakdown:
Section |  min time  |  avg time  |  max time  |%varavg| %total
---------------------------------------------------------------
Pair    | 0.000176   | 0.00018675 | 0.000219   |   0.0 | 67.60
Neigh   | 0          | 0          | 0          |   0.0 |  0.00
Comm    | 3.2e-05    | 6.25e-05   | 7.4e-05    |   0.0 | 22.62
Output  | 1.6e-05    | 1.825e-05  | 2e-05      |   0.0 |  6.61
Modify  | 0          | 1.25e-07   | 1e-06      |   0.0 |  0.05
Other   |            | 8.625e-06  |            |       |  3.12

Nlocal:              1 ave           1 max           1 min
Histogram: 8 0 0 0 0 0 0 0 0 0
Nghost:            511 ave         511 max         511 min
Histogram: 8 0 0 0 0 0 0 0 0 0
Neighs:             73 ave          73 max          73 min
Histogram: 8 0 0 0 0 0 0 0 0 0
FullNghs:          146 ave         146 max         146 min
Histogram: 8 0 0 0 0 0 0 0 0 0

Total # of neighbors = 1168
Ave neighs/atom = 146
Neighbor list builds = 0
Dangerous builds = 0
variable  natoms equal "count(all)"
variable xlength equal "lx"
variable  volume equal "vol"
variable  etotal equal "etotal"
variable    ecoh equal "pe/v_natoms"
print "${xlength}, ${volume}, ${etotal}, ${ecoh}" append lattice_cohesive_energy.txt screen no

next i
jump SELF loop

change_box all x scale 1.0025 y scale 1.0025 z scale 1.0025 remap
Changing box ...
  orthogonal box = (0.030820423 0.035905658 0.035905658) to (4.1091796 4.1040943 4.1040943)
  orthogonal box = (0.030820423 0.030820423 0.035905658) to (4.1091796 4.1091796 4.1040943)
  orthogonal box = (0.030820423 0.030820423 0.030820423) to (4.1091796 4.1091796 4.1091796)

run 1
WARNING: No fixes with time integration, atoms won't move (src/verlet.cpp:60)
Per MPI rank memory allocation (min/avg/max) = 8.615 | 8.616 | 8.628 Mbytes
   Step         PotEng         TotEng           Lx             Ly             Lz           Volume         Press           Pxx            Pyy            Pzz      
        23  -41.633498     -41.633498      4.0783592      4.0783592      4.0783592      67.835402      119618.71      119618.71      119618.71      119618.71    
        24  -41.633498     -41.633498      4.0783592      4.0783592      4.0783592      67.835402      119618.71      119618.71      119618.71      119618.71    
Loop time of 0.000160875 on 8 procs for 1 steps with 8 atoms

Performance: 537.063 ns/day, 0.045 hours/ns, 6216.006 timesteps/s, 49.728 katom-step/s
0.0% CPU use with 8 MPI tasks x 1 OpenMP threads

MPI task timing breakdown:
Section |  min time  |  avg time  |  max time  |%varavg| %total
---------------------------------------------------------------
Pair    | 0.000118   | 0.00012012 | 0.000124   |   0.0 | 74.67
Neigh   | 0          | 0          | 0          |   0.0 |  0.00
Comm    | 2.2e-05    | 2.525e-05  | 2.8e-05    |   0.0 | 15.70
Output  | 1.1e-05    | 1.1e-05    | 1.1e-05    |   0.0 |  6.84
Modify  | 0          | 0          | 0          |   0.0 |  0.00
Other   |            | 4.5e-06    |            |       |  2.80

Nlocal:              1 ave           1 max           1 min
Histogram: 8 0 0 0 0 0 0 0 0 0
Nghost:            511 ave         511 max         511 min
Histogram: 8 0 0 0 0 0 0 0 0 0
Neighs:             73 ave          73 max          73 min
Histogram: 8 0 0 0 0 0 0 0 0 0
FullNghs:          146 ave         146 max         146 min
Histogram: 8 0 0 0 0 0 0 0 0 0

Total # of neighbors = 1168
Ave neighs/atom = 146
Neighbor list builds = 0
Dangerous builds = 0
variable  natoms equal "count(all)"
variable xlength equal "lx"
variable  volume equal "vol"
variable  etotal equal "etotal"
variable    ecoh equal "pe/v_natoms"
print "${xlength}, ${volume}, ${etotal}, ${ecoh}" append lattice_cohesive_energy.txt screen no

next i
jump SELF loop

change_box all x scale 1.0025 y scale 1.0025 z scale 1.0025 remap
Changing box ...
  orthogonal box = (0.025722474 0.030820423 0.030820423) to (4.1142775 4.1091796 4.1091796)
  orthogonal box = (0.025722474 0.025722474 0.030820423) to (4.1142775 4.1142775 4.1091796)
  orthogonal box = (0.025722474 0.025722474 0.025722474) to (4.1142775 4.1142775 4.1142775)

run 1
WARNING: No fixes with time integration, atoms won't move (src/verlet.cpp:60)
Per MPI rank memory allocation (min/avg/max) = 8.615 | 8.616 | 8.628 Mbytes
   Step         PotEng         TotEng           Lx             Ly             Lz           Volume         Press           Pxx            Pyy            Pzz      
        24  -41.668512     -41.668512      4.0885551      4.0885551      4.0885551      68.345441      100474.56      100474.56      100474.56      100474.56    
        25  -41.668512     -41.668512      4.0885551      4.0885551      4.0885551      68.345441      100474.56      100474.56      100474.56      100474.56    
Loop time of 0.000150625 on 8 procs for 1 steps with 8 atoms

Performance: 573.610 ns/day, 0.042 hours/ns, 6639.004 timesteps/s, 53.112 katom-step/s
0.0% CPU use with 8 MPI tasks x 1 OpenMP threads

MPI task timing breakdown:
Section |  min time  |  avg time  |  max time  |%varavg| %total
---------------------------------------------------------------
Pair    | 0.000112   | 0.00011425 | 0.000116   |   0.0 | 75.85
Neigh   | 0          | 0          | 0          |   0.0 |  0.00
Comm    | 2e-05      | 2.2e-05    | 2.4e-05    |   0.0 | 14.61
Output  | 1e-05      | 1.075e-05  | 1.2e-05    |   0.0 |  7.14
Modify  | 0          | 1.25e-07   | 1e-06      |   0.0 |  0.08
Other   |            | 3.5e-06    |            |       |  2.32

Nlocal:              1 ave           1 max           1 min
Histogram: 8 0 0 0 0 0 0 0 0 0
Nghost:            511 ave         511 max         511 min
Histogram: 8 0 0 0 0 0 0 0 0 0
Neighs:             73 ave          73 max          73 min
Histogram: 8 0 0 0 0 0 0 0 0 0
FullNghs:          146 ave         146 max         146 min
Histogram: 8 0 0 0 0 0 0 0 0 0

Total # of neighbors = 1168
Ave neighs/atom = 146
Neighbor list builds = 0
Dangerous builds = 0
variable  natoms equal "count(all)"
variable xlength equal "lx"
variable  volume equal "vol"
variable  etotal equal "etotal"
variable    ecoh equal "pe/v_natoms"
print "${xlength}, ${volume}, ${etotal}, ${ecoh}" append lattice_cohesive_energy.txt screen no

next i
jump SELF loop

change_box all x scale 1.0025 y scale 1.0025 z scale 1.0025 remap
Changing box ...
  orthogonal box = (0.02061178 0.025722474 0.025722474) to (4.1193882 4.1142775 4.1142775)
  orthogonal box = (0.02061178 0.02061178 0.025722474) to (4.1193882 4.1193882 4.1142775)
  orthogonal box = (0.02061178 0.02061178 0.02061178) to (4.1193882 4.1193882 4.1193882)

run 1
WARNING: No fixes with time integration, atoms won't move (src/verlet.cpp:60)
Per MPI rank memory allocation (min/avg/max) = 8.615 | 8.616 | 8.628 Mbytes
   Step         PotEng         TotEng           Lx             Ly             Lz           Volume         Press           Pxx            Pyy            Pzz      
        25  -41.697736     -41.697736      4.0987764      4.0987764      4.0987764      68.859314      81866.868      81866.868      81866.868      81866.868    
        26  -41.697736     -41.697736      4.0987764      4.0987764      4.0987764      68.859314      81866.868      81866.868      81866.868      81866.868    
Loop time of 0.000147125 on 8 procs for 1 steps with 8 atoms

Performance: 587.256 ns/day, 0.041 hours/ns, 6796.941 timesteps/s, 54.376 katom-step/s
0.0% CPU use with 8 MPI tasks x 1 OpenMP threads

MPI task timing breakdown:
Section |  min time  |  avg time  |  max time  |%varavg| %total
---------------------------------------------------------------
Pair    | 0.000111   | 0.000112   | 0.000113   |   0.0 | 76.13
Neigh   | 0          | 0          | 0          |   0.0 |  0.00
Comm    | 1.9e-05    | 2.05e-05   | 2.2e-05    |   0.0 | 13.93
Output  | 1e-05      | 1.025e-05  | 1.1e-05    |   0.0 |  6.97
Modify  | 0          | 2.5e-07    | 1e-06      |   0.0 |  0.17
Other   |            | 4.125e-06  |            |       |  2.80

Nlocal:              1 ave           1 max           1 min
Histogram: 8 0 0 0 0 0 0 0 0 0
Nghost:            511 ave         511 max         511 min
Histogram: 8 0 0 0 0 0 0 0 0 0
Neighs:             73 ave          73 max          73 min
Histogram: 8 0 0 0 0 0 0 0 0 0
FullNghs:          146 ave         146 max         146 min
Histogram: 8 0 0 0 0 0 0 0 0 0

Total # of neighbors = 1168
Ave neighs/atom = 146
Neighbor list builds = 0
Dangerous builds = 0
variable  natoms equal "count(all)"
variable xlength equal "lx"
variable  volume equal "vol"
variable  etotal equal "etotal"
variable    ecoh equal "pe/v_natoms"
print "${xlength}, ${volume}, ${etotal}, ${ecoh}" append lattice_cohesive_energy.txt screen no

next i
jump SELF loop

change_box all x scale 1.0025 y scale 1.0025 z scale 1.0025 remap
Changing box ...
  orthogonal box = (0.015488309 0.02061178 0.02061178) to (4.1245117 4.1193882 4.1193882)
  orthogonal box = (0.015488309 0.015488309 0.02061178) to (4.1245117 4.1245117 4.1193882)
  orthogonal box = (0.015488309 0.015488309 0.015488309) to (4.1245117 4.1245117 4.1245117)

run 1
WARNING: No fixes with time integration, atoms won't move (src/verlet.cpp:60)
Per MPI rank memory allocation (min/avg/max) = 8.615 | 8.616 | 8.628 Mbytes
   Step         PotEng         TotEng           Lx             Ly             Lz           Volume         Press           Pxx            Pyy            Pzz      
        26  -41.721251     -41.721251      4.1090234      4.1090234      4.1090234      69.377051      63785.387      63785.387      63785.387      63785.387    
        27  -41.721251     -41.721251      4.1090234      4.1090234      4.1090234      69.377051      63785.387      63785.387      63785.387      63785.387    
Loop time of 0.000146375 on 8 procs for 1 steps with 8 atoms

Performance: 590.265 ns/day, 0.041 hours/ns, 6831.768 timesteps/s, 54.654 katom-step/s
0.0% CPU use with 8 MPI tasks x 1 OpenMP threads

MPI task timing breakdown:
Section |  min time  |  avg time  |  max time  |%varavg| %total
---------------------------------------------------------------
Pair    | 0.00011    | 0.0001115  | 0.000112   |   0.0 | 76.17
Neigh   | 0          | 0          | 0          |   0.0 |  0.00
Comm    | 1.9e-05    | 2.0625e-05 | 2.3e-05    |   0.0 | 14.09
Output  | 1e-05      | 1.05e-05   | 1.2e-05    |   0.0 |  7.17
Modify  | 0          | 2.5e-07    | 1e-06      |   0.0 |  0.17
Other   |            | 3.5e-06    |            |       |  2.39

Nlocal:              1 ave           1 max           1 min
Histogram: 8 0 0 0 0 0 0 0 0 0
Nghost:            511 ave         511 max         511 min
Histogram: 8 0 0 0 0 0 0 0 0 0
Neighs:             73 ave          73 max          73 min
Histogram: 8 0 0 0 0 0 0 0 0 0
FullNghs:          146 ave         146 max         146 min
Histogram: 8 0 0 0 0 0 0 0 0 0

Total # of neighbors = 1168
Ave neighs/atom = 146
Neighbor list builds = 0
Dangerous builds = 0
variable  natoms equal "count(all)"
variable xlength equal "lx"
variable  volume equal "vol"
variable  etotal equal "etotal"
variable    ecoh equal "pe/v_natoms"
print "${xlength}, ${volume}, ${etotal}, ${ecoh}" append lattice_cohesive_energy.txt screen no

next i
jump SELF loop

change_box all x scale 1.0025 y scale 1.0025 z scale 1.0025 remap
Changing box ...
  orthogonal box = (0.01035203 0.015488309 0.015488309) to (4.129648 4.1245117 4.1245117)
  orthogonal box = (0.01035203 0.01035203 0.015488309) to (4.129648 4.129648 4.1245117)
  orthogonal box = (0.01035203 0.01035203 0.01035203) to (4.129648 4.129648 4.129648)

run 1
WARNING: No fixes with time integration, atoms won't move (src/verlet.cpp:60)
Per MPI rank memory allocation (min/avg/max) = 8.615 | 8.616 | 8.628 Mbytes
   Step         PotEng         TotEng           Lx             Ly             Lz           Volume         Press           Pxx            Pyy            Pzz      
        27  -41.739141     -41.739141      4.1192959      4.1192959      4.1192959      69.898681      46220.013      46220.013      46220.013      46220.013    
        28  -41.739141     -41.739141      4.1192959      4.1192959      4.1192959      69.898681      46220.013      46220.013      46220.013      46220.013    
Loop time of 0.000149875 on 8 procs for 1 steps with 8 atoms

Performance: 576.480 ns/day, 0.042 hours/ns, 6672.227 timesteps/s, 53.378 katom-step/s
0.0% CPU use with 8 MPI tasks x 1 OpenMP threads

MPI task timing breakdown:
Section |  min time  |  avg time  |  max time  |%varavg| %total
---------------------------------------------------------------
Pair    | 0.000114   | 0.00011488 | 0.000116   |   0.0 | 76.65
Neigh   | 0          | 0          | 0          |   0.0 |  0.00
Comm    | 1.9e-05    | 1.975e-05  | 2.1e-05    |   0.0 | 13.18
Output  | 1.1e-05    | 1.125e-05  | 1.2e-05    |   0.0 |  7.51
Modify  | 0          | 1.25e-07   | 1e-06      |   0.0 |  0.08
Other   |            | 3.875e-06  |            |       |  2.59

Nlocal:              1 ave           1 max           1 min
Histogram: 8 0 0 0 0 0 0 0 0 0
Nghost:            511 ave         511 max         511 min
Histogram: 8 0 0 0 0 0 0 0 0 0
Neighs:             73 ave          73 max          73 min
Histogram: 8 0 0 0 0 0 0 0 0 0
FullNghs:          146 ave         146 max         146 min
Histogram: 8 0 0 0 0 0 0 0 0 0

Total # of neighbors = 1168
Ave neighs/atom = 146
Neighbor list builds = 0
Dangerous builds = 0
variable  natoms equal "count(all)"
variable xlength equal "lx"
variable  volume equal "vol"
variable  etotal equal "etotal"
variable    ecoh equal "pe/v_natoms"
print "${xlength}, ${volume}, ${etotal}, ${ecoh}" append lattice_cohesive_energy.txt screen no

next i
jump SELF loop

change_box all x scale 1.0025 y scale 1.0025 z scale 1.0025 remap
Changing box ...
  orthogonal box = (0.0052029102 0.01035203 0.01035203) to (4.1347971 4.129648 4.129648)
  orthogonal box = (0.0052029102 0.0052029102 0.01035203) to (4.1347971 4.1347971 4.129648)
  orthogonal box = (0.0052029102 0.0052029102 0.0052029102) to (4.1347971 4.1347971 4.1347971)

run 1
WARNING: No fixes with time integration, atoms won't move (src/verlet.cpp:60)
Per MPI rank memory allocation (min/avg/max) = 8.615 | 8.616 | 8.628 Mbytes
   Step         PotEng         TotEng           Lx             Ly             Lz           Volume         Press           Pxx            Pyy            Pzz      
        28  -41.751488     -41.751488      4.1295942      4.1295942      4.1295942      70.424233      29160.791      29160.791      29160.791      29160.791    
        29  -41.751488     -41.751488      4.1295942      4.1295942      4.1295942      70.424233      29160.791      29160.791      29160.791      29160.791    
Loop time of 0.00015175 on 8 procs for 1 steps with 8 atoms

Performance: 569.357 ns/day, 0.042 hours/ns, 6589.786 timesteps/s, 52.718 katom-step/s
0.0% CPU use with 8 MPI tasks x 1 OpenMP threads

MPI task timing breakdown:
Section |  min time  |  avg time  |  max time  |%varavg| %total
---------------------------------------------------------------
Pair    | 0.000112   | 0.0001135  | 0.000115   |   0.0 | 74.79
Neigh   | 0          | 0          | 0          |   0.0 |  0.00
Comm    | 1.9e-05    | 2.175e-05  | 2.4e-05    |   0.0 | 14.33
Output  | 1.1e-05    | 1.2375e-05 | 1.3e-05    |   0.0 |  8.15
Modify  | 0          | 1.25e-07   | 1e-06      |   0.0 |  0.08
Other   |            | 4e-06      |            |       |  2.64

Nlocal:              1 ave           1 max           1 min
Histogram: 8 0 0 0 0 0 0 0 0 0
Nghost:            511 ave         511 max         511 min
Histogram: 8 0 0 0 0 0 0 0 0 0
Neighs:             73 ave          73 max          73 min
Histogram: 8 0 0 0 0 0 0 0 0 0
FullNghs:          146 ave         146 max         146 min
Histogram: 8 0 0 0 0 0 0 0 0 0

Total # of neighbors = 1168
Ave neighs/atom = 146
Neighbor list builds = 0
Dangerous builds = 0
variable  natoms equal "count(all)"
variable xlength equal "lx"
variable  volume equal "vol"
variable  etotal equal "etotal"
variable    ecoh equal "pe/v_natoms"
print "${xlength}, ${volume}, ${etotal}, ${ecoh}" append lattice_cohesive_energy.txt screen no

next i
jump SELF loop

change_box all x scale 1.0025 y scale 1.0025 z scale 1.0025 remap
Changing box ...
  orthogonal box = (4.091744e-05 0.0052029102 0.0052029102) to (4.1399591 4.1347971 4.1347971)
  orthogonal box = (4.091744e-05 4.091744e-05 0.0052029102) to (4.1399591 4.1399591 4.1347971)
  orthogonal box = (4.091744e-05 4.091744e-05 4.091744e-05) to (4.1399591 4.1399591 4.1399591)

run 1
WARNING: No fixes with time integration, atoms won't move (src/verlet.cpp:60)
Per MPI rank memory allocation (min/avg/max) = 8.615 | 8.616 | 8.628 Mbytes
   Step         PotEng         TotEng           Lx             Ly             Lz           Volume         Press           Pxx            Pyy            Pzz      
        29  -41.758371     -41.758371      4.1399182      4.1399182      4.1399182      70.953736      12597.913      12597.913      12597.913      12597.913    
        30  -41.758371     -41.758371      4.1399182      4.1399182      4.1399182      70.953736      12597.913      12597.913      12597.913      12597.913    
Loop time of 0.000256 on 8 procs for 1 steps with 8 atoms

Performance: 337.500 ns/day, 0.071 hours/ns, 3906.250 timesteps/s, 31.250 katom-step/s
0.0% CPU use with 8 MPI tasks x 1 OpenMP threads

MPI task timing breakdown:
Section |  min time  |  avg time  |  max time  |%varavg| %total
---------------------------------------------------------------
Pair    | 0.000159   | 0.00017913 | 0.000209   |   0.0 | 69.97
Neigh   | 0          | 0          | 0          |   0.0 |  0.00
Comm    | 2.4e-05    | 5.35e-05   | 7.3e-05    |   0.0 | 20.90
Output  | 1.5e-05    | 1.625e-05  | 1.8e-05    |   0.0 |  6.35
Modify  | 0          | 2.5e-07    | 1e-06      |   0.0 |  0.10
Other   |            | 6.875e-06  |            |       |  2.69

Nlocal:              1 ave           1 max           1 min
Histogram: 8 0 0 0 0 0 0 0 0 0
Nghost:            511 ave         511 max         511 min
Histogram: 8 0 0 0 0 0 0 0 0 0
Neighs:             73 ave          73 max          73 min
Histogram: 8 0 0 0 0 0 0 0 0 0
FullNghs:          146 ave         146 max         146 min
Histogram: 8 0 0 0 0 0 0 0 0 0

Total # of neighbors = 1168
Ave neighs/atom = 146
Neighbor list builds = 0
Dangerous builds = 0
variable  natoms equal "count(all)"
variable xlength equal "lx"
variable  volume equal "vol"
variable  etotal equal "etotal"
variable    ecoh equal "pe/v_natoms"
print "${xlength}, ${volume}, ${etotal}, ${ecoh}" append lattice_cohesive_energy.txt screen no

next i
jump SELF loop

change_box all x scale 1.0025 y scale 1.0025 z scale 1.0025 remap
Changing box ...
  orthogonal box = (-0.0051339803 4.091744e-05 4.091744e-05) to (4.145134 4.1399591 4.1399591)
  orthogonal box = (-0.0051339803 -0.0051339803 4.091744e-05) to (4.145134 4.145134 4.1399591)
  orthogonal box = (-0.0051339803 -0.0051339803 -0.0051339803) to (4.145134 4.145134 4.145134)

run 1
WARNING: No fixes with time integration, atoms won't move (src/verlet.cpp:60)
Per MPI rank memory allocation (min/avg/max) = 8.615 | 8.616 | 8.628 Mbytes
   Step         PotEng         TotEng           Lx             Ly             Lz           Volume         Press           Pxx            Pyy            Pzz      
        30  -41.759873     -41.759873      4.150268       4.150268       4.150268       71.487221     -3478.285      -3478.285      -3478.285      -3478.285     
        31  -41.759873     -41.759873      4.150268       4.150268       4.150268       71.487221     -3478.285      -3478.285      -3478.285      -3478.285     
Loop time of 0.000188625 on 8 procs for 1 steps with 8 atoms

Performance: 458.052 ns/day, 0.052 hours/ns, 5301.524 timesteps/s, 42.412 katom-step/s
0.0% CPU use with 8 MPI tasks x 1 OpenMP threads

MPI task timing breakdown:
Section |  min time  |  avg time  |  max time  |%varavg| %total
---------------------------------------------------------------
Pair    | 0.000133   | 0.0001365  | 0.000145   |   0.0 | 72.37
Neigh   | 0          | 0          | 0          |   0.0 |  0.00
Comm    | 2.3e-05    | 3.175e-05  | 3.5e-05    |   0.0 | 16.83
Output  | 1.3e-05    | 1.425e-05  | 1.6e-05    |   0.0 |  7.55
Modify  | 0          | 1.25e-07   | 1e-06      |   0.0 |  0.07
Other   |            | 6e-06      |            |       |  3.18

Nlocal:              1 ave           1 max           1 min
Histogram: 8 0 0 0 0 0 0 0 0 0
Nghost:            511 ave         511 max         511 min
Histogram: 8 0 0 0 0 0 0 0 0 0
Neighs:             73 ave          73 max          73 min
Histogram: 8 0 0 0 0 0 0 0 0 0
FullNghs:          146 ave         146 max         146 min
Histogram: 8 0 0 0 0 0 0 0 0 0

Total # of neighbors = 1168
Ave neighs/atom = 146
Neighbor list builds = 0
Dangerous builds = 0
variable  natoms equal "count(all)"
variable xlength equal "lx"
variable  volume equal "vol"
variable  etotal equal "etotal"
variable    ecoh equal "pe/v_natoms"
print "${xlength}, ${volume}, ${etotal}, ${ecoh}" append lattice_cohesive_energy.txt screen no

next i
jump SELF loop

change_box all x scale 1.0025 y scale 1.0025 z scale 1.0025 remap
Changing box ...
  orthogonal box = (-0.010321815 -0.0051339803 -0.0051339803) to (4.1503218 4.145134 4.145134)
  orthogonal box = (-0.010321815 -0.010321815 -0.0051339803) to (4.1503218 4.1503218 4.145134)
  orthogonal box = (-0.010321815 -0.010321815 -0.010321815) to (4.1503218 4.1503218 4.1503218)

run 1
WARNING: No fixes with time integration, atoms won't move (src/verlet.cpp:60)
Per MPI rank memory allocation (min/avg/max) = 8.615 | 8.616 | 8.628 Mbytes
   Step         PotEng         TotEng           Lx             Ly             Lz           Volume         Press           Pxx            Pyy            Pzz      
        31  -41.756073     -41.756073      4.1606436      4.1606436      4.1606436      72.024716     -19077.326     -19077.326     -19077.326     -19077.326    
        32  -41.756073     -41.756073      4.1606436      4.1606436      4.1606436      72.024716     -19077.326     -19077.326     -19077.326     -19077.326    
Loop time of 0.000187375 on 8 procs for 1 steps with 8 atoms

Performance: 461.107 ns/day, 0.052 hours/ns, 5336.891 timesteps/s, 42.695 katom-step/s
0.0% CPU use with 8 MPI tasks x 1 OpenMP threads

MPI task timing breakdown:
Section |  min time  |  avg time  |  max time  |%varavg| %total
---------------------------------------------------------------
Pair    | 0.000128   | 0.00013262 | 0.000143   |   0.0 | 70.78
Neigh   | 0          | 0          | 0          |   0.0 |  0.00
Comm    | 2.4e-05    | 3.425e-05  | 3.9e-05    |   0.0 | 18.28
Output  | 1.3e-05    | 1.45e-05   | 1.6e-05    |   0.0 |  7.74
Modify  | 0          | 1.25e-07   | 1e-06      |   0.0 |  0.07
Other   |            | 5.875e-06  |            |       |  3.14

Nlocal:              1 ave           1 max           1 min
Histogram: 8 0 0 0 0 0 0 0 0 0
Nghost:            511 ave         511 max         511 min
Histogram: 8 0 0 0 0 0 0 0 0 0
Neighs:             73 ave          73 max          73 min
Histogram: 8 0 0 0 0 0 0 0 0 0
FullNghs:          146 ave         146 max         146 min
Histogram: 8 0 0 0 0 0 0 0 0 0

Total # of neighbors = 1168
Ave neighs/atom = 146
Neighbor list builds = 0
Dangerous builds = 0
variable  natoms equal "count(all)"
variable xlength equal "lx"
variable  volume equal "vol"
variable  etotal equal "etotal"
variable    ecoh equal "pe/v_natoms"
print "${xlength}, ${volume}, ${etotal}, ${ecoh}" append lattice_cohesive_energy.txt screen no

next i
jump SELF loop

change_box all x scale 1.0025 y scale 1.0025 z scale 1.0025 remap
Changing box ...
  orthogonal box = (-0.01552262 -0.010321815 -0.010321815) to (4.1555226 4.1503218 4.1503218)
  orthogonal box = (-0.01552262 -0.01552262 -0.010321815) to (4.1555226 4.1555226 4.1503218)
  orthogonal box = (-0.01552262 -0.01552262 -0.01552262) to (4.1555226 4.1555226 4.1555226)

run 1
WARNING: No fixes with time integration, atoms won't move (src/verlet.cpp:60)
Per MPI rank memory allocation (min/avg/max) = 8.615 | 8.616 | 8.628 Mbytes
   Step         PotEng         TotEng           Lx             Ly             Lz           Volume         Press           Pxx            Pyy            Pzz      
        32  -41.747051     -41.747051      4.1710452      4.1710452      4.1710452      72.566253     -34208.589     -34208.589     -34208.589     -34208.589    
        33  -41.747051     -41.747051      4.1710452      4.1710452      4.1710452      72.566253     -34208.589     -34208.589     -34208.589     -34208.589    
Loop time of 0.000434 on 8 procs for 1 steps with 8 atoms

Performance: 199.078 ns/day, 0.121 hours/ns, 2304.147 timesteps/s, 18.433 katom-step/s
0.0% CPU use with 8 MPI tasks x 1 OpenMP threads

MPI task timing breakdown:
Section |  min time  |  avg time  |  max time  |%varavg| %total
---------------------------------------------------------------
Pair    | 0.000365   | 0.00037075 | 0.000381   |   0.0 | 85.43
Neigh   | 0          | 0          | 0          |   0.0 |  0.00
Comm    | 2.4e-05    | 3.375e-05  | 4e-05      |   0.0 |  7.78
Output  | 1.4e-05    | 1.6875e-05 | 2.5e-05    |   0.0 |  3.89
Modify  | 0          | 5e-07      | 1e-06      |   0.0 |  0.12
Other   |            | 1.213e-05  |            |       |  2.79

Nlocal:              1 ave           1 max           1 min
Histogram: 8 0 0 0 0 0 0 0 0 0
Nghost:            511 ave         511 max         511 min
Histogram: 8 0 0 0 0 0 0 0 0 0
Neighs:             73 ave          73 max          73 min
Histogram: 8 0 0 0 0 0 0 0 0 0
FullNghs:          146 ave         146 max         146 min
Histogram: 8 0 0 0 0 0 0 0 0 0

Total # of neighbors = 1168
Ave neighs/atom = 146
Neighbor list builds = 0
Dangerous builds = 0
variable  natoms equal "count(all)"
variable xlength equal "lx"
variable  volume equal "vol"
variable  etotal equal "etotal"
variable    ecoh equal "pe/v_natoms"
print "${xlength}, ${volume}, ${etotal}, ${ecoh}" append lattice_cohesive_energy.txt screen no

next i
jump SELF loop

change_box all x scale 1.0025 y scale 1.0025 z scale 1.0025 remap
Changing box ...
  orthogonal box = (-0.020736426 -0.01552262 -0.01552262) to (4.1607364 4.1555226 4.1555226)
  orthogonal box = (-0.020736426 -0.020736426 -0.01552262) to (4.1607364 4.1607364 4.1555226)
  orthogonal box = (-0.020736426 -0.020736426 -0.020736426) to (4.1607364 4.1607364 4.1607364)

run 1
WARNING: No fixes with time integration, atoms won't move (src/verlet.cpp:60)
Per MPI rank memory allocation (min/avg/max) = 8.615 | 8.616 | 8.628 Mbytes
   Step         PotEng         TotEng           Lx             Ly             Lz           Volume         Press           Pxx            Pyy            Pzz      
        33  -41.732887     -41.732887      4.1814729      4.1814729      4.1814729      73.111862     -48881.317     -48881.317     -48881.317     -48881.317    
        34  -41.732887     -41.732887      4.1814729      4.1814729      4.1814729      73.111862     -48881.317     -48881.317     -48881.317     -48881.317    
Loop time of 0.000186875 on 8 procs for 1 steps with 8 atoms

Performance: 462.341 ns/day, 0.052 hours/ns, 5351.171 timesteps/s, 42.809 katom-step/s
0.0% CPU use with 8 MPI tasks x 1 OpenMP threads

MPI task timing breakdown:
Section |  min time  |  avg time  |  max time  |%varavg| %total
---------------------------------------------------------------
Pair    | 0.000129   | 0.00013263 | 0.000142   |   0.0 | 70.97
Neigh   | 0          | 0          | 0          |   0.0 |  0.00
Comm    | 2.4e-05    | 3.425e-05  | 3.9e-05    |   0.0 | 18.33
Output  | 1.3e-05    | 1.4125e-05 | 1.5e-05    |   0.0 |  7.56
Modify  | 0          | 1.25e-07   | 1e-06      |   0.0 |  0.07
Other   |            | 5.75e-06   |            |       |  3.08

Nlocal:              1 ave           1 max           1 min
Histogram: 8 0 0 0 0 0 0 0 0 0
Nghost:            511 ave         511 max         511 min
Histogram: 8 0 0 0 0 0 0 0 0 0
Neighs:             61 ave          61 max          61 min
Histogram: 8 0 0 0 0 0 0 0 0 0
FullNghs:          122 ave         122 max         122 min
Histogram: 8 0 0 0 0 0 0 0 0 0

Total # of neighbors = 976
Ave neighs/atom = 122
Neighbor list builds = 0
Dangerous builds = 0
variable  natoms equal "count(all)"
variable xlength equal "lx"
variable  volume equal "vol"
variable  etotal equal "etotal"
variable    ecoh equal "pe/v_natoms"
print "${xlength}, ${volume}, ${etotal}, ${ecoh}" append lattice_cohesive_energy.txt screen no

next i
jump SELF loop

change_box all x scale 1.0025 y scale 1.0025 z scale 1.0025 remap
Changing box ...
  orthogonal box = (-0.025963267 -0.020736426 -0.020736426) to (4.1659633 4.1607364 4.1607364)
  orthogonal box = (-0.025963267 -0.025963267 -0.020736426) to (4.1659633 4.1659633 4.1607364)
  orthogonal box = (-0.025963267 -0.025963267 -0.025963267) to (4.1659633 4.1659633 4.1659633)

run 1
WARNING: No fixes with time integration, atoms won't move (src/verlet.cpp:60)
Per MPI rank memory allocation (min/avg/max) = 8.615 | 8.616 | 8.628 Mbytes
[...]
Pair    | 0.000113   | 0.00011538 | 0.000118   |   0.0 | 74.98
Neigh   | 0          | 0          | 0          |   0.0 |  0.00
Comm    | 2e-05      | 2.2375e-05 | 2.5e-05    |   0.0 | 14.54
Output  | 1.1e-05    | 1.1125e-05 | 1.2e-05    |   0.0 |  7.23
Modify  | 0          | 0          | 0          |   0.0 |  0.00
Other   |            | 5e-06      |            |       |  3.25

Nlocal:              1 ave           1 max           1 min
Histogram: 8 0 0 0 0 0 0 0 0 0
Nghost:            511 ave         511 max         511 min
Histogram: 8 0 0 0 0 0 0 0 0 0
Neighs:             61 ave          61 max          61 min
Histogram: 8 0 0 0 0 0 0 0 0 0
FullNghs:          122 ave         122 max         122 min
Histogram: 8 0 0 0 0 0 0 0 0 0

Total # of neighbors = 976
Ave neighs/atom = 122
Neighbor list builds = 0
Dangerous builds = 0
variable  natoms equal "count(all)"
variable xlength equal "lx"
variable  volume equal "vol"
variable  etotal equal "etotal"
variable    ecoh equal "pe/v_natoms"
print "${xlength}, ${volume}, ${etotal}, ${ecoh}" append lattice_cohesive_energy.txt screen no

next i
jump SELF loop

change_box all x scale 1.0025 y scale 1.0025 z scale 1.0025 remap
Changing box ...
  orthogonal box = (-0.10052606 -0.095113281 -0.095113281) to (4.2405261 4.2351133 4.2351133)
  orthogonal box = (-0.10052606 -0.10052606 -0.095113281) to (4.2405261 4.2405261 4.2351133)
  orthogonal box = (-0.10052606 -0.10052606 -0.10052606) to (4.2405261 4.2405261 4.2405261)

run 1
WARNING: No fixes with time integration, atoms won't move (src/verlet.cpp:60)
Per MPI rank memory allocation (min/avg/max) = 8.615 | 8.616 | 8.628 Mbytes
   Step         PotEng         TotEng           Lx             Ly             Lz           Volume         Press           Pxx            Pyy            Pzz      
        48  -40.955899     -40.955899      4.3410521      4.3410521      4.3410521      81.805971     -219822.93     -219822.93     -219822.93     -219822.93    
        49  -40.955899     -40.955899      4.3410521      4.3410521      4.3410521      81.805971     -219822.93     -219822.93     -219822.93     -219822.93    
Loop time of 0.000144 on 8 procs for 1 steps with 8 atoms

Performance: 600.000 ns/day, 0.040 hours/ns, 6944.444 timesteps/s, 55.556 katom-step/s
0.0% CPU use with 8 MPI tasks x 1 OpenMP threads

MPI task timing breakdown:
Section |  min time  |  avg time  |  max time  |%varavg| %total
---------------------------------------------------------------
Pair    | 0.000109   | 0.00010962 | 0.00011    |   0.0 | 76.13
Neigh   | 0          | 0          | 0          |   0.0 |  0.00
Comm    | 1.8e-05    | 1.9e-05    | 2e-05      |   0.0 | 13.19
Output  | 1.1e-05    | 1.1e-05    | 1.1e-05    |   0.0 |  7.64
Modify  | 0          | 1.25e-07   | 1e-06      |   0.0 |  0.09
Other   |            | 4.25e-06   |            |       |  2.95

Nlocal:              1 ave           1 max           1 min
Histogram: 8 0 0 0 0 0 0 0 0 0
Nghost:            511 ave         511 max         511 min
Histogram: 8 0 0 0 0 0 0 0 0 0
Neighs:             61 ave          61 max          61 min
Histogram: 8 0 0 0 0 0 0 0 0 0
FullNghs:          122 ave         122 max         122 min
Histogram: 8 0 0 0 0 0 0 0 0 0

Total # of neighbors = 976
Ave neighs/atom = 122
Neighbor list builds = 0
Dangerous builds = 0
variable  natoms equal "count(all)"
variable xlength equal "lx"
variable  volume equal "vol"
variable  etotal equal "etotal"
variable    ecoh equal "pe/v_natoms"
print "${xlength}, ${volume}, ${etotal}, ${ecoh}" append lattice_cohesive_energy.txt screen no

next i
jump SELF loop

change_box all x scale 1.0025 y scale 1.0025 z scale 1.0025 remap
Changing box ...
  orthogonal box = (-0.10595238 -0.10052606 -0.10052606) to (4.2459524 4.2405261 4.2405261)
  orthogonal box = (-0.10595238 -0.10595238 -0.10052606) to (4.2459524 4.2459524 4.2405261)
  orthogonal box = (-0.10595238 -0.10595238 -0.10595238) to (4.2459524 4.2459524 4.2459524)

run 1
WARNING: No fixes with time integration, atoms won't move (src/verlet.cpp:60)
Per MPI rank memory allocation (min/avg/max) = 8.615 | 8.616 | 8.628 Mbytes
   Step         PotEng         TotEng           Lx             Ly             Lz           Volume         Press           Pxx            Pyy            Pzz      
        49  -40.869867     -40.869867      4.3519048      4.3519048      4.3519048      82.421051     -228308        -228308        -228308        -228308       
        50  -40.869867     -40.869867      4.3519048      4.3519048      4.3519048      82.421051     -228308        -228308        -228308        -228308       
Loop time of 0.000143875 on 8 procs for 1 steps with 8 atoms

Performance: 600.521 ns/day, 0.040 hours/ns, 6950.478 timesteps/s, 55.604 katom-step/s
0.0% CPU use with 8 MPI tasks x 1 OpenMP threads

MPI task timing breakdown:
Section |  min time  |  avg time  |  max time  |%varavg| %total
---------------------------------------------------------------
Pair    | 0.000108   | 0.00010862 | 0.000109   |   0.0 | 75.50
Neigh   | 0          | 0          | 0          |   0.0 |  0.00
Comm    | 2e-05      | 2.0375e-05 | 2.1e-05    |   0.0 | 14.16
Output  | 1e-05      | 1.0875e-05 | 1.1e-05    |   0.0 |  7.56
Modify  | 0          | 2.5e-07    | 1e-06      |   0.0 |  0.17
Other   |            | 3.75e-06   |            |       |  2.61

Nlocal:              1 ave           1 max           1 min
Histogram: 8 0 0 0 0 0 0 0 0 0
Nghost:            511 ave         511 max         511 min
Histogram: 8 0 0 0 0 0 0 0 0 0
Neighs:             61 ave          61 max          61 min
Histogram: 8 0 0 0 0 0 0 0 0 0
FullNghs:          122 ave         122 max         122 min
Histogram: 8 0 0 0 0 0 0 0 0 0

Total # of neighbors = 976
Ave neighs/atom = 122
Neighbor list builds = 0
Dangerous builds = 0
variable  natoms equal "count(all)"
variable xlength equal "lx"
variable  volume equal "vol"
variable  etotal equal "etotal"
variable    ecoh equal "pe/v_natoms"
print "${xlength}, ${volume}, ${etotal}, ${ecoh}" append lattice_cohesive_energy.txt screen no

next i
jump SELF loop

change_box all x scale 1.0025 y scale 1.0025 z scale 1.0025 remap
Changing box ...
  orthogonal box = (-0.11139226 -0.10595238 -0.10595238) to (4.2513923 4.2459524 4.2459524)
  orthogonal box = (-0.11139226 -0.11139226 -0.10595238) to (4.2513923 4.2513923 4.2459524)
  orthogonal box = (-0.11139226 -0.11139226 -0.11139226) to (4.2513923 4.2513923 4.2513923)

run 1
WARNING: No fixes with time integration, atoms won't move (src/verlet.cpp:60)
Per MPI rank memory allocation (min/avg/max) = 8.615 | 8.616 | 8.628 Mbytes
   Step         PotEng         TotEng           Lx             Ly             Lz           Volume         Press           Pxx            Pyy            Pzz      
        50  -40.779969     -40.779969      4.3627845      4.3627845      4.3627845      83.040755     -236471.74     -236471.74     -236471.74     -236471.74    
        51  -40.779969     -40.779969      4.3627845      4.3627845      4.3627845      83.040755     -236471.74     -236471.74     -236471.74     -236471.74    
Loop time of 0.000145 on 8 procs for 1 steps with 8 atoms

Performance: 595.862 ns/day, 0.040 hours/ns, 6896.552 timesteps/s, 55.172 katom-step/s
0.0% CPU use with 8 MPI tasks x 1 OpenMP threads

MPI task timing breakdown:
Section |  min time  |  avg time  |  max time  |%varavg| %total
---------------------------------------------------------------
Pair    | 0.000108   | 0.00010888 | 0.00011    |   0.0 | 75.09
Neigh   | 0          | 0          | 0          |   0.0 |  0.00
Comm    | 2e-05      | 2.15e-05   | 2.2e-05    |   0.0 | 14.83
Output  | 1e-05      | 1.025e-05  | 1.1e-05    |   0.0 |  7.07
Modify  | 0          | 3.75e-07   | 1e-06      |   0.0 |  0.26
Other   |            | 4e-06      |            |       |  2.76

Nlocal:              1 ave           1 max           1 min
Histogram: 8 0 0 0 0 0 0 0 0 0
Nghost:            511 ave         511 max         511 min
Histogram: 8 0 0 0 0 0 0 0 0 0
Neighs:             61 ave          61 max          61 min
Histogram: 8 0 0 0 0 0 0 0 0 0
FullNghs:          122 ave         122 max         122 min
Histogram: 8 0 0 0 0 0 0 0 0 0

Total # of neighbors = 976
Ave neighs/atom = 122
Neighbor list builds = 0
Dangerous builds = 0
variable  natoms equal "count(all)"
variable xlength equal "lx"
variable  volume equal "vol"
variable  etotal equal "etotal"
variable    ecoh equal "pe/v_natoms"
print "${xlength}, ${volume}, ${etotal}, ${ecoh}" append lattice_cohesive_energy.txt screen no

next i
jump SELF loop

change_box all x scale 1.0025 y scale 1.0025 z scale 1.0025 remap
Changing box ...
  orthogonal box = (-0.11684574 -0.11139226 -0.11139226) to (4.2568457 4.2513923 4.2513923)
  orthogonal box = (-0.11684574 -0.11684574 -0.11139226) to (4.2568457 4.2568457 4.2513923)
  orthogonal box = (-0.11684574 -0.11684574 -0.11684574) to (4.2568457 4.2568457 4.2568457)

run 1
WARNING: No fixes with time integration, atoms won't move (src/verlet.cpp:60)
Per MPI rank memory allocation (min/avg/max) = 8.615 | 8.616 | 8.628 Mbytes
   Step         PotEng         TotEng           Lx             Ly             Lz           Volume         Press           Pxx            Pyy            Pzz      
        51  -40.686275     -40.686275      4.3736915      4.3736915      4.3736915      83.665119     -244321.14     -244321.14     -244321.14     -244321.14    
        52  -40.686275     -40.686275      4.3736915      4.3736915      4.3736915      83.665119     -244321.14     -244321.14     -244321.14     -244321.14    
Loop time of 0.00014475 on 8 procs for 1 steps with 8 atoms

Performance: 596.891 ns/day, 0.040 hours/ns, 6908.463 timesteps/s, 55.268 katom-step/s
0.0% CPU use with 8 MPI tasks x 1 OpenMP threads

MPI task timing breakdown:
Section |  min time  |  avg time  |  max time  |%varavg| %total
---------------------------------------------------------------
Pair    | 0.000106   | 0.00010762 | 0.00011    |   0.0 | 74.35
Neigh   | 0          | 0          | 0          |   0.0 |  0.00
Comm    | 2e-05      | 2.275e-05  | 2.5e-05    |   0.0 | 15.72
Output  | 1e-05      | 1.0625e-05 | 1.2e-05    |   0.0 |  7.34
Modify  | 0          | 1.25e-07   | 1e-06      |   0.0 |  0.09
Other   |            | 3.625e-06  |            |       |  2.50

Nlocal:              1 ave           1 max           1 min
Histogram: 8 0 0 0 0 0 0 0 0 0
Nghost:            511 ave         511 max         511 min
Histogram: 8 0 0 0 0 0 0 0 0 0
Neighs:             61 ave          61 max          61 min
Histogram: 8 0 0 0 0 0 0 0 0 0
FullNghs:          122 ave         122 max         122 min
Histogram: 8 0 0 0 0 0 0 0 0 0

Total # of neighbors = 976
Ave neighs/atom = 122
Neighbor list builds = 0
Dangerous builds = 0
variable  natoms equal "count(all)"
variable xlength equal "lx"
variable  volume equal "vol"
variable  etotal equal "etotal"
variable    ecoh equal "pe/v_natoms"
print "${xlength}, ${volume}, ${etotal}, ${ecoh}" append lattice_cohesive_energy.txt screen no

next i
jump SELF loop

change_box all x scale 1.0025 y scale 1.0025 z scale 1.0025 remap
Changing box ...
  orthogonal box = (-0.12231286 -0.11684574 -0.11684574) to (4.2623129 4.2568457 4.2568457)
  orthogonal box = (-0.12231286 -0.12231286 -0.11684574) to (4.2623129 4.2623129 4.2568457)
  orthogonal box = (-0.12231286 -0.12231286 -0.12231286) to (4.2623129 4.2623129 4.2623129)

run 1
WARNING: No fixes with time integration, atoms won't move (src/verlet.cpp:60)
Per MPI rank memory allocation (min/avg/max) = 8.615 | 8.616 | 8.628 Mbytes
   Step         PotEng         TotEng           Lx             Ly             Lz           Volume         Press           Pxx            Pyy            Pzz      
        52  -40.588855     -40.588855      4.3846257      4.3846257      4.3846257      84.294178     -251863.07     -251863.07     -251863.07     -251863.07    
        53  -40.588855     -40.588855      4.3846257      4.3846257      4.3846257      84.294178     -251863.07     -251863.07     -251863.07     -251863.07    
Loop time of 0.000144 on 8 procs for 1 steps with 8 atoms

Performance: 600.000 ns/day, 0.040 hours/ns, 6944.444 timesteps/s, 55.556 katom-step/s
0.0% CPU use with 8 MPI tasks x 1 OpenMP threads

MPI task timing breakdown:
Section |  min time  |  avg time  |  max time  |%varavg| %total
---------------------------------------------------------------
Pair    | 0.000108   | 0.00010925 | 0.000111   |   0.0 | 75.87
Neigh   | 0          | 0          | 0          |   0.0 |  0.00
Comm    | 1.8e-05    | 1.9625e-05 | 2e-05      |   0.0 | 13.63
Output  | 1e-05      | 1.0375e-05 | 1.1e-05    |   0.0 |  7.20
Modify  | 0          | 3.75e-07   | 1e-06      |   0.0 |  0.26
Other   |            | 4.375e-06  |            |       |  3.04

Nlocal:              1 ave           1 max           1 min
Histogram: 8 0 0 0 0 0 0 0 0 0
Nghost:            511 ave         511 max         511 min
Histogram: 8 0 0 0 0 0 0 0 0 0
Neighs:             61 ave          61 max          61 min
Histogram: 8 0 0 0 0 0 0 0 0 0
FullNghs:          122 ave         122 max         122 min
Histogram: 8 0 0 0 0 0 0 0 0 0

Total # of neighbors = 976
Ave neighs/atom = 122
Neighbor list builds = 0
Dangerous builds = 0
variable  natoms equal "count(all)"
variable xlength equal "lx"
variable  volume equal "vol"
variable  etotal equal "etotal"
variable    ecoh equal "pe/v_natoms"
print "${xlength}, ${volume}, ${etotal}, ${ecoh}" append lattice_cohesive_energy.txt screen no

next i
jump SELF loop

change_box all x scale 1.0025 y scale 1.0025 z scale 1.0025 remap
Changing box ...
  orthogonal box = (-0.12779364 -0.12231286 -0.12231286) to (4.2677936 4.2623129 4.2623129)
  orthogonal box = (-0.12779364 -0.12779364 -0.12231286) to (4.2677936 4.2677936 4.2623129)
  orthogonal box = (-0.12779364 -0.12779364 -0.12779364) to (4.2677936 4.2677936 4.2677936)

run 1
WARNING: No fixes with time integration, atoms won't move (src/verlet.cpp:60)
Per MPI rank memory allocation (min/avg/max) = 8.615 | 8.616 | 8.628 Mbytes
   Step         PotEng         TotEng           Lx             Ly             Lz           Volume         Press           Pxx            Pyy            Pzz      
        53  -40.48778      -40.48778       4.3955873      4.3955873      4.3955873      84.927966     -259104.3      -259104.3      -259104.3      -259104.3     
        54  -40.48778      -40.48778       4.3955873      4.3955873      4.3955873      84.927966     -259104.3      -259104.3      -259104.3      -259104.3     
Loop time of 0.0001955 on 8 procs for 1 steps with 8 atoms

Performance: 441.944 ns/day, 0.054 hours/ns, 5115.090 timesteps/s, 40.921 katom-step/s
0.0% CPU use with 8 MPI tasks x 1 OpenMP threads

MPI task timing breakdown:
Section |  min time  |  avg time  |  max time  |%varavg| %total
---------------------------------------------------------------
Pair    | 0.00013    | 0.00013475 | 0.000148   |   0.0 | 68.93
Neigh   | 0          | 0          | 0          |   0.0 |  0.00
Comm    | 2.6e-05    | 3.85e-05   | 4.4e-05    |   0.0 | 19.69
Output  | 1.4e-05    | 1.5375e-05 | 1.6e-05    |   0.0 |  7.86
Modify  | 0          | 3.75e-07   | 1e-06      |   0.0 |  0.19
Other   |            | 6.5e-06    |            |       |  3.32

Nlocal:              1 ave           1 max           1 min
Histogram: 8 0 0 0 0 0 0 0 0 0
Nghost:            511 ave         511 max         511 min
Histogram: 8 0 0 0 0 0 0 0 0 0
Neighs:             61 ave          61 max          61 min
Histogram: 8 0 0 0 0 0 0 0 0 0
FullNghs:          122 ave         122 max         122 min
Histogram: 8 0 0 0 0 0 0 0 0 0

Total # of neighbors = 976
Ave neighs/atom = 122
Neighbor list builds = 0
Dangerous builds = 0
variable  natoms equal "count(all)"
variable xlength equal "lx"
variable  volume equal "vol"
variable  etotal equal "etotal"
variable    ecoh equal "pe/v_natoms"
print "${xlength}, ${volume}, ${etotal}, ${ecoh}" append lattice_cohesive_energy.txt screen no

next i
jump SELF loop

change_box all x scale 1.0025 y scale 1.0025 z scale 1.0025 remap
Changing box ...
  orthogonal box = (-0.13328812 -0.12779364 -0.12779364) to (4.2732881 4.2677936 4.2677936)
  orthogonal box = (-0.13328812 -0.13328812 -0.12779364) to (4.2732881 4.2732881 4.2677936)
  orthogonal box = (-0.13328812 -0.13328812 -0.13328812) to (4.2732881 4.2732881 4.2732881)

run 1
WARNING: No fixes with time integration, atoms won't move (src/verlet.cpp:60)
Per MPI rank memory allocation (min/avg/max) = 8.591 | 8.593 | 8.605 Mbytes
   Step         PotEng         TotEng           Lx             Ly             Lz           Volume         Press           Pxx            Pyy            Pzz      
        54  -40.383117     -40.383117      4.4065762      4.4065762      4.4065762      85.566519     -266051.49     -266051.49     -266051.49     -266051.49    
        55  -40.383117     -40.383117      4.4065762      4.4065762      4.4065762      85.566519     -266051.49     -266051.49     -266051.49     -266051.49    
Loop time of 0.00014225 on 8 procs for 1 steps with 8 atoms

Performance: 607.381 ns/day, 0.040 hours/ns, 7029.877 timesteps/s, 56.239 katom-step/s
1373.0% CPU use with 8 MPI tasks x 1 OpenMP threads

MPI task timing breakdown:
Section |  min time  |  avg time  |  max time  |%varavg| %total
---------------------------------------------------------------
Pair    | 8.5e-05    | 8.8625e-05 | 9.4e-05    |   0.0 | 62.30
Neigh   | 0          | 0          | 0          |   0.0 |  0.00
Comm    | 1.8e-05    | 2.25e-05   | 2.7e-05    |   0.0 | 15.82
Output  | 2.3e-05    | 2.4625e-05 | 2.7e-05    |   0.0 | 17.31
Modify  | 0          | 2.5e-07    | 1e-06      |   0.0 |  0.18
Other   |            | 6.25e-06   |            |       |  4.39

Nlocal:              1 ave           1 max           1 min
Histogram: 8 0 0 0 0 0 0 0 0 0
Nghost:            215 ave         215 max         215 min
Histogram: 8 0 0 0 0 0 0 0 0 0
Neighs:             46 ave          46 max          46 min
Histogram: 8 0 0 0 0 0 0 0 0 0
FullNghs:           92 ave          92 max          92 min
Histogram: 8 0 0 0 0 0 0 0 0 0

Total # of neighbors = 736
Ave neighs/atom = 92
Neighbor list builds = 0
Dangerous builds = 0
variable  natoms equal "count(all)"
variable xlength equal "lx"
variable  volume equal "vol"
variable  etotal equal "etotal"
variable    ecoh equal "pe/v_natoms"
print "${xlength}, ${volume}, ${etotal}, ${ecoh}" append lattice_cohesive_energy.txt screen no

next i
jump SELF loop

print "-------------------------------------------------------------"
-------------------------------------------------------------
print "Show results of 1st step (Running Minimization)"
Show results of 1st step (Running Minimization)
print "The number of atoms = ${natoms};"
The number of atoms = 8;
print "The lattice constant, x (Angstoms) = ${x0};"
The lattice constant, x (Angstoms) = 4.40657624267056;
print "The lattice constant, y (Angstoms) = ${y0};"
The lattice constant, y (Angstoms) = 4.40657624267056;
print "The lattice constant, z (Angstoms) = ${z0};"
The lattice constant, z (Angstoms) = 4.40657624267056;
print "The volume (Angstoms^3) = ${v0};"
The volume (Angstoms^3) = 85.5665193186819;
print "The total energy (eV) = ${etot0};"
The total energy (eV) = -40.3831168476938;
print "The cohesive energy (eV/atom) = ${ecoh0};"
The cohesive energy (eV/atom) = -5.04788960596172;
print "-------------------------------------------------------------"
-------------------------------------------------------------
print "Simulations completed !"
Simulations completed !
Total wall time: 0:00:00
