LAMMPS (22 Dec 2022)
  using 1 OpenMP thread(s) per MPI task
Loaded 1 plugins from C:\Program Files\LAMMPS 64-bit 23Jun2022\plugins
Loaded 0 plugins from C:\Program Files\LAMMPS 64-bit 23Jun2022-MPI\plugins
Loaded 1 plugins from C:\Program Files\LAMMPS 64-bit 22Dec2022-MSMPI\plugins
Loaded 1 plugins from C:\Program Files\LAMMPS 64-bit 28Mar2023-MPI\plugins
#------------------------------------------------------------------------------------------
# LAMMPS 64-bit 22Dec2022-MSMPI
#------------------------------------------------------------------------------------------
clear
  using 1 OpenMP thread(s) per MPI task
Loaded 1 plugins from C:\Program Files\LAMMPS 64-bit 23Jun2022\plugins
Loaded 0 plugins from C:\Program Files\LAMMPS 64-bit 23Jun2022-MPI\plugins
Loaded 1 plugins from C:\Program Files\LAMMPS 64-bit 22Dec2022-MSMPI\plugins
Loaded 1 plugins from C:\Program Files\LAMMPS 64-bit 28Mar2023-MPI\plugins
#echo both
# ---------- Initializing Simulation ---------------------------------
units metal
dimension 3
boundary p p p
atom_style atomic
atom_modify map array

#read_data ./../../TiN.data
#read_data ./../../VN.data
read_data ./../../CrN.data
Reading data file ...
  orthogonal box = (0 0 0) to (4.14 4.14 4.14)
  2 by 2 by 2 MPI processor grid
  reading atoms ...
  8 atoms
  read_data CPU = 0.001 seconds
#read_data ./../../FeN.data

replicate 1 1 1
Replication is creating a 1x1x1 = 1 times larger system...
  orthogonal box = (0 0 0) to (4.14 4.14 4.14)
  2 by 2 by 2 MPI processor grid
  8 atoms
  replicate CPU = 0.000 seconds

# ---------- Defining the Interatomic Potential ---------------------
pair_style meam
#pair_coeff * * ./../../library.meam Ti V Cr Fe N ./../../TiVCrFeN.meam Ti N
#pair_coeff * * ./../../library.meam Ti V Cr Fe N ./../../TiVCrFeN.meam V N
pair_coeff * * ./../../library.meam Ti V Cr Fe N ./../../TiVCrFeN.meam Cr N
#pair_coeff * * ./../../library.meam Ti V Cr Fe N ./../../TiVCrFeN.meam Fe N

# ---------- Running Minimization -------------------------------------
fix 1 all box/relax iso 0.0 vmax 0.001

thermo 10
thermo_style custom step pe etotal lx ly lz vol press pxx pyy pzz

min_style cg
minimize 1e-25 1e-25 5000 10000
Neighbor list info ...
  update: every = 1 steps, delay = 0 steps, check = yes
  max neighbors/atom: 2000, page size: 100000
  master list distance cutoff = 6.6
  ghost atom cutoff = 6.6
  binsize = 3.3, bins = 2 2 2
  2 neighbor lists, perpetual/occasional/extra = 2 0 0
  (1) pair meam, perpetual
      attributes: full, newton on
      pair build: full/bin/atomonly
      stencil: full/bin/3d
      bin: standard
  (2) pair meam, perpetual, half/full from (1)
      attributes: half, newton on
      pair build: halffull/newton
      stencil: none
      bin: none
Per MPI rank memory allocation (min/avg/max) = 9.684 | 9.684 | 9.684 Mbytes
   Step         PotEng         TotEng           Lx             Ly             Lz           Volume         Press           Pxx            Pyy            Pzz      
         0  -41.758404     -41.758404      4.14           4.14           4.14           70.957944      12468.741      12468.741      12468.741      12468.741    
         5  -41.76         -41.76          4.148          4.148          4.148          71.370092      7.6867396e-10  7.7137398e-10  7.6265085e-10  7.7199706e-10
Loop time of 0.0021725 on 8 procs for 5 steps with 8 atoms

0.0% CPU use with 8 MPI tasks x 1 OpenMP threads

Minimization stats:
  Stopping criterion = energy tolerance
  Energy initial, next-to-last, final = 
     -41.7584039925616  -41.7599999985597  -41.7599999985597
  Force two-norm initial, final = 1.6566643 1.0252548e-13
  Force max component initial, final = 1.6566643 1.0252527e-13
  Final line search alpha, max atom move = 1 1.0252527e-13
  Iterations, force evaluations = 5 9

MPI task timing breakdown:
Section |  min time  |  avg time  |  max time  |%varavg| %total
---------------------------------------------------------------
Pair    | 0.001481   | 0.0014937  | 0.001509   |   0.0 | 68.76
Neigh   | 0          | 0          | 0          |   0.0 |  0.00
Comm    | 0.000253   | 0.00027162 | 0.00028    |   0.0 | 12.50
Output  | 0          | 0          | 0          |   0.0 |  0.00
Modify  | 0          | 0          | 0          |   0.0 |  0.00
Other   |            | 0.0004071  |            |       | 18.74

Nlocal:              1 ave           1 max           1 min
Histogram: 8 0 0 0 0 0 0 0 0 0
Nghost:            511 ave         511 max         511 min
Histogram: 8 0 0 0 0 0 0 0 0 0
Neighs:             73 ave          73 max          73 min
Histogram: 8 0 0 0 0 0 0 0 0 0
FullNghs:          146 ave         146 max         146 min
Histogram: 8 0 0 0 0 0 0 0 0 0

Total # of neighbors = 1168
Ave neighs/atom = 146
Neighbor list builds = 0
Dangerous builds = 0

variable  natoms equal "count(all)"
variable      x0 equal "lx"
variable      y0 equal "ly"
variable      z0 equal "lz"
variable      v0 equal "vol"
variable   etot0 equal "etotal"
variable   ecoh0 equal "pe/v_natoms"

unfix 1
#write_data ./../step2_elastic/data.in

# ---------- For Equation of States -------------------------------------
change_box all x scale 0.94 y scale 0.94 z scale 0.94 remap
Changing box ...
  orthogonal box = (0.12043998 -0.0040000194 -0.0040000194) to (4.01956 4.144 4.144)
  orthogonal box = (0.12043998 0.12043998 -0.0040000194) to (4.01956 4.01956 4.144)
  orthogonal box = (0.12043998 0.12043998 0.12043998) to (4.01956 4.01956 4.01956)
run 1
WARNING: No fixes with time integration, atoms won't move (src/verlet.cpp:60)
WARNING: Proc sub-domain size < neighbor skin, could lead to lost atoms (src/domain.cpp:966)
Per MPI rank memory allocation (min/avg/max) = 8.559 | 8.559 | 8.559 Mbytes
   Step         PotEng         TotEng           Lx             Ly             Lz           Volume         Press           Pxx            Pyy            Pzz      
         5  -39.916231     -39.916231      3.89912        3.89912        3.89912        59.278856      568573.02      568573.02      568573.02      568573.02    
         6  -39.916231     -39.916231      3.89912        3.89912        3.89912        59.278856      568573.02      568573.02      568573.02      568573.02    
Loop time of 0.000174 on 8 procs for 1 steps with 8 atoms

Performance: 496.552 ns/day, 0.048 hours/ns, 5747.126 timesteps/s, 45.977 katom-step/s
0.0% CPU use with 8 MPI tasks x 1 OpenMP threads

MPI task timing breakdown:
Section |  min time  |  avg time  |  max time  |%varavg| %total
---------------------------------------------------------------
Pair    | 0.000131   | 0.00013425 | 0.000139   |   0.0 | 77.16
Neigh   | 0          | 0          | 0          |   0.0 |  0.00
Comm    | 1.9e-05    | 2.375e-05  | 2.7e-05    |   0.0 | 13.65
Output  | 1.1e-05    | 1.1625e-05 | 1.2e-05    |   0.0 |  6.68
Modify  | 0          | 5e-07      | 1e-06      |   0.0 |  0.29
Other   |            | 3.875e-06  |            |       |  2.23

Nlocal:              1 ave           1 max           1 min
Histogram: 8 0 0 0 0 0 0 0 0 0
Nghost:            511 ave         511 max         511 min
Histogram: 8 0 0 0 0 0 0 0 0 0
Neighs:             85 ave          85 max          85 min
Histogram: 8 0 0 0 0 0 0 0 0 0
FullNghs:          170 ave         170 max         170 min
Histogram: 8 0 0 0 0 0 0 0 0 0

Total # of neighbors = 1360
Ave neighs/atom = 170
Neighbor list builds = 0
Dangerous builds = 0
print "# Lattice constant (Angstroms), Volume (Angstrom), Total energy (eV), Cohesive energy (eV/atom)" file lattice_cohesive_energy.txt screen no


# Loop over lattice constants
variable i loop 49 # Number of steps
label loop

change_box all x scale 1.0025 y scale 1.0025 z scale 1.0025 remap
Changing box ...
  orthogonal box = (0.11556608 0.12043998 0.12043998) to (4.0244339 4.01956 4.01956)
  orthogonal box = (0.11556608 0.11556608 0.12043998) to (4.0244339 4.0244339 4.01956)
  orthogonal box = (0.11556608 0.11556608 0.11556608) to (4.0244339 4.0244339 4.0244339)

run 1
WARNING: No fixes with time integration, atoms won't move (src/verlet.cpp:60)
WARNING: Proc sub-domain size < neighbor skin, could lead to lost atoms (src/domain.cpp:966)
Per MPI rank memory allocation (min/avg/max) = 8.559 | 8.559 | 8.559 Mbytes
   Step         PotEng         TotEng           Lx             Ly             Lz           Volume         Press           Pxx            Pyy            Pzz      
         6  -40.070102     -40.070102      3.9088678      3.9088678      3.9088678      59.72456       537839.21      537839.21      537839.21      537839.21    
         7  -40.070102     -40.070102      3.9088678      3.9088678      3.9088678      59.72456       537839.21      537839.21      537839.21      537839.21    
Loop time of 0.000289875 on 8 procs for 1 steps with 8 atoms

Performance: 298.060 ns/day, 0.081 hours/ns, 3449.763 timesteps/s, 27.598 katom-step/s
0.0% CPU use with 8 MPI tasks x 1 OpenMP threads

MPI task timing breakdown:
Section |  min time  |  avg time  |  max time  |%varavg| %total
---------------------------------------------------------------
Pair    | 0.000187   | 0.00019787 | 0.000228   |   0.0 | 68.26
Neigh   | 0          | 0          | 0          |   0.0 |  0.00
Comm    | 3.4e-05    | 6.275e-05  | 7.5e-05    |   0.0 | 21.65
Output  | 1.7e-05    | 1.9625e-05 | 2.1e-05    |   0.0 |  6.77
Modify  | 0          | 1.25e-07   | 1e-06      |   0.0 |  0.04
Other   |            | 9.5e-06    |            |       |  3.28

Nlocal:              1 ave           1 max           1 min
Histogram: 8 0 0 0 0 0 0 0 0 0
Nghost:            511 ave         511 max         511 min
Histogram: 8 0 0 0 0 0 0 0 0 0
Neighs:             85 ave          85 max          85 min
Histogram: 8 0 0 0 0 0 0 0 0 0
FullNghs:          170 ave         170 max         170 min
Histogram: 8 0 0 0 0 0 0 0 0 0

Total # of neighbors = 1360
Ave neighs/atom = 170
Neighbor list builds = 0
Dangerous builds = 0
variable  natoms equal "count(all)"
variable xlength equal "lx"
variable  volume equal "vol"
variable  etotal equal "etotal"
variable    ecoh equal "pe/v_natoms"
print "${xlength}, ${volume}, ${etotal}, ${ecoh}" append lattice_cohesive_energy.txt screen no

next i
jump SELF loop

change_box all x scale 1.0025 y scale 1.0025 z scale 1.0025 remap
Changing box ...
  orthogonal box = (0.11068 0.11556608 0.11556608) to (4.02932 4.0244339 4.0244339)
  orthogonal box = (0.11068 0.11068 0.11556608) to (4.02932 4.02932 4.0244339)
  orthogonal box = (0.11068 0.11068 0.11068) to (4.02932 4.02932 4.02932)

run 1
WARNING: No fixes with time integration, atoms won't move (src/verlet.cpp:60)
WARNING: Proc sub-domain size < neighbor skin, could lead to lost atoms (src/domain.cpp:966)
Per MPI rank memory allocation (min/avg/max) = 8.559 | 8.559 | 8.559 Mbytes
   Step         PotEng         TotEng           Lx             Ly             Lz           Volume         Press           Pxx            Pyy            Pzz      
         7  -40.216622     -40.216622      3.91864        3.91864        3.91864        60.173615      507853.86      507853.86      507853.86      507853.86    
         8  -40.216622     -40.216622      3.91864        3.91864        3.91864        60.173615      507853.86      507853.86      507853.86      507853.86    
Loop time of 0.00028175 on 8 procs for 1 steps with 8 atoms

Performance: 306.655 ns/day, 0.078 hours/ns, 3549.246 timesteps/s, 28.394 katom-step/s
0.0% CPU use with 8 MPI tasks x 1 OpenMP threads

MPI task timing breakdown:
Section |  min time  |  avg time  |  max time  |%varavg| %total
---------------------------------------------------------------
Pair    | 0.000184   | 0.00019413 | 0.000222   |   0.0 | 68.90
Neigh   | 0          | 0          | 0          |   0.0 |  0.00
Comm    | 3.3e-05    | 5.9125e-05 | 7.1e-05    |   0.0 | 20.98
Output  | 1.7e-05    | 1.8875e-05 | 2e-05      |   0.0 |  6.70
Modify  | 0          | 2.5e-07    | 1e-06      |   0.0 |  0.09
Other   |            | 9.375e-06  |            |       |  3.33

Nlocal:              1 ave           1 max           1 min
Histogram: 8 0 0 0 0 0 0 0 0 0
Nghost:            511 ave         511 max         511 min
Histogram: 8 0 0 0 0 0 0 0 0 0
Neighs:             85 ave          85 max          85 min
Histogram: 8 0 0 0 0 0 0 0 0 0
FullNghs:          170 ave         170 max         170 min
Histogram: 8 0 0 0 0 0 0 0 0 0

Total # of neighbors = 1360
Ave neighs/atom = 170
Neighbor list builds = 0
Dangerous builds = 0
variable  natoms equal "count(all)"
variable xlength equal "lx"
variable  volume equal "vol"
variable  etotal equal "etotal"
variable    ecoh equal "pe/v_natoms"
print "${xlength}, ${volume}, ${etotal}, ${ecoh}" append lattice_cohesive_energy.txt screen no

next i
jump SELF loop

change_box all x scale 1.0025 y scale 1.0025 z scale 1.0025 remap
Changing box ...
  orthogonal box = (0.1057817 0.11068 0.11068) to (4.0342183 4.02932 4.02932)
  orthogonal box = (0.1057817 0.1057817 0.11068) to (4.0342183 4.0342183 4.02932)
  orthogonal box = (0.1057817 0.1057817 0.1057817) to (4.0342183 4.0342183 4.0342183)

run 1
WARNING: No fixes with time integration, atoms won't move (src/verlet.cpp:60)
WARNING: Proc sub-domain size < neighbor skin, could lead to lost atoms (src/domain.cpp:966)
Per MPI rank memory allocation (min/avg/max) = 8.559 | 8.559 | 8.559 Mbytes
   Step         PotEng         TotEng           Lx             Ly             Lz           Volume         Press           Pxx            Pyy            Pzz      
         8  -40.355881     -40.355881      3.9284366      3.9284366      3.9284366      60.626046      478603.75      478603.75      478603.75      478603.75    
         9  -40.355881     -40.355881      3.9284366      3.9284366      3.9284366      60.626046      478603.75      478603.75      478603.75      478603.75    
Loop time of 0.000279125 on 8 procs for 1 steps with 8 atoms

Performance: 309.539 ns/day, 0.078 hours/ns, 3582.624 timesteps/s, 28.661 katom-step/s
0.0% CPU use with 8 MPI tasks x 1 OpenMP threads

MPI task timing breakdown:
Section |  min time  |  avg time  |  max time  |%varavg| %total
---------------------------------------------------------------
Pair    | 0.000186   | 0.00019438 | 0.000221   |   0.0 | 69.64
Neigh   | 0          | 0          | 0          |   0.0 |  0.00
Comm    | 3.3e-05    | 5.75e-05   | 6.7e-05    |   0.0 | 20.60
Output  | 1.5e-05    | 1.8e-05    | 1.9e-05    |   0.0 |  6.45
Modify  | 0          | 2.5e-07    | 1e-06      |   0.0 |  0.09
Other   |            | 9e-06      |            |       |  3.22

Nlocal:              1 ave           1 max           1 min
Histogram: 8 0 0 0 0 0 0 0 0 0
Nghost:            511 ave         511 max         511 min
Histogram: 8 0 0 0 0 0 0 0 0 0
Neighs:             85 ave          85 max          85 min
Histogram: 8 0 0 0 0 0 0 0 0 0
FullNghs:          170 ave         170 max         170 min
Histogram: 8 0 0 0 0 0 0 0 0 0

Total # of neighbors = 1360
Ave neighs/atom = 170
Neighbor list builds = 0
Dangerous builds = 0
variable  natoms equal "count(all)"
variable xlength equal "lx"
variable  volume equal "vol"
variable  etotal equal "etotal"
variable    ecoh equal "pe/v_natoms"
print "${xlength}, ${volume}, ${etotal}, ${ecoh}" append lattice_cohesive_energy.txt screen no

next i
jump SELF loop

change_box all x scale 1.0025 y scale 1.0025 z scale 1.0025 remap
Changing box ...
  orthogonal box = (0.10087115 0.1057817 0.1057817) to (4.0391288 4.0342183 4.0342183)
  orthogonal box = (0.10087115 0.10087115 0.1057817) to (4.0391288 4.0391288 4.0342183)
  orthogonal box = (0.10087115 0.10087115 0.10087115) to (4.0391288 4.0391288 4.0391288)

run 1
WARNING: No fixes with time integration, atoms won't move (src/verlet.cpp:60)
WARNING: Proc sub-domain size < neighbor skin, could lead to lost atoms (src/domain.cpp:966)
Per MPI rank memory allocation (min/avg/max) = 8.615 | 8.616 | 8.628 Mbytes
   Step         PotEng         TotEng           Lx             Ly             Lz           Volume         Press           Pxx            Pyy            Pzz      
         9  -40.487967     -40.487967      3.9382577      3.9382577      3.9382577      61.081879      450075.8       450075.8       450075.8       450075.8     
        10  -40.487967     -40.487967      3.9382577      3.9382577      3.9382577      61.081879      450075.8       450075.8       450075.8       450075.8     
Loop time of 0.0004145 on 8 procs for 1 steps with 8 atoms

Performance: 208.444 ns/day, 0.115 hours/ns, 2412.545 timesteps/s, 19.300 katom-step/s
0.0% CPU use with 8 MPI tasks x 1 OpenMP threads

MPI task timing breakdown:
Section |  min time  |  avg time  |  max time  |%varavg| %total
---------------------------------------------------------------
Pair    | 0.000265   | 0.00031987 | 0.000367   |   0.0 | 77.17
Neigh   | 0          | 0          | 0          |   0.0 |  0.00
Comm    | 1.5e-05    | 3.7875e-05 | 8.5e-05    |   0.0 |  9.14
Output  | 1.5e-05    | 4.825e-05  | 8.8e-05    |   0.0 | 11.64
Modify  | 0          | 1.25e-07   | 1e-06      |   0.0 |  0.03
Other   |            | 8.375e-06  |            |       |  2.02

Nlocal:              1 ave           8 max           0 min
Histogram: 7 0 0 0 0 0 0 0 0 1
Nghost:            511 ave         512 max         504 min
Histogram: 1 0 0 0 0 0 0 0 0 7
Neighs:             85 ave         680 max           0 min
Histogram: 7 0 0 0 0 0 0 0 0 1
FullNghs:          170 ave        1360 max           0 min
Histogram: 7 0 0 0 0 0 0 0 0 1

Total # of neighbors = 1360
Ave neighs/atom = 170
Neighbor list builds = 0
Dangerous builds = 0
variable  natoms equal "count(all)"
variable xlength equal "lx"
variable  volume equal "vol"
variable  etotal equal "etotal"
variable    ecoh equal "pe/v_natoms"
print "${xlength}, ${volume}, ${etotal}, ${ecoh}" append lattice_cohesive_energy.txt screen no

next i
jump SELF loop

change_box all x scale 1.0025 y scale 1.0025 z scale 1.0025 remap
Changing box ...
  orthogonal box = (0.095948329 0.10087115 0.10087115) to (4.0440517 4.0391288 4.0391288)
  orthogonal box = (0.095948329 0.095948329 0.10087115) to (4.0440517 4.0440517 4.0391288)
  orthogonal box = (0.095948329 0.095948329 0.095948329) to (4.0440517 4.0440517 4.0440517)

run 1
WARNING: No fixes with time integration, atoms won't move (src/verlet.cpp:60)
WARNING: Proc sub-domain size < neighbor skin, could lead to lost atoms (src/domain.cpp:966)
Per MPI rank memory allocation (min/avg/max) = 8.615 | 8.616 | 8.628 Mbytes
   Step         PotEng         TotEng           Lx             Ly             Lz           Volume         Press           Pxx            Pyy            Pzz      
        10  -40.612972     -40.612972      3.9481033      3.9481033      3.9481033      61.54114       422257.17      422257.17      422257.17      422257.17    
        11  -40.612972     -40.612972      3.9481033      3.9481033      3.9481033      61.54114       422257.17      422257.17      422257.17      422257.17    
Loop time of 0.000174875 on 8 procs for 1 steps with 8 atoms

Performance: 494.067 ns/day, 0.049 hours/ns, 5718.370 timesteps/s, 45.747 katom-step/s
0.0% CPU use with 8 MPI tasks x 1 OpenMP threads

MPI task timing breakdown:
Section |  min time  |  avg time  |  max time  |%varavg| %total
---------------------------------------------------------------
Pair    | 0.00013    | 0.00013425 | 0.000136   |   0.0 | 76.77
Neigh   | 0          | 0          | 0          |   0.0 |  0.00
Comm    | 2.2e-05    | 2.4375e-05 | 2.8e-05    |   0.0 | 13.94
Output  | 1.1e-05    | 1.175e-05  | 1.2e-05    |   0.0 |  6.72
Modify  | 0          | 0          | 0          |   0.0 |  0.00
Other   |            | 4.5e-06    |            |       |  2.57

Nlocal:              1 ave           1 max           1 min
Histogram: 8 0 0 0 0 0 0 0 0 0
Nghost:            511 ave         511 max         511 min
Histogram: 8 0 0 0 0 0 0 0 0 0
Neighs:             85 ave          85 max          85 min
Histogram: 8 0 0 0 0 0 0 0 0 0
FullNghs:          170 ave         170 max         170 min
Histogram: 8 0 0 0 0 0 0 0 0 0

Total # of neighbors = 1360
Ave neighs/atom = 170
Neighbor list builds = 0
Dangerous builds = 0
variable  natoms equal "count(all)"
variable xlength equal "lx"
variable  volume equal "vol"
variable  etotal equal "etotal"
variable    ecoh equal "pe/v_natoms"
print "${xlength}, ${volume}, ${etotal}, ${ecoh}" append lattice_cohesive_energy.txt screen no

next i
jump SELF loop

change_box all x scale 1.0025 y scale 1.0025 z scale 1.0025 remap
Changing box ...
  orthogonal box = (0.0910132 0.095948329 0.095948329) to (4.0489868 4.0440517 4.0440517)
  orthogonal box = (0.0910132 0.0910132 0.095948329) to (4.0489868 4.0489868 4.0440517)
  orthogonal box = (0.0910132 0.0910132 0.0910132) to (4.0489868 4.0489868 4.0489868)

run 1
WARNING: No fixes with time integration, atoms won't move (src/verlet.cpp:60)
WARNING: Proc sub-domain size < neighbor skin, could lead to lost atoms (src/domain.cpp:966)
Per MPI rank memory allocation (min/avg/max) = 8.615 | 8.616 | 8.628 Mbytes
   Step         PotEng         TotEng           Lx             Ly             Lz           Volume         Press           Pxx            Pyy            Pzz      
        11  -40.730983     -40.730983      3.9579736      3.9579736      3.9579736      62.003853      395135.14      395135.14      395135.14      395135.14    
        12  -40.730983     -40.730983      3.9579736      3.9579736      3.9579736      62.003853      395135.14      395135.14      395135.14      395135.14    
Loop time of 0.000404125 on 8 procs for 1 steps with 8 atoms

Performance: 213.795 ns/day, 0.112 hours/ns, 2474.482 timesteps/s, 19.796 katom-step/s
0.0% CPU use with 8 MPI tasks x 1 OpenMP threads

MPI task timing breakdown:
Section |  min time  |  avg time  |  max time  |%varavg| %total
---------------------------------------------------------------
Pair    | 0.000274   | 0.00029975 | 0.000332   |   0.0 | 74.17
Neigh   | 0          | 0          | 0          |   0.0 |  0.00
Comm    | 3.9e-05    | 6.9e-05    | 9.5e-05    |   0.0 | 17.07
Output  | 2.1e-05    | 2.2875e-05 | 2.5e-05    |   0.0 |  5.66
Modify  | 0          | 1.25e-07   | 1e-06      |   0.0 |  0.03
Other   |            | 1.238e-05  |            |       |  3.06

Nlocal:              1 ave           1 max           1 min
Histogram: 8 0 0 0 0 0 0 0 0 0
Nghost:            511 ave         511 max         511 min
Histogram: 8 0 0 0 0 0 0 0 0 0
Neighs:             85 ave          85 max          85 min
Histogram: 8 0 0 0 0 0 0 0 0 0
FullNghs:          170 ave         170 max         170 min
Histogram: 8 0 0 0 0 0 0 0 0 0

Total # of neighbors = 1360
Ave neighs/atom = 170
Neighbor list builds = 0
Dangerous builds = 0
variable  natoms equal "count(all)"
variable xlength equal "lx"
variable  volume equal "vol"
variable  etotal equal "etotal"
variable    ecoh equal "pe/v_natoms"
print "${xlength}, ${volume}, ${etotal}, ${ecoh}" append lattice_cohesive_energy.txt screen no

next i
jump SELF loop

change_box all x scale 1.0025 y scale 1.0025 z scale 1.0025 remap
Changing box ...
  orthogonal box = (0.086065733 0.0910132 0.0910132) to (4.0539343 4.0489868 4.0489868)
  orthogonal box = (0.086065733 0.086065733 0.0910132) to (4.0539343 4.0539343 4.0489868)
  orthogonal box = (0.086065733 0.086065733 0.086065733) to (4.0539343 4.0539343 4.0539343)

run 1
WARNING: No fixes with time integration, atoms won't move (src/verlet.cpp:60)
WARNING: Proc sub-domain size < neighbor skin, could lead to lost atoms (src/domain.cpp:966)
Per MPI rank memory allocation (min/avg/max) = 8.615 | 8.616 | 8.628 Mbytes
   Step         PotEng         TotEng           Lx             Ly             Lz           Volume         Press           Pxx            Pyy            Pzz      
        12  -40.84209      -40.84209       3.9678685      3.9678685      3.9678685      62.470046      368697.2       368697.2       368697.2       368697.2     
        13  -40.84209      -40.84209       3.9678685      3.9678685      3.9678685      62.470046      368697.2       368697.2       368697.2       368697.2     
Loop time of 0.00030625 on 8 procs for 1 steps with 8 atoms

Performance: 282.122 ns/day, 0.085 hours/ns, 3265.306 timesteps/s, 26.122 katom-step/s
0.0% CPU use with 8 MPI tasks x 1 OpenMP threads

MPI task timing breakdown:
Section |  min time  |  avg time  |  max time  |%varavg| %total
---------------------------------------------------------------
Pair    | 0.000196   | 0.0002195  | 0.000248   |   0.0 | 71.67
Neigh   | 0          | 0          | 0          |   0.0 |  0.00
Comm    | 3.1e-05    | 5.9e-05    | 8.3e-05    |   0.0 | 19.27
Output  | 1.7e-05    | 1.85e-05   | 1.9e-05    |   0.0 |  6.04
Modify  | 0          | 2.5e-07    | 2e-06      |   0.0 |  0.08
Other   |            | 9e-06      |            |       |  2.94

Nlocal:              1 ave           1 max           1 min
Histogram: 8 0 0 0 0 0 0 0 0 0
Nghost:            511 ave         511 max         511 min
Histogram: 8 0 0 0 0 0 0 0 0 0
Neighs:             85 ave          85 max          85 min
Histogram: 8 0 0 0 0 0 0 0 0 0
FullNghs:          170 ave         170 max         170 min
Histogram: 8 0 0 0 0 0 0 0 0 0

Total # of neighbors = 1360
Ave neighs/atom = 170
Neighbor list builds = 0
Dangerous builds = 0
variable  natoms equal "count(all)"
variable xlength equal "lx"
variable  volume equal "vol"
variable  etotal equal "etotal"
variable    ecoh equal "pe/v_natoms"
print "${xlength}, ${volume}, ${etotal}, ${ecoh}" append lattice_cohesive_energy.txt screen no

next i
jump SELF loop

change_box all x scale 1.0025 y scale 1.0025 z scale 1.0025 remap
Changing box ...
  orthogonal box = (0.081105897 0.086065733 0.086065733) to (4.0588941 4.0539343 4.0539343)
  orthogonal box = (0.081105897 0.081105897 0.086065733) to (4.0588941 4.0588941 4.0539343)
  orthogonal box = (0.081105897 0.081105897 0.081105897) to (4.0588941 4.0588941 4.0588941)

run 1
WARNING: No fixes with time integration, atoms won't move (src/verlet.cpp:60)
WARNING: Proc sub-domain size < neighbor skin, could lead to lost atoms (src/domain.cpp:966)
Per MPI rank memory allocation (min/avg/max) = 8.615 | 8.616 | 8.628 Mbytes
   Step         PotEng         TotEng           Lx             Ly             Lz           Volume         Press           Pxx            Pyy            Pzz      
        13  -40.94638      -40.94638       3.9777882      3.9777882      3.9777882      62.939743      342931         342931         342931         342931       
        14  -40.94638      -40.94638       3.9777882      3.9777882      3.9777882      62.939743      342931         342931         342931         342931       
Loop time of 0.000305875 on 8 procs for 1 steps with 8 atoms

Performance: 282.468 ns/day, 0.085 hours/ns, 3269.309 timesteps/s, 26.154 katom-step/s
0.0% CPU use with 8 MPI tasks x 1 OpenMP threads

MPI task timing breakdown:
Section |  min time  |  avg time  |  max time  |%varavg| %total
---------------------------------------------------------------
Pair    | 0.000197   | 0.0002205  | 0.000247   |   0.0 | 72.09
Neigh   | 0          | 0          | 0          |   0.0 |  0.00
Comm    | 3.2e-05    | 5.8125e-05 | 8.2e-05    |   0.0 | 19.00
Output  | 1.6e-05    | 1.825e-05  | 2e-05      |   0.0 |  5.97
Modify  | 0          | 3.75e-07   | 1e-06      |   0.0 |  0.12
Other   |            | 8.625e-06  |            |       |  2.82

Nlocal:              1 ave           1 max           1 min
Histogram: 8 0 0 0 0 0 0 0 0 0
Nghost:            511 ave         511 max         511 min
Histogram: 8 0 0 0 0 0 0 0 0 0
Neighs:             85 ave          85 max          85 min
Histogram: 8 0 0 0 0 0 0 0 0 0
FullNghs:          170 ave         170 max         170 min
Histogram: 8 0 0 0 0 0 0 0 0 0

Total # of neighbors = 1360
Ave neighs/atom = 170
Neighbor list builds = 0
Dangerous builds = 0
variable  natoms equal "count(all)"
variable xlength equal "lx"
variable  volume equal "vol"
variable  etotal equal "etotal"
variable    ecoh equal "pe/v_natoms"
print "${xlength}, ${volume}, ${etotal}, ${ecoh}" append lattice_cohesive_energy.txt screen no

next i
jump SELF loop

change_box all x scale 1.0025 y scale 1.0025 z scale 1.0025 remap
Changing box ...
  orthogonal box = (0.076133662 0.081105897 0.081105897) to (4.0638663 4.0588941 4.0588941)
  orthogonal box = (0.076133662 0.076133662 0.081105897) to (4.0638663 4.0638663 4.0588941)
  orthogonal box = (0.076133662 0.076133662 0.076133662) to (4.0638663 4.0638663 4.0638663)

run 1
WARNING: No fixes with time integration, atoms won't move (src/verlet.cpp:60)
WARNING: Proc sub-domain size < neighbor skin, could lead to lost atoms (src/domain.cpp:966)
Per MPI rank memory allocation (min/avg/max) = 8.615 | 8.616 | 8.628 Mbytes
   Step         PotEng         TotEng           Lx             Ly             Lz           Volume         Press           Pxx            Pyy            Pzz      
        14  -41.043942     -41.043942      3.9877327      3.9877327      3.9877327      63.412972      317824.36      317824.36      317824.36      317824.36    
        15  -41.043942     -41.043942      3.9877327      3.9877327      3.9877327      63.412972      317824.36      317824.36      317824.36      317824.36    
Loop time of 0.0003055 on 8 procs for 1 steps with 8 atoms

Performance: 282.815 ns/day, 0.085 hours/ns, 3273.322 timesteps/s, 26.187 katom-step/s
0.0% CPU use with 8 MPI tasks x 1 OpenMP threads

MPI task timing breakdown:
Section |  min time  |  avg time  |  max time  |%varavg| %total
---------------------------------------------------------------
Pair    | 0.000194   | 0.000219   | 0.000247   |   0.0 | 71.69
Neigh   | 0          | 0          | 0          |   0.0 |  0.00
Comm    | 3.2e-05    | 5.95e-05   | 8.5e-05    |   0.0 | 19.48
Output  | 1.6e-05    | 1.825e-05  | 1.9e-05    |   0.0 |  5.97
Modify  | 0          | 0          | 0          |   0.0 |  0.00
Other   |            | 8.75e-06   |            |       |  2.86

Nlocal:              1 ave           1 max           1 min
Histogram: 8 0 0 0 0 0 0 0 0 0
Nghost:            511 ave         511 max         511 min
Histogram: 8 0 0 0 0 0 0 0 0 0
Neighs:             73 ave          73 max          73 min
Histogram: 8 0 0 0 0 0 0 0 0 0
FullNghs:          146 ave         146 max         146 min
Histogram: 8 0 0 0 0 0 0 0 0 0

Total # of neighbors = 1168
Ave neighs/atom = 146
Neighbor list builds = 0
Dangerous builds = 0
variable  natoms equal "count(all)"
variable xlength equal "lx"
variable  volume equal "vol"
variable  etotal equal "etotal"
variable    ecoh equal "pe/v_natoms"
print "${xlength}, ${volume}, ${etotal}, ${ecoh}" append lattice_cohesive_energy.txt screen no

next i
jump SELF loop

change_box all x scale 1.0025 y scale 1.0025 z scale 1.0025 remap
Changing box ...
  orthogonal box = (0.071148996 0.076133662 0.076133662) to (4.068851 4.0638663 4.0638663)
  orthogonal box = (0.071148996 0.071148996 0.076133662) to (4.068851 4.068851 4.0638663)
  orthogonal box = (0.071148996 0.071148996 0.071148996) to (4.068851 4.068851 4.068851)

run 1
WARNING: No fixes with time integration, atoms won't move (src/verlet.cpp:60)
WARNING: Proc sub-domain size < neighbor skin, could lead to lost atoms (src/domain.cpp:966)
Per MPI rank memory allocation (min/avg/max) = 8.615 | 8.616 | 8.628 Mbytes
   Step         PotEng         TotEng           Lx             Ly             Lz           Volume         Press           Pxx            Pyy            Pzz      
        15  -41.134862     -41.134862      3.997702       3.997702       3.997702       63.88976       293365.28      293365.28      293365.28      293365.28    
        16  -41.134862     -41.134862      3.997702       3.997702       3.997702       63.88976       293365.28      293365.28      293365.28      293365.28    
Loop time of 0.0003015 on 8 procs for 1 steps with 8 atoms

Performance: 286.567 ns/day, 0.084 hours/ns, 3316.750 timesteps/s, 26.534 katom-step/s
0.0% CPU use with 8 MPI tasks x 1 OpenMP threads

MPI task timing breakdown:
Section |  min time  |  avg time  |  max time  |%varavg| %total
---------------------------------------------------------------
Pair    | 0.000192   | 0.00022425 | 0.000243   |   0.0 | 74.38
Neigh   | 0          | 0          | 0          |   0.0 |  0.00
Comm    | 3.2e-05    | 5.1125e-05 | 8.4e-05    |   0.0 | 16.96
Output  | 1.6e-05    | 1.725e-05  | 1.9e-05    |   0.0 |  5.72
Modify  | 0          | 2.5e-07    | 1e-06      |   0.0 |  0.08
Other   |            | 8.625e-06  |            |       |  2.86

Nlocal:              1 ave           1 max           1 min
Histogram: 8 0 0 0 0 0 0 0 0 0
Nghost:            511 ave         511 max         511 min
Histogram: 8 0 0 0 0 0 0 0 0 0
Neighs:             73 ave          73 max          73 min
Histogram: 8 0 0 0 0 0 0 0 0 0
FullNghs:          146 ave         146 max         146 min
Histogram: 8 0 0 0 0 0 0 0 0 0

Total # of neighbors = 1168
Ave neighs/atom = 146
Neighbor list builds = 0
Dangerous builds = 0
variable  natoms equal "count(all)"
variable xlength equal "lx"
variable  volume equal "vol"
variable  etotal equal "etotal"
variable    ecoh equal "pe/v_natoms"
print "${xlength}, ${volume}, ${etotal}, ${ecoh}" append lattice_cohesive_energy.txt screen no

next i
jump SELF loop

change_box all x scale 1.0025 y scale 1.0025 z scale 1.0025 remap
Changing box ...
  orthogonal box = (0.066151869 0.071148996 0.071148996) to (4.0738481 4.068851 4.068851)
  orthogonal box = (0.066151869 0.066151869 0.071148996) to (4.0738481 4.0738481 4.068851)
  orthogonal box = (0.066151869 0.066151869 0.066151869) to (4.0738481 4.0738481 4.0738481)

run 1
WARNING: No fixes with time integration, atoms won't move (src/verlet.cpp:60)
Per MPI rank memory allocation (min/avg/max) = 8.615 | 8.616 | 8.628 Mbytes
   Step         PotEng         TotEng           Lx             Ly             Lz           Volume         Press           Pxx            Pyy            Pzz      
        16  -41.219229     -41.219229      4.0076963      4.0076963      4.0076963      64.370132      269541.92      269541.92      269541.92      269541.92    
        17  -41.219229     -41.219229      4.0076963      4.0076963      4.0076963      64.370132      269541.92      269541.92      269541.92      269541.92    
Loop time of 0.00034675 on 8 procs for 1 steps with 8 atoms

Performance: 249.171 ns/day, 0.096 hours/ns, 2883.922 timesteps/s, 23.071 katom-step/s
0.0% CPU use with 8 MPI tasks x 1 OpenMP threads

MPI task timing breakdown:
Section |  min time  |  avg time  |  max time  |%varavg| %total
---------------------------------------------------------------
Pair    | 0.000222   | 0.00025338 | 0.000286   |   0.0 | 73.07
Neigh   | 0          | 0          | 0          |   0.0 |  0.00
Comm    | 3.4e-05    | 6.475e-05  | 9.6e-05    |   0.0 | 18.67
Output  | 1.8e-05    | 1.8875e-05 | 2e-05      |   0.0 |  5.44
Modify  | 0          | 3.75e-07   | 1e-06      |   0.0 |  0.11
Other   |            | 9.375e-06  |            |       |  2.70

Nlocal:              1 ave           1 max           1 min
Histogram: 8 0 0 0 0 0 0 0 0 0
Nghost:            511 ave         511 max         511 min
Histogram: 8 0 0 0 0 0 0 0 0 0
Neighs:             73 ave          73 max          73 min
Histogram: 8 0 0 0 0 0 0 0 0 0
FullNghs:          146 ave         146 max         146 min
Histogram: 8 0 0 0 0 0 0 0 0 0

Total # of neighbors = 1168
Ave neighs/atom = 146
Neighbor list builds = 0
Dangerous builds = 0
variable  natoms equal "count(all)"
variable xlength equal "lx"
variable  volume equal "vol"
variable  etotal equal "etotal"
variable    ecoh equal "pe/v_natoms"
print "${xlength}, ${volume}, ${etotal}, ${ecoh}" append lattice_cohesive_energy.txt screen no

next i
jump SELF loop

change_box all x scale 1.0025 y scale 1.0025 z scale 1.0025 remap
Changing box ...
  orthogonal box = (0.061142248 0.066151869 0.066151869) to (4.0788578 4.0738481 4.0738481)
  orthogonal box = (0.061142248 0.061142248 0.066151869) to (4.0788578 4.0788578 4.0738481)
  orthogonal box = (0.061142248 0.061142248 0.061142248) to (4.0788578 4.0788578 4.0788578)

run 1
WARNING: No fixes with time integration, atoms won't move (src/verlet.cpp:60)
Per MPI rank memory allocation (min/avg/max) = 8.615 | 8.616 | 8.628 Mbytes
   Step         PotEng         TotEng           Lx             Ly             Lz           Volume         Press           Pxx            Pyy            Pzz      
        17  -41.297128     -41.297128      4.0177155      4.0177155      4.0177155      64.854116      246342.61      246342.61      246342.61      246342.61    
        18  -41.297128     -41.297128      4.0177155      4.0177155      4.0177155      64.854116      246342.61      246342.61      246342.61      246342.61    
Loop time of 0.000307125 on 8 procs for 1 steps with 8 atoms

Performance: 281.319 ns/day, 0.085 hours/ns, 3256.003 timesteps/s, 26.048 katom-step/s
0.0% CPU use with 8 MPI tasks x 1 OpenMP threads

MPI task timing breakdown:
Section |  min time  |  avg time  |  max time  |%varavg| %total
---------------------------------------------------------------
Pair    | 0.000197   | 0.00022113 | 0.000249   |   0.0 | 72.00
Neigh   | 0          | 0          | 0          |   0.0 |  0.00
Comm    | 3.2e-05    | 5.95e-05   | 8.4e-05    |   0.0 | 19.37
Output  | 1.6e-05    | 1.825e-05  | 1.9e-05    |   0.0 |  5.94
Modify  | 0          | 2.5e-07    | 1e-06      |   0.0 |  0.08
Other   |            | 8e-06      |            |       |  2.60

Nlocal:              1 ave           1 max           1 min
Histogram: 8 0 0 0 0 0 0 0 0 0
Nghost:            511 ave         511 max         511 min
Histogram: 8 0 0 0 0 0 0 0 0 0
Neighs:             73 ave          73 max          73 min
Histogram: 8 0 0 0 0 0 0 0 0 0
FullNghs:          146 ave         146 max         146 min
Histogram: 8 0 0 0 0 0 0 0 0 0

Total # of neighbors = 1168
Ave neighs/atom = 146
Neighbor list builds = 0
Dangerous builds = 0
variable  natoms equal "count(all)"
variable xlength equal "lx"
variable  volume equal "vol"
variable  etotal equal "etotal"
variable    ecoh equal "pe/v_natoms"
print "${xlength}, ${volume}, ${etotal}, ${ecoh}" append lattice_cohesive_energy.txt screen no

next i
jump SELF loop

change_box all x scale 1.0025 y scale 1.0025 z scale 1.0025 remap
Changing box ...
  orthogonal box = (0.056120104 0.061142248 0.061142248) to (4.0838799 4.0788578 4.0788578)
  orthogonal box = (0.056120104 0.056120104 0.061142248) to (4.0838799 4.0838799 4.0788578)
  orthogonal box = (0.056120104 0.056120104 0.056120104) to (4.0838799 4.0838799 4.0838799)

run 1
WARNING: No fixes with time integration, atoms won't move (src/verlet.cpp:60)
Per MPI rank memory allocation (min/avg/max) = 8.615 | 8.616 | 8.628 Mbytes
   Step         PotEng         TotEng           Lx             Ly             Lz           Volume         Press           Pxx            Pyy            Pzz      
        18  -41.368645     -41.368645      4.0277598      4.0277598      4.0277598      65.341739      223755.84      223755.84      223755.84      223755.84    
        19  -41.368645     -41.368645      4.0277598      4.0277598      4.0277598      65.341739      223755.84      223755.84      223755.84      223755.84    
Loop time of 0.000401 on 8 procs for 1 steps with 8 atoms

Performance: 215.461 ns/day, 0.111 hours/ns, 2493.766 timesteps/s, 19.950 katom-step/s
0.0% CPU use with 8 MPI tasks x 1 OpenMP threads

MPI task timing breakdown:
Section |  min time  |  avg time  |  max time  |%varavg| %total
---------------------------------------------------------------
Pair    | 0.000269   | 0.00030037 | 0.000336   |   0.0 | 74.91
Neigh   | 0          | 0          | 0          |   0.0 |  0.00
Comm    | 3.3e-05    | 6.8e-05    | 9.9e-05    |   0.0 | 16.96
Output  | 2.1e-05    | 2.2625e-05 | 2.4e-05    |   0.0 |  5.64
Modify  | 0          | 0          | 0          |   0.0 |  0.00
Other   |            | 1e-05      |            |       |  2.49

Nlocal:              1 ave           1 max           1 min
Histogram: 8 0 0 0 0 0 0 0 0 0
Nghost:            511 ave         511 max         511 min
Histogram: 8 0 0 0 0 0 0 0 0 0
Neighs:             73 ave          73 max          73 min
Histogram: 8 0 0 0 0 0 0 0 0 0
FullNghs:          146 ave         146 max         146 min
Histogram: 8 0 0 0 0 0 0 0 0 0

Total # of neighbors = 1168
Ave neighs/atom = 146
Neighbor list builds = 0
Dangerous builds = 0
variable  natoms equal "count(all)"
variable xlength equal "lx"
variable  volume equal "vol"
variable  etotal equal "etotal"
variable    ecoh equal "pe/v_natoms"
print "${xlength}, ${volume}, ${etotal}, ${ecoh}" append lattice_cohesive_energy.txt screen no

next i
jump SELF loop

change_box all x scale 1.0025 y scale 1.0025 z scale 1.0025 remap
Changing box ...
  orthogonal box = (0.051085404 0.056120104 0.056120104) to (4.0889146 4.0838799 4.0838799)
  orthogonal box = (0.051085404 0.051085404 0.056120104) to (4.0889146 4.0889146 4.0838799)
  orthogonal box = (0.051085404 0.051085404 0.051085404) to (4.0889146 4.0889146 4.0889146)

run 1
WARNING: No fixes with time integration, atoms won't move (src/verlet.cpp:60)
Per MPI rank memory allocation (min/avg/max) = 8.615 | 8.616 | 8.628 Mbytes
   Step         PotEng         TotEng           Lx             Ly             Lz           Volume         Press           Pxx            Pyy            Pzz      
        19  -41.433867     -41.433867      4.0378292      4.0378292      4.0378292      65.833028      201770.27      201770.27      201770.27      201770.27    
        20  -41.433867     -41.433867      4.0378292      4.0378292      4.0378292      65.833028      201770.27      201770.27      201770.27      201770.27    
Loop time of 0.00028475 on 8 procs for 1 steps with 8 atoms

Performance: 303.424 ns/day, 0.079 hours/ns, 3511.853 timesteps/s, 28.095 katom-step/s
0.0% CPU use with 8 MPI tasks x 1 OpenMP threads

MPI task timing breakdown:
Section |  min time  |  avg time  |  max time  |%varavg| %total
---------------------------------------------------------------
Pair    | 0.000188   | 0.000197   | 0.000225   |   0.0 | 69.18
Neigh   | 0          | 0          | 0          |   0.0 |  0.00
Comm    | 3.3e-05    | 5.925e-05  | 6.9e-05    |   0.0 | 20.81
Output  | 1.7e-05    | 1.9125e-05 | 2e-05      |   0.0 |  6.72
Modify  | 0          | 1.25e-07   | 1e-06      |   0.0 |  0.04
Other   |            | 9.25e-06   |            |       |  3.25

Nlocal:              1 ave           1 max           1 min
Histogram: 8 0 0 0 0 0 0 0 0 0
Nghost:            511 ave         511 max         511 min
Histogram: 8 0 0 0 0 0 0 0 0 0
Neighs:             73 ave          73 max          73 min
Histogram: 8 0 0 0 0 0 0 0 0 0
FullNghs:          146 ave         146 max         146 min
Histogram: 8 0 0 0 0 0 0 0 0 0

Total # of neighbors = 1168
Ave neighs/atom = 146
Neighbor list builds = 0
Dangerous builds = 0
variable  natoms equal "count(all)"
variable xlength equal "lx"
variable  volume equal "vol"
variable  etotal equal "etotal"
variable    ecoh equal "pe/v_natoms"
print "${xlength}, ${volume}, ${etotal}, ${ecoh}" append lattice_cohesive_energy.txt screen no

next i
jump SELF loop

change_box all x scale 1.0025 y scale 1.0025 z scale 1.0025 remap
Changing box ...
  orthogonal box = (0.046038118 0.051085404 0.051085404) to (4.0939619 4.0889146 4.0889146)
  orthogonal box = (0.046038118 0.046038118 0.051085404) to (4.0939619 4.0939619 4.0889146)
  orthogonal box = (0.046038118 0.046038118 0.046038118) to (4.0939619 4.0939619 4.0939619)

run 1
WARNING: No fixes with time integration, atoms won't move (src/verlet.cpp:60)
Per MPI rank memory allocation (min/avg/max) = 8.615 | 8.616 | 8.628 Mbytes
   Step         PotEng         TotEng           Lx             Ly             Lz           Volume         Press           Pxx            Pyy            Pzz      
        20  -41.492879     -41.492879      4.0479238      4.0479238      4.0479238      66.328011      180374.72      180374.72      180374.72      180374.72    
        21  -41.492879     -41.492879      4.0479238      4.0479238      4.0479238      66.328011      180374.72      180374.72      180374.72      180374.72    
Loop time of 0.000283125 on 8 procs for 1 steps with 8 atoms

Performance: 305.166 ns/day, 0.079 hours/ns, 3532.009 timesteps/s, 28.256 katom-step/s
0.0% CPU use with 8 MPI tasks x 1 OpenMP threads

MPI task timing breakdown:
Section |  min time  |  avg time  |  max time  |%varavg| %total
---------------------------------------------------------------
Pair    | 0.000183   | 0.00019288 | 0.000223   |   0.0 | 68.12
Neigh   | 0          | 0          | 0          |   0.0 |  0.00
Comm    | 3.2e-05    | 6.0625e-05 | 7.1e-05    |   0.0 | 21.41
Output  | 1.6e-05    | 1.8125e-05 | 1.9e-05    |   0.0 |  6.40
Modify  | 0          | 1.25e-07   | 1e-06      |   0.0 |  0.04
Other   |            | 1.137e-05  |            |       |  4.02

Nlocal:              1 ave           1 max           1 min
Histogram: 8 0 0 0 0 0 0 0 0 0
Nghost:            511 ave         511 max         511 min
Histogram: 8 0 0 0 0 0 0 0 0 0
Neighs:             73 ave          73 max          73 min
Histogram: 8 0 0 0 0 0 0 0 0 0
FullNghs:          146 ave         146 max         146 min
Histogram: 8 0 0 0 0 0 0 0 0 0

Total # of neighbors = 1168
Ave neighs/atom = 146
Neighbor list builds = 0
Dangerous builds = 0
variable  natoms equal "count(all)"
variable xlength equal "lx"
variable  volume equal "vol"
variable  etotal equal "etotal"
variable    ecoh equal "pe/v_natoms"
print "${xlength}, ${volume}, ${etotal}, ${ecoh}" append lattice_cohesive_energy.txt screen no

next i
jump SELF loop

change_box all x scale 1.0025 y scale 1.0025 z scale 1.0025 remap
Changing box ...
  orthogonal box = (0.040978213 0.046038118 0.046038118) to (4.0990218 4.0939619 4.0939619)
  orthogonal box = (0.040978213 0.040978213 0.046038118) to (4.0990218 4.0990218 4.0939619)
  orthogonal box = (0.040978213 0.040978213 0.040978213) to (4.0990218 4.0990218 4.0990218)

run 1
WARNING: No fixes with time integration, atoms won't move (src/verlet.cpp:60)
Per MPI rank memory allocation (min/avg/max) = 8.615 | 8.616 | 8.628 Mbytes
   Step         PotEng         TotEng           Lx             Ly             Lz           Volume         Press           Pxx            Pyy            Pzz      
        21  -41.545765     -41.545765      4.0580436      4.0580436      4.0580436      66.826716      159558.16      159558.16      159558.16      159558.16    
        22  -41.545765     -41.545765      4.0580436      4.0580436      4.0580436      66.826716      159558.16      159558.16      159558.16      159558.16    
Loop time of 0.000312375 on 8 procs for 1 steps with 8 atoms

Performance: 276.591 ns/day, 0.087 hours/ns, 3201.281 timesteps/s, 25.610 katom-step/s
0.0% CPU use with 8 MPI tasks x 1 OpenMP threads

MPI task timing breakdown:
Section |  min time  |  avg time  |  max time  |%varavg| %total
---------------------------------------------------------------
Pair    | 0.000213   | 0.00022338 | 0.000254   |   0.0 | 71.51
Neigh   | 0          | 0          | 0          |   0.0 |  0.00
Comm    | 3.2e-05    | 6.125e-05  | 7.2e-05    |   0.0 | 19.61
Output  | 1.7e-05    | 1.9125e-05 | 2e-05      |   0.0 |  6.12
Modify  | 0          | 5e-07      | 1e-06      |   0.0 |  0.16
Other   |            | 8.125e-06  |            |       |  2.60

Nlocal:              1 ave           1 max           1 min
Histogram: 8 0 0 0 0 0 0 0 0 0
Nghost:            511 ave         511 max         511 min
Histogram: 8 0 0 0 0 0 0 0 0 0
Neighs:             73 ave          73 max          73 min
Histogram: 8 0 0 0 0 0 0 0 0 0
FullNghs:          146 ave         146 max         146 min
Histogram: 8 0 0 0 0 0 0 0 0 0

Total # of neighbors = 1168
Ave neighs/atom = 146
Neighbor list builds = 0
Dangerous builds = 0
variable  natoms equal "count(all)"
variable xlength equal "lx"
variable  volume equal "vol"
variable  etotal equal "etotal"
variable    ecoh equal "pe/v_natoms"
print "${xlength}, ${volume}, ${etotal}, ${ecoh}" append lattice_cohesive_energy.txt screen no

next i
jump SELF loop

change_box all x scale 1.0025 y scale 1.0025 z scale 1.0025 remap
Changing box ...
  orthogonal box = (0.035905658 0.040978213 0.040978213) to (4.1040943 4.0990218 4.0990218)
  orthogonal box = (0.035905658 0.035905658 0.040978213) to (4.1040943 4.1040943 4.0990218)
  orthogonal box = (0.035905658 0.035905658 0.035905658) to (4.1040943 4.1040943 4.1040943)

run 1
WARNING: No fixes with time integration, atoms won't move (src/verlet.cpp:60)
Per MPI rank memory allocation (min/avg/max) = 8.615 | 8.616 | 8.628 Mbytes
   Step         PotEng         TotEng           Lx             Ly             Lz           Volume         Press           Pxx            Pyy            Pzz      
        22  -41.59261      -41.59261       4.0681887      4.0681887      4.0681887      67.32917       139309.72      139309.72      139309.72      139309.72    
        23  -41.59261      -41.59261       4.0681887      4.0681887      4.0681887      67.32917       139309.72      139309.72      139309.72      139309.72    
Loop time of 0.0003075 on 8 procs for 1 steps with 8 atoms

Performance: 280.976 ns/day, 0.085 hours/ns, 3252.033 timesteps/s, 26.016 katom-step/s
0.0% CPU use with 8 MPI tasks x 1 OpenMP threads

MPI task timing breakdown:
Section |  min time  |  avg time  |  max time  |%varavg| %total
---------------------------------------------------------------
Pair    | 0.00019    | 0.0002065  | 0.000242   |   0.0 | 67.15
Neigh   | 0          | 0          | 0          |   0.0 |  0.00
Comm    | 3.2e-05    | 6.575e-05  | 8.1e-05    |   0.0 | 21.38
Output  | 1.5e-05    | 1.6125e-05 | 1.7e-05    |   0.0 |  5.24
Modify  | 0          | 5e-07      | 1e-06      |   0.0 |  0.16
Other   |            | 1.863e-05  |            |       |  6.06

Nlocal:              1 ave           1 max           1 min
Histogram: 8 0 0 0 0 0 0 0 0 0
Nghost:            511 ave         511 max         511 min
Histogram: 8 0 0 0 0 0 0 0 0 0
Neighs:             73 ave          73 max          73 min
Histogram: 8 0 0 0 0 0 0 0 0 0
FullNghs:          146 ave         146 max         146 min
Histogram: 8 0 0 0 0 0 0 0 0 0

Total # of neighbors = 1168
Ave neighs/atom = 146
Neighbor list builds = 0
Dangerous builds = 0
variable  natoms equal "count(all)"
variable xlength equal "lx"
variable  volume equal "vol"
variable  etotal equal "etotal"
variable    ecoh equal "pe/v_natoms"
print "${xlength}, ${volume}, ${etotal}, ${ecoh}" append lattice_cohesive_energy.txt screen no

next i
jump SELF loop

change_box all x scale 1.0025 y scale 1.0025 z scale 1.0025 remap
Changing box ...
  orthogonal box = (0.030820423 0.035905658 0.035905658) to (4.1091796 4.1040943 4.1040943)
  orthogonal box = (0.030820423 0.030820423 0.035905658) to (4.1091796 4.1091796 4.1040943)
  orthogonal box = (0.030820423 0.030820423 0.030820423) to (4.1091796 4.1091796 4.1091796)

run 1
WARNING: No fixes with time integration, atoms won't move (src/verlet.cpp:60)
Per MPI rank memory allocation (min/avg/max) = 8.615 | 8.616 | 8.628 Mbytes
   Step         PotEng         TotEng           Lx             Ly             Lz           Volume         Press           Pxx            Pyy            Pzz      
        23  -41.633498     -41.633498      4.0783592      4.0783592      4.0783592      67.835402      119618.71      119618.71      119618.71      119618.71    
        24  -41.633498     -41.633498      4.0783592      4.0783592      4.0783592      67.835402      119618.71      119618.71      119618.71      119618.71    
Loop time of 0.000276375 on 8 procs for 1 steps with 8 atoms

Performance: 312.619 ns/day, 0.077 hours/ns, 3618.272 timesteps/s, 28.946 katom-step/s
0.0% CPU use with 8 MPI tasks x 1 OpenMP threads

MPI task timing breakdown:
Section |  min time  |  avg time  |  max time  |%varavg| %total
---------------------------------------------------------------
Pair    | 0.000178   | 0.00019013 | 0.000219   |   0.0 | 68.79
Neigh   | 0          | 0          | 0          |   0.0 |  0.00
Comm    | 3.1e-05    | 5.85e-05   | 7.1e-05    |   0.0 | 21.17
Output  | 1.6e-05    | 1.8125e-05 | 1.9e-05    |   0.0 |  6.56
Modify  | 0          | 2.5e-07    | 1e-06      |   0.0 |  0.09
Other   |            | 9.375e-06  |            |       |  3.39

Nlocal:              1 ave           1 max           1 min
Histogram: 8 0 0 0 0 0 0 0 0 0
Nghost:            511 ave         511 max         511 min
Histogram: 8 0 0 0 0 0 0 0 0 0
Neighs:             73 ave          73 max          73 min
Histogram: 8 0 0 0 0 0 0 0 0 0
FullNghs:          146 ave         146 max         146 min
Histogram: 8 0 0 0 0 0 0 0 0 0

Total # of neighbors = 1168
Ave neighs/atom = 146
Neighbor list builds = 0
Dangerous builds = 0
variable  natoms equal "count(all)"
variable xlength equal "lx"
variable  volume equal "vol"
variable  etotal equal "etotal"
variable    ecoh equal "pe/v_natoms"
print "${xlength}, ${volume}, ${etotal}, ${ecoh}" append lattice_cohesive_energy.txt screen no

next i
jump SELF loop

change_box all x scale 1.0025 y scale 1.0025 z scale 1.0025 remap
Changing box ...
  orthogonal box = (0.025722474 0.030820423 0.030820423) to (4.1142775 4.1091796 4.1091796)
  orthogonal box = (0.025722474 0.025722474 0.030820423) to (4.1142775 4.1142775 4.1091796)
  orthogonal box = (0.025722474 0.025722474 0.025722474) to (4.1142775 4.1142775 4.1142775)

run 1
WARNING: No fixes with time integration, atoms won't move (src/verlet.cpp:60)
Per MPI rank memory allocation (min/avg/max) = 8.615 | 8.616 | 8.628 Mbytes
   Step         PotEng         TotEng           Lx             Ly             Lz           Volume         Press           Pxx            Pyy            Pzz      
        24  -41.668512     -41.668512      4.0885551      4.0885551      4.0885551      68.345441      100474.56      100474.56      100474.56      100474.56    
        25  -41.668512     -41.668512      4.0885551      4.0885551      4.0885551      68.345441      100474.56      100474.56      100474.56      100474.56    
Loop time of 0.000268625 on 8 procs for 1 steps with 8 atoms

Performance: 321.638 ns/day, 0.075 hours/ns, 3722.662 timesteps/s, 29.781 katom-step/s
0.0% CPU use with 8 MPI tasks x 1 OpenMP threads

MPI task timing breakdown:
Section |  min time  |  avg time  |  max time  |%varavg| %total
---------------------------------------------------------------
Pair    | 0.000176   | 0.0001865  | 0.000213   |   0.0 | 69.43
Neigh   | 0          | 0          | 0          |   0.0 |  0.00
Comm    | 3.2e-05    | 5.6625e-05 | 6.8e-05    |   0.0 | 21.08
Output  | 1.5e-05    | 1.7125e-05 | 1.8e-05    |   0.0 |  6.38
Modify  | 0          | 3.75e-07   | 1e-06      |   0.0 |  0.14
Other   |            | 8e-06      |            |       |  2.98

Nlocal:              1 ave           1 max           1 min
Histogram: 8 0 0 0 0 0 0 0 0 0
Nghost:            511 ave         511 max         511 min
Histogram: 8 0 0 0 0 0 0 0 0 0
Neighs:             73 ave          73 max          73 min
Histogram: 8 0 0 0 0 0 0 0 0 0
FullNghs:          146 ave         146 max         146 min
Histogram: 8 0 0 0 0 0 0 0 0 0

Total # of neighbors = 1168
Ave neighs/atom = 146
Neighbor list builds = 0
Dangerous builds = 0
variable  natoms equal "count(all)"
variable xlength equal "lx"
variable  volume equal "vol"
variable  etotal equal "etotal"
variable    ecoh equal "pe/v_natoms"
print "${xlength}, ${volume}, ${etotal}, ${ecoh}" append lattice_cohesive_energy.txt screen no

next i
jump SELF loop

change_box all x scale 1.0025 y scale 1.0025 z scale 1.0025 remap
Changing box ...
  orthogonal box = (0.02061178 0.025722474 0.025722474) to (4.1193882 4.1142775 4.1142775)
  orthogonal box = (0.02061178 0.02061178 0.025722474) to (4.1193882 4.1193882 4.1142775)
  orthogonal box = (0.02061178 0.02061178 0.02061178) to (4.1193882 4.1193882 4.1193882)

run 1
WARNING: No fixes with time integration, atoms won't move (src/verlet.cpp:60)
Per MPI rank memory allocation (min/avg/max) = 8.615 | 8.616 | 8.628 Mbytes
   Step         PotEng         TotEng           Lx             Ly             Lz           Volume         Press           Pxx            Pyy            Pzz      
        25  -41.697736     -41.697736      4.0987764      4.0987764      4.0987764      68.859314      81866.868      81866.868      81866.868      81866.868    
        26  -41.697736     -41.697736      4.0987764      4.0987764      4.0987764      68.859314      81866.868      81866.868      81866.868      81866.868    
Loop time of 0.000268625 on 8 procs for 1 steps with 8 atoms

Performance: 321.638 ns/day, 0.075 hours/ns, 3722.662 timesteps/s, 29.781 katom-step/s
0.0% CPU use with 8 MPI tasks x 1 OpenMP threads

MPI task timing breakdown:
Section |  min time  |  avg time  |  max time  |%varavg| %total
---------------------------------------------------------------
Pair    | 0.000174   | 0.00018475 | 0.000212   |   0.0 | 68.78
Neigh   | 0          | 0          | 0          |   0.0 |  0.00
Comm    | 3.2e-05    | 5.6625e-05 | 6.7e-05    |   0.0 | 21.08
Output  | 1.6e-05    | 1.775e-05  | 1.9e-05    |   0.0 |  6.61
Modify  | 0          | 1.25e-07   | 1e-06      |   0.0 |  0.05
Other   |            | 9.375e-06  |            |       |  3.49

Nlocal:              1 ave           1 max           1 min
Histogram: 8 0 0 0 0 0 0 0 0 0
Nghost:            511 ave         511 max         511 min
Histogram: 8 0 0 0 0 0 0 0 0 0
Neighs:             73 ave          73 max          73 min
Histogram: 8 0 0 0 0 0 0 0 0 0
FullNghs:          146 ave         146 max         146 min
Histogram: 8 0 0 0 0 0 0 0 0 0

Total # of neighbors = 1168
Ave neighs/atom = 146
Neighbor list builds = 0
Dangerous builds = 0
variable  natoms equal "count(all)"
variable xlength equal "lx"
variable  volume equal "vol"
variable  etotal equal "etotal"
variable    ecoh equal "pe/v_natoms"
print "${xlength}, ${volume}, ${etotal}, ${ecoh}" append lattice_cohesive_energy.txt screen no

next i
jump SELF loop

change_box all x scale 1.0025 y scale 1.0025 z scale 1.0025 remap
Changing box ...
  orthogonal box = (0.015488309 0.02061178 0.02061178) to (4.1245117 4.1193882 4.1193882)
  orthogonal box = (0.015488309 0.015488309 0.02061178) to (4.1245117 4.1245117 4.1193882)
  orthogonal box = (0.015488309 0.015488309 0.015488309) to (4.1245117 4.1245117 4.1245117)

run 1
WARNING: No fixes with time integration, atoms won't move (src/verlet.cpp:60)
Per MPI rank memory allocation (min/avg/max) = 8.615 | 8.616 | 8.628 Mbytes
   Step         PotEng         TotEng           Lx             Ly             Lz           Volume         Press           Pxx            Pyy            Pzz      
        26  -41.721251     -41.721251      4.1090234      4.1090234      4.1090234      69.377051      63785.387      63785.387      63785.387      63785.387    
        27  -41.721251     -41.721251      4.1090234      4.1090234      4.1090234      69.377051      63785.387      63785.387      63785.387      63785.387    
Loop time of 0.000267125 on 8 procs for 1 steps with 8 atoms

Performance: 323.444 ns/day, 0.074 hours/ns, 3743.566 timesteps/s, 29.949 katom-step/s
0.0% CPU use with 8 MPI tasks x 1 OpenMP threads

MPI task timing breakdown:
Section |  min time  |  avg time  |  max time  |%varavg| %total
---------------------------------------------------------------
Pair    | 0.000177   | 0.00018588 | 0.000212   |   0.0 | 69.58
Neigh   | 0          | 0          | 0          |   0.0 |  0.00
Comm    | 3.2e-05    | 5.575e-05  | 6.5e-05    |   0.0 | 20.87
Output  | 1.6e-05    | 1.7875e-05 | 1.9e-05    |   0.0 |  6.69
Modify  | 0          | 0          | 0          |   0.0 |  0.00
Other   |            | 7.625e-06  |            |       |  2.85

Nlocal:              1 ave           1 max           1 min
Histogram: 8 0 0 0 0 0 0 0 0 0
Nghost:            511 ave         511 max         511 min
Histogram: 8 0 0 0 0 0 0 0 0 0
Neighs:             73 ave          73 max          73 min
Histogram: 8 0 0 0 0 0 0 0 0 0
FullNghs:          146 ave         146 max         146 min
Histogram: 8 0 0 0 0 0 0 0 0 0

Total # of neighbors = 1168
Ave neighs/atom = 146
Neighbor list builds = 0
Dangerous builds = 0
variable  natoms equal "count(all)"
variable xlength equal "lx"
variable  volume equal "vol"
variable  etotal equal "etotal"
variable    ecoh equal "pe/v_natoms"
print "${xlength}, ${volume}, ${etotal}, ${ecoh}" append lattice_cohesive_energy.txt screen no

next i
jump SELF loop

change_box all x scale 1.0025 y scale 1.0025 z scale 1.0025 remap
Changing box ...
  orthogonal box = (0.01035203 0.015488309 0.015488309) to (4.129648 4.1245117 4.1245117)
  orthogonal box = (0.01035203 0.01035203 0.015488309) to (4.129648 4.129648 4.1245117)
  orthogonal box = (0.01035203 0.01035203 0.01035203) to (4.129648 4.129648 4.129648)

run 1
WARNING: No fixes with time integration, atoms won't move (src/verlet.cpp:60)
Per MPI rank memory allocation (min/avg/max) = 8.615 | 8.616 | 8.628 Mbytes
   Step         PotEng         TotEng           Lx             Ly             Lz           Volume         Press           Pxx            Pyy            Pzz      
        27  -41.739141     -41.739141      4.1192959      4.1192959      4.1192959      69.898681      46220.013      46220.013      46220.013      46220.013    
        28  -41.739141     -41.739141      4.1192959      4.1192959      4.1192959      69.898681      46220.013      46220.013      46220.013      46220.013    
Loop time of 0.000269625 on 8 procs for 1 steps with 8 atoms

Performance: 320.445 ns/day, 0.075 hours/ns, 3708.855 timesteps/s, 29.671 katom-step/s
0.0% CPU use with 8 MPI tasks x 1 OpenMP threads

MPI task timing breakdown:
Section |  min time  |  avg time  |  max time  |%varavg| %total
---------------------------------------------------------------
Pair    | 0.000175   | 0.00018575 | 0.000213   |   0.0 | 68.89
Neigh   | 0          | 0          | 0          |   0.0 |  0.00
Comm    | 3.2e-05    | 5.75e-05   | 6.8e-05    |   0.0 | 21.33
Output  | 1.6e-05    | 1.75e-05   | 1.9e-05    |   0.0 |  6.49
Modify  | 0          | 1.25e-07   | 1e-06      |   0.0 |  0.05
Other   |            | 8.75e-06   |            |       |  3.25

Nlocal:              1 ave           1 max           1 min
Histogram: 8 0 0 0 0 0 0 0 0 0
Nghost:            511 ave         511 max         511 min
Histogram: 8 0 0 0 0 0 0 0 0 0
Neighs:             73 ave          73 max          73 min
Histogram: 8 0 0 0 0 0 0 0 0 0
FullNghs:          146 ave         146 max         146 min
Histogram: 8 0 0 0 0 0 0 0 0 0

Total # of neighbors = 1168
Ave neighs/atom = 146
Neighbor list builds = 0
Dangerous builds = 0
variable  natoms equal "count(all)"
variable xlength equal "lx"
variable  volume equal "vol"
variable  etotal equal "etotal"
variable    ecoh equal "pe/v_natoms"
print "${xlength}, ${volume}, ${etotal}, ${ecoh}" append lattice_cohesive_energy.txt screen no

next i
jump SELF loop

change_box all x scale 1.0025 y scale 1.0025 z scale 1.0025 remap
Changing box ...
  orthogonal box = (0.0052029102 0.01035203 0.01035203) to (4.1347971 4.129648 4.129648)
  orthogonal box = (0.0052029102 0.0052029102 0.01035203) to (4.1347971 4.1347971 4.129648)
  orthogonal box = (0.0052029102 0.0052029102 0.0052029102) to (4.1347971 4.1347971 4.1347971)

run 1
WARNING: No fixes with time integration, atoms won't move (src/verlet.cpp:60)
Per MPI rank memory allocation (min/avg/max) = 8.615 | 8.616 | 8.628 Mbytes
   Step         PotEng         TotEng           Lx             Ly             Lz           Volume         Press           Pxx            Pyy            Pzz      
        28  -41.751488     -41.751488      4.1295942      4.1295942      4.1295942      70.424233      29160.791      29160.791      29160.791      29160.791    
        29  -41.751488     -41.751488      4.1295942      4.1295942      4.1295942      70.424233      29160.791      29160.791      29160.791      29160.791    
Loop time of 0.000264125 on 8 procs for 1 steps with 8 atoms

Performance: 327.118 ns/day, 0.073 hours/ns, 3786.086 timesteps/s, 30.289 katom-step/s
0.0% CPU use with 8 MPI tasks x 1 OpenMP threads

MPI task timing breakdown:
Section |  min time  |  avg time  |  max time  |%varavg| %total
---------------------------------------------------------------
Pair    | 0.000169   | 0.00018062 | 0.000207   |   0.0 | 68.39
Neigh   | 0          | 0          | 0          |   0.0 |  0.00
Comm    | 3.2e-05    | 5.725e-05  | 6.9e-05    |   0.0 | 21.68
Output  | 1.6e-05    | 1.8375e-05 | 2.1e-05    |   0.0 |  6.96
Modify  | 0          | 0          | 0          |   0.0 |  0.00
Other   |            | 7.875e-06  |            |       |  2.98

Nlocal:              1 ave           1 max           1 min
Histogram: 8 0 0 0 0 0 0 0 0 0
Nghost:            511 ave         511 max         511 min
Histogram: 8 0 0 0 0 0 0 0 0 0
Neighs:             73 ave          73 max          73 min
Histogram: 8 0 0 0 0 0 0 0 0 0
FullNghs:          146 ave         146 max         146 min
Histogram: 8 0 0 0 0 0 0 0 0 0

Total # of neighbors = 1168
Ave neighs/atom = 146
Neighbor list builds = 0
Dangerous builds = 0
variable  natoms equal "count(all)"
variable xlength equal "lx"
variable  volume equal "vol"
variable  etotal equal "etotal"
variable    ecoh equal "pe/v_natoms"
print "${xlength}, ${volume}, ${etotal}, ${ecoh}" append lattice_cohesive_energy.txt screen no

next i
jump SELF loop

change_box all x scale 1.0025 y scale 1.0025 z scale 1.0025 remap
Changing box ...
  orthogonal box = (4.091744e-05 0.0052029102 0.0052029102) to (4.1399591 4.1347971 4.1347971)
  orthogonal box = (4.091744e-05 4.091744e-05 0.0052029102) to (4.1399591 4.1399591 4.1347971)
  orthogonal box = (4.091744e-05 4.091744e-05 4.091744e-05) to (4.1399591 4.1399591 4.1399591)

run 1
WARNING: No fixes with time integration, atoms won't move (src/verlet.cpp:60)
Per MPI rank memory allocation (min/avg/max) = 8.615 | 8.616 | 8.628 Mbytes
   Step         PotEng         TotEng           Lx             Ly             Lz           Volume         Press           Pxx            Pyy            Pzz      
        29  -41.758371     -41.758371      4.1399182      4.1399182      4.1399182      70.953736      12597.913      12597.913      12597.913      12597.913    
        30  -41.758371     -41.758371      4.1399182      4.1399182      4.1399182      70.953736      12597.913      12597.913      12597.913      12597.913    
Loop time of 0.000268875 on 8 procs for 1 steps with 8 atoms

Performance: 321.339 ns/day, 0.075 hours/ns, 3719.200 timesteps/s, 29.754 katom-step/s
0.0% CPU use with 8 MPI tasks x 1 OpenMP threads

MPI task timing breakdown:
Section |  min time  |  avg time  |  max time  |%varavg| %total
---------------------------------------------------------------
Pair    | 0.000173   | 0.00019012 | 0.000211   |   0.0 | 70.71
Neigh   | 0          | 0          | 0          |   0.0 |  0.00
Comm    | 3.3e-05    | 5.3e-05    | 6.8e-05    |   0.0 | 19.71
Output  | 1.6e-05    | 1.8125e-05 | 2.1e-05    |   0.0 |  6.74
Modify  | 0          | 1.25e-07   | 1e-06      |   0.0 |  0.05
Other   |            | 7.5e-06    |            |       |  2.79

Nlocal:              1 ave           1 max           1 min
Histogram: 8 0 0 0 0 0 0 0 0 0
Nghost:            511 ave         511 max         511 min
Histogram: 8 0 0 0 0 0 0 0 0 0
Neighs:             73 ave          73 max          73 min
Histogram: 8 0 0 0 0 0 0 0 0 0
FullNghs:          146 ave         146 max         146 min
Histogram: 8 0 0 0 0 0 0 0 0 0

Total # of neighbors = 1168
Ave neighs/atom = 146
Neighbor list builds = 0
Dangerous builds = 0
variable  natoms equal "count(all)"
variable xlength equal "lx"
variable  volume equal "vol"
variable  etotal equal "etotal"
variable    ecoh equal "pe/v_natoms"
print "${xlength}, ${volume}, ${etotal}, ${ecoh}" append lattice_cohesive_energy.txt screen no

next i
jump SELF loop

change_box all x scale 1.0025 y scale 1.0025 z scale 1.0025 remap
Changing box ...
  orthogonal box = (-0.0051339803 4.091744e-05 4.091744e-05) to (4.145134 4.1399591 4.1399591)
  orthogonal box = (-0.0051339803 -0.0051339803 4.091744e-05) to (4.145134 4.145134 4.1399591)
  orthogonal box = (-0.0051339803 -0.0051339803 -0.0051339803) to (4.145134 4.145134 4.145134)

run 1
WARNING: No fixes with time integration, atoms won't move (src/verlet.cpp:60)
Per MPI rank memory allocation (min/avg/max) = 8.615 | 8.616 | 8.628 Mbytes
   Step         PotEng         TotEng           Lx             Ly             Lz           Volume         Press           Pxx            Pyy            Pzz      
        30  -41.759873     -41.759873      4.150268       4.150268       4.150268       71.487221     -3478.285      -3478.285      -3478.285      -3478.285     
        31  -41.759873     -41.759873      4.150268       4.150268       4.150268       71.487221     -3478.285      -3478.285      -3478.285      -3478.285     
Loop time of 0.000266 on 8 procs for 1 steps with 8 atoms

Performance: 324.812 ns/day, 0.074 hours/ns, 3759.398 timesteps/s, 30.075 katom-step/s
0.0% CPU use with 8 MPI tasks x 1 OpenMP threads

MPI task timing breakdown:
Section |  min time  |  avg time  |  max time  |%varavg| %total
---------------------------------------------------------------
Pair    | 0.000171   | 0.00018763 | 0.000211   |   0.0 | 70.54
Neigh   | 0          | 0          | 0          |   0.0 |  0.00
Comm    | 3.1e-05    | 5.25e-05   | 6.8e-05    |   0.0 | 19.74
Output  | 1.7e-05    | 1.8125e-05 | 2e-05      |   0.0 |  6.81
Modify  | 0          | 1.25e-07   | 1e-06      |   0.0 |  0.05
Other   |            | 7.625e-06  |            |       |  2.87

Nlocal:              1 ave           1 max           1 min
Histogram: 8 0 0 0 0 0 0 0 0 0
Nghost:            511 ave         511 max         511 min
Histogram: 8 0 0 0 0 0 0 0 0 0
Neighs:             73 ave          73 max          73 min
Histogram: 8 0 0 0 0 0 0 0 0 0
FullNghs:          146 ave         146 max         146 min
Histogram: 8 0 0 0 0 0 0 0 0 0

Total # of neighbors = 1168
Ave neighs/atom = 146
Neighbor list builds = 0
Dangerous builds = 0
variable  natoms equal "count(all)"
variable xlength equal "lx"
variable  volume equal "vol"
variable  etotal equal "etotal"
variable    ecoh equal "pe/v_natoms"
print "${xlength}, ${volume}, ${etotal}, ${ecoh}" append lattice_cohesive_energy.txt screen no

next i
jump SELF loop

change_box all x scale 1.0025 y scale 1.0025 z scale 1.0025 remap
Changing box ...
  orthogonal box = (-0.010321815 -0.0051339803 -0.0051339803) to (4.1503218 4.145134 4.145134)
  orthogonal box = (-0.010321815 -0.010321815 -0.0051339803) to (4.1503218 4.1503218 4.145134)
  orthogonal box = (-0.010321815 -0.010321815 -0.010321815) to (4.1503218 4.1503218 4.1503218)

run 1
WARNING: No fixes with time integration, atoms won't move (src/verlet.cpp:60)
Per MPI rank memory allocation (min/avg/max) = 8.615 | 8.616 | 8.628 Mbytes
   Step         PotEng         TotEng           Lx             Ly             Lz           Volume         Press           Pxx            Pyy            Pzz      
        31  -41.756073     -41.756073      4.1606436      4.1606436      4.1606436      72.024716     -19077.326     -19077.326     -19077.326     -19077.326    
        32  -41.756073     -41.756073      4.1606436      4.1606436      4.1606436      72.024716     -19077.326     -19077.326     -19077.326     -19077.326    
Loop time of 0.00026375 on 8 procs for 1 steps with 8 atoms

Performance: 327.583 ns/day, 0.073 hours/ns, 3791.469 timesteps/s, 30.332 katom-step/s
0.0% CPU use with 8 MPI tasks x 1 OpenMP threads

MPI task timing breakdown:
Section |  min time  |  avg time  |  max time  |%varavg| %total
---------------------------------------------------------------
Pair    | 0.000171   | 0.00018637 | 0.000208   |   0.0 | 70.66
Neigh   | 0          | 0          | 0          |   0.0 |  0.00
Comm    | 3.3e-05    | 5.2125e-05 | 6.7e-05    |   0.0 | 19.76
Output  | 1.6e-05    | 1.7875e-05 | 2e-05      |   0.0 |  6.78
Modify  | 0          | 0          | 0          |   0.0 |  0.00
Other   |            | 7.375e-06  |            |       |  2.80

Nlocal:              1 ave           1 max           1 min
Histogram: 8 0 0 0 0 0 0 0 0 0
Nghost:            511 ave         511 max         511 min
Histogram: 8 0 0 0 0 0 0 0 0 0
Neighs:             73 ave          73 max          73 min
Histogram: 8 0 0 0 0 0 0 0 0 0
FullNghs:          146 ave         146 max         146 min
Histogram: 8 0 0 0 0 0 0 0 0 0

Total # of neighbors = 1168
Ave neighs/atom = 146
Neighbor list builds = 0
Dangerous builds = 0
variable  natoms equal "count(all)"
variable xlength equal "lx"
variable  volume equal "vol"
variable  etotal equal "etotal"
variable    ecoh equal "pe/v_natoms"
print "${xlength}, ${volume}, ${etotal}, ${ecoh}" append lattice_cohesive_energy.txt screen no

next i
jump SELF loop

change_box all x scale 1.0025 y scale 1.0025 z scale 1.0025 remap
Changing box ...
  orthogonal box = (-0.01552262 -0.010321815 -0.010321815) to (4.1555226 4.1503218 4.1503218)
  orthogonal box = (-0.01552262 -0.01552262 -0.010321815) to (4.1555226 4.1555226 4.1503218)
  orthogonal box = (-0.01552262 -0.01552262 -0.01552262) to (4.1555226 4.1555226 4.1555226)

run 1
WARNING: No fixes with time integration, atoms won't move (src/verlet.cpp:60)
Per MPI rank memory allocation (min/avg/max) = 8.615 | 8.616 | 8.628 Mbytes
   Step         PotEng         TotEng           Lx             Ly             Lz           Volume         Press           Pxx            Pyy            Pzz      
        32  -41.747051     -41.747051      4.1710452      4.1710452      4.1710452      72.566253     -34208.589     -34208.589     -34208.589     -34208.589    
        33  -41.747051     -41.747051      4.1710452      4.1710452      4.1710452      72.566253     -34208.589     -34208.589     -34208.589     -34208.589    
Loop time of 0.00027025 on 8 procs for 1 steps with 8 atoms

Performance: 319.704 ns/day, 0.075 hours/ns, 3700.278 timesteps/s, 29.602 katom-step/s
0.0% CPU use with 8 MPI tasks x 1 OpenMP threads

MPI task timing breakdown:
Section |  min time  |  avg time  |  max time  |%varavg| %total
---------------------------------------------------------------
Pair    | 0.000171   | 0.0001865  | 0.000209   |   0.0 | 69.01
Neigh   | 0          | 0          | 0          |   0.0 |  0.00
Comm    | 3.1e-05    | 5.2375e-05 | 6.8e-05    |   0.0 | 19.38
Output  | 1.7e-05    | 1.9625e-05 | 2.6e-05    |   0.0 |  7.26
Modify  | 0          | 0          | 0          |   0.0 |  0.00
Other   |            | 1.175e-05  |            |       |  4.35

Nlocal:              1 ave           1 max           1 min
Histogram: 8 0 0 0 0 0 0 0 0 0
Nghost:            511 ave         511 max         511 min
Histogram: 8 0 0 0 0 0 0 0 0 0
Neighs:             73 ave          73 max          73 min
Histogram: 8 0 0 0 0 0 0 0 0 0
FullNghs:          146 ave         146 max         146 min
Histogram: 8 0 0 0 0 0 0 0 0 0

Total # of neighbors = 1168
Ave neighs/atom = 146
Neighbor list builds = 0
Dangerous builds = 0
variable  natoms equal "count(all)"
variable xlength equal "lx"
variable  volume equal "vol"
variable  etotal equal "etotal"
variable    ecoh equal "pe/v_natoms"
print "${xlength}, ${volume}, ${etotal}, ${ecoh}" append lattice_cohesive_energy.txt screen no

next i
jump SELF loop

change_box all x scale 1.0025 y scale 1.0025 z scale 1.0025 remap
Changing box ...
  orthogonal box = (-0.020736426 -0.01552262 -0.01552262) to (4.1607364 4.1555226 4.1555226)
  orthogonal box = (-0.020736426 -0.020736426 -0.01552262) to (4.1607364 4.1607364 4.1555226)
  orthogonal box = (-0.020736426 -0.020736426 -0.020736426) to (4.1607364 4.1607364 4.1607364)

run 1
WARNING: No fixes with time integration, atoms won't move (src/verlet.cpp:60)
Per MPI rank memory allocation (min/avg/max) = 8.615 | 8.616 | 8.628 Mbytes
   Step         PotEng         TotEng           Lx             Ly             Lz           Volume         Press           Pxx            Pyy            Pzz      
        33  -41.732887     -41.732887      4.1814729      4.1814729      4.1814729      73.111862     -48881.317     -48881.317     -48881.317     -48881.317    
        34  -41.732887     -41.732887      4.1814729      4.1814729      4.1814729      73.111862     -48881.317     -48881.317     -48881.317     -48881.317    
Loop time of 0.000281125 on 8 procs for 1 steps with 8 atoms

Performance: 307.337 ns/day, 0.078 hours/ns, 3557.137 timesteps/s, 28.457 katom-step/s
0.0% CPU use with 8 MPI tasks x 1 OpenMP threads

MPI task timing breakdown:
Section |  min time  |  avg time  |  max time  |%varavg| %total
---------------------------------------------------------------
Pair    | 0.000181   | 0.00020287 | 0.000231   |   0.0 | 72.17
Neigh   | 0          | 0          | 0          |   0.0 |  0.00
Comm    | 2.5e-05    | 5.375e-05  | 7.6e-05    |   0.0 | 19.12
Output  | 1.6e-05    | 1.7e-05    | 1.8e-05    |   0.0 |  6.05
Modify  | 0          | 2.5e-07    | 1e-06      |   0.0 |  0.09
Other   |            | 7.25e-06   |            |       |  2.58

Nlocal:              1 ave           1 max           1 min
Histogram: 8 0 0 0 0 0 0 0 0 0
Nghost:            511 ave         511 max         511 min
Histogram: 8 0 0 0 0 0 0 0 0 0
Neighs:             61 ave          61 max          61 min
Histogram: 8 0 0 0 0 0 0 0 0 0
FullNghs:          122 ave         122 max         122 min
Histogram: 8 0 0 0 0 0 0 0 0 0

Total # of neighbors = 976
Ave neighs/atom = 122
Neighbor list builds = 0
Dangerous builds = 0
variable  natoms equal "count(all)"
variable xlength equal "lx"
variable  volume equal "vol"
variable  etotal equal "etotal"
variable    ecoh equal "pe/v_natoms"
print "${xlength}, ${volume}, ${etotal}, ${ecoh}" append lattice_cohesive_energy.txt screen no

next i
jump SELF loop

change_box all x scale 1.0025 y scale 1.0025 z scale 1.0025 remap
Changing box ...
  orthogonal box = (-0.025963267 -0.020736426 -0.020736426) to (4.1659633 4.1607364 4.1607364)
  orthogonal box = (-0.025963267 -0.025963267 -0.020736426) to (4.1659633 4.1659633 4.1607364)
  orthogonal box = (-0.025963267 -0.025963267 -0.025963267) to (4.1659633 4.1659633 4.1659633)

run 1
WARNING: No fixes with time integration, atoms won't move (src/verlet.cpp:60)
Per MPI rank memory allocation (min/avg/max) = 8.615 | 8.616 | 8.628 Mbytes
[...]
Pair    | 0.000202   | 0.00021525 | 0.000247   |   0.0 | 70.52
Neigh   | 0          | 0          | 0          |   0.0 |  0.00
Comm    | 3.1e-05    | 6.3125e-05 | 7.6e-05    |   0.0 | 20.68
Output  | 1.6e-05    | 1.7625e-05 | 2e-05      |   0.0 |  5.77
Modify  | 0          | 1.25e-07   | 1e-06      |   0.0 |  0.04
Other   |            | 9.125e-06  |            |       |  2.99

Nlocal:              1 ave           1 max           1 min
Histogram: 8 0 0 0 0 0 0 0 0 0
Nghost:            511 ave         511 max         511 min
Histogram: 8 0 0 0 0 0 0 0 0 0
Neighs:             61 ave          61 max          61 min
Histogram: 8 0 0 0 0 0 0 0 0 0
FullNghs:          122 ave         122 max         122 min
Histogram: 8 0 0 0 0 0 0 0 0 0

Total # of neighbors = 976
Ave neighs/atom = 122
Neighbor list builds = 0
Dangerous builds = 0
variable  natoms equal "count(all)"
variable xlength equal "lx"
variable  volume equal "vol"
variable  etotal equal "etotal"
variable    ecoh equal "pe/v_natoms"
print "${xlength}, ${volume}, ${etotal}, ${ecoh}" append lattice_cohesive_energy.txt screen no

next i
jump SELF loop

change_box all x scale 1.0025 y scale 1.0025 z scale 1.0025 remap
Changing box ...
  orthogonal box = (-0.10052606 -0.095113281 -0.095113281) to (4.2405261 4.2351133 4.2351133)
  orthogonal box = (-0.10052606 -0.10052606 -0.095113281) to (4.2405261 4.2405261 4.2351133)
  orthogonal box = (-0.10052606 -0.10052606 -0.10052606) to (4.2405261 4.2405261 4.2405261)

run 1
WARNING: No fixes with time integration, atoms won't move (src/verlet.cpp:60)
Per MPI rank memory allocation (min/avg/max) = 8.615 | 8.616 | 8.628 Mbytes
   Step         PotEng         TotEng           Lx             Ly             Lz           Volume         Press           Pxx            Pyy            Pzz      
        48  -40.955899     -40.955899      4.3410521      4.3410521      4.3410521      81.805971     -219822.93     -219822.93     -219822.93     -219822.93    
        49  -40.955899     -40.955899      4.3410521      4.3410521      4.3410521      81.805971     -219822.93     -219822.93     -219822.93     -219822.93    
Loop time of 0.000291375 on 8 procs for 1 steps with 8 atoms

Performance: 296.525 ns/day, 0.081 hours/ns, 3432.003 timesteps/s, 27.456 katom-step/s
0.0% CPU use with 8 MPI tasks x 1 OpenMP threads

MPI task timing breakdown:
Section |  min time  |  avg time  |  max time  |%varavg| %total
---------------------------------------------------------------
Pair    | 0.000185   | 0.00020462 | 0.000235   |   0.0 | 70.23
Neigh   | 0          | 0          | 0          |   0.0 |  0.00
Comm    | 3.2e-05    | 6.1125e-05 | 8.1e-05    |   0.0 | 20.98
Output  | 1.5e-05    | 1.7125e-05 | 1.9e-05    |   0.0 |  5.88
Modify  | 0          | 1.25e-07   | 1e-06      |   0.0 |  0.04
Other   |            | 8.375e-06  |            |       |  2.87

Nlocal:              1 ave           1 max           1 min
Histogram: 8 0 0 0 0 0 0 0 0 0
Nghost:            511 ave         511 max         511 min
Histogram: 8 0 0 0 0 0 0 0 0 0
Neighs:             61 ave          61 max          61 min
Histogram: 8 0 0 0 0 0 0 0 0 0
FullNghs:          122 ave         122 max         122 min
Histogram: 8 0 0 0 0 0 0 0 0 0

Total # of neighbors = 976
Ave neighs/atom = 122
Neighbor list builds = 0
Dangerous builds = 0
variable  natoms equal "count(all)"
variable xlength equal "lx"
variable  volume equal "vol"
variable  etotal equal "etotal"
variable    ecoh equal "pe/v_natoms"
print "${xlength}, ${volume}, ${etotal}, ${ecoh}" append lattice_cohesive_energy.txt screen no

next i
jump SELF loop

change_box all x scale 1.0025 y scale 1.0025 z scale 1.0025 remap
Changing box ...
  orthogonal box = (-0.10595238 -0.10052606 -0.10052606) to (4.2459524 4.2405261 4.2405261)
  orthogonal box = (-0.10595238 -0.10595238 -0.10052606) to (4.2459524 4.2459524 4.2405261)
  orthogonal box = (-0.10595238 -0.10595238 -0.10595238) to (4.2459524 4.2459524 4.2459524)

run 1
WARNING: No fixes with time integration, atoms won't move (src/verlet.cpp:60)
Per MPI rank memory allocation (min/avg/max) = 8.615 | 8.616 | 8.628 Mbytes
   Step         PotEng         TotEng           Lx             Ly             Lz           Volume         Press           Pxx            Pyy            Pzz      
        49  -40.869867     -40.869867      4.3519048      4.3519048      4.3519048      82.421051     -228308        -228308        -228308        -228308       
        50  -40.869867     -40.869867      4.3519048      4.3519048      4.3519048      82.421051     -228308        -228308        -228308        -228308       
Loop time of 0.00027275 on 8 procs for 1 steps with 8 atoms

Performance: 316.774 ns/day, 0.076 hours/ns, 3666.361 timesteps/s, 29.331 katom-step/s
0.0% CPU use with 8 MPI tasks x 1 OpenMP threads

MPI task timing breakdown:
Section |  min time  |  avg time  |  max time  |%varavg| %total
---------------------------------------------------------------
Pair    | 0.000172   | 0.000194   | 0.000217   |   0.0 | 71.13
Neigh   | 0          | 0          | 0          |   0.0 |  0.00
Comm    | 3.1e-05    | 5.3875e-05 | 7.6e-05    |   0.0 | 19.75
Output  | 1.4e-05    | 1.6375e-05 | 1.8e-05    |   0.0 |  6.00
Modify  | 0          | 0          | 0          |   0.0 |  0.00
Other   |            | 8.5e-06    |            |       |  3.12

Nlocal:              1 ave           1 max           1 min
Histogram: 8 0 0 0 0 0 0 0 0 0
Nghost:            511 ave         511 max         511 min
Histogram: 8 0 0 0 0 0 0 0 0 0
Neighs:             61 ave          61 max          61 min
Histogram: 8 0 0 0 0 0 0 0 0 0
FullNghs:          122 ave         122 max         122 min
Histogram: 8 0 0 0 0 0 0 0 0 0

Total # of neighbors = 976
Ave neighs/atom = 122
Neighbor list builds = 0
Dangerous builds = 0
variable  natoms equal "count(all)"
variable xlength equal "lx"
variable  volume equal "vol"
variable  etotal equal "etotal"
variable    ecoh equal "pe/v_natoms"
print "${xlength}, ${volume}, ${etotal}, ${ecoh}" append lattice_cohesive_energy.txt screen no

next i
jump SELF loop

change_box all x scale 1.0025 y scale 1.0025 z scale 1.0025 remap
Changing box ...
  orthogonal box = (-0.11139226 -0.10595238 -0.10595238) to (4.2513923 4.2459524 4.2459524)
  orthogonal box = (-0.11139226 -0.11139226 -0.10595238) to (4.2513923 4.2513923 4.2459524)
  orthogonal box = (-0.11139226 -0.11139226 -0.11139226) to (4.2513923 4.2513923 4.2513923)

run 1
WARNING: No fixes with time integration, atoms won't move (src/verlet.cpp:60)
Per MPI rank memory allocation (min/avg/max) = 8.615 | 8.616 | 8.628 Mbytes
   Step         PotEng         TotEng           Lx             Ly             Lz           Volume         Press           Pxx            Pyy            Pzz      
        50  -40.779969     -40.779969      4.3627845      4.3627845      4.3627845      83.040755     -236471.74     -236471.74     -236471.74     -236471.74    
        51  -40.779969     -40.779969      4.3627845      4.3627845      4.3627845      83.040755     -236471.74     -236471.74     -236471.74     -236471.74    
Loop time of 0.000274625 on 8 procs for 1 steps with 8 atoms

Performance: 314.611 ns/day, 0.076 hours/ns, 3641.329 timesteps/s, 29.131 katom-step/s
0.0% CPU use with 8 MPI tasks x 1 OpenMP threads

MPI task timing breakdown:
Section |  min time  |  avg time  |  max time  |%varavg| %total
---------------------------------------------------------------
Pair    | 0.000171   | 0.00019287 | 0.000218   |   0.0 | 70.23
Neigh   | 0          | 0          | 0          |   0.0 |  0.00
Comm    | 3.1e-05    | 5.575e-05  | 7.8e-05    |   0.0 | 20.30
Output  | 1.5e-05    | 1.7e-05    | 1.8e-05    |   0.0 |  6.19
Modify  | 0          | 3.75e-07   | 1e-06      |   0.0 |  0.14
Other   |            | 8.625e-06  |            |       |  3.14

Nlocal:              1 ave           1 max           1 min
Histogram: 8 0 0 0 0 0 0 0 0 0
Nghost:            511 ave         511 max         511 min
Histogram: 8 0 0 0 0 0 0 0 0 0
Neighs:             61 ave          61 max          61 min
Histogram: 8 0 0 0 0 0 0 0 0 0
FullNghs:          122 ave         122 max         122 min
Histogram: 8 0 0 0 0 0 0 0 0 0

Total # of neighbors = 976
Ave neighs/atom = 122
Neighbor list builds = 0
Dangerous builds = 0
variable  natoms equal "count(all)"
variable xlength equal "lx"
variable  volume equal "vol"
variable  etotal equal "etotal"
variable    ecoh equal "pe/v_natoms"
print "${xlength}, ${volume}, ${etotal}, ${ecoh}" append lattice_cohesive_energy.txt screen no

next i
jump SELF loop

change_box all x scale 1.0025 y scale 1.0025 z scale 1.0025 remap
Changing box ...
  orthogonal box = (-0.11684574 -0.11139226 -0.11139226) to (4.2568457 4.2513923 4.2513923)
  orthogonal box = (-0.11684574 -0.11684574 -0.11139226) to (4.2568457 4.2568457 4.2513923)
  orthogonal box = (-0.11684574 -0.11684574 -0.11684574) to (4.2568457 4.2568457 4.2568457)

run 1
WARNING: No fixes with time integration, atoms won't move (src/verlet.cpp:60)
Per MPI rank memory allocation (min/avg/max) = 8.615 | 8.616 | 8.628 Mbytes
   Step         PotEng         TotEng           Lx             Ly             Lz           Volume         Press           Pxx            Pyy            Pzz      
        51  -40.686275     -40.686275      4.3736915      4.3736915      4.3736915      83.665119     -244321.14     -244321.14     -244321.14     -244321.14    
        52  -40.686275     -40.686275      4.3736915      4.3736915      4.3736915      83.665119     -244321.14     -244321.14     -244321.14     -244321.14    
Loop time of 0.00027325 on 8 procs for 1 steps with 8 atoms

Performance: 316.194 ns/day, 0.076 hours/ns, 3659.652 timesteps/s, 29.277 katom-step/s
0.0% CPU use with 8 MPI tasks x 1 OpenMP threads

MPI task timing breakdown:
Section |  min time  |  avg time  |  max time  |%varavg| %total
---------------------------------------------------------------
Pair    | 0.000176   | 0.000192   | 0.000218   |   0.0 | 70.27
Neigh   | 0          | 0          | 0          |   0.0 |  0.00
Comm    | 3.1e-05    | 5.65e-05   | 7.2e-05    |   0.0 | 20.68
Output  | 1.5e-05    | 1.6625e-05 | 1.8e-05    |   0.0 |  6.08
Modify  | 0          | 1.25e-07   | 1e-06      |   0.0 |  0.05
Other   |            | 8e-06      |            |       |  2.93

Nlocal:              1 ave           1 max           1 min
Histogram: 8 0 0 0 0 0 0 0 0 0
Nghost:            511 ave         511 max         511 min
Histogram: 8 0 0 0 0 0 0 0 0 0
Neighs:             61 ave          61 max          61 min
Histogram: 8 0 0 0 0 0 0 0 0 0
FullNghs:          122 ave         122 max         122 min
Histogram: 8 0 0 0 0 0 0 0 0 0

Total # of neighbors = 976
Ave neighs/atom = 122
Neighbor list builds = 0
Dangerous builds = 0
variable  natoms equal "count(all)"
variable xlength equal "lx"
variable  volume equal "vol"
variable  etotal equal "etotal"
variable    ecoh equal "pe/v_natoms"
print "${xlength}, ${volume}, ${etotal}, ${ecoh}" append lattice_cohesive_energy.txt screen no

next i
jump SELF loop

change_box all x scale 1.0025 y scale 1.0025 z scale 1.0025 remap
Changing box ...
  orthogonal box = (-0.12231286 -0.11684574 -0.11684574) to (4.2623129 4.2568457 4.2568457)
  orthogonal box = (-0.12231286 -0.12231286 -0.11684574) to (4.2623129 4.2623129 4.2568457)
  orthogonal box = (-0.12231286 -0.12231286 -0.12231286) to (4.2623129 4.2623129 4.2623129)

run 1
WARNING: No fixes with time integration, atoms won't move (src/verlet.cpp:60)
Per MPI rank memory allocation (min/avg/max) = 8.615 | 8.616 | 8.628 Mbytes
   Step         PotEng         TotEng           Lx             Ly             Lz           Volume         Press           Pxx            Pyy            Pzz      
        52  -40.588855     -40.588855      4.3846257      4.3846257      4.3846257      84.294178     -251863.07     -251863.07     -251863.07     -251863.07    
        53  -40.588855     -40.588855      4.3846257      4.3846257      4.3846257      84.294178     -251863.07     -251863.07     -251863.07     -251863.07    
Loop time of 0.000273 on 8 procs for 1 steps with 8 atoms

Performance: 316.484 ns/day, 0.076 hours/ns, 3663.004 timesteps/s, 29.304 katom-step/s
0.0% CPU use with 8 MPI tasks x 1 OpenMP threads

MPI task timing breakdown:
Section |  min time  |  avg time  |  max time  |%varavg| %total
---------------------------------------------------------------
Pair    | 0.000175   | 0.00019387 | 0.000217   |   0.0 | 71.02
Neigh   | 0          | 0          | 0          |   0.0 |  0.00
Comm    | 3.1e-05    | 5.425e-05  | 7.3e-05    |   0.0 | 19.87
Output  | 1.5e-05    | 1.6625e-05 | 1.8e-05    |   0.0 |  6.09
Modify  | 0          | 2.5e-07    | 1e-06      |   0.0 |  0.09
Other   |            | 8e-06      |            |       |  2.93

Nlocal:              1 ave           1 max           1 min
Histogram: 8 0 0 0 0 0 0 0 0 0
Nghost:            511 ave         511 max         511 min
Histogram: 8 0 0 0 0 0 0 0 0 0
Neighs:             61 ave          61 max          61 min
Histogram: 8 0 0 0 0 0 0 0 0 0
FullNghs:          122 ave         122 max         122 min
Histogram: 8 0 0 0 0 0 0 0 0 0

Total # of neighbors = 976
Ave neighs/atom = 122
Neighbor list builds = 0
Dangerous builds = 0
variable  natoms equal "count(all)"
variable xlength equal "lx"
variable  volume equal "vol"
variable  etotal equal "etotal"
variable    ecoh equal "pe/v_natoms"
print "${xlength}, ${volume}, ${etotal}, ${ecoh}" append lattice_cohesive_energy.txt screen no

next i
jump SELF loop

change_box all x scale 1.0025 y scale 1.0025 z scale 1.0025 remap
Changing box ...
  orthogonal box = (-0.12779364 -0.12231286 -0.12231286) to (4.2677936 4.2623129 4.2623129)
  orthogonal box = (-0.12779364 -0.12779364 -0.12231286) to (4.2677936 4.2677936 4.2623129)
  orthogonal box = (-0.12779364 -0.12779364 -0.12779364) to (4.2677936 4.2677936 4.2677936)

run 1
WARNING: No fixes with time integration, atoms won't move (src/verlet.cpp:60)
Per MPI rank memory allocation (min/avg/max) = 8.615 | 8.616 | 8.628 Mbytes
   Step         PotEng         TotEng           Lx             Ly             Lz           Volume         Press           Pxx            Pyy            Pzz      
        53  -40.48778      -40.48778       4.3955873      4.3955873      4.3955873      84.927966     -259104.3      -259104.3      -259104.3      -259104.3     
        54  -40.48778      -40.48778       4.3955873      4.3955873      4.3955873      84.927966     -259104.3      -259104.3      -259104.3      -259104.3     
Loop time of 0.000273125 on 8 procs for 1 steps with 8 atoms

Performance: 316.339 ns/day, 0.076 hours/ns, 3661.327 timesteps/s, 29.291 katom-step/s
0.0% CPU use with 8 MPI tasks x 1 OpenMP threads

MPI task timing breakdown:
Section |  min time  |  avg time  |  max time  |%varavg| %total
---------------------------------------------------------------
Pair    | 0.000173   | 0.00019137 | 0.000219   |   0.0 | 70.07
Neigh   | 0          | 0          | 0          |   0.0 |  0.00
Comm    | 3e-05      | 5.75e-05   | 7.6e-05    |   0.0 | 21.05
Output  | 1.5e-05    | 1.65e-05   | 1.8e-05    |   0.0 |  6.04
Modify  | 0          | 0          | 0          |   0.0 |  0.00
Other   |            | 7.75e-06   |            |       |  2.84

Nlocal:              1 ave           1 max           1 min
Histogram: 8 0 0 0 0 0 0 0 0 0
Nghost:            511 ave         511 max         511 min
Histogram: 8 0 0 0 0 0 0 0 0 0
Neighs:             61 ave          61 max          61 min
Histogram: 8 0 0 0 0 0 0 0 0 0
FullNghs:          122 ave         122 max         122 min
Histogram: 8 0 0 0 0 0 0 0 0 0

Total # of neighbors = 976
Ave neighs/atom = 122
Neighbor list builds = 0
Dangerous builds = 0
variable  natoms equal "count(all)"
variable xlength equal "lx"
variable  volume equal "vol"
variable  etotal equal "etotal"
variable    ecoh equal "pe/v_natoms"
print "${xlength}, ${volume}, ${etotal}, ${ecoh}" append lattice_cohesive_energy.txt screen no

next i
jump SELF loop

change_box all x scale 1.0025 y scale 1.0025 z scale 1.0025 remap
Changing box ...
  orthogonal box = (-0.13328812 -0.12779364 -0.12779364) to (4.2732881 4.2677936 4.2677936)
  orthogonal box = (-0.13328812 -0.13328812 -0.12779364) to (4.2732881 4.2732881 4.2677936)
  orthogonal box = (-0.13328812 -0.13328812 -0.13328812) to (4.2732881 4.2732881 4.2732881)

run 1
WARNING: No fixes with time integration, atoms won't move (src/verlet.cpp:60)
Per MPI rank memory allocation (min/avg/max) = 8.591 | 8.593 | 8.605 Mbytes
   Step         PotEng         TotEng           Lx             Ly             Lz           Volume         Press           Pxx            Pyy            Pzz      
        54  -40.383117     -40.383117      4.4065762      4.4065762      4.4065762      85.566519     -266051.49     -266051.49     -266051.49     -266051.49    
        55  -40.383117     -40.383117      4.4065762      4.4065762      4.4065762      85.566519     -266051.49     -266051.49     -266051.49     -266051.49    
Loop time of 0.000175625 on 8 procs for 1 steps with 8 atoms

Performance: 491.957 ns/day, 0.049 hours/ns, 5693.950 timesteps/s, 45.552 katom-step/s
0.0% CPU use with 8 MPI tasks x 1 OpenMP threads

MPI task timing breakdown:
Section |  min time  |  avg time  |  max time  |%varavg| %total
---------------------------------------------------------------
Pair    | 0.000109   | 0.00011712 | 0.000131   |   0.0 | 66.69
Neigh   | 0          | 0          | 0          |   0.0 |  0.00
Comm    | 2.1e-05    | 3.4375e-05 | 4.2e-05    |   0.0 | 19.57
Output  | 1.4e-05    | 1.6e-05    | 1.8e-05    |   0.0 |  9.11
Modify  | 0          | 1.25e-07   | 1e-06      |   0.0 |  0.07
Other   |            | 8e-06      |            |       |  4.56

Nlocal:              1 ave           1 max           1 min
Histogram: 8 0 0 0 0 0 0 0 0 0
Nghost:            215 ave         215 max         215 min
Histogram: 8 0 0 0 0 0 0 0 0 0
Neighs:             46 ave          46 max          46 min
Histogram: 8 0 0 0 0 0 0 0 0 0
FullNghs:           92 ave          92 max          92 min
Histogram: 8 0 0 0 0 0 0 0 0 0

Total # of neighbors = 736
Ave neighs/atom = 92
Neighbor list builds = 0
Dangerous builds = 0
variable  natoms equal "count(all)"
variable xlength equal "lx"
variable  volume equal "vol"
variable  etotal equal "etotal"
variable    ecoh equal "pe/v_natoms"
print "${xlength}, ${volume}, ${etotal}, ${ecoh}" append lattice_cohesive_energy.txt screen no

next i
jump SELF loop

print "-------------------------------------------------------------"
-------------------------------------------------------------
print "Show results of 1st step (Running Minimization)"
Show results of 1st step (Running Minimization)
print "The number of atoms = ${natoms};"
The number of atoms = 8;
print "The lattice constant, x (Angstoms) = ${x0};"
The lattice constant, x (Angstoms) = 4.40657624267056;
print "The lattice constant, y (Angstoms) = ${y0};"
The lattice constant, y (Angstoms) = 4.40657624267056;
print "The lattice constant, z (Angstoms) = ${z0};"
The lattice constant, z (Angstoms) = 4.40657624267056;
print "The volume (Angstoms^3) = ${v0};"
The volume (Angstoms^3) = 85.5665193186819;
print "The total energy (eV) = ${etot0};"
The total energy (eV) = -40.3831168476938;
print "The cohesive energy (eV/atom) = ${ecoh0};"
The cohesive energy (eV/atom) = -5.04788960596172;
print "-------------------------------------------------------------"
-------------------------------------------------------------
print "Simulations completed !"
Simulations completed !
Total wall time: 0:00:00
