# LAMMPS data file written by OVITO Basic 3.8.4

6 atoms
2 atom types

0.0 4.77 xlo xhi
0.0 4.77 ylo yhi
0.0 6.55 zlo zhi

Masses

1 180.9479  # Ta
2 28.0855  # Si

Atoms  # atomic

1 1 0.0 0.0 0.0
2 1 2.385 2.385 3.275
3 2 2.385 2.385 1.079702
4 2 0.0 0.0 2.195298
5 2 0.0 0.0 4.354702
6 2 2.385 2.385 5.470298
