ITEM: TIMESTEP
0
ITEM: NUMBER OF ATOMS
4320
ITEM: BOX BOUNDS xy xz yz pp pp pp
-9.4688264009169743e-02 2.1685088264008797e+01 0.0000000000000000e+00
-1.2858574113922394e-01 2.1718985741139189e+01 0.0000000000000000e+00
-1.0889678136016840e+00 1.0412896781360115e+02 0.0000000000000000e+00
ITEM: ATOMS id type x y z c_peratom fx fy fz 
6 1 0.84488 0.586952 1.15335 -7.34057 0.89167 1.00017 2.183 
222 1 0.737046 0.848169 6.62437 -8.46525 0.689813 -0.267621 -0.0841704 
438 1 0.797818 0.471192 11.7282 -7.60132 -0.538304 -0.197898 1.37289 
42 1 0.968769 4.49127 1.13924 -7.49639 -0.0694922 0.00347226 1.11223 
258 1 0.91787 4.11789 6.68885 -7.45794 -1.37581 0.647044 -2.00726 
474 1 0.677716 4.12836 11.8965 -8.36733 0.71831 0.636785 0.181172 
78 1 0.839332 7.96099 1.34404 -8.45433 -0.50105 -0.167506 -1.43729 
294 1 0.827504 8.23481 6.49145 -8.26017 0.833176 -0.453412 0.850399 
510 1 0.992785 7.81477 11.7037 -7.86104 -0.819015 0.0156928 0.0128567 
12 1 4.42811 0.696589 1.24669 -7.96642 0.729938 0.490395 -0.240154 
228 1 4.73519 0.692947 6.48804 -7.2697 -1.59398 0.541057 -0.354869 
444 1 4.68867 0.672224 11.7797 -7.71888 -1.31694 1.39517 -0.0607641 
48 1 4.6109 4.32303 1.40898 -7.82354 -1.22689 -0.00618836 -1.38134 
264 1 4.42766 4.5098 6.47856 -8.3221 -0.534251 -1.44212 -0.33505 
480 1 4.31201 4.13796 11.7335 -7.72271 0.100018 -1.48616 -1.72898 
84 1 4.72587 7.82292 1.27104 -7.67302 -0.746961 0.160038 -1.5803 
300 1 4.75681 7.90349 6.60839 -7.85867 -1.94817 0.533758 -1.39388 
516 1 4.19342 7.87955 11.6073 -8.0933 -0.413498 0.107067 1.60163 
18 1 8.29972 0.621523 1.29872 -7.9912 0.0299911 2.10129 -0.282115 
234 1 8.08095 0.679804 6.56145 -8.24521 0.0392313 0.0427828 0.0179112 
450 1 7.96816 0.505314 11.9201 -8.0459 0.0520525 -0.868257 -0.461119 
54 1 8.30443 4.16555 1.1279 -7.27679 -0.583824 0.817126 0.835537 
270 1 8.29798 4.2432 6.37273 -8.12904 0.641248 1.0018 1.48737 
486 1 8.05337 4.47731 11.8763 -7.97466 0.630828 0.131705 -0.294585 
90 1 7.95649 7.9052 1.00129 -7.64872 0.0327523 1.69559 -0.725483 
306 1 8.34597 7.90693 6.46833 -7.86155 0.203106 0.869666 0.215907 
522 1 7.73193 7.80414 11.8233 -7.41185 1.45158 -0.645635 0.254726 
5 1 0.864675 0.8269 3.91193 -8.51377 2.22005 -1.79524 -0.149451 
221 1 0.443501 0.557714 9.27843 -7.75289 1.39925 -1.13768 -1.68767 
437 1 1.0728 0.678187 14.3207 -7.40794 -0.716762 -0.394937 0.280916 
41 1 0.9742 4.03959 3.82358 -7.63956 -0.668992 0.32293 0.121612 
257 1 0.855476 4.26031 9.21993 -7.26378 1.39597 -0.224308 0.0881255 
473 1 0.664107 4.44398 14.5742 -8.41728 1.46371 -0.931814 -0.621686 
77 1 0.943346 7.70558 3.90192 -7.90376 -1.23519 1.44484 0.0895983 
293 1 0.837915 7.95433 9.14906 -8.23674 1.03639 0.28147 -0.147961 
509 1 0.893103 7.76944 14.2884 -7.65444 -1.63778 1.44308 -0.500731 
11 1 4.72818 0.364512 3.95868 -7.99911 -1.32986 -0.0625274 -0.91053 
227 1 4.37447 0.744861 9.03287 -7.68486 0.902986 1.1072 0.663486 
443 1 4.37057 0.463296 14.5691 -8.50673 0.781563 1.10479 -0.927218 
47 1 4.69227 4.28535 3.86693 -8.41025 -1.95372 0.283532 2.555 
263 1 4.58518 4.08584 9.04085 -8.06542 -1.71797 -0.671968 0.460722 
479 1 4.19409 4.37346 14.2283 -7.37172 1.41931 -0.207217 2.02497 
83 1 4.63239 7.48819 3.70179 -8.28177 -0.960149 0.390449 2.00492 
299 1 4.47174 8.15946 9.15863 -7.77889 -1.72293 -0.856428 -1.54005 
515 1 4.11428 8.43373 14.2748 -7.5469 2.68312 -0.0850718 0.0146075 
17 1 8.37295 0.660367 3.90421 -8.23925 0.205765 0.375015 1.17627 
233 1 8.16161 0.619636 9.15098 -7.77642 -1.84979 -0.37262 0.796786 
449 1 8.15132 0.905708 14.5045 -8.59324 -0.0832855 1.45453 0.866218 
53 1 8.32023 4.3543 3.83591 -8.15513 0.490979 -1.16998 0.734101 
269 1 8.28654 4.6582 9.03926 -7.59314 -0.857213 -1.69646 -0.892369 
485 1 7.73132 4.56392 14.5133 -8.23513 2.64264 -0.705395 -0.156886 
89 1 8.20809 7.65259 3.58183 -7.91223 -1.12761 1.18303 2.40513 
305 1 8.20032 7.83834 9.28489 -8.08546 0.896812 -0.166016 -1.41458 
521 1 7.90796 8.07694 14.4091 -8.03369 1.06365 -1.40767 1.93256 
2 2 1.07173 2.64235 0.446455 -29.1917 -1.33233 -1.66844 -0.431205 
218 2 0.79203 2.35209 5.31635 -28.7344 2.19568 2.85172 1.26589 
434 2 0.700077 2.26704 10.8548 -29.4987 0.90615 0.957203 -0.720734 
650 2 0.644209 2.74413 15.9334 -28.8082 1.72579 -1.3815 -0.0109453 
38 2 0.92198 6.23096 0.184986 -28.377 -1.67548 -0.68783 1.2389 
254 2 0.925191 6.19876 5.71386 -29.3416 -0.690132 -1.18419 -1.39726 
470 2 0.835857 6.06292 10.5887 -29.0625 0.719647 -0.577251 0.985512 
75 1 2.80063 9.65451 -0.743582 -8.16764 -1.05613 2.22011 -0.851196 
74 2 0.926358 9.71612 0.26706 -28.258 -0.17936 0.524628 -0.64196 
290 2 0.89976 9.70561 5.30659 -29.1542 -0.271797 1.64686 -0.694261 
506 2 0.756302 9.76644 10.9544 -28.8652 -0.683268 -0.489218 -1.95607 
87 1 9.7167 9.727 -0.72427 -7.89617 -0.324077 0.216336 -1.60066 
8 2 4.54419 2.46493 0.325417 -28.1829 -0.139473 0.281163 0.863014 
224 2 4.52132 2.68128 5.65367 -28.4148 0.734737 -2.4641 -0.543608 
440 2 4.47445 2.35585 10.6695 -28.9752 -0.0257266 0.270196 -0.480303 
656 2 4.21521 2.58481 15.8855 -28.6789 0.921023 0.13552 1.47875 
44 2 4.48113 5.98099 0.265428 -28.6121 0.876644 1.21142 0.471291 
260 2 4.57408 6.2361 5.36219 -28.9556 0.834597 -0.120795 1.57237 
476 2 4.31746 6.04695 10.7395 -29.0489 2.38652 -0.679989 0.951679 
692 2 4.38562 6.20587 16.1949 -29.0418 -0.246988 -0.687545 -0.92469 
80 2 4.44546 9.71116 0.130729 -28.3866 1.85178 -0.508897 2.23808 
296 2 4.58289 9.92892 5.40148 -28.4941 -1.93022 -1.62802 1.46437 
512 2 4.43724 9.6593 10.6108 -29.5636 1.1835 1.1869 1.17733 
728 2 4.34684 9.86403 15.9484 -29.1123 0.525653 -0.0535712 -0.559379 
14 2 8.09773 2.49513 0.12398 -28.8343 1.76486 -0.0065957 1.18047 
230 2 8.36957 2.53533 5.56632 -28.6733 -0.128516 -1.43817 -0.838014 
446 2 8.19117 2.5462 10.9906 -28.9676 -1.69674 -0.583728 -1.0406 
3 1 2.77204 2.22914 -0.927175 -8.31044 0.52031 1.40328 2.27812 
50 2 8.14147 6.17341 0.166215 -29.8358 1.24277 -1.78486 -0.18155 
266 2 8.37851 6.31596 5.44123 -29.2552 0.0102443 -1.81379 0.12327 
482 2 8.00335 6.09061 10.6684 -29.4998 0.318719 0.381292 0.269918 
698 2 8.02502 6.32389 15.8334 -27.9382 -1.21024 -0.721994 0.253223 
86 2 7.97083 10.0182 0.406078 -28.9029 0.516929 -1.81682 -0.701472 
302 2 8.1508 9.99449 5.46701 -29.0019 0.236613 -2.51612 0.846478 
518 2 8.24 9.60355 10.8452 -29.826 -1.58674 0.387139 -0.155925 
734 2 8.15837 9.84769 16.1807 -28.4681 -2.26649 0.951555 -0.542598 
1 2 2.84554 0.698012 2.95386 -28.5026 0.569209 1.09285 0.0100639 
217 2 2.41868 0.585741 8.17238 -28.9493 0.687029 1.56298 0.429063 
433 2 2.64019 0.348087 13.2554 -29.0775 0.870286 0.880755 0.329566 
37 2 2.83483 4.37305 2.98765 -28.7731 -1.39835 0.018822 -0.608687 
253 2 2.7072 4.28454 7.99702 -28.9981 -1.19453 1.43348 1.12178 
469 2 2.49851 4.10277 13.19 -29.1742 0.154808 -0.422665 0.447168 
73 2 2.76084 7.9221 2.8986 -28.7837 -0.539612 -0.90442 0.332128 
289 2 2.69296 8.15703 7.92431 -28.0826 0.20582 -1.65719 1.66487 
505 2 2.68193 7.84717 13.2323 -29.334 -1.81802 -0.56687 -0.643776 
7 2 6.55916 0.63321 3.0904 -28.9086 -0.712923 0.838543 -0.37865 
223 2 6.23723 0.67488 8.16726 -29.4711 0.0951125 -0.182618 -0.983158 
439 2 6.31126 0.795083 13.4461 -28.5134 -0.495179 -1.99341 -1.11824 
43 2 6.47827 4.19976 3.18608 -29.1898 0.276225 0.840306 -2.08333 
259 2 6.34451 4.21455 7.95408 -28.9877 1.05077 1.23904 2.29632 
475 2 6.10588 4.24023 13.4296 -29.1619 -0.770028 1.39143 -0.981505 
79 2 6.32971 7.77349 2.69342 -29.3016 0.795124 1.16377 -0.0456726 
295 2 6.38956 7.77425 8.1614 -29.8735 -0.493695 1.41635 -0.113588 
511 2 6.06955 7.79352 13.4753 -29.6799 0.491516 2.73205 -2.17576 
13 2 10.1095 0.640805 2.81469 -29.0054 -0.195159 0.849602 -0.16924 
229 2 9.85666 0.622626 8.24543 -28.9605 0.897716 0.721205 0.259082 
445 2 9.9512 0.839516 13.4869 -28.4259 -0.0962257 -0.547107 -0.176755 
49 2 10.0076 4.43219 2.93616 -29.8238 2.34384 -0.282968 -1.94762 
265 2 10.0646 4.30042 8.0387 -28.7229 -0.754439 0.723727 0.222799 
481 2 9.94379 4.49808 13.3473 -28.1265 -0.138018 -2.86081 1.95667 
85 2 9.85295 8.02828 2.72304 -29.4342 2.92161 0.556149 0.453203 
301 2 10.0103 8.01324 8.29011 -29.2944 0.69899 -0.531815 -1.04252 
517 2 9.96209 7.98321 13.5404 -28.5232 -3.21596 0.932402 -2.32903 
686 2 0.993153 6.18572 15.8656 -29.2851 -2.00193 0.212139 0.302982 
219 1 2.86551 2.35144 4.38491 -8.47588 1.09604 0.113534 0.550942 
435 1 2.44832 2.11223 9.83353 -7.58071 0.718271 1.41605 -1.05502 
651 1 2.6293 2.56165 14.766 -7.66223 -1.19324 0.660464 2.03547 
520 1 9.60731 9.765 12.4186 -8.12561 1.63405 0.314386 -0.589972 
255 1 2.58161 5.97358 4.6562 -7.95811 2.27473 -0.766832 -1.98078 
471 1 2.74786 5.96919 9.70117 -8.26311 -0.735775 0.291075 -1.18604 
687 1 2.72522 6.38035 14.9595 -7.56021 1.08528 -1.3189 1.47593 
88 1 9.78201 9.75978 1.83816 -7.66953 -0.920109 1.35148 -0.657055 
291 1 2.86526 9.45328 4.41185 -8.05658 0.0533977 -1.65402 1.22947 
507 1 2.49786 10.005 9.8218 -8.0475 0.997429 -0.433022 -1.34444 
723 1 2.3644 9.99105 15.001 -8.16882 2.29207 1.45044 -0.888861 
39 1 2.57673 5.99613 -0.816862 -8.81303 1.90024 1.21683 -0.140899 
225 1 6.45897 2.39539 4.59623 -8.01428 0.124961 0.711872 0.206807 
441 1 6.59712 2.59413 9.64617 -7.70891 -1.03318 -0.54596 0.67269 
657 1 6.08262 2.64068 14.9083 -8.64293 0.157889 -1.73639 0.118255 
52 1 9.87989 6.32488 1.84762 -7.41623 -0.372364 -1.45569 -0.451168 
261 1 6.5532 6.01013 4.7576 -7.29124 -1.04011 -0.194518 -1.70051 
477 1 6.20388 6.11672 9.75161 -7.84805 -1.06284 0.146539 -0.157103 
693 1 5.98119 6.40488 14.8639 -8.0447 0.144714 -0.134 2.18877 
304 1 10.2261 9.77851 7.04779 -7.79437 -1.89578 -1.09128 0.615316 
297 1 6.23631 9.59092 4.77476 -7.81983 2.16601 -0.865405 -3.79922 
513 1 6.42723 9.52985 9.93069 -6.92812 -0.755412 0.929363 0.173532 
729 1 6.23453 10.1055 15.0572 -7.01743 0.0529941 -0.271215 2.9068 
662 2 8.21935 2.66005 15.8908 -27.8199 -1.47261 1.0742 0.721163 
231 1 10.3217 2.42382 4.62232 -7.62732 -2.26376 -0.616155 -1.0428 
447 1 9.84449 2.46006 9.95731 -8.13572 1.17025 0.681981 -1.65541 
663 1 10.0701 2.84336 14.8494 -8.57799 -1.5663 -0.441787 1.86699 
15 1 10.0986 2.67104 -0.720987 -7.55947 -1.39453 -1.51363 0.138364 
267 1 10.2542 6.11185 4.54798 -7.58426 -2.45314 0.282087 -0.69189 
483 1 10.0045 6.07011 10.0085 -7.3325 1.21207 0.857827 0.117967 
699 1 9.89748 6.26827 14.9756 -8.60617 -0.460763 -0.409692 1.83553 
722 2 0.770346 9.76223 15.7738 -28.5777 -1.62726 -0.205664 3.70735 
303 1 9.92737 9.75539 4.35125 -7.49775 0.365465 -0.878551 1.41599 
519 1 10.1996 9.57297 9.79678 -7.62492 -3.11133 -0.797909 -0.20243 
735 1 9.64553 9.90265 14.973 -7.96913 0.654626 1.31755 1.22765 
4 1 2.69071 2.62444 1.70088 -8.55236 0.481707 -0.620841 0.872079 
220 1 2.70214 2.59591 7.11791 -7.94385 2.04491 -2.96869 -0.432008 
436 1 2.64857 2.13217 12.3241 -7.47075 -0.0518894 1.57502 -0.541152 
40 1 2.69143 6.23724 1.86744 -8.19218 1.06866 -1.2499 -0.331375 
256 1 2.56322 6.28204 7.04862 -8.09243 0.358662 0.697007 1.8203 
472 1 2.57543 5.8761 12.3724 -7.74817 -0.57828 1.10736 -1.02983 
76 1 2.78332 9.55747 1.85675 -8.15737 0.888356 0.379604 -1.72563 
292 1 2.85312 9.85234 7.04944 -8.41418 0.977021 -0.23857 -0.411338 
508 1 2.36279 9.88822 12.297 -8.17221 0.0444243 -0.235892 1.30958 
10 1 6.34886 2.49085 2.11326 -7.81057 0.391164 -1.17376 -1.89358 
226 1 6.34168 2.52625 7.09412 -7.9153 -0.33002 0.495943 -0.127625 
442 1 6.45537 2.53648 12.2834 -8.21543 -0.960184 -0.0800667 0.870451 
46 1 6.52371 5.97795 2.03344 -7.39034 0.0303119 -1.34328 -0.885792 
262 1 6.32989 5.95285 7.14253 -7.16766 1.3157 1.48313 1.33959 
478 1 5.92575 5.9996 12.4291 -7.34608 -0.265745 0.437882 -1.11159 
82 1 6.35383 9.72892 1.87739 -7.79383 0.525549 0.551545 1.64037 
298 1 6.68247 9.64383 7.24818 -7.06616 0.15012 0.995909 1.16223 
514 1 6.01644 9.71129 12.661 -6.37872 -0.290005 -1.19041 -1.77884 
16 1 10.1209 2.45575 2.01664 -7.30412 -0.0940794 0.942525 -0.107909 
232 1 10.0284 2.27871 7.16809 -8.00469 -0.97248 2.2668 1.27066 
448 1 9.69354 2.5648 12.4367 -8.30762 0.948289 -0.413984 0.0826675 
51 1 10.0908 5.78721 -0.844541 -7.38705 -0.653435 1.28652 -0.592876 
268 1 10.1744 6.21267 7.188 -7.66894 -0.65667 -0.199019 1.12241 
484 1 10.0281 6.11663 12.5908 -8.07036 0.45919 1.66746 -2.18075 
81 1 6.25193 9.90839 -0.800027 -8.52183 -0.602682 -0.579681 -0.837123 
45 1 6.3121 6.11122 -0.736589 -7.86707 -0.369086 -0.318273 0.0538898 
9 1 6.27391 2.22236 -0.694398 -8.75799 -0.274169 -0.311347 0.227899 
654 1 0.470257 0.861777 16.795 -7.07716 0.33369 1.20719 0.866949 
870 1 0.579035 0.721725 22.2146 -8.34247 -0.178342 0.552572 -0.914426 
1086 1 1.27258 0.856554 27.2457 -8.39015 -0.652228 0.838651 1.69745 
1302 1 0.520258 0.828307 32.9703 -7.9761 0.847468 0.541567 -2.97693 
690 1 1.13963 4.492 17.1965 -7.77772 -0.774773 -0.884107 -2.78395 
906 1 0.565202 4.71439 22.403 -7.89732 1.49532 -2.88311 -1.68807 
1122 1 0.607917 4.40142 27.4814 -8.10555 -0.58876 -0.354005 1.08284 
1338 1 0.922407 4.44463 32.8037 -7.27885 -0.545187 1.17632 0.277171 
726 1 0.907026 7.94732 16.9418 -8.08603 -0.643753 -0.400402 0.681341 
942 1 0.946386 7.96526 22.2617 -7.90327 1.15275 1.63837 1.2529 
1158 1 0.379158 8.03743 27.3368 -7.59577 -0.780258 0.822101 1.24686 
1374 1 0.504531 8.15695 32.7031 -8.04781 -1.18283 0.312046 0.58704 
660 1 4.49097 0.836132 17.1608 -7.80826 0.918219 0.408494 -1.17379 
876 1 5.15161 0.926315 22.0846 -6.99757 -1.30778 -1.04474 -0.0688817 
1092 1 4.40592 0.641456 27.472 -7.8714 -0.345636 3.96643 0.326269 
1308 1 4.52416 0.785228 32.6841 -8.05358 -1.53336 -0.79956 -0.797457 
696 1 4.35541 4.46856 17.0252 -7.486 -1.76801 -2.98278 -0.834866 
912 1 4.40561 4.21151 22.4236 -7.91224 0.207162 1.16695 -0.383822 
1128 1 4.56983 4.67214 27.5282 -7.13614 0.429811 -0.148683 0.600907 
1344 1 4.25432 4.57438 32.914 -7.81156 -0.571419 0.552344 -1.05566 
732 1 4.57155 8.03037 16.7967 -7.98075 0.898425 1.21542 0.758215 
948 1 4.5102 8.0702 22.0997 -8.20817 0.144317 -1.35531 0.22851 
1164 1 4.15588 8.07687 27.3072 -7.28363 0.374379 0.966286 0.809592 
1380 1 4.28785 8.17836 32.8846 -7.65999 -0.854665 1.55885 -0.567226 
666 1 8.30798 0.961335 17.1522 -8.66659 -0.425532 -0.56567 -0.643925 
882 1 8.03145 0.618243 22.288 -7.10656 -0.834167 -0.579911 0.270163 
1098 1 8.14412 0.908962 27.4187 -7.45356 0.874664 -0.620207 0.582787 
1314 1 7.71101 0.73153 32.7956 -8.83592 1.22606 0.581849 0.2138 
702 1 8.32019 4.66597 16.9706 -8.16288 0.735928 -0.986998 0.344759 
918 1 8.12043 4.62069 22.1866 -7.65623 -0.337002 0.0822157 0.558953 
1134 1 7.8484 4.51962 27.5595 -7.4821 0.630492 0.477924 -0.498666 
1350 1 7.75378 4.41525 32.7169 -7.95662 -0.574831 0.788569 0.318717 
738 1 8.22042 7.97957 17.217 -9.20537 -1.23115 -0.605176 -1.31992 
954 1 8.29081 7.88069 22.2775 -8.09037 -0.338819 -0.740302 0.133179 
1170 1 8.21311 8.11796 27.6183 -8.03749 0.319067 0.580238 0.484318 
1386 1 7.90122 8.12882 32.8538 -7.9347 -0.713945 0.808291 -0.274701 
653 1 0.803954 0.601386 19.4142 -7.98575 -0.178411 0.722273 1.51632 
869 1 0.646614 1.28938 24.6042 -7.70315 -1.97656 0.12682 1.53527 
1085 1 0.540982 1.04734 30.0887 -8.79268 2.27179 1.24547 0.357813 
689 1 0.957895 4.70036 19.6333 -8.34947 -0.240769 -1.19051 3.08215 
905 1 0.680676 4.15678 24.9048 -7.53462 1.09438 0.291464 -0.489343 
1121 1 0.745272 4.47282 30.2134 -7.34661 -0.311442 -0.868163 -1.49796 
725 1 0.743032 8.32128 19.7655 -7.69866 -0.580389 -1.38695 -2.05322 
941 1 0.94132 7.99155 24.981 -7.68387 -2.37125 0.207358 -1.913 
1157 1 0.636214 7.69949 30.0187 -7.5408 -0.584937 0.389405 0.0800098 
659 1 4.52497 1.03485 19.6708 -8.28833 -0.333924 -0.943069 0.0386661 
875 1 4.18095 0.433363 24.5305 -7.45064 1.63335 0.685542 1.16758 
1091 1 4.2229 0.825737 30.0624 -8.64199 0.687186 -0.688528 0.588235 
695 1 4.4648 4.5738 19.7743 -8.00717 -1.10793 -1.2345 0.0902553 
911 1 4.61734 4.43194 25.0716 -7.7779 0.0153824 0.980318 -1.96548 
1127 1 4.52999 4.53371 30.1899 -7.18921 -0.333074 -0.700789 0.006871 
731 1 4.52664 8.41773 19.3099 -7.88069 0.674789 -0.350059 1.52103 
947 1 4.42469 8.01507 24.713 -7.87983 -0.0168202 -1.34676 -0.0537528 
1163 1 4.35208 8.20211 30.0586 -7.8102 -0.0181357 -0.0261993 1.061 
665 1 8.05245 0.638315 19.7551 -7.80695 -1.81113 1.02666 -1.45264 
881 1 7.9888 0.769237 24.8749 -7.75824 1.55051 -0.216653 0.243076 
1097 1 8.05159 0.836012 30.1789 -8.07095 -0.886679 -0.460677 0.245286 
701 1 8.37657 4.62173 19.633 -8.33033 -1.69601 0.323528 -0.819966 
917 1 8.17369 4.07944 24.909 -7.51378 -1.73804 1.19932 -0.751565 
1133 1 8.19777 4.84573 30.1573 -7.39114 -1.46542 -1.45156 -0.844047 
737 1 8.26315 8.30074 19.7198 -8.56542 -2.64606 -2.00426 -0.100576 
953 1 8.32898 7.89603 24.9383 -7.36487 0.141977 -0.807015 0.126803 
1169 1 8.04086 8.30009 30.1931 -7.62188 -0.310688 0.332601 -0.234203 
866 2 0.866923 2.74111 21.5059 -27.5737 -1.34373 -0.202498 0.540047 
1082 2 0.614967 2.66773 26.4569 -29.3954 0.404955 -0.471128 -1.51551 
1298 2 0.556456 2.61952 31.6398 -29.1522 0.658626 2.12779 1.8457 
902 2 0.808256 6.37568 21.2232 -28.9163 -0.0779019 -0.677275 -0.46479 
1118 2 0.723542 6.16704 26.4199 -29.5 0.889707 0.982507 0.579202 
1334 2 0.664996 6.33635 31.8876 -29.5604 1.0065 -1.35247 -1.37537 
938 2 0.751131 9.90265 21.2227 -28.7135 0.442998 -0.809957 -0.307987 
1154 2 0.811188 10.0597 26.7294 -28.4012 0.07786 -1.61031 -0.492497 
1370 2 0.727979 10.1107 31.95 -28.2987 -0.624755 -1.60521 -0.698159 
872 2 4.44689 2.5495 21.2342 -28.9802 1.76588 0.971207 0.970645 
1088 2 4.43028 2.75132 26.5148 -29.3105 0.142304 0.427457 0.961409 
1304 2 4.36605 2.70892 31.8428 -29.0709 -0.550615 1.12984 0.111035 
908 2 4.49331 6.25565 21.3604 -28.5081 -0.812667 -2.41987 -1.2163 
1124 2 4.60946 6.43029 26.3545 -29.4881 -1.34711 -1.34495 1.26364 
1340 2 4.2982 6.52595 31.8035 -29.4585 0.879576 -2.03129 -0.980583 
944 2 4.36037 9.73971 21.3063 -28.989 0.693899 2.84845 -1.41683 
1160 2 4.56112 9.96755 26.6078 -28.6504 -0.892198 -2.77629 -2.88884 
1376 2 4.22647 9.95198 32.0184 -28.8827 0.694902 0.885638 -0.72065 
878 2 8.10712 2.58103 21.4525 -29.7646 -0.346941 -0.721615 -0.450858 
1094 2 8.08546 2.60513 26.4435 -29.9313 -0.824056 1.11979 0.329359 
1310 2 7.96116 2.57482 31.9138 -28.3434 -0.55688 0.904124 -1.54507 
914 2 8.20885 6.28854 21.089 -28.1508 -0.602489 -0.865253 0.988553 
1130 2 8.17185 6.3613 26.6971 -29.2692 -1.58234 -1.03228 -0.642095 
1346 2 8.01089 6.33427 31.6367 -29.7292 -0.633161 0.42601 0.87266 
950 2 7.99568 9.75481 21.3292 -29.3827 1.06155 0.915411 0.111646 
1166 2 8.0165 9.81022 26.7402 -28.5995 1.49895 0.617043 -2.18304 
1382 2 7.86214 9.97544 31.7016 -29.6021 2.43094 0.188297 1.18245 
649 2 2.69054 0.855784 18.7805 -28.7347 -0.209692 -0.46536 -1.75995 
865 2 2.39298 0.780489 23.864 -28.7399 0.349898 0.855012 0.582158 
1081 2 2.32032 0.941424 29.1783 -28.0017 2.34508 -0.304967 -1.24733 
685 2 2.62503 4.38941 18.6551 -28.7732 2.26692 0.429217 -0.328627 
901 2 2.74275 4.33243 24.0129 -29.1174 -0.56599 -0.281936 0.614683 
1117 2 2.45337 4.59264 29.0839 -29.4669 1.50469 -0.309274 1.51694 
721 2 2.64602 8.07477 18.6896 -29.365 -0.830766 -0.00478792 0.145631 
937 2 2.48678 7.98039 23.8361 -28.8123 1.42505 -0.122861 0.76084 
1153 2 2.50629 8.11111 29.3642 -29.4497 -0.325524 -2.35831 -1.43938 
655 2 6.28209 0.843737 18.6645 -28.2947 0.0149794 2.40163 0.815222 
871 2 6.22361 0.61132 23.8935 -30.2833 -0.0344784 0.838343 -0.495596 
1087 2 6.09135 1.00158 29.1526 -28.6603 0.996457 -0.826778 -0.795404 
691 2 6.38728 4.49268 18.6992 -28.8632 -1.09001 -0.746219 0.59854 
907 2 6.40521 4.40499 23.7909 -28.9152 -0.296468 -0.11817 1.49559 
1123 2 6.30743 4.4894 29.071 -29.7797 -0.673405 2.33847 0.50758 
727 2 6.33958 8.07137 18.6902 -27.8158 -0.130343 0.816937 -1.22082 
943 2 6.41762 7.78043 23.8079 -28.9339 0.339314 3.23977 1.68557 
1159 2 6.1547 8.38961 29.3054 -28.9955 0.801779 -3.49924 0.0378359 
661 2 9.88225 0.781777 18.7001 -28.9878 1.04916 -0.211582 0.694098 
877 2 9.82462 0.708802 24.029 -28.9304 -0.941603 0.389282 -0.975982 
1093 2 9.7623 0.756248 29.0377 -29.1984 -0.266779 0.432389 0.886968 
697 2 9.96129 4.26743 18.4871 -27.8649 0.24351 2.74888 1.92743 
913 2 9.9496 4.34716 24.0159 -29.3678 0.125281 0.0353447 0.160441 
1129 2 10.1124 4.63462 29.2669 -28.1462 -2.56919 -1.57206 0.433631 
733 2 10.016 7.90114 18.7101 -28.7409 0.737551 2.58173 1.14966 
949 2 9.9297 8.10409 23.8933 -29.4678 0.533748 0.57924 -0.808708 
1165 2 9.86677 8.05224 29.2087 -29.2683 0.259206 1.29525 1.39641 
867 1 2.59978 2.51762 20.4158 -8.99097 -1.53463 0.842828 -1.54501 
1083 1 2.76591 2.53653 25.424 -7.58532 0.254145 0.714532 0.795803 
1299 1 2.55936 2.68932 30.8657 -8.19169 -0.412728 -1.05097 -0.338076 
903 1 2.73516 6.55479 20.2717 -7.86776 -0.0725957 0.2314 1.82018 
1119 1 2.496 5.89123 25.5213 -7.61623 1.37804 0.747863 -0.797617 
1335 1 2.66099 6.24645 30.7666 -7.72609 -0.709734 0.519921 0.0528648 
939 1 2.58021 9.78412 20.3095 -7.97023 0.253455 1.49044 0.125698 
1155 1 2.5811 9.82079 25.8116 -7.64929 0.279722 1.78517 -1.04613 
1371 1 2.3618 9.48281 30.951 -7.7406 0.167156 1.15847 1.63057 
873 1 6.37256 2.84844 20.3008 -8.03156 0.89956 0.0965518 -0.818178 
1089 1 6.20668 2.53114 25.603 -7.24929 -1.24344 -1.36838 -0.87589 
1305 1 6.20207 2.63684 30.7292 -8.41384 0.347203 -0.307122 0.258887 
909 1 6.21722 6.40435 20.0583 -8.83532 1.94665 1.02787 0.667211 
1125 1 6.45915 6.33411 25.386 -8.47219 -0.557817 -1.21135 -0.171189 
1341 1 6.24707 6.53571 30.6157 -7.10559 -0.564247 -0.608582 1.48249 
945 1 6.25995 10.1204 20.3708 -7.67286 -0.373291 -1.17201 -1.1065 
1161 1 6.53598 9.53755 25.5147 -7.42869 -2.00936 0.71724 0.515905 
1377 1 6.11848 9.89368 30.883 -8.21419 -1.04615 -0.152729 0.192649 
879 1 9.89341 2.44887 20.2072 -7.76752 -0.478039 0.716736 0.529762 
1095 1 10.0442 2.59573 25.6329 -7.95775 -0.258681 -1.45954 -1.06201 
1311 1 9.70518 2.87824 30.8054 -8.01489 0.503313 -0.509873 0.472261 
915 1 10.0581 6.37799 20.4768 -8.07046 0.231278 -0.377584 -1.42037 
1131 1 9.82322 5.81747 25.7578 -7.35113 0.0967935 0.396925 -0.517813 
1347 1 9.81356 6.56126 30.8114 -7.54908 2.14206 -1.0883 -0.148847 
951 1 9.88995 10.0556 20.2128 -7.59046 -0.284308 1.27399 1.49913 
1167 1 9.88313 9.87584 25.487 -7.92096 -0.121232 0.675348 0.325699 
1383 1 9.88216 9.93763 30.8515 -7.29613 -0.283743 0.0802709 -1.23122 
652 1 2.57691 2.53058 17.5818 -8.18904 0.0515074 -0.273808 0.321746 
868 1 2.63446 2.45712 22.9231 -8.29765 -0.879247 1.55167 -1.9136 
1084 1 2.7482 2.88532 28.0471 -8.05264 -0.318565 -1.24791 1.2926 
1300 1 2.51702 2.62031 33.6837 -7.30383 0.424285 -1.76213 -1.82835 
688 1 2.74698 6.24731 17.8432 -7.5598 0.439332 1.49615 -2.05671 
904 1 2.73676 6.08607 22.9331 -8.09909 0.641212 0.814465 -0.478249 
1120 1 2.36632 6.17271 28.0812 -7.2336 -0.226785 2.23637 0.392974 
1336 1 2.41633 6.54749 33.4133 -7.87125 -0.0950308 -1.12156 1.42409 
724 1 2.54617 9.76305 17.628 -7.85294 -0.163021 0.942215 -0.259837 
940 1 2.83709 9.84728 23.0029 -8.0687 -0.912688 -1.27063 0.368568 
1156 1 2.4088 9.76492 28.4357 -7.92909 -0.596479 2.39109 -1.4161 
1372 1 2.47283 9.94674 33.515 -8.57344 -0.696445 -0.229676 -0.537126 
658 1 6.33602 2.8721 17.6168 -7.86226 1.16349 -2.12966 -0.219506 
874 1 6.45738 2.72513 22.9801 -7.10944 0.719993 -0.560214 0.119686 
1090 1 6.31294 2.71821 28.1051 -7.74142 -1.65986 -1.5779 0.932987 
1306 1 5.88188 2.67983 33.4267 -7.78573 1.9524 0.592191 -0.588076 
694 1 6.13537 5.98695 17.5287 -7.84928 2.27821 3.65157 -0.296708 
910 1 6.19403 6.20292 22.6929 -8.74296 -0.181754 -0.681893 0.127114 
1126 1 6.15873 6.70385 28.1289 -7.09056 0.791851 -1.08298 -1.61922 
1342 1 5.8889 6.48461 33.1891 -7.67099 2.18017 -1.92052 1.41756 
730 1 6.39629 10.1488 17.7463 -8.10409 1.0312 -2.23627 -0.817258 
946 1 6.57767 9.59057 22.8674 -7.38323 -2.28001 -0.619048 1.16113 
1162 1 6.18185 9.92819 28.0742 -8.96151 0.558678 -0.92037 0.297042 
1378 1 5.93723 9.9996 33.6467 -7.82903 0.310813 0.580455 -0.574371 
664 1 10.0271 2.72272 17.5545 -8.75976 0.865126 -1.64774 -2.12723 
880 1 9.50693 2.61074 22.9116 -7.82649 2.71254 -0.724004 1.12599 
1096 1 9.85182 2.57948 28.1579 -8.25338 1.72013 2.52751 0.372529 
1312 1 9.52995 2.61072 33.4391 -8.81963 0.686714 0.624385 -0.39884 
700 1 10.3275 6.28989 17.6922 -8.49061 -0.819927 -1.20423 0.0326303 
916 1 10.0899 6.14125 23.1526 -7.66163 0.736645 0.0526613 -0.483327 
1132 1 9.7542 6.22581 28.207 -8.29972 1.78155 0.851611 0.279797 
1384 1 9.64725 10.0206 33.4218 -7.10041 -0.587739 -0.91764 0.233711 
736 1 10.0738 9.86944 17.7361 -7.91728 -1.07874 -0.606768 -1.3774 
952 1 9.59745 10.1176 22.7589 -7.91435 0.431264 -0.504147 1.10435 
1168 1 9.96696 9.93464 28.2263 -8.09794 -0.492334 -0.121682 -0.437726 
1348 1 9.63081 6.33396 33.3788 -7.92982 0.517339 -0.603616 0.220126 
1518 1 0.449521 0.749199 37.952 -7.95181 -1.0146 0.81703 0.540796 
1734 1 0.782987 1.03805 43.3562 -7.75259 0.485469 -3.47813 0.318685 
1950 1 0.65568 0.935742 48.7236 -9.02544 -0.991846 -1.98329 1.5499 
1554 1 0.65136 4.58559 38.1627 -8.21758 0.632897 -0.511213 0.32595 
1770 1 0.482668 4.59429 43.273 -7.83066 0.620938 -1.19303 -0.135928 
1986 1 0.874395 4.33779 48.8159 -8.22363 -0.581396 0.236382 -1.52224 
2033 1 7.95734 7.75879 51.4062 -7.90599 1.80515 0.547406 -0.0101315 
1806 1 0.705806 8.01706 43.2698 -7.78424 -0.000721246 0.401999 2.47868 
2022 1 0.603877 7.94444 48.5608 -7.56413 0.501354 0.399787 1.15593 
1524 1 4.23975 0.736003 38.048 -7.78986 -0.127481 0.488974 0.0313431 
1740 1 4.16458 0.603697 43.22 -8.43005 1.42057 0.932004 -0.218463 
1956 1 4.27567 0.654013 48.3328 -7.45574 0.712773 0.672537 0.978994 
1560 1 4.35917 4.37732 38.1565 -8.39142 -0.475539 -1.06668 -0.240884 
1776 1 4.43596 4.22653 43.3842 -7.64697 0.00172049 2.25644 -1.50696 
1992 1 4.20649 4.3241 48.5987 -8.40711 0.45523 1.94649 -0.428033 
1596 1 4.55306 8.06596 37.9658 -8.29012 -1.88633 -0.894668 2.87662 
1812 1 4.3342 7.94801 43.5042 -8.18944 0.620714 -0.879753 -0.707954 
2028 1 4.60669 8.28652 48.6629 -8.81573 -1.11162 -1.77049 1.84652 
1530 1 8.00259 0.530826 38.1689 -8.08878 -1.16851 2.40588 -0.113803 
1746 1 7.98428 0.896832 43.3164 -7.55669 1.19871 -1.99052 0.893148 
1962 1 7.73259 0.822855 48.6885 -7.55133 1.56591 -1.19751 -1.24351 
1566 1 7.88773 4.41814 37.9355 -7.57609 0.470557 -0.0850254 0.87228 
1782 1 7.99545 4.48994 43.1047 -7.68028 0.344745 -2.48574 0.843648 
1998 1 7.75011 4.30503 48.454 -7.68775 -0.0789414 0.446993 0.070151 
1602 1 7.91658 8.14254 38.1251 -7.35169 1.18916 -0.687228 -0.693251 
1818 1 8.07806 8.15357 43.4848 -7.78379 -1.4539 -0.943666 -1.70671 
2034 1 7.89169 7.946 48.6773 -7.78737 -0.270908 -0.375211 -0.630928 
1301 1 0.6517 0.744145 35.3915 -7.70488 0.123463 0.328688 1.4893 
1517 1 0.638073 0.625304 40.7255 -8.48831 0.436883 0.623221 0.292499 
1733 1 0.702194 0.626903 46.131 -8.3348 0.8816 -0.453539 -1.02408 
1600 1 9.86125 9.79935 38.7105 -8.22003 0.958426 1.01487 -1.58918 
1337 1 0.793444 4.54305 35.5632 -8.17794 -0.697402 0.767168 -0.384973 
1553 1 0.746005 4.1884 40.7076 -8.79999 -0.731772 0.0960969 0.489318 
1769 1 0.667788 4.47442 46.0351 -8.22093 1.23858 0.688415 0.557328 
1303 2 6.1203 0.882017 34.3793 -28.7778 -0.0335201 -0.0853323 -0.139897 
1373 1 0.756234 8.03247 35.4937 -8.32822 -0.58187 0.250005 -0.407292 
1589 1 0.478798 8.02844 40.7739 -7.34085 -1.03351 0.343262 -1.67597 
1805 1 0.882468 7.7704 46.0388 -7.79659 -1.29074 0.877995 -1.31809 
2021 1 0.768472 8.14579 51.2896 -7.65839 1.89997 0.591912 -0.336197 
1307 1 4.50681 1.04604 35.4025 -7.95017 -0.993656 -0.518338 0.611037 
1523 1 4.23138 0.600023 40.6131 -8.42145 1.31561 0.0135284 0.971164 
1739 1 4.29371 0.591557 45.7785 -7.72629 2.37332 -0.67986 0.332681 
2032 1 9.72271 9.7832 49.2473 -8.25367 0.737645 -0.356138 0.0684201 
1343 1 4.1903 4.11097 35.4131 -7.18771 1.05724 2.36989 1.16959 
1559 1 4.21918 4.38136 40.6609 -8.36808 -0.938592 0.384321 1.20233 
1775 1 4.36093 4.06054 45.8878 -7.58766 0.790128 1.20358 1.75541 
1339 2 5.9991 4.60726 34.2875 -29.6305 0.940348 -0.414844 1.45253 
1379 1 4.3289 8.19965 35.4727 -7.99537 0.239493 0.931076 0.192997 
1595 1 4.43947 7.65876 40.815 -7.97927 -1.8273 2.39977 -1.79261 
1811 1 4.35184 8.14475 46.1635 -8.40015 1.11339 -0.585683 -0.42439 
1816 1 9.64199 9.95487 43.9065 -7.11971 0.411 2.32952 0.495779 
1313 1 7.96795 0.867937 35.4364 -8.87532 -0.115841 0.475421 0.548623 
1529 1 7.77332 0.857653 40.8699 -7.2261 0.360432 -0.83579 -1.90549 
1745 1 8.03768 0.578428 45.9364 -7.60161 -0.342005 2.02921 0.109943 
1297 2 2.55981 0.787699 34.5708 -29.1701 0.01374 1.49774 0.00834181 
1349 1 8.11074 4.9487 35.3251 -7.07139 -1.99242 -0.461307 -1.14507 
1565 1 7.7585 4.04653 40.5437 -7.62189 1.66909 1.28593 -0.27648 
1781 1 8.01559 4.29262 45.8061 -8.09326 -0.485864 0.382549 0.0507695 
1381 2 9.57856 8.17914 34.3287 -29.581 1.12736 0.350429 0.533625 
1385 1 7.76011 8.02843 35.4681 -8.05562 0.630923 0.934507 0.510345 
1601 1 8.02992 7.92606 40.8058 -8.07027 -0.288811 1.19936 0.522382 
1817 1 7.75116 7.80323 45.9698 -7.71727 2.16395 1.08657 1.0428 
1996 1 9.44499 6.11285 49.2256 -7.92399 1.84399 0.124323 1.00876 
1514 2 0.67783 2.66511 37.0986 -29.1202 -0.35781 0.101713 -1.0082 
1730 2 0.650676 2.6161 42.1929 -28.7788 -1.12872 0.566409 2.16329 
1946 2 0.80017 2.52015 47.615 -28.6034 -0.0435095 2.12571 -0.737393 
1550 2 0.730509 6.27873 37.1123 -28.5781 -0.719914 -1.03268 -1.44298 
1766 2 0.554239 6.33558 42.3412 -28.7934 0.858046 0.134272 -0.368408 
1982 2 0.749382 6.21242 47.5738 -29.1408 -0.104628 -0.702273 -0.088906 
1586 2 0.48847 9.78657 37.0478 -28.8962 2.01116 1.53152 1.01186 
1802 2 0.719542 9.91502 42.4242 -29.4709 0.162087 -0.331095 -0.345774 
2018 2 0.794173 9.75327 47.8839 -28.8701 -1.89838 0.937423 -0.686985 
1520 2 4.50591 2.49846 37.1338 -29.274 -1.14655 1.12591 -2.5622 
1736 2 4.29563 2.55966 42.3178 -28.5412 0.80765 0.0500252 1.48239 
1952 2 4.49718 2.52617 47.6046 -29.7165 -0.973891 -0.337695 -1.33454 
1556 2 4.37648 6.17413 37.2622 -28.7404 0.976881 -0.556963 -0.878328 
1772 2 4.18172 6.24259 42.2029 -28.796 0.736252 -1.44131 1.00503 
1988 2 4.49656 6.26084 47.8166 -27.767 -1.499 0.0602436 -2.44473 
1592 2 4.29336 9.71043 37.1665 -28.8316 0.0755576 3.26757 -1.77657 