********************************************************************************
*                       GENERAL UTILITY LATTICE PROGRAM                        *
*                                 Julian Gale                                  *
*                      Nanochemistry Research Institute                        *
*                           Department of Chemistry                            *
*                    Curtin University, Western Australia                      *
********************************************************************************
* Version = 4.2.0 * Last modified =  16th January 2014                         *
********************************************************************************
*  optimise     - perform optimisation run                                     *
*  conp         - constant pressure calculation                                *
*  phonon       - calculate phonons for final geometry                         *
*  eckart       - remove rotation/translation from vibrations of molecules     *
*  molmec       - molecule option activated, Coulomb subtract 1-2/1-3 terms    *
********************************************************************************

  Job Started  at 16:49.31 27th March      2014                               

  Number of CPUs =     1


  Total number of configurations input =   1

********************************************************************************
*  Input for Configuration =   1                                               *
********************************************************************************

  Formula = O14S4C32H20N4Na4                                            

  Number of irreducible atoms/shells =      78


  Total number atoms/shells =      78

  Dimensionality = 0               :  Cluster


  Charge on cluster =   0.000000


  Initial cluster dipoles : x =     -0.895475 e.Angs
                            y =     -3.602121 e.Angs
                            z =     -0.045833 e.Angs

  Temperature of configuration =  0.000     K 

  Symmetry number =      1

  Cartesian coordinates of cluster :

--------------------------------------------------------------------------------
   No.  Atomic       x           y          z         Charge      Occupancy
        Label      (Angs)      (Angs)     (Angs)        (e)         (Frac)  
--------------------------------------------------------------------------------
      1 O5    c     24.7380 *    8.7470 *   16.4820 *  -0.68180    1.000000    
      2 S5    c     24.8730 *    9.3200 *   15.0430 *   1.14400    1.000000    
      3 O5    c     26.0830 *   10.2920 *   15.0350 *  -0.68180    1.000000    
      4 O5    c     25.1960 *    8.1290 *   14.1040 *  -0.68180    1.000000    
      5 C5    c     23.3370 *   10.1930 *   14.5600 *  -0.07340    1.000000    
      6 C5    c     23.3870 *   11.5930 *   14.3170 *  -0.10090    1.000000    
      7 H5    c     24.3460 *   12.1130 *   14.3390 *   0.14460    1.000000    
      8 C5    c     22.1740 *   12.2880 *   14.0730 *  -0.16780    1.000000    
      9 H5    c     22.1830 *   13.3690 *   13.9000 *   0.11690    1.000000    
     10 C5    c     20.9290 *   11.5780 *   14.0840 *   0.03330    1.000000    
     11 C5    c     20.9010 *   10.1570 *   14.2890 *  -0.16780    1.000000    
     12 H5    c     19.9440 *    9.6330 *   14.2800 *   0.11690    1.000000    
     13 C5    c     22.1110 *    9.4640 *   14.5310 *  -0.10090    1.000000    
     14 H5    c     22.1090 *    8.3870 *   14.7120 *   0.14460    1.000000    
     15 N6    c     19.7350 *   12.3340 *   13.9190 *  -0.09400    1.000000    
     16 H6    c     19.7390 *   13.3790 *   13.8420 *   0.26060    1.000000    
     17 N5    c     18.5240 *   11.7450 *   13.9920 *  -0.09850    1.000000    
     18 C6    c     17.4200 *   12.5300 *   13.9580 *  -0.02040    1.000000    
     19 C5    c     16.1020 *   11.8330 *   14.0720 *  -0.00230    1.000000    
     20 C5    c     15.9920 *   10.4010 *   14.1390 *  -0.22620    1.000000    
     21 H5    c     16.8960 *    9.7960 *   14.0480 *   0.13940    1.000000    
     22 C5    c     14.7410 *    9.7750 *   14.3450 *  -0.05130    1.000000    
     23 H5    c     14.6520 *    8.6890 *   14.4100 *   0.14400    1.000000    
     24 C5    c     13.5740 *   10.5900 *   14.4740 *  -0.11590    1.000000    
     25 C5    c     13.6230 *   11.9960 *   14.3510 *  -0.09350    1.000000    
     26 H5    c     12.7070 *   12.5860 *   14.4280 *   0.12780    1.000000    
     27 C5    c     14.8920 *   12.6360 *   14.1460 *   0.03470    1.000000    
     28 C6    c     14.9760 *   14.1030 *   14.0520 *  -0.11610    1.000000    
     29 H5    c     14.0370 *   14.6660 *   14.0880 *   0.15660    1.000000    
     30 C7    c     16.1820 *   14.7710 *   13.9280 *  -0.36250    1.000000    
     31 H5    c     16.2370 *   15.8610 *   13.8600 *   0.14320    1.000000    
     32 C8    c     17.4720 *   14.0420 *   13.8830 *   0.60810    1.000000    
     33 O5    c     18.5800 *   14.6700 *   13.7950 *  -0.59680    1.000000    
     34 S5    c     11.9940 *    9.8060 *   14.9630 *   1.16590    1.000000    
     35 O5    c     11.8910 *    9.6950 *   16.5120 *  -0.68230    1.000000    
     36 O5    c     10.7770 *   10.6370 *   14.4790 *  -0.68230    1.000000    
     37 O5    c     11.8810 *    8.3690 *   14.3890 *  -0.68230    1.000000    
     38 O5    c     25.1080 *    9.6030 *    7.8110 *  -0.68180    1.000000    
     39 S5    c     24.9340 *    9.4880 *    9.3540 *   1.14400    1.000000    
     40 O5    c     26.2090 *   10.0860 *   10.0020 *  -0.68180    1.000000    
     41 O5    c     24.8530 *    7.9790 *    9.7010 *  -0.68180    1.000000    
     42 C5    c     23.4240 *   10.3620 *    9.9050 *  -0.07340    1.000000    
     43 C5    c     23.4790 *   11.7710 *   10.1020 *  -0.10090    1.000000    
     44 H5    c     24.4350 *   12.2950 *   10.0460 *   0.14460    1.000000    
     45 C5    c     22.2730 *   12.4700 *   10.3570 *  -0.16780    1.000000    
     46 H5    c     22.2810 *   13.5560 *   10.4910 *   0.11690    1.000000    
     47 C5    c     21.0280 *   11.7560 *   10.3990 *   0.03330    1.000000    
     48 C5    c     20.9980 *   10.3300 *   10.2560 *  -0.16780    1.000000    
     49 H5    c     20.0450 *    9.8030 *   10.3130 *   0.11690    1.000000    
     50 C5    c     22.2050 *    9.6310 *   10.0030 *  -0.10090    1.000000    
     51 H5    c     22.2130 *    8.5480 *    9.8710 *   0.14460    1.000000    
     52 N6    c     19.8420 *   12.5250 *   10.5510 *  -0.09400    1.000000    
     53 H6    c     19.8580 *   13.5730 *   10.5780 *   0.26060    1.000000    
     54 N5    c     18.6230     11.9520     10.4750    -0.09850    1.000000    
     55 C6    c     17.5380 *   12.7680 *   10.4490 *  -0.02040    1.000000    
     56 C5    c     16.2050 *   12.1040 *   10.3210 *  -0.00230    1.000000    
     57 C5    c     16.0560 *   10.6740 *   10.3140 *  -0.22620    1.000000    
     58 H5    c     16.9370 *   10.0480 *   10.4700 *   0.13940    1.000000    
     59 C5    c     14.7950 *   10.0740 *   10.0810 *  -0.05130    1.000000    
     60 H5    c     14.6760 *    8.9890 *   10.0570 *   0.14400    1.000000    
     61 C5    c     13.6590 *   10.9140 *    9.8680 *  -0.11590    1.000000    
     62 C5    c     13.7450 *   12.3230 *    9.9330 *  -0.09350    1.000000    
     63 H5    c     12.8500 *   12.9360 *    9.7940 *   0.12780    1.000000    
     64 C5    c     15.0230 *   12.9360 *   10.1610 *   0.03470    1.000000    
     65 C6    c     15.1470 *   14.4040 *   10.1880 *  -0.11610    1.000000    
     66 H5    c     14.2290 *   14.9910 *   10.0880 *   0.15660    1.000000    
     67 C7    c     16.3680 *   15.0430 *   10.3240 *  -0.36250    1.000000    
     68 H5    c     16.4540 *   16.1320 *   10.3380 *   0.14320    1.000000    
     69 C8    c     17.6330 *   14.2800 *   10.4480 *   0.60810    1.000000    
     70 O5    c     18.7570 *   14.8810 *   10.5310 *  -0.59680    1.000000    
     71 S5    c     12.0660 *   10.1560 *    9.3690 *   1.16590    1.000000    
     72 O5    c     11.8970 *   10.1780 *    7.8220 *  -0.68230    1.000000    
     73 O5    c     10.8650 *   10.9270 *    9.9750 *  -0.68230    1.000000    
     74 O5    c     11.9890 *    8.6740 *    9.8180 *  -0.68230    1.000000    
     75 Na5   c     26.7460 *    8.2610 *   15.7010 *   1.00000    1.000000    
     76 Na5   c     10.1290 *    9.2170 *    8.7090 *   1.00000    1.000000    
     77 Na5   c     10.0750 *    8.8350 *   15.6250 *   1.00000    1.000000    
     78 Na5   c     26.7650 *    8.4070 *    8.6120 *   1.00000    1.000000    
--------------------------------------------------------------------------------



  Molecule list generated from bond lengths :

  Total number of molecules =     2

--------------------------------------------------------------------------------
Molecule No./:  Atoms
Periodicity  :  
--------------------------------------------------------------------------------
     1  0    : O5   c     1 S5   c     2 O5   c     3 O5   c     4 C5   c     5
             : C5   c     6 H5   c     7 C5   c     8 H5   c     9 C5   c    10
             : C5   c    11 H5   c    12 C5   c    13 H5   c    14 N6   c    15
             : H6   c    16 N5   c    17 C6   c    18 C5   c    19 C5   c    20
             : H5   c    21 C5   c    22 H5   c    23 C5   c    24 C5   c    25
             : H5   c    26 C5   c    27 C6   c    28 H5   c    29 C7   c    30
             : H5   c    31 C8   c    32 O5   c    33 S5   c    34 O5   c    35
             : O5   c    36 O5   c    37
     2  0    : O5   c    38 S5   c    39 O5   c    40 O5   c    41 C5   c    42
             : C5   c    43 H5   c    44 C5   c    45 H5   c    46 C5   c    47
             : C5   c    48 H5   c    49 C5   c    50 H5   c    51 N6   c    52
             : H6   c    53 N5   c    54 C6   c    55 C5   c    56 C5   c    57
             : H5   c    58 C5   c    59 H5   c    60 C5   c    61 C5   c    62
             : H5   c    63 C5   c    64 C6   c    65 H5   c    66 C7   c    67
             : H5   c    68 C8   c    69 O5   c    70 S5   c    71 O5   c    72
             : O5   c    73 O5   c    74
--------------------------------------------------------------------------------


********************************************************************************
*  General input information                                                   *
********************************************************************************

  Species output for all configurations : 

--------------------------------------------------------------------------------
  Species    Type    Atomic    Atomic    Charge       Radii (Angs)     Library
                     Number     Mass       (e)     Cova   Ionic  VDW   Symbol
--------------------------------------------------------------------------------
    O5       Core        8      16.00  -0.681800   0.730  0.000  1.360          
    S5       Core       16      32.07   1.144000   1.020  0.000  1.700          
    C5       Core        6      12.01  -0.073400   0.770  0.000  1.530          
    H5       Core        1       1.01   0.144600   0.370  0.000  1.080          
    N6       Core        7      14.01  -0.094000   0.750  0.000  1.480          
    H6       Core        1       1.01   0.260600   0.370  0.000  1.080          
    N5       Core        7      14.01  -0.098500   0.750  0.000  1.480          
    C6       Core        6      12.01  -0.020400   0.770  0.000  1.530          
    C7       Core        6      12.01  -0.362500   0.770  0.000  1.530          
    C8       Core        6      12.01   0.608100   0.770  0.000  1.530          
    Na5      Core       11      22.99   1.000000   0.010  0.000  2.300          
--------------------------------------------------------------------------------


  Accuracy factor for short range sums = 12.000

  Time limit = Infinity

  Maximum range for interatomic potentials =        10.000000 Angstroms

  Taper potentials to zero over  10.0000 Angstroms using M-D-F

  General interatomic potentials :

--------------------------------------------------------------------------------
Atom  Types   Potential         A         B         C         D     Cutoffs(Ang)
  1     2                                                            Min    Max 
--------------------------------------------------------------------------------
C8   c C8   c Lenn/es 12  6 0.373E-02  3.82      0.00      0.00     3Bond 99.000
C8   c O5   c Lenn/es 12  6 0.583E-02  3.57      0.00      0.00     3Bond 99.000
O5   c O5   c Lenn/es 12  6 0.911E-02  3.32      0.00      0.00     3Bond 99.000
C7   c C8   c Lenn/es 12  6 0.373E-02  3.82      0.00      0.00     3Bond 99.000
C7   c O5   c Lenn/es 12  6 0.583E-02  3.57      0.00      0.00     3Bond 99.000
C7   c C7   c Lenn/es 12  6 0.373E-02  3.82      0.00      0.00     3Bond 99.000
C6   c C8   c Lenn/es 12  6 0.373E-02  3.82      0.00      0.00     3Bond 99.000
C6   c O5   c Lenn/es 12  6 0.583E-02  3.57      0.00      0.00     3Bond 99.000
C6   c C7   c Lenn/es 12  6 0.373E-02  3.82      0.00      0.00     3Bond 99.000
C6   c C6   c Lenn/es 12  6 0.373E-02  3.82      0.00      0.00     3Bond 99.000
C8   c N5   c Lenn/es 12  6 0.524E-02  3.73      0.00      0.00     3Bond 99.000
N5   c O5   c Lenn/es 12  6 0.819E-02  3.49      0.00      0.00     3Bond 99.000
C7   c N5   c Lenn/es 12  6 0.524E-02  3.73      0.00      0.00     3Bond 99.000
C6   c N5   c Lenn/es 12  6 0.524E-02  3.73      0.00      0.00     3Bond 99.000
N5   c N5   c Lenn/es 12  6 0.737E-02  3.65      0.00      0.00     3Bond 99.000
C8   c N6   c Lenn/es 12  6 0.524E-02  3.73      0.00      0.00     3Bond 99.000
N6   c O5   c Lenn/es 12  6 0.819E-02  3.49      0.00      0.00     3Bond 99.000
C7   c N6   c Lenn/es 12  6 0.524E-02  3.73      0.00      0.00     3Bond 99.000
C6   c N6   c Lenn/es 12  6 0.524E-02  3.73      0.00      0.00     3Bond 99.000
N5   c N6   c Lenn/es 12  6 0.737E-02  3.65      0.00      0.00     3Bond 99.000
N6   c N6   c Lenn/es 12  6 0.737E-02  3.65      0.00      0.00     3Bond 99.000
C5   c C8   c Lenn/es 12  6 0.373E-02  3.82      0.00      0.00     3Bond 99.000
C5   c O5   c Lenn/es 12  6 0.583E-02  3.57      0.00      0.00     3Bond 99.000
C5   c C7   c Lenn/es 12  6 0.373E-02  3.82      0.00      0.00     3Bond 99.000
C5   c C6   c Lenn/es 12  6 0.373E-02  3.82      0.00      0.00     3Bond 99.000
C5   c N5   c Lenn/es 12  6 0.524E-02  3.73      0.00      0.00     3Bond 99.000
C5   c N6   c Lenn/es 12  6 0.524E-02  3.73      0.00      0.00     3Bond 99.000
C5   c C5   c Lenn/es 12  6 0.373E-02  3.82      0.00      0.00     3Bond 99.000
H6   c C8   c Lenn/es 12  6 0.159E-02  2.51      0.00      0.00     3Bond 99.000
H6   c O5   c Lenn/es 12  6 0.249E-02  2.26      0.00      0.00     3Bond 99.000
H6   c C7   c Lenn/es 12  6 0.159E-02  2.51      0.00      0.00     3Bond 99.000
H6   c C6   c Lenn/es 12  6 0.159E-02  2.51      0.00      0.00     3Bond 99.000
H6   c N5   c Lenn/es 12  6 0.224E-02  2.42      0.00      0.00     3Bond 99.000
H6   c N6   c Lenn/es 12  6 0.224E-02  2.42      0.00      0.00     3Bond 99.000
H6   c C5   c Lenn/es 12  6 0.159E-02  2.51      0.00      0.00     3Bond 99.000
H6   c H6   c Lenn/es 12  6 0.681E-03  1.20      0.00      0.00     3Bond 99.000
H5   c C8   c Lenn/es 12  6 0.156E-02  3.37      0.00      0.00     3Bond 99.000
H5   c O5   c Lenn/es 12  6 0.243E-02  3.12      0.00      0.00     3Bond 99.000
H5   c C7   c Lenn/es 12  6 0.156E-02  3.37      0.00      0.00     3Bond 99.000
H5   c C6   c Lenn/es 12  6 0.156E-02  3.37      0.00      0.00     3Bond 99.000
H5   c N5   c Lenn/es 12  6 0.219E-02  3.28      0.00      0.00     3Bond 99.000
H5   c N6   c Lenn/es 12  6 0.219E-02  3.28      0.00      0.00     3Bond 99.000
H5   c C5   c Lenn/es 12  6 0.156E-02  3.37      0.00      0.00     3Bond 99.000
H5   c H6   c Lenn/es 12  6 0.665E-03  2.06      0.00      0.00     3Bond 99.000
H5   c H5   c Lenn/es 12  6 0.650E-03  2.92      0.00      0.00     3Bond 99.000
C8   c S5   c Lenn/es 12  6 0.636E-02  3.91      0.00      0.00     3Bond 99.000
O5   c S5   c Lenn/es 12  6 0.994E-02  3.66      0.00      0.00     3Bond 99.000
C7   c S5   c Lenn/es 12  6 0.636E-02  3.91      0.00      0.00     3Bond 99.000
C6   c S5   c Lenn/es 12  6 0.636E-02  3.91      0.00      0.00     3Bond 99.000
N5   c S5   c Lenn/es 12  6 0.894E-02  3.82      0.00      0.00     3Bond 99.000
N6   c S5   c Lenn/es 12  6 0.894E-02  3.82      0.00      0.00     3Bond 99.000
C5   c S5   c Lenn/es 12  6 0.636E-02  3.91      0.00      0.00     3Bond 99.000
H6   c S5   c Lenn/es 12  6 0.272E-02  2.60      0.00      0.00     3Bond 99.000
H5   c S5   c Lenn/es 12  6 0.266E-02  3.46      0.00      0.00     3Bond 99.000
S5   c S5   c Lenn/es 12  6 0.108E-01  4.00      0.00      0.00     3Bond 99.000
C8   c Na5  c Lenn/es 12  6 0.669E-03  3.78      0.00      0.00     3Bond 99.000
O5   c Na5  c Lenn/es 12  6 0.105E-02  3.53      0.00      0.00     3Bond 99.000
C7   c Na5  c Lenn/es 12  6 0.669E-03  3.78      0.00      0.00     3Bond 99.000
C6   c Na5  c Lenn/es 12  6 0.669E-03  3.78      0.00      0.00     3Bond 99.000
N5   c Na5  c Lenn/es 12  6 0.941E-03  3.69      0.00      0.00     3Bond 99.000
N6   c Na5  c Lenn/es 12  6 0.941E-03  3.69      0.00      0.00     3Bond 99.000
C5   c Na5  c Lenn/es 12  6 0.669E-03  3.78      0.00      0.00     3Bond 99.000
H6   c Na5  c Lenn/es 12  6 0.286E-03  2.47      0.00      0.00     3Bond 99.000
H5   c Na5  c Lenn/es 12  6 0.280E-03  3.33      0.00      0.00     3Bond 99.000
Na5  c S5   c Lenn/es 12  6 0.114E-02  3.87      0.00      0.00     3Bond 99.000
Na5  c Na5  c Lenn/es 12  6 0.120E-03  3.74      0.00      0.00     3Bond 99.000
--------------------------------------------------------------------------------

  Intramolecular potentials :

--------------------------------------------------------------------------------
Atom  Types   Potential         A         B         C         D     Cutoffs(Ang)
  1     2                                                            Min    Max 
--------------------------------------------------------------------------------
X    c X    c Coulomb        0.00      0.00      0.00      1.00     1-4only 7.00
H6   c N6   c Harmonic       34.8      1.01      0.00      0.00     0.000 1 Bond
H5   c C5   c Harmonic       29.9      1.09      0.00      0.00     0.000 1 Bond
C5   c S5   c Harmonic       22.9      1.76      0.00      0.00     0.000 1 Bond
C8   c O5   c Harmonic       56.2      1.21      0.00      0.00     0.000 1 Bond
C6   c C7   c Harmonic       43.7      1.37      0.00      0.00     0.000 1 Bond
C6   c N5   c Harmonic       49.7      1.29      0.00      0.00     0.000 1 Bond
H5   c C6   c Harmonic       30.1      1.08      0.00      0.00     0.000 1 Bond
O5   c S5   c Harmonic       46.9      1.44      0.00      0.00     0.000 1 Bond
C7   c C8   c Harmonic       32.7      1.46      0.00      0.00     0.000 1 Bond
C6   c C8   c Harmonic       32.7      1.46      0.00      0.00     0.000 1 Bond
C5   c C6   c Harmonic       35.7      1.43      0.00      0.00     0.000 1 Bond
C5   c C5   c Harmonic       41.5      1.39      0.00      0.00     0.000 1 Bond
H5   c C7   c Harmonic       30.1      1.08      0.00      0.00     0.000 1 Bond
N5   c N6   c Harmonic       45.5      1.36      0.00      0.00     0.000 1 Bond
C5   c N6   c Harmonic       38.9      1.36      0.00      0.00     0.000 1 Bond
--------------------------------------------------------------------------------

  Intermolecular potentials :

--------------------------------------------------------------------------------
Atom  Types   Potential         A         B         C         D     Cutoffs(Ang)
  1     2                                                            Min    Max 
--------------------------------------------------------------------------------
O5   c Na5  c Harmonic       2.00      2.40      0.00      0.00     0.000  5.000
--------------------------------------------------------------------------------

  Intramolecular Three-body potentials :

  Harmonic form:

--------------------------------------------------------------------------------
Atom    Atom    Atom           Force Constants            Theta     Cutoffs  
  1       2       3     (eVrad**-2/eVrad**-3/eVrad**-4)   (deg)  1-2  1-3  2-3
--------------------------------------------------------------------------------
N6    c H6    c C5    c  4.257        0.0000    0.0000   116.130     Bonded
C6    c C5    c C7    c  5.918        0.0000    0.0000   113.510     Bonded
C6    c C5    c N5    c  5.942        0.0000    0.0000   120.720     Bonded
C8    c C6    c C7    c  5.701        0.0000    0.0000   112.790     Bonded
S5    c C5    c O5    c  3.710        0.0000    0.0000   104.070     Bonded
C6    c H5    c C5    c  4.024        0.0000    0.0000   124.040     Bonded
C8    c C7    c O5    c  5.976        0.0000    0.0000   125.710     Bonded
C5    c C5    c C6    c  5.723        0.0000    0.0000   120.100     Bonded
C5    c C5    c N6    c  6.014        0.0000    0.0000   120.130     Bonded
C5    c C5    c C5    c  5.826        0.0000    0.0000   119.970     Bonded
N6    c H6    c N5    c  4.343        0.0000    0.0000   118.220     Bonded
C6    c C8    c N5    c  5.944        0.0000    0.0000   120.890     Bonded
C7    c H5    c C6    c  4.193        0.0000    0.0000   122.890     Bonded
C5    c H5    c C5    c  4.203        0.0000    0.0000   120.010     Bonded
C7    c C6    c C8    c  5.662        0.0000    0.0000   121.320     Bonded
N5    c C6    c N6    c  6.101        0.0000    0.0000   118.470     Bonded
S5    c O5    c O5    c  4.047        0.0000    0.0000   119.730     Bonded
C6    c H5    c C7    c  4.193        0.0000    0.0000   122.890     Bonded
C5    c C5    c S5    c  6.825        0.0000    0.0000   120.540     Bonded
C7    c H5    c C8    c  4.075        0.0000    0.0000   117.020     Bonded
C6    c C5    c C8    c  5.512        0.0000    0.0000   122.950     Bonded
C8    c C6    c O5    c  5.976        0.0000    0.0000   125.710     Bonded
N6    c C5    c N5    c  5.882        0.0000    0.0000   121.110     Bonded
--------------------------------------------------------------------------------

  Intramolecular Four-body potentials :

  Standard form:

--------------------------------------------------------------------------------
         Atom Types             Force cst Sign Phase Phi0         Cutoffs
   1       2       3       4       (eV)                     1-2  2-3  3-4  4-1
--------------------------------------------------------------------------------
H5    c C7    c C8    c O5    c  0.1247     +   2   180.00  Bonded              
H5    c C7    c C6    c H5    c  0.1735     +   2   180.00  Bonded              
C6    c C7    c C8    c O5    c  0.1247     +   2   180.00  Bonded              
H5    c C5    c C5    c H5    c  0.1572     +   2   180.00  Bonded              
C5    c C6    c N5    c N6    c  0.1800     +   2   180.00  Bonded              
C5    c C5    c C5    c N6    c  0.1572     +   2   180.00  Bonded              
C5    c C5    c S5    c O5    c  0.5637E-01 +   2   180.00  Bonded              
C6    c N5    c N6    c H6    c  0.1214     +   2   180.00  Bonded              
C8    c C7    c C6    c C5    c  0.1735     +   2   180.00  Bonded              
N5    c C6    c C8    c O5    c  0.1247     +   2   180.00  Bonded              
C5    c C5    c C5    c H5    c  0.1572     +   2   180.00  Bonded              
C5    c C6    c C8    c O5    c  0.1247     +   2   180.00  Bonded              
C6    c C7    c C8    c C6    c  0.1247     +   2   180.00  Bonded              
C8    c C6    c N5    c N6    c  0.1800     +   2   180.00  Bonded              
C5    c C5    c C5    c S5    c  0.1572     +   2   180.00  Bonded              
C8    c C7    c C6    c H5    c  0.1735     +   2   180.00  Bonded              
H5    c C5    c C5    c N6    c  0.1572     +   2   180.00  Bonded              
C6    c C5    c C5    c C6    c  0.1572     +   2   180.00  Bonded              
C7    c C8    c C6    c N5    c  0.1247     +   2   180.00  Bonded              
C5    c C5    c N6    c N5    c  0.4553E-01 +   2   180.00  Bonded              
C6    c C8    c C7    c H5    c  0.1247     +   2   180.00  Bonded              
C5    c C6    c C8    c C7    c  0.1247     +   2   180.00  Bonded              
C5    c C5    c C5    c C6    c  0.1572     +   2   180.00  Bonded              
C5    c N6    c N5    c C6    c  0.1214     +   2   180.00  Bonded              
C5    c C5    c C5    c C5    c  0.1572     +   2   180.00  Bonded              
C5    c C6    c C7    c H5    c  0.1735     +   2   180.00  Bonded              
C5    c C5    c N6    c H6    c  0.4553E-01 +   2   180.00  Bonded              
H5    c C5    c C5    c S5    c  0.1572     +   2   180.00  Bonded              
C5    c C5    c C6    c C7    c  0.3036E-01 +   2   180.00  Bonded              
C5    c C5    c C6    c H5    c  0.3036E-01 +   2   180.00  Bonded              
C6    c C5    c C5    c H5    c  0.1572     +   2   180.00  Bonded              
C8    c C6    c C5    c C5    c  0.3036E-01 +   2   180.00  Bonded              
C5    c C5    c C6    c N5    c  0.3036E-01 +   2   180.00  Bonded              
C5    c C6    c C7    c H5    c  0.4770E-01 +   2   180.00  Improp              
C6    c C8    c C7    c O5    c  0.4553     +   2   180.00  Improp              
C5    c N6    c H6    c N5    c  0.4770E-01 +   2   180.00  Improp              
C8    c C6    c C5    c N5    c  0.4770E-01 +   2   180.00  Improp              
C5    c C5    c C5    c N6    c  0.2385E-01 +   2   180.00  Improp              
C8    c C7    c C6    c H5    c  0.4770E-01 +   2   180.00  Improp              
C5    c C5    c C5    c H5    c  0.2385E-01 +   2   180.00  Improp              
C5    c C5    c C5    c S5    c  0.2385E-01 +   2   180.00  Improp              
C5    c C5    c C5    c C6    c  0.2385E-01 +   2   180.00  Improp              
--------------------------------------------------------------------------------

********************************************************************************
*  Output for configuration   1                                                *
********************************************************************************


  Components of energy : 

--------------------------------------------------------------------------------
  Interatomic potentials     =          12.11998965 eV
  Three-body potentials      =           1.91238117 eV
  Four-body potentials       =           1.47839949 eV
  Improper torsions          =           0.00908687 eV
  Out of plane potentials    =           0.00000000 eV
  Monopole - monopole (real) =         -22.35539603 eV
--------------------------------------------------------------------------------
  Total lattice energy       =          -6.83553886 eV
--------------------------------------------------------------------------------
  Total lattice energy       =            -659.5250 kJ/mol
--------------------------------------------------------------------------------


  Number of variables =      231

  Maximum number of calculations  =          1000
  Maximum Hessian update interval =            10
  Maximum step size               =   1.000000000
  Maximum parameter tolerance     =   0.000010000
  Maximum function  tolerance     =   0.000010000
  Maximum gradient  tolerance     =   0.001000000
  Maximum gradient  component     =   0.010000000

  Symmetry not applied to optimisation

  Newton-Raphson optimiser to be used

  BFGS hessian update to be used

  Start of cluster optimisation :

  Cycle:      0 Energy:        -6.835539  Gnorm:      0.112694  CPU:    0.034
  ** Hessian calculated **
  Cycle:      1 Energy:       -15.585601  Gnorm:      0.023838  CPU:    0.074
  ** Hessian calculated **
  Cycle:      2 Energy:       -15.994433  Gnorm:      0.004182  CPU:    0.118
  Cycle:      3 Energy:       -15.996985  Gnorm:      0.003745  CPU:    0.145
  ** Hessian calculated **
  Cycle:      4 Energy:       -16.009730  Gnorm:      0.002315  CPU:    0.181
  Cycle:      5 Energy:       -16.018170  Gnorm:      0.002442  CPU:    0.205
  Cycle:      6 Energy:       -16.023565  Gnorm:      0.002099  CPU:    0.223
  Cycle:      7 Energy:       -16.028310  Gnorm:      0.001989  CPU:    0.250
  Cycle:      8 Energy:       -16.032140  Gnorm:      0.002031  CPU:    0.279
  Cycle:      9 Energy:       -16.035877  Gnorm:      0.001532  CPU:    0.305
  Cycle:     10 Energy:       -16.038142  Gnorm:      0.001567  CPU:    0.323
  Cycle:     11 Energy:       -16.040288  Gnorm:      0.001271  CPU:    0.343
  Cycle:     12 Energy:       -16.042247  Gnorm:      0.001417  CPU:    0.365
  Cycle:     13 Energy:       -16.044270  Gnorm:      0.001444  CPU:    0.387
  ** Hessian calculated **
  Cycle:     14 Energy:       -16.045262  Gnorm:      0.001031  CPU:    0.418
  Cycle:     15 Energy:       -16.046328  Gnorm:      0.000917  CPU:    0.444
  Cycle:     16 Energy:       -16.047205  Gnorm:      0.000852  CPU:    0.467
  Cycle:     17 Energy:       -16.047890  Gnorm:      0.000871  CPU:    0.485
  Cycle:     18 Energy:       -16.048722  Gnorm:      0.001010  CPU:    0.500
  Cycle:     19 Energy:       -16.049638  Gnorm:      0.000916  CPU:    0.517
  Cycle:     20 Energy:       -16.050431  Gnorm:      0.000790  CPU:    0.536
  Cycle:     21 Energy:       -16.051063  Gnorm:      0.000757  CPU:    0.555
  Cycle:     22 Energy:       -16.051798  Gnorm:      0.000711  CPU:    0.580
  Cycle:     23 Energy:       -16.052587  Gnorm:      0.000901  CPU:    0.604
  ** Hessian calculated **
  Cycle:     24 Energy:       -16.053082  Gnorm:      0.000559  CPU:    0.633
  Cycle:     25 Energy:       -16.053507  Gnorm:      0.000561  CPU:    0.646
  Cycle:     26 Energy:       -16.053810  Gnorm:      0.000549  CPU:    0.660
  Cycle:     27 Energy:       -16.054090  Gnorm:      0.000531  CPU:    0.677
  Cycle:     28 Energy:       -16.054389  Gnorm:      0.000588  CPU:    0.692
  Cycle:     29 Energy:       -16.054669  Gnorm:      0.000527  CPU:    0.705
  Cycle:     30 Energy:       -16.054898  Gnorm:      0.000463  CPU:    0.721
  Cycle:     31 Energy:       -16.055128  Gnorm:      0.000527  CPU:    0.734
  Cycle:     32 Energy:       -16.055458  Gnorm:      0.000603  CPU:    0.753
  Cycle:     33 Energy:       -16.055798  Gnorm:      0.000755  CPU:    0.778
  ** Hessian calculated **
  Cycle:     34 Energy:       -16.056077  Gnorm:      0.000548  CPU:    0.814
  Cycle:     35 Energy:       -16.056357  Gnorm:      0.000501  CPU:    0.832
  Cycle:     36 Energy:       -16.056566  Gnorm:      0.000422  CPU:    0.846
  Cycle:     37 Energy:       -16.056748  Gnorm:      0.000463  CPU:    0.859
  Cycle:     38 Energy:       -16.056954  Gnorm:      0.000517  CPU:    0.873
  Cycle:     39 Energy:       -16.057189  Gnorm:      0.000493  CPU:    0.886
  Cycle:     40 Energy:       -16.057413  Gnorm:      0.000476  CPU:    0.899
  Cycle:     41 Energy:       -16.057631  Gnorm:      0.000461  CPU:    0.913
  Cycle:     42 Energy:       -16.057918  Gnorm:      0.000519  CPU:    0.929
  Cycle:     43 Energy:       -16.058267  Gnorm:      0.000756  CPU:    0.945
  ** Hessian calculated **
  Cycle:     44 Energy:       -16.058576  Gnorm:      0.000471  CPU:    0.969
  Cycle:     45 Energy:       -16.058833  Gnorm:      0.000444  CPU:    0.982
  Cycle:     46 Energy:       -16.059036  Gnorm:      0.000460  CPU:    1.001
  Cycle:     47 Energy:       -16.059228  Gnorm:      0.000436  CPU:    1.015
  Cycle:     48 Energy:       -16.059429  Gnorm:      0.000488  CPU:    1.028
  Cycle:     49 Energy:       -16.059610  Gnorm:      0.000442  CPU:    1.042
  Cycle:     50 Energy:       -16.059768  Gnorm:      0.000374  CPU:    1.055
  Cycle:     51 Energy:       -16.059933  Gnorm:      0.000448  CPU:    1.068
  Cycle:     52 Energy:       -16.060152  Gnorm:      0.000500  CPU:    1.089
  Cycle:     53 Energy:       -16.060380  Gnorm:      0.000632  CPU:    1.103
  ** Hessian calculated **
  Cycle:     54 Energy:       -16.060586  Gnorm:      0.000475  CPU:    1.128
  Cycle:     55 Energy:       -16.060786  Gnorm:      0.000431  CPU:    1.141
  Cycle:     56 Energy:       -16.060945  Gnorm:      0.000365  CPU:    1.154
  Cycle:     57 Energy:       -16.061086  Gnorm:      0.000421  CPU:    1.167
  Cycle:     58 Energy:       -16.061240  Gnorm:      0.000442  CPU:    1.180
  Cycle:     59 Energy:       -16.061416  Gnorm:      0.000442  CPU:    1.196
  Cycle:     60 Energy:       -16.061587  Gnorm:      0.000429  CPU:    1.213
  Cycle:     61 Energy:       -16.061759  Gnorm:      0.000395  CPU:    1.227
  Cycle:     62 Energy:       -16.061970  Gnorm:      0.000444  CPU:    1.243
  Cycle:     63 Energy:       -16.062217  Gnorm:      0.000673  CPU:    1.264
  ** Hessian calculated **
  Cycle:     64 Energy:       -16.062444  Gnorm:      0.000413  CPU:    1.289
  Cycle:     65 Energy:       -16.062633  Gnorm:      0.000403  CPU:    1.303
  Cycle:     66 Energy:       -16.062791  Gnorm:      0.000413  CPU:    1.316
  Cycle:     67 Energy:       -16.062943  Gnorm:      0.000388  CPU:    1.333
  Cycle:     68 Energy:       -16.063099  Gnorm:      0.000426  CPU:    1.349
  Cycle:     69 Energy:       -16.063235  Gnorm:      0.000392  CPU:    1.366
  Cycle:     70 Energy:       -16.063360  Gnorm:      0.000328  CPU:    1.386
  Cycle:     71 Energy:       -16.063494  Gnorm:      0.000408  CPU:    1.403
  Cycle:     72 Energy:       -16.063660  Gnorm:      0.000433  CPU:    1.419
  Cycle:     73 Energy:       -16.063828  Gnorm:      0.000560  CPU:    1.436
  ** Hessian calculated **
  Cycle:     74 Energy:       -16.063983  Gnorm:      0.000416  CPU:    1.471
  Cycle:     75 Energy:       -16.064135  Gnorm:      0.000383  CPU:    1.492
  Cycle:     76 Energy:       -16.064260  Gnorm:      0.000321  CPU:    1.510
  Cycle:     77 Energy:       -16.064373  Gnorm:      0.000381  CPU:    1.526
  Cycle:     78 Energy:       -16.064490  Gnorm:      0.000382  CPU:    1.540
  Cycle:     79 Energy:       -16.064628  Gnorm:      0.000401  CPU:    1.553
  Cycle:     80 Energy:       -16.064762  Gnorm:      0.000380  CPU:    1.566
  Cycle:     81 Energy:       -16.064898  Gnorm:      0.000348  CPU:    1.579
  Cycle:     82 Energy:       -16.065060  Gnorm:      0.000383  CPU:    1.596
  Cycle:     83 Energy:       -16.065241  Gnorm:      0.000602  CPU:    1.609
  ** Hessian calculated **
  Cycle:     84 Energy:       -16.065408  Gnorm:      0.000365  CPU:    1.638
  Cycle:     85 Energy:       -16.065549  Gnorm:      0.000381  CPU:    1.655
  Cycle:     86 Energy:       -16.065673  Gnorm:      0.000356  CPU:    1.674
  Cycle:     87 Energy:       -16.065796  Gnorm:      0.000336  CPU:    1.691
  Cycle:     88 Energy:       -16.065919  Gnorm:      0.000382  CPU:    1.710
  Cycle:     89 Energy:       -16.066025  Gnorm:      0.000347  CPU:    1.730
  Cycle:     90 Energy:       -16.066125  Gnorm:      0.000291  CPU:    1.752
  Cycle:     91 Energy:       -16.066234  Gnorm:      0.000375  CPU:    1.766
  Cycle:     92 Energy:       -16.066366  Gnorm:      0.000377  CPU:    1.784
  Cycle:     93 Energy:       -16.066496  Gnorm:      0.000498  CPU:    1.797
  ** Hessian calculated **
  Cycle:     94 Energy:       -16.066617  Gnorm:      0.000368  CPU:    1.821
  Cycle:     95 Energy:       -16.066735  Gnorm:      0.000351  CPU:    1.835
  Cycle:     96 Energy:       -16.066837  Gnorm:      0.000287  CPU:    1.848
  Cycle:     97 Energy:       -16.066931  Gnorm:      0.000346  CPU:    1.861
  Cycle:     98 Energy:       -16.067028  Gnorm:      0.000343  CPU:    1.875
  Cycle:     99 Energy:       -16.067142  Gnorm:      0.000339  CPU:    1.892
  Cycle:    100 Energy:       -16.067248  Gnorm:      0.000350  CPU:    1.906
  Cycle:    101 Energy:       -16.067354  Gnorm:      0.000330  CPU:    1.923
  Cycle:    102 Energy:       -16.067483  Gnorm:      0.000341  CPU:    1.939
  Cycle:    103 Energy:       -16.067625  Gnorm:      0.000539  CPU:    1.952
  ** Hessian calculated **
  Cycle:    104 Energy:       -16.067756  Gnorm:      0.000336  CPU:    1.976
  Cycle:    105 Energy:       -16.067870  Gnorm:      0.000357  CPU:    1.989
  Cycle:    106 Energy:       -16.067973  Gnorm:      0.000315  CPU:    2.002
  Cycle:    107 Energy:       -16.068077  Gnorm:      0.000301  CPU:    2.015
  Cycle:    108 Energy:       -16.068184  Gnorm:      0.000324  CPU:    2.028
  Cycle:    109 Energy:       -16.068273  Gnorm:      0.000330  CPU:    2.041
  Cycle:    110 Energy:       -16.068356  Gnorm:      0.000277  CPU:    2.054
  Cycle:    111 Energy:       -16.068447  Gnorm:      0.000356  CPU:    2.071
  Cycle:    112 Energy:       -16.068557  Gnorm:      0.000340  CPU:    2.091
  Cycle:    113 Energy:       -16.068668  Gnorm:      0.000462  CPU:    2.107
  ** Hessian calculated **
  Cycle:    114 Energy:       -16.068772  Gnorm:      0.000339  CPU:    2.134
  Cycle:    115 Energy:       -16.068873  Gnorm:      0.000332  CPU:    2.149
  Cycle:    116 Energy:       -16.068962  Gnorm:      0.000265  CPU:    2.163
  Cycle:    117 Energy:       -16.069044  Gnorm:      0.000321  CPU:    2.178
  Cycle:    118 Energy:       -16.069129  Gnorm:      0.000322  CPU:    2.194
  Cycle:    119 Energy:       -16.069230  Gnorm:      0.000312  CPU:    2.213
  Cycle:    120 Energy:       -16.069322  Gnorm:      0.000326  CPU:    2.236
  Cycle:    121 Energy:       -16.069414  Gnorm:      0.000316  CPU:    2.257
  Cycle:    122 Energy:       -16.069528  Gnorm:      0.000320  CPU:    2.275
  Cycle:    123 Energy:       -16.069653  Gnorm:      0.000516  CPU:    2.291
  ** Hessian calculated **
  Cycle:    124 Energy:       -16.069770  Gnorm:      0.000321  CPU:    2.323
  Cycle:    125 Energy:       -16.069872  Gnorm:      0.000341  CPU:    2.338
  Cycle:    126 Energy:       -16.069964  Gnorm:      0.000300  CPU:    2.353
  Cycle:    127 Energy:       -16.070058  Gnorm:      0.000289  CPU:    2.368
  Cycle:    128 Energy:       -16.070156  Gnorm:      0.000304  CPU:    2.383
  Cycle:    129 Energy:       -16.070237  Gnorm:      0.000317  CPU:    2.398
  Cycle:    130 Energy:       -16.070314  Gnorm:      0.000264  CPU:    2.416
  Cycle:    131 Energy:       -16.070400  Gnorm:      0.000346  CPU:    2.432
  Cycle:    132 Energy:       -16.070503  Gnorm:      0.000328  CPU:    2.448
  Cycle:    133 Energy:       -16.070605  Gnorm:      0.000451  CPU:    2.470
  ** Hessian calculated **
  Cycle:    134 Energy:       -16.070701  Gnorm:      0.000331  CPU:    2.509
  Cycle:    135 Energy:       -16.070797  Gnorm:      0.000324  CPU:    2.524
  Cycle:    136 Energy:       -16.070883  Gnorm:      0.000256  CPU:    2.541
  Cycle:    137 Energy:       -16.070962  Gnorm:      0.000314  CPU:    2.556
  Cycle:    138 Energy:       -16.071042  Gnorm:      0.000304  CPU:    2.574
  Cycle:    139 Energy:       -16.071137  Gnorm:      0.000316  CPU:    2.587
  Cycle:    140 Energy:       -16.071224  Gnorm:      0.000318  CPU:    2.600
  Cycle:    141 Energy:       -16.071314  Gnorm:      0.000303  CPU:    2.613
  Cycle:    142 Energy:       -16.071422  Gnorm:      0.000318  CPU:    2.626
  Cycle:    143 Energy:       -16.071539  Gnorm:      0.000501  CPU:    2.639
  ** Hessian calculated **
  Cycle:    144 Energy:       -16.071647  Gnorm:      0.000325  CPU:    2.666
  Cycle:    145 Energy:       -16.071747  Gnorm:      0.000340  CPU:    2.683
  Cycle:    146 Energy:       -16.071841  Gnorm:      0.000300  CPU:    2.697
  Cycle:    147 Energy:       -16.071931  Gnorm:      0.000310  CPU:    2.710
  Cycle:    148 Energy:       -16.072023  Gnorm:      0.000298  CPU:    2.723
  Cycle:    149 Energy:       -16.072103  Gnorm:      0.000306  CPU:    2.739
  Cycle:    150 Energy:       -16.072185  Gnorm:      0.000252  CPU:    2.754
  Cycle:    151 Energy:       -16.072276  Gnorm:      0.000343  CPU:    2.768
  Cycle:    152 Energy:       -16.072373  Gnorm:      0.000333  CPU:    2.789
  Cycle:    153 Energy:       -16.072469  Gnorm:      0.000456  CPU:    2.809
  ** Hessian calculated **
  Cycle:    154 Energy:       -16.072561  Gnorm:      0.000329  CPU:    2.834
  Cycle:    155 Energy:       -16.072657  Gnorm:      0.000329  CPU:    2.847
  Cycle:    156 Energy:       -16.072748  Gnorm:      0.000255  CPU:    2.860
  Cycle:    157 Energy:       -16.072829  Gnorm:      0.000308  CPU:    2.873
  Cycle:    158 Energy:       -16.072908  Gnorm:      0.000302  CPU:    2.890
  Cycle:    159 Energy:       -16.073004  Gnorm:      0.000319  CPU:    2.908
  Cycle:    160 Energy:       -16.073095  Gnorm:      0.000313  CPU:    2.926
  Cycle:    161 Energy:       -16.073191  Gnorm:      0.000352  CPU:    2.941
  Cycle:    162 Energy:       -16.073294  Gnorm:      0.000334  CPU:    2.956
  Cycle:    163 Energy:       -16.073407  Gnorm:      0.000493  CPU:    2.971
  ** Hessian calculated **
  Cycle:    164 Energy:       -16.073516  Gnorm:      0.000328  CPU:    2.999
  Cycle:    165 Energy:       -16.073619  Gnorm:      0.000346  CPU:    3.014
  Cycle:    166 Energy:       -16.073714  Gnorm:      0.000313  CPU:    3.030
  Cycle:    167 Energy:       -16.073804  Gnorm:      0.000325  CPU:    3.045
  Cycle:    168 Energy:       -16.073901  Gnorm:      0.000304  CPU:    3.059
  Cycle:    169 Energy:       -16.073985  Gnorm:      0.000312  CPU:    3.074
  Cycle:    170 Energy:       -16.074069  Gnorm:      0.000268  CPU:    3.089
  Cycle:    171 Energy:       -16.074165  Gnorm:      0.000345  CPU:    3.104
  Cycle:    172 Energy:       -16.074265  Gnorm:      0.000334  CPU:    3.119
  Cycle:    173 Energy:       -16.074363  Gnorm:      0.000455  CPU:    3.138
  ** Hessian calculated **
  Cycle:    174 Energy:       -16.074457  Gnorm:      0.000332  CPU:    3.165
  Cycle:    175 Energy:       -16.074557  Gnorm:      0.000341  CPU:    3.180
  Cycle:    176 Energy:       -16.074653  Gnorm:      0.000271  CPU:    3.195
  Cycle:    177 Energy:       -16.074738  Gnorm:      0.000314  CPU:    3.213
  Cycle:    178 Energy:       -16.074822  Gnorm:      0.000311  CPU:    3.230
  Cycle:    179 Energy:       -16.074924  Gnorm:      0.000329  CPU:    3.245
  Cycle:    180 Energy:       -16.075016  Gnorm:      0.000327  CPU:    3.260
  Cycle:    181 Energy:       -16.075116  Gnorm:      0.000359  CPU:    3.276
  Cycle:    182 Energy:       -16.075226  Gnorm:      0.000345  CPU:    3.292
  Cycle:    183 Energy:       -16.075342  Gnorm:      0.000494  CPU:    3.308
  ** Hessian calculated **
  Cycle:    184 Energy:       -16.075455  Gnorm:      0.000335  CPU:    3.337
  Cycle:    185 Energy:       -16.075564  Gnorm:      0.000355  CPU:    3.353
  Cycle:    186 Energy:       -16.075664  Gnorm:      0.000328  CPU:    3.367
  Cycle:    187 Energy:       -16.075757  Gnorm:      0.000336  CPU:    3.382
  Cycle:    188 Energy:       -16.075862  Gnorm:      0.000315  CPU:    3.396
  Cycle:    189 Energy:       -16.075953  Gnorm:      0.000321  CPU:    3.412
  Cycle:    190 Energy:       -16.076042  Gnorm:      0.000283  CPU:    3.429
  Cycle:    191 Energy:       -16.076144  Gnorm:      0.000356  CPU:    3.446
  Cycle:    192 Energy:       -16.076251  Gnorm:      0.000343  CPU:    3.463
  Cycle:    193 Energy:       -16.076353  Gnorm:      0.000460  CPU:    3.480
  ** Hessian calculated **
  Cycle:    194 Energy:       -16.076452  Gnorm:      0.000338  CPU:    3.513
  Cycle:    195 Energy:       -16.076559  Gnorm:      0.000356  CPU:    3.527
  Cycle:    196 Energy:       -16.076663  Gnorm:      0.000287  CPU:    3.542
  Cycle:    197 Energy:       -16.076753  Gnorm:      0.000322  CPU:    3.556
  Cycle:    198 Energy:       -16.076845  Gnorm:      0.000324  CPU:    3.571
  Cycle:    199 Energy:       -16.076957  Gnorm:      0.000343  CPU:    3.586
  Cycle:    200 Energy:       -16.077053  Gnorm:      0.000343  CPU:    3.602
  Cycle:    201 Energy:       -16.077160  Gnorm:      0.000371  CPU:    3.618
  Cycle:    202 Energy:       -16.077278  Gnorm:      0.000355  CPU:    3.633
  Cycle:    203 Energy:       -16.077401  Gnorm:      0.000506  CPU:    3.647
  ** Hessian calculated **
  Cycle:    204 Energy:       -16.077521  Gnorm:      0.000342  CPU:    3.674
  Cycle:    205 Energy:       -16.077640  Gnorm:      0.000367  CPU:    3.689
  Cycle:    206 Energy:       -16.077747  Gnorm:      0.000345  CPU:    3.704
  Cycle:    207 Energy:       -16.077845  Gnorm:      0.000350  CPU:    3.719
  Cycle:    208 Energy:       -16.077961  Gnorm:      0.000330  CPU:    3.735
  Cycle:    209 Energy:       -16.078060  Gnorm:      0.000331  CPU:    3.752
  Cycle:    210 Energy:       -16.078158  Gnorm:      0.000296  CPU:    3.772
  Cycle:    211 Energy:       -16.078270  Gnorm:      0.000370  CPU:    3.793
  Cycle:    212 Energy:       -16.078385  Gnorm:      0.000353  CPU:    3.816
  Cycle:    213 Energy:       -16.078495  Gnorm:      0.000476  CPU:    3.837
  ** Hessian calculated **
  Cycle:    214 Energy:       -16.078601  Gnorm:      0.000348  CPU:    3.868
  Cycle:    215 Energy:       -16.078716  Gnorm:      0.000372  CPU:    3.884
  Cycle:    216 Energy:       -16.078831  Gnorm:      0.000299  CPU:    3.899
  Cycle:    217 Energy:       -16.078930  Gnorm:      0.000334  CPU:    3.913
  Cycle:    218 Energy:       -16.079031  Gnorm:      0.000339  CPU:    3.928
  Cycle:    219 Energy:       -16.079155  Gnorm:      0.000360  CPU:    3.942
  Cycle:    220 Energy:       -16.079259  Gnorm:      0.000363  CPU:    3.957
  Cycle:    221 Energy:       -16.079374  Gnorm:      0.000385  CPU:    3.973
  Cycle:    222 Energy:       -16.079504  Gnorm:      0.000363  CPU:    3.989
  Cycle:    223 Energy:       -16.079638  Gnorm:      0.000528  CPU:    4.010
  ** Hessian calculated **
  Cycle:    224 Energy:       -16.079768  Gnorm:      0.000352  CPU:    4.051
  Cycle:    225 Energy:       -16.079898  Gnorm:      0.000383  CPU:    4.069
  Cycle:    226 Energy:       -16.080015  Gnorm:      0.000365  CPU:    4.086
  Cycle:    227 Energy:       -16.080121  Gnorm:      0.000367  CPU:    4.101
  Cycle:    228 Energy:       -16.080252  Gnorm:      0.000347  CPU:    4.115
  Cycle:    229 Energy:       -16.080361  Gnorm:      0.000344  CPU:    4.133
  Cycle:    230 Energy:       -16.080468  Gnorm:      0.000311  CPU:    4.153
  Cycle:    231 Energy:       -16.080594  Gnorm:      0.000387  CPU:    4.169
  Cycle:    232 Energy:       -16.080719  Gnorm:      0.000367  CPU:    4.186
  Cycle:    233 Energy:       -16.080839  Gnorm:      0.000499  CPU:    4.200
  ** Hessian calculated **
  Cycle:    234 Energy:       -16.080955  Gnorm:      0.000362  CPU:    4.234
  Cycle:    235 Energy:       -16.081081  Gnorm:      0.000390  CPU:    4.254
  Cycle:    236 Energy:       -16.081209  Gnorm:      0.000314  CPU:    4.276
  Cycle:    237 Energy:       -16.081319  Gnorm:      0.000351  CPU:    4.293
  Cycle:    238 Energy:       -16.081432  Gnorm:      0.000356  CPU:    4.314
  Cycle:    239 Energy:       -16.081571  Gnorm:      0.000380  CPU:    4.334
  Cycle:    240 Energy:       -16.081685  Gnorm:      0.000385  CPU:    4.353
  Cycle:    241 Energy:       -16.081812  Gnorm:      0.000403  CPU:    4.366
  Cycle:    242 Energy:       -16.081955  Gnorm:      0.000374  CPU:    4.380
  Cycle:    243 Energy:       -16.082103  Gnorm:      0.000556  CPU:    4.393
  ** Hessian calculated **
  Cycle:    244 Energy:       -16.082247  Gnorm:      0.000365  CPU:    4.424
  Cycle:    245 Energy:       -16.082390  Gnorm:      0.000401  CPU:    4.438
  Cycle:    246 Energy:       -16.082518  Gnorm:      0.000387  CPU:    4.453
  Cycle:    247 Energy:       -16.082636  Gnorm:      0.000387  CPU:    4.468
  Cycle:    248 Energy:       -16.082784  Gnorm:      0.000366  CPU:    4.483
  Cycle:    249 Energy:       -16.082905  Gnorm:      0.000362  CPU:    4.497
  Cycle:    250 Energy:       -16.083026  Gnorm:      0.000328  CPU:    4.511
  Cycle:    251 Energy:       -16.083168  Gnorm:      0.000405  CPU:    4.533
  Cycle:    252 Energy:       -16.083304  Gnorm:      0.000383  CPU:    4.551
  Cycle:    253 Energy:       -16.083437  Gnorm:      0.000527  CPU:    4.568
  ** Hessian calculated **
  Cycle:    254 Energy:       -16.083567  Gnorm:      0.000379  CPU:    4.592
  Cycle:    255 Energy:       -16.083704  Gnorm:      0.000410  CPU:    4.605
  Cycle:    256 Energy:       -16.083848  Gnorm:      0.000331  CPU:    4.625
  Cycle:    257 Energy:       -16.083974  Gnorm:      0.000370  CPU:    4.640
  Cycle:    258 Energy:       -16.084099  Gnorm:      0.000376  CPU:    4.656
  Cycle:    259 Energy:       -16.084256  Gnorm:      0.000402  CPU:    4.676
  Cycle:    260 Energy:       -16.084383  Gnorm:      0.000409  CPU:    4.696
  Cycle:    261 Energy:       -16.084523  Gnorm:      0.000423  CPU:    4.715
  Cycle:    262 Energy:       -16.084682  Gnorm:      0.000390  CPU:    4.733
  Cycle:    263 Energy:       -16.084847  Gnorm:      0.000587  CPU:    4.751
  ** Hessian calculated **
  Cycle:    264 Energy:       -16.085007  Gnorm:      0.000382  CPU:    4.789
  Cycle:    265 Energy:       -16.085167  Gnorm:      0.000422  CPU:    4.802
  Cycle:    266 Energy:       -16.085309  Gnorm:      0.000412  CPU:    4.816
  Cycle:    267 Energy:       -16.085440  Gnorm:      0.000409  CPU:    4.833
  Cycle:    268 Energy:       -16.085608  Gnorm:      0.000387  CPU:    4.848
  Cycle:    269 Energy:       -16.085743  Gnorm:      0.000381  CPU:    4.862
  Cycle:    270 Energy:       -16.085880  Gnorm:      0.000348  CPU:    4.875
  Cycle:    271 Energy:       -16.086042  Gnorm:      0.000424  CPU:    4.889
  Cycle:    272 Energy:       -16.086191  Gnorm:      0.000402  CPU:    4.902
  Cycle:    273 Energy:       -16.086339  Gnorm:      0.000555  CPU:    4.922
  ** Hessian calculated **
  Cycle:    274 Energy:       -16.086484  Gnorm:      0.000398  CPU:    4.949
  Cycle:    275 Energy:       -16.086634  Gnorm:      0.000429  CPU:    4.964
  Cycle:    276 Energy:       -16.086798  Gnorm:      0.000351  CPU:    4.984
  Cycle:    277 Energy:       -16.086940  Gnorm:      0.000391  CPU:    5.003
  Cycle:    278 Energy:       -16.087081  Gnorm:      0.000398  CPU:    5.017
  Cycle:    279 Energy:       -16.087258  Gnorm:      0.000424  CPU:    5.036
  Cycle:    280 Energy:       -16.087400  Gnorm:      0.000434  CPU:    5.057
  Cycle:    281 Energy:       -16.087556  Gnorm:      0.000444  CPU:    5.074
  Cycle:    282 Energy:       -16.087732  Gnorm:      0.000409  CPU:    5.089
  Cycle:    283 Energy:       -16.087917  Gnorm:      0.000617  CPU:    5.111
  ** Hessian calculated **
  Cycle:    284 Energy:       -16.088097  Gnorm:      0.000400  CPU:    5.153
  Cycle:    285 Energy:       -16.088275  Gnorm:      0.000442  CPU:    5.175
  Cycle:    286 Energy:       -16.088432  Gnorm:      0.000437  CPU:    5.194
  Cycle:    287 Energy:       -16.088579  Gnorm:      0.000432  CPU:    5.216
  Cycle:    288 Energy:       -16.088769  Gnorm:      0.000410  CPU:    5.242
  Cycle:    289 Energy:       -16.088920  Gnorm:      0.000402  CPU:    5.263
  Cycle:    290 Energy:       -16.089076  Gnorm:      0.000370  CPU:    5.284
  Cycle:    291 Energy:       -16.089259  Gnorm:      0.000440  CPU:    5.301
  Cycle:    292 Energy:       -16.089424  Gnorm:      0.000423  CPU:    5.316
  Cycle:    293 Energy:       -16.089588  Gnorm:      0.000581  CPU:    5.332
  ** Hessian calculated **
  Cycle:    294 Energy:       -16.089749  Gnorm:      0.000420  CPU:    5.360
  Cycle:    295 Energy:       -16.089914  Gnorm:      0.000447  CPU:    5.375
  Cycle:    296 Energy:       -16.090100  Gnorm:      0.000370  CPU:    5.391
  Cycle:    297 Energy:       -16.090262  Gnorm:      0.000414  CPU:    5.405
  Cycle:    298 Energy:       -16.090419  Gnorm:      0.000421  CPU:    5.420
  Cycle:    299 Energy:       -16.090619  Gnorm:      0.000448  CPU:    5.435
  Cycle:    300 Energy:       -16.090778  Gnorm:      0.000459  CPU:    5.452
  Cycle:    301 Energy:       -16.090951  Gnorm:      0.000464  CPU:    5.468
  Cycle:    302 Energy:       -16.091147  Gnorm:      0.000430  CPU:    5.486
  Cycle:    303 Energy:       -16.091355  Gnorm:      0.000644  CPU:    5.501
  ** Hessian calculated **
  Cycle:    304 Energy:       -16.091555  Gnorm:      0.000419  CPU:    5.529
  Cycle:    305 Energy:       -16.091752  Gnorm:      0.000462  CPU:    5.544
  Cycle:    306 Energy:       -16.091927  Gnorm:      0.000462  CPU:    5.558
  Cycle:    307 Energy:       -16.092092  Gnorm:      0.000457  CPU:    5.573
  Cycle:    308 Energy:       -16.092306  Gnorm:      0.000434  CPU:    5.595
  Cycle:    309 Energy:       -16.092474  Gnorm:      0.000423  CPU:    5.614
  Cycle:    310 Energy:       -16.092652  Gnorm:      0.000392  CPU:    5.634
  Cycle:    311 Energy:       -16.092858  Gnorm:      0.000456  CPU:    5.653
  Cycle:    312 Energy:       -16.093001  Gnorm:      0.000317  CPU:    5.683
  Cycle:    313 Energy:       -16.093073  Gnorm:      0.000281  CPU:    5.705
  ** Hessian calculated **
  Cycle:    314 Energy:       -16.093266  Gnorm:      0.000515  CPU:    5.743
  Cycle:    315 Energy:       -16.093402  Gnorm:      0.000372  CPU:    5.763
  Cycle:    316 Energy:       -16.093460  Gnorm:      0.000322  CPU:    5.786
  Cycle:    317 Energy:       -16.093487  Gnorm:      0.000307  CPU:    5.811
  Cycle:    318 Energy:       -16.093501  Gnorm:      0.000300  CPU:    5.837
  Cycle:    319 Energy:       -16.093501  Gnorm:      0.000300  CPU:    5.862
  ** Hessian calculated **
  Cycle:    320 Energy:       -16.093501  Gnorm:      0.000300  CPU:    5.900
  ** Hessian calculated **


  **** Optimisation achieved ****


  Final energy =     -16.09350109 eV
  Final Gnorm  =       0.00029977

  Components of energy : 

--------------------------------------------------------------------------------
  Interatomic potentials     =           1.89043141 eV
  Three-body potentials      =           2.66554026 eV
  Four-body potentials       =           1.29996566 eV
  Improper torsions          =           0.00445057 eV
  Out of plane potentials    =           0.00000000 eV
  Monopole - monopole (real) =         -21.95388899 eV
--------------------------------------------------------------------------------
  Total lattice energy       =         -16.09350109 eV
--------------------------------------------------------------------------------
  Total lattice energy       =           -1552.7768 kJ/mol
--------------------------------------------------------------------------------

  Final cartesian coordinates of atoms :

--------------------------------------------------------------------------------
   No.  Atomic        x           y          z          Radius
        Label       (Angs)      (Angs)     (Angs)       (Angs) 
--------------------------------------------------------------------------------
     1  O5    c    25.186147    9.521364   15.850633    0.000000
     2  S5    c    25.037233    9.795502   14.451543    0.000000
     3  O5    c    26.224238   10.535470   14.140552    0.000000
     4  O5    c    25.126785    8.493764   13.860358    0.000000
     5  C5    c    23.521413   10.661191   14.172461    0.000000
     6  C5    c    23.498556   12.056916   14.190055    0.000000
     7  H5    c    24.425318   12.608463   14.336829    0.000000
     8  C5    c    22.294001   12.742956   14.046203    0.000000
     9  H5    c    22.288228   13.830198   14.081393    0.000000
    10  C5    c    21.099175   12.042185   13.888079    0.000000
    11  C5    c    21.123764   10.645127   13.837919    0.000000
    12  H5    c    20.204105   10.082245   13.699852    0.000000
    13  C5    c    22.330126    9.959174   13.977364    0.000000
    14  H5    c    22.344155    8.871241   13.952081    0.000000
    15  N6    c    19.931505   12.753757   13.817478    0.000000
    16  H6    c    20.006177   13.770543   13.858356    0.000000
    17  N5    c    18.681385   12.217099   13.846540    0.000000
    18  C6    c    17.589616   12.931519   13.938818    0.000000
    19  C5    c    16.320300   12.227456   13.972224    0.000000
    20  C5    c    16.256735   10.825943   13.905870    0.000000
    21  H5    c    17.158536   10.232577   13.780706    0.000000
    22  C5    c    15.038495   10.161208   14.023500    0.000000
    23  H5    c    15.005313    9.073074   13.998440    0.000000
    24  C5    c    13.862628   10.882790   14.210084    0.000000
    25  C5    c    13.911793   12.275459   14.230055    0.000000
    26  H5    c    12.990333   12.835916   14.369985    0.000000
    27  C5    c    15.127320   12.950109   14.112930    0.000000
    28  C6    c    15.098902   14.389989   14.178262    0.000000
    29  H5    c    14.167576   14.943691   14.251032    0.000000
    30  C7    c    16.308383   15.048571   14.167378    0.000000
    31  H5    c    16.360529   16.129049   14.233213    0.000000
    32  C8    c    17.625625   14.413163   14.069404    0.000000
    33  O5    c    18.632907   15.097282   14.110576    0.000000
    34  S5    c    12.341805   10.040702   14.500198    0.000000
    35  O5    c    12.310035    9.596239   15.861878    0.000000
    36  O5    c    11.155434   10.833376   14.374431    0.000000
    37  O5    c    12.173524    8.815526   13.779050    0.000000
    38  O5    c    25.106924    9.416160    8.156144    0.000000
    39  S5    c    24.851947    9.310807    9.562838    0.000000
    40  O5    c    26.066537    9.802335   10.142083    0.000000
    41  O5    c    24.777883    7.894722    9.771055    0.000000
    42  C5    c    23.383049   10.214680    9.953216    0.000000
    43  C5    c    23.442048   11.584710   10.216400    0.000000
    44  H5    c    24.406540   12.088934   10.231955    0.000000
    45  C5    c    22.270504   12.310877   10.431184    0.000000
    46  H5    c    22.329632   13.380511   10.618437    0.000000
    47  C5    c    21.029078   11.675881   10.389310    0.000000
    48  C5    c    20.972603   10.297790   10.161960    0.000000
    49  H5    c    20.016699    9.781108   10.134460    0.000000
    50  C5    c    22.143346    9.573337    9.944130    0.000000
    51  H5    c    22.091946    8.505014    9.743790    0.000000
    52  N6    c    19.895668   12.430141   10.545297    0.000000
    53  H6    c    20.017455   13.434981   10.669112    0.000000
    54  N5    c    18.623000   11.952000   10.475000    0.000000
    55  C6    c    17.551514   12.698347   10.532656    0.000000
    56  C5    c    16.261537   12.036011   10.460579    0.000000
    57  C5    c    16.160038   10.640677   10.338963    0.000000
    58  H5    c    17.049221   10.015301   10.330039    0.000000
    59  C5    c    14.918836   10.024856   10.201283    0.000000
    60  H5    c    14.857058    8.944668   10.078316    0.000000
    61  C5    c    13.755773   10.789658   10.185395    0.000000
    62  C5    c    13.845219   12.171309   10.349613    0.000000
    63  H5    c    12.933559   12.764342   10.339399    0.000000
    64  C5    c    15.085540   12.797981   10.485448    0.000000
    65  C6    c    15.100452   14.233808   10.618474    0.000000
    66  H5    c    14.184905   14.814966   10.667238    0.000000
    67  C7    c    16.329608   14.854124   10.675234    0.000000
    68  H5    c    16.411923   15.930760   10.768553    0.000000
    69  C8    c    17.629599   14.178505   10.629806    0.000000
    70  O5    c    18.658694   14.829060   10.667002    0.000000
    71  S5    c    12.197971   10.027471    9.864841    0.000000
    72  O5    c    11.834784   10.295853    8.504821    0.000000
    73  O5    c    11.081920   10.567881   10.580904    0.000000
    74  O5    c    12.165150    8.598125    9.952817    0.000000
    75  Na5   c    27.202532    8.554525   15.066797    0.000000
    76  Na5   c     9.946033    9.024242    9.121773    0.000000
    77  Na5   c    10.206966    8.767914   15.162894    0.000000
    78  Na5   c    26.942801    8.052375    8.744867    0.000000
--------------------------------------------------------------------------------


  Final Cartesian derivatives :

--------------------------------------------------------------------------------
   No.  Atomic          x             y             z           Radius
        Label       (eV/Angs)     (eV/Angs)    (eV/Angs)      (eV/Angs)
--------------------------------------------------------------------------------
      1 O5    c       0.001111     -0.000819      0.009071      0.000000
      2 S5    c       0.004366     -0.006897      0.006672      0.000000
      3 O5    c       0.001214     -0.000558     -0.000421      0.000000
      4 O5    c      -0.001838      0.000518      0.001823      0.000000
      5 C5    c       0.000175     -0.001861      0.003797      0.000000
      6 C5    c      -0.000378     -0.003383     -0.001472      0.000000
      7 H5    c      -0.002003     -0.000939      0.000362      0.000000
      8 C5    c      -0.001912     -0.007300     -0.003968      0.000000
      9 H5    c       0.000114     -0.001915     -0.000590      0.000000
     10 C5    c      -0.000807     -0.004422     -0.002446      0.000000
     11 C5    c       0.004212     -0.005091      0.002229      0.000000
     12 H5    c       0.001621     -0.000628      0.000968      0.000000
     13 C5    c       0.001645     -0.004659      0.003702      0.000000
     14 H5    c      -0.000213     -0.000348      0.000771      0.000000
     15 N6    c       0.000969     -0.008929     -0.002293      0.000000
     16 H6    c       0.000545     -0.002115     -0.001208      0.000000
     17 N5    c       0.007971     -0.005415     -0.003123      0.000000
     18 C6    c      -0.004269     -0.009117     -0.004572      0.000000
     19 C5    c       0.000559      0.004040     -0.003463      0.000000
     20 C5    c       0.005501     -0.023471      0.007281      0.000000
     21 H5    c      -0.008439      0.006986      0.001049      0.000000
     22 C5    c       0.011935      0.007004     -0.003180      0.000000
     23 H5    c      -0.001155     -0.005244      0.000664      0.000000
     24 C5    c      -0.007441      0.003461      0.010277      0.000000
     25 C5    c       0.005259      0.010236     -0.005755      0.000000
     26 H5    c       0.003593     -0.006258     -0.002361      0.000000
     27 C5    c      -0.010584     -0.007725     -0.002704      0.000000
     28 C6    c       0.007923     -0.000396     -0.002141      0.000000
     29 H5    c      -0.002453      0.000390      0.000374      0.000000
     30 C7    c      -0.006476     -0.008081     -0.003769      0.000000
     31 H5    c      -0.000657      0.000519     -0.000986      0.000000
     32 C8    c      -0.002293     -0.001894     -0.004059      0.000000
     33 O5    c       0.003368      0.002320     -0.001096      0.000000
     34 S5    c       0.000361     -0.008142      0.009085      0.000000
     35 O5    c       0.000822      0.004918      0.000733      0.000000
     36 O5    c      -0.004145      0.004087      0.000425      0.000000
     37 O5    c       0.001304      0.004255      0.004999      0.000000
     38 O5    c      -0.000481     -0.000151     -0.002240      0.000000
     39 S5    c      -0.001714      0.009840     -0.004449      0.000000
     40 O5    c      -0.008454      0.002428      0.002225      0.000000
     41 O5    c      -0.002724     -0.003079      0.004780      0.000000
     42 C5    c      -0.000669      0.001677     -0.001886      0.000000
     43 C5    c       0.004023     -0.005756     -0.000691      0.000000
     44 H5    c      -0.001377      0.001795     -0.002446      0.000000
     45 C5    c      -0.004162      0.005600     -0.003722      0.000000
     46 H5    c       0.000950     -0.005416     -0.000897      0.000000
     47 C5    c       0.002848     -0.009187      0.003541      0.000000
     48 C5    c       0.003305      0.013751      0.001107      0.000000
     49 H5    c       0.000818     -0.001931      0.002771      0.000000
     50 C5    c       0.012260      0.002642      0.004736      0.000000
     51 H5    c      -0.000876      0.004844      0.000623      0.000000
     52 N6    c      -0.002381      0.001078      0.001239      0.000000
     53 H6    c      -0.000093     -0.004220      0.000618      0.000000
     54 N5    c       0.000000      0.000000      0.000000      0.000000
     55 C6    c      -0.006995      0.001638     -0.001913      0.000000
     56 C5    c      -0.009294     -0.003069      0.000478      0.000000
     57 C5    c      -0.010993      0.004676     -0.000104      0.000000
     58 H5    c       0.001493     -0.004914      0.000720      0.000000
     59 C5    c       0.009918      0.003997      0.007296      0.000000
     60 H5    c      -0.000363      0.000744      0.000140      0.000000
     61 C5    c      -0.000708      0.004938     -0.000108      0.000000
     62 C5    c       0.006237      0.001253     -0.003253      0.000000
     63 H5    c      -0.001537     -0.003983      0.000123      0.000000
     64 C5    c       0.005488      0.002435     -0.001755      0.000000
     65 C6    c       0.001654      0.001128     -0.003596      0.000000
     66 H5    c       0.006111     -0.005996     -0.000485      0.000000
     67 C7    c      -0.002846      0.004433     -0.003686      0.000000
     68 H5    c      -0.001632     -0.001407     -0.001876      0.000000
     69 C8    c      -0.006186     -0.000206     -0.007140      0.000000
     70 O5    c       0.000642     -0.001198     -0.002151      0.000000
     71 S5    c      -0.003248     -0.003873      0.005208      0.000000
     72 O5    c      -0.000618      0.000163     -0.002154      0.000000
     73 O5    c       0.004057      0.003178      0.002763      0.000000
     74 O5    c      -0.000219     -0.002081      0.000701      0.000000
     75 Na5   c      -0.000602      0.000375     -0.000336      0.000000
     76 Na5   c       0.002419     -0.002221     -0.000264      0.000000
     77 Na5   c      -0.000832     -0.001510      0.001392      0.000000
     78 Na5   c       0.004623     -0.003004      0.000269      0.000000
--------------------------------------------------------------------------------
  Maximum abs         0.012260      0.023471      0.010277      0.000000
--------------------------------------------------------------------------------


  Born effective charge tensors : 

-------------------------------------------------------------------------------
  Atom             x           y             z
-------------------------------------------------------------------------------
   1 O5    x      -0.6818      0.0000      0.0000
           y       0.0000     -0.6818      0.0000
           z       0.0000      0.0000     -0.6818
-------------------------------------------------------------------------------
   2 S5    x       1.1440      0.0000      0.0000
           y       0.0000      1.1440      0.0000
           z       0.0000      0.0000      1.1440
-------------------------------------------------------------------------------
   3 O5    x      -0.6818      0.0000      0.0000
           y       0.0000     -0.6818      0.0000
           z       0.0000      0.0000     -0.6818
-------------------------------------------------------------------------------
   4 O5    x      -0.6818      0.0000      0.0000
           y       0.0000     -0.6818      0.0000
           z       0.0000      0.0000     -0.6818
-------------------------------------------------------------------------------
   5 C5    x      -0.0734      0.0000      0.0000
           y       0.0000     -0.0734      0.0000
           z       0.0000      0.0000     -0.0734
-------------------------------------------------------------------------------
   6 C5    x      -0.1009      0.0000      0.0000
           y       0.0000     -0.1009      0.0000
           z       0.0000      0.0000     -0.1009
-------------------------------------------------------------------------------
   7 H5    x       0.1446      0.0000      0.0000
           y       0.0000      0.1446      0.0000
           z       0.0000      0.0000      0.1446
-------------------------------------------------------------------------------
   8 C5    x      -0.1678      0.0000      0.0000
           y       0.0000     -0.1678      0.0000
           z       0.0000      0.0000     -0.1678
-------------------------------------------------------------------------------
   9 H5    x       0.1169      0.0000      0.0000
           y       0.0000      0.1169      0.0000
           z       0.0000      0.0000      0.1169
-------------------------------------------------------------------------------
  10 C5    x       0.0333      0.0000      0.0000
           y       0.0000      0.0333      0.0000
           z       0.0000      0.0000      0.0333
-------------------------------------------------------------------------------
  11 C5    x      -0.1678      0.0000      0.0000
           y       0.0000     -0.1678      0.0000
           z       0.0000      0.0000     -0.1678
-------------------------------------------------------------------------------
  12 H5    x       0.1169      0.0000      0.0000
           y       0.0000      0.1169      0.0000
           z       0.0000      0.0000      0.1169
-------------------------------------------------------------------------------
  13 C5    x      -0.1009      0.0000      0.0000
           y       0.0000     -0.1009      0.0000
           z       0.0000      0.0000     -0.1009
-------------------------------------------------------------------------------
  14 H5    x       0.1446      0.0000      0.0000
           y       0.0000      0.1446      0.0000
           z       0.0000      0.0000      0.1446
-------------------------------------------------------------------------------
  15 N6    x      -0.0940      0.0000      0.0000
           y       0.0000     -0.0940      0.0000
           z       0.0000      0.0000     -0.0940
-------------------------------------------------------------------------------
  16 H6    x       0.2606      0.0000      0.0000
           y       0.0000      0.2606      0.0000
           z       0.0000      0.0000      0.2606
-------------------------------------------------------------------------------
  17 N5    x      -0.0985      0.0000      0.0000
           y       0.0000     -0.0985      0.0000
           z       0.0000      0.0000     -0.0985
-------------------------------------------------------------------------------
  18 C6    x      -0.0204      0.0000      0.0000
           y       0.0000     -0.0204      0.0000
           z       0.0000      0.0000     -0.0204
-------------------------------------------------------------------------------
  19 C5    x      -0.0023      0.0000      0.0000
           y       0.0000     -0.0023      0.0000
           z       0.0000      0.0000     -0.0023
-------------------------------------------------------------------------------
  20 C5    x      -0.2262      0.0000      0.0000
           y       0.0000     -0.2262      0.0000
           z       0.0000      0.0000     -0.2262
-------------------------------------------------------------------------------
  21 H5    x       0.1394      0.0000      0.0000
           y       0.0000      0.1394      0.0000
           z       0.0000      0.0000      0.1394
-------------------------------------------------------------------------------
  22 C5    x      -0.0513      0.0000      0.0000
           y       0.0000     -0.0513      0.0000
           z       0.0000      0.0000     -0.0513
-------------------------------------------------------------------------------
  23 H5    x       0.1440      0.0000      0.0000
           y       0.0000      0.1440      0.0000
           z       0.0000      0.0000      0.1440
-------------------------------------------------------------------------------
  24 C5    x      -0.1159      0.0000      0.0000
           y       0.0000     -0.1159      0.0000
           z       0.0000      0.0000     -0.1159
-------------------------------------------------------------------------------
  25 C5    x      -0.0935      0.0000      0.0000
           y       0.0000     -0.0935      0.0000
           z       0.0000      0.0000     -0.0935
-------------------------------------------------------------------------------
  26 H5    x       0.1278      0.0000      0.0000
           y       0.0000      0.1278      0.0000
           z       0.0000      0.0000      0.1278
-------------------------------------------------------------------------------
  27 C5    x       0.0347      0.0000      0.0000
           y       0.0000      0.0347      0.0000
           z       0.0000      0.0000      0.0347
-------------------------------------------------------------------------------
  28 C6    x      -0.1161      0.0000      0.0000
           y       0.0000     -0.1161      0.0000
           z       0.0000      0.0000     -0.1161
-------------------------------------------------------------------------------
  29 H5    x       0.1566      0.0000      0.0000
           y       0.0000      0.1566      0.0000
           z       0.0000      0.0000      0.1566
-------------------------------------------------------------------------------
  30 C7    x      -0.3625      0.0000      0.0000
           y       0.0000     -0.3625      0.0000
           z       0.0000      0.0000     -0.3625
-------------------------------------------------------------------------------
  31 H5    x       0.1432      0.0000      0.0000
           y       0.0000      0.1432      0.0000
           z       0.0000      0.0000      0.1432
-------------------------------------------------------------------------------
  32 C8    x       0.6081      0.0000      0.0000
           y       0.0000      0.6081      0.0000
           z       0.0000      0.0000      0.6081
-------------------------------------------------------------------------------
  33 O5    x      -0.5968      0.0000      0.0000
           y       0.0000     -0.5968      0.0000
           z       0.0000      0.0000     -0.5968
-------------------------------------------------------------------------------
  34 S5    x       1.1659      0.0000      0.0000
           y       0.0000      1.1659      0.0000
           z       0.0000      0.0000      1.1659
-------------------------------------------------------------------------------
  35 O5    x      -0.6823      0.0000      0.0000
           y       0.0000     -0.6823      0.0000
           z       0.0000      0.0000     -0.6823
-------------------------------------------------------------------------------
  36 O5    x      -0.6823      0.0000      0.0000
           y       0.0000     -0.6823      0.0000
           z       0.0000      0.0000     -0.6823
-------------------------------------------------------------------------------
  37 O5    x      -0.6823      0.0000      0.0000
           y       0.0000     -0.6823      0.0000
           z       0.0000      0.0000     -0.6823
-------------------------------------------------------------------------------
  38 O5    x      -0.6818      0.0000      0.0000
           y       0.0000     -0.6818      0.0000
           z       0.0000      0.0000     -0.6818
-------------------------------------------------------------------------------
  39 S5    x       1.1440      0.0000      0.0000
           y       0.0000      1.1440      0.0000
           z       0.0000      0.0000      1.1440
-------------------------------------------------------------------------------
  40 O5    x      -0.6818      0.0000      0.0000
           y       0.0000     -0.6818      0.0000
           z       0.0000      0.0000     -0.6818
-------------------------------------------------------------------------------
  41 O5    x      -0.6818      0.0000      0.0000
           y       0.0000     -0.6818      0.0000
           z       0.0000      0.0000     -0.6818
-------------------------------------------------------------------------------
  42 C5    x      -0.0734      0.0000      0.0000
           y       0.0000     -0.0734      0.0000
           z       0.0000      0.0000     -0.0734
-------------------------------------------------------------------------------
  43 C5    x      -0.1009      0.0000      0.0000
           y       0.0000     -0.1009      0.0000
           z       0.0000      0.0000     -0.1009
-------------------------------------------------------------------------------
  44 H5    x       0.1446      0.0000      0.0000
           y       0.0000      0.1446      0.0000
           z       0.0000      0.0000      0.1446
-------------------------------------------------------------------------------
  45 C5    x      -0.1678      0.0000      0.0000
           y       0.0000     -0.1678      0.0000
           z       0.0000      0.0000     -0.1678
-------------------------------------------------------------------------------
  46 H5    x       0.1169      0.0000      0.0000
           y       0.0000      0.1169      0.0000
           z       0.0000      0.0000      0.1169
-------------------------------------------------------------------------------
  47 C5    x       0.0333      0.0000      0.0000
           y       0.0000      0.0333      0.0000
           z       0.0000      0.0000      0.0333
-------------------------------------------------------------------------------
  48 C5    x      -0.1678      0.0000      0.0000
           y       0.0000     -0.1678      0.0000
           z       0.0000      0.0000     -0.1678
-------------------------------------------------------------------------------
  49 H5    x       0.1169      0.0000      0.0000
           y       0.0000      0.1169      0.0000
           z       0.0000      0.0000      0.1169
-------------------------------------------------------------------------------
  50 C5    x      -0.1009      0.0000      0.0000
           y       0.0000     -0.1009      0.0000
           z       0.0000      0.0000     -0.1009
-------------------------------------------------------------------------------
  51 H5    x       0.1446      0.0000      0.0000
           y       0.0000      0.1446      0.0000
           z       0.0000      0.0000      0.1446
-------------------------------------------------------------------------------
  52 N6    x      -0.0940      0.0000      0.0000
           y       0.0000     -0.0940      0.0000
           z       0.0000      0.0000     -0.0940
-------------------------------------------------------------------------------
  53 H6    x       0.2606      0.0000      0.0000
           y       0.0000      0.2606      0.0000
           z       0.0000      0.0000      0.2606
-------------------------------------------------------------------------------
  54 N5    x      -0.0985      0.0000      0.0000
           y       0.0000     -0.0985      0.0000
           z       0.0000      0.0000     -0.0985
-------------------------------------------------------------------------------
  55 C6    x      -0.0204      0.0000      0.0000
           y       0.0000     -0.0204      0.0000
           z       0.0000      0.0000     -0.0204
-------------------------------------------------------------------------------
  56 C5    x      -0.0023      0.0000      0.0000
           y       0.0000     -0.0023      0.0000
           z       0.0000      0.0000     -0.0023
-------------------------------------------------------------------------------
  57 C5    x      -0.2262      0.0000      0.0000
           y       0.0000     -0.2262      0.0000
           z       0.0000      0.0000     -0.2262
-------------------------------------------------------------------------------
  58 H5    x       0.1394      0.0000      0.0000
           y       0.0000      0.1394      0.0000
           z       0.0000      0.0000      0.1394
-------------------------------------------------------------------------------
  59 C5    x      -0.0513      0.0000      0.0000
           y       0.0000     -0.0513      0.0000
           z       0.0000      0.0000     -0.0513
-------------------------------------------------------------------------------
  60 H5    x       0.1440      0.0000      0.0000
           y       0.0000      0.1440      0.0000
           z       0.0000      0.0000      0.1440
-------------------------------------------------------------------------------
  61 C5    x      -0.1159      0.0000      0.0000
           y       0.0000     -0.1159      0.0000
           z       0.0000      0.0000     -0.1159
-------------------------------------------------------------------------------
  62 C5    x      -0.0935      0.0000      0.0000
           y       0.0000     -0.0935      0.0000
           z       0.0000      0.0000     -0.0935
-------------------------------------------------------------------------------
  63 H5    x       0.1278      0.0000      0.0000
           y       0.0000      0.1278      0.0000
           z       0.0000      0.0000      0.1278
-------------------------------------------------------------------------------
  64 C5    x       0.0347      0.0000      0.0000
           y       0.0000      0.0347      0.0000
           z       0.0000      0.0000      0.0347
-------------------------------------------------------------------------------
  65 C6    x      -0.1161      0.0000      0.0000
           y       0.0000     -0.1161      0.0000
           z       0.0000      0.0000     -0.1161
-------------------------------------------------------------------------------
  66 H5    x       0.1566      0.0000      0.0000
           y       0.0000      0.1566      0.0000
           z       0.0000      0.0000      0.1566
-------------------------------------------------------------------------------
  67 C7    x      -0.3625      0.0000      0.0000
           y       0.0000     -0.3625      0.0000
           z       0.0000      0.0000     -0.3625
-------------------------------------------------------------------------------
  68 H5    x       0.1432      0.0000      0.0000
           y       0.0000      0.1432      0.0000
           z       0.0000      0.0000      0.1432
-------------------------------------------------------------------------------
  69 C8    x       0.6081      0.0000      0.0000
           y       0.0000      0.6081      0.0000
           z       0.0000      0.0000      0.6081
-------------------------------------------------------------------------------
  70 O5    x      -0.5968      0.0000      0.0000
           y       0.0000     -0.5968      0.0000
           z       0.0000      0.0000     -0.5968
-------------------------------------------------------------------------------
  71 S5    x       1.1659      0.0000      0.0000
           y       0.0000      1.1659      0.0000
           z       0.0000      0.0000      1.1659
-------------------------------------------------------------------------------
  72 O5    x      -0.6823      0.0000      0.0000
           y       0.0000     -0.6823      0.0000
           z       0.0000      0.0000     -0.6823
-------------------------------------------------------------------------------
  73 O5    x      -0.6823      0.0000      0.0000
           y       0.0000     -0.6823      0.0000
           z       0.0000      0.0000     -0.6823
-------------------------------------------------------------------------------
  74 O5    x      -0.6823      0.0000      0.0000
           y       0.0000     -0.6823      0.0000
           z       0.0000      0.0000     -0.6823
-------------------------------------------------------------------------------
  75 Na5   x       1.0000      0.0000      0.0000
           y       0.0000      1.0000      0.0000
           z       0.0000      0.0000      1.0000
-------------------------------------------------------------------------------
  76 Na5   x       1.0000      0.0000      0.0000
           y       0.0000      1.0000      0.0000
           z       0.0000      0.0000      1.0000
-------------------------------------------------------------------------------
  77 Na5   x       1.0000      0.0000      0.0000
           y       0.0000      1.0000      0.0000
           z       0.0000      0.0000      1.0000
-------------------------------------------------------------------------------
  78 Na5   x       1.0000      0.0000      0.0000
           y       0.0000      1.0000      0.0000
           z       0.0000      0.0000      1.0000
-------------------------------------------------------------------------------




  Moment of inertia tensor (10^-46 x kgm^2): 

-------------------------------------------------------------------------------
                x           y           z           Principal axis system
-------------------------------------------------------------------------------
       x       1334.19      250.68       41.42         1316.618011
       y        250.68     5021.78      -71.48         4784.321119
       z         41.42      -71.48     4802.16         5057.190760
-------------------------------------------------------------------------------
  Centre of mass (Ang) =    18.449449    10.949609    12.148306
-------------------------------------------------------------------------------


  Vibrational Frequency Calculation : 

--------------------------------------------------------------------------------

  Frequencies (cm-1) :

  -20.27  -18.63   -8.75   -0.00   -0.00   -0.00    0.00    0.00    0.00
   12.03   14.99   18.61   19.93   24.48   25.72   27.84   28.52   29.01
   32.11   39.87   45.56   55.44   59.29   61.51   65.51   77.09   81.92
   85.72   87.10   96.49  100.97  106.90  114.21  122.32  138.79  141.72
  161.69  174.56  177.17  178.99  194.10  199.13  205.16  212.23  216.04
  228.55  246.22  248.53  282.84  286.59  291.10  293.38  298.94  301.63
  303.06  304.44  323.10  325.09  329.19  335.25  335.93  336.40  337.25
  338.62  339.23  342.83  348.09  352.52  361.25  365.62  367.99  370.17
  388.29  389.35  416.08  417.31  423.59  424.94  432.98  438.68  453.52
  455.13  458.49  460.77  472.38  476.85  497.33  499.60  518.72  522.84
  533.34  535.87  536.84  538.22  544.38  545.57  553.78  555.20  575.14
  578.00  603.23  604.34  644.28  645.09  658.46  659.23  686.35  692.93
  707.56  709.62  730.27  730.84  732.08  741.93  745.42  748.23  790.92
  794.45  802.82  803.38  846.30  855.43  867.00  867.97  892.14  895.15
  901.95  905.81  906.41  909.97  944.45  944.82  985.55  985.91 1008.79
 1010.38 1016.92 1018.84 1027.04 1028.91 1040.96 1041.54 1087.14 1091.31
 1105.44 1106.95 1110.18 1112.19 1121.93 1123.17 1144.03 1145.31 1146.39
 1147.14 1160.68 1162.20 1171.99 1174.96 1176.78 1178.19 1189.72 1190.90
 1208.40 1209.56 1220.06 1221.09 1231.68 1234.09 1281.86 1282.64 1291.49
 1292.81 1312.61 1313.53 1344.04 1345.44 1387.39 1389.59 1400.98 1402.95
 1484.15 1484.90 1499.60 1500.21 1531.90 1532.56 1546.28 1547.51 1621.12
 1622.03 1658.73 1660.19 1696.66 1698.32 1711.45 1712.30 1744.72 1745.95
 1761.57 1762.21 1782.91 1783.47 1796.63 1797.37 1812.45 1813.20 1826.59
 1827.80 1841.54 1842.35 1898.20 1898.90 1909.24 1909.76 2966.01 2966.43
 2967.99 2968.09 2968.30 2968.46 2969.11 2969.33 2969.87 2970.03 2970.08
 2970.60 2970.76 2971.43 2980.43 2980.90 2982.61 2983.70 3178.34 3180.58


--------------------------------------------------------------------------------

  Vibrational properties (for cluster):  Temperature  =       0.000 K
--------------------------------------------------------------------------------
  Zero point energy             =        13.956750 eV
--------------------------------------------------------------------------------

  Vibrational density of states : 

--------------------------------------------------------------------------------
 Frequency     Density of States                                                
--------------------------------------------------------------------------------
    0.00000 |**************************************************            0.066
   50.00000 |******************************                                0.039
  100.00000 |********************                                          0.026
  150.00000 |********************                                          0.026
  200.00000 |********************                                          0.026
  250.00000 |****************                                              0.022
  300.00000 |**********************************************                0.061
  350.00000 |***********************                                       0.031
  400.00000 |********************                                          0.026
  450.00000 |**************************                                    0.035
  500.00000 |**************************                                    0.035
  550.00000 |*************                                                 0.018
  600.00000 |*************                                                 0.018
  650.00000 |*************                                                 0.018
  700.00000 |**************************                                    0.035
  750.00000 |******                                                        0.009
  800.00000 |**********                                                    0.013
  850.00000 |****************                                              0.022
  900.00000 |********************                                          0.026
  950.00000 |******                                                        0.009
 1000.00000 |**************************                                    0.035
 1050.00000 |******                                                        0.009
 1100.00000 |*********************************                             0.044
 1150.00000 |**************************                                    0.035
 1200.00000 |********************                                          0.026
 1250.00000 |*************                                                 0.018
 1300.00000 |*************                                                 0.018
 1350.00000 |******                                                        0.009
 1400.00000 |******                                                        0.009
 1450.00000 |**********                                                    0.013
 1500.00000 |****************                                              0.022
 1550.00000 |                                                              0.000
 1600.00000 |******                                                        0.009
 1650.00000 |*************                                                 0.018
 1700.00000 |*************                                                 0.018
 1750.00000 |********************                                          0.026
 1800.00000 |********************                                          0.026
 1850.00000 |******                                                        0.009
 1900.00000 |******                                                        0.009
 1950.00000 |                                                              0.000
 2000.00000 |                                                              0.000
 2050.00000 |                                                              0.000
 2100.00000 |                                                              0.000
 2150.00000 |                                                              0.000
 2200.00000 |                                                              0.000
 2250.00000 |                                                              0.000
 2300.00000 |                                                              0.000
 2350.00000 |                                                              0.000
 2400.00000 |                                                              0.000
 2450.00000 |                                                              0.000
 2500.00000 |                                                              0.000
 2550.00000 |                                                              0.000
 2600.00000 |                                                              0.000
 2650.00000 |                                                              0.000
 2700.00000 |                                                              0.000
 2750.00000 |                                                              0.000
 2800.00000 |                                                              0.000
 2850.00000 |                                                              0.000
 2900.00000 |                                                              0.000
 2950.00000 |************************************************************  0.079
 3000.00000 |                                                              0.000
 3050.00000 |                                                              0.000
 3100.00000 |                                                              0.000
 3150.00000 |******                                                        0.009
--------------------------------------------------------------------------------



  Time to end of optimisation =       6.0256 seconds


  Peak dynamic memory used =       1.98 MB 


  Timing analysis for GULP :

--------------------------------------------------------------------------------
  Task / Subroutine                                          Time (Seconds)
--------------------------------------------------------------------------------
  Calculation of real space energy and derivatives                4.5767
  Calculation of three-body energy and derivatives                0.2471
  Calculation of four-body energy and derivatives                 0.6673
  Calculation of molecules and connectivity                       0.0005
  Calculation of phonons                                          0.0698
  Calculation of scattering                                       0.0000
  Calculation of matrix inversion                                 0.3074
  Disk read/write operations to scratch files                     0.0004
  Global summation overhead                                       0.0026
--------------------------------------------------------------------------------
  Total CPU time                                                  6.0260
--------------------------------------------------------------------------------


  Dump file written as ssy_dimer_c_s.res                                       


  Job Finished at 16:49.37 27th March      2014                               

