********************************************************************************
*                       GENERAL UTILITY LATTICE PROGRAM                        *
*                                 Julian Gale                                  *
*                      Nanochemistry Research Institute                        *
*                           Department of Chemistry                            *
*                    Curtin University, Western Australia                      *
********************************************************************************
* Version = 4.2.0 * Last modified =  16th January 2014                         *
********************************************************************************
*  optimise     - perform optimisation run                                     *
*  conp         - constant pressure calculation                                *
*  phonon       - calculate phonons for final geometry                         *
*  eckart       - remove rotation/translation from vibrations of molecules     *
*  molmec       - molecule option activated, Coulomb subtract 1-2/1-3 terms    *
********************************************************************************

  Job Started  at 15:19.14 27th March      2014                               

  Number of CPUs =     1


  Total number of configurations input =   1

********************************************************************************
*  Input for Configuration =   1                                               *
********************************************************************************

  Formula = O14S4C32H20N4Na4                                            

  Number of irreducible atoms/shells =      78


  Total number atoms/shells =      78

  Dimensionality = 0               :  Cluster


  Charge on cluster =   0.000000


  Initial cluster dipoles : x =     -0.003195 e.Angs
                            y =      0.003254 e.Angs
                            z =      0.071518 e.Angs

  Temperature of configuration =  0.000     K 

  Symmetry number =      1

  Cartesian coordinates of cluster :

--------------------------------------------------------------------------------
   No.  Atomic       x           y          z         Charge      Occupancy
        Label      (Angs)      (Angs)     (Angs)        (e)         (Frac)  
--------------------------------------------------------------------------------
      1 O5    c     12.4400 *   16.0910 *   13.0200 *  -0.68180    1.000000    
      2 S5    c     12.2080 *   14.8310 *   13.9070 *   1.14400    1.000000    
      3 O5    c     11.0620 *   14.0040 *   13.2670 *  -0.68180    1.000000    
      4 O5    c     11.7130 *   15.3310 *   15.2930 *  -0.68180    1.000000    
      5 C5    c     13.7500 *   13.8520 *   14.0140 *  -0.07340    1.000000    
      6 C5    c     13.6930 *   12.4300 *   13.9730 *  -0.10090    1.000000    
      7 H5    c     12.7380 *   11.9050 *   13.8820 *   0.14460    1.000000    
      8 C5    c     14.9130 *   11.7040 *   13.9820 *  -0.16780    1.000000    
      9 H5    c     14.8980 *   10.6130 *   13.9190 *   0.11690    1.000000    
     10 C5    c     16.1630 *   12.4070 *   14.0130 *   0.03330    1.000000    
     11 C5    c     16.1990 *   13.8390 *   14.0790 *  -0.16780    1.000000    
     12 H5    c     17.1600 *   14.3540 *   14.0970 *   0.11690    1.000000    
     13 C5    c     14.9840 *   14.5630 *   14.0760 *  -0.10090    1.000000    
     14 H5    c     14.9850 *   15.6550 *   14.0840 *   0.14460    1.000000    
     15 N6    c     17.3600 *   11.6420 *   13.9370 *  -0.09400    1.000000    
     16 H6    c     17.3600 *   10.5980 *   13.8680 *   0.26060    1.000000    
     17 N5    c     18.5660     12.2450     13.9490    -0.09850    1.000000    
     18 C6    c     19.6790 *   11.4720 *   13.9080 *  -0.02040    1.000000    
     19 C5    c     20.9900 *   12.1920 *   13.9230 *  -0.00230    1.000000    
     20 C5    c     21.0740 *   13.6290 *   13.8810 *  -0.22620    1.000000    
     21 H5    c     20.1540 *   14.2160 *   13.8420 *   0.13940    1.000000    
     22 C5    c     22.3270 *   14.2810 *   13.8670 *  -0.05130    1.000000    
     23 H5    c     22.3940 *   15.3690 *   13.8160 *   0.14400    1.000000    
     24 C5    c     23.5210 *   13.4910 *   13.8970 *  -0.11590    1.000000    
     25 C5    c     23.4900 *   12.0800 *   13.9310 *  -0.09350    1.000000    
     26 H5    c     24.4180 *   11.5000 *   13.9040 *   0.12780    1.000000    
     27 C5    c     22.2150 *   11.4120 *   13.9440 *   0.03470    1.000000    
     28 C6    c     22.1520 *    9.9390 *   13.9340 *  -0.11610    1.000000    
     29 H5    c     23.1020 *    9.3940 *   13.9140 *   0.15660    1.000000    
     30 C7    c     20.9490 *    9.2530 *   13.8990 *  -0.36250    1.000000    
     31 H5    c     20.9100 *    8.1610 *   13.8710 *   0.14320    1.000000    
     32 C8    c     19.6470 *    9.9590 *   13.8580 *   0.60810    1.000000    
     33 O5    c     18.5430 *    9.3180 *   13.7820 *  -0.59680    1.000000    
     34 S5    c     25.1290 *   14.3650 *   13.8110 *   1.16590    1.000000    
     35 O5    c     25.1090 *   15.4080 *   12.6550 *  -0.68230    1.000000    
     36 O5    c     26.2920 *   13.3740 *   13.5440 *  -0.68230    1.000000    
     37 O5    c     25.4550 *   15.1420 *   15.1170 *  -0.68230    1.000000    
     38 O5    c     25.2930 *    9.2350 *   12.2380 *  -0.68180    1.000000    
     39 S5    c     24.9630 *    9.4640 *   10.7310 *   1.14400    1.000000    
     40 O5    c     26.1770 *   10.1840 *   10.0880 *  -0.68180    1.000000    
     41 O5    c     24.8280 *    8.0630 *   10.0730 *  -0.68180    1.000000    
     42 C5    c     23.4240 *   10.4290 *   10.5260 *  -0.07340    1.000000    
     43 C5    c     23.4790 *   11.8520 *   10.5650 *  -0.10090    1.000000    
     44 H5    c     24.4380 *   12.3690 *   10.6380 *   0.14460    1.000000    
     45 C5    c     22.2610 *   12.5780 *   10.5350 *  -0.16780    1.000000    
     46 H5    c     22.2730 *   13.6700 *   10.5910 *   0.11690    1.000000    
     47 C5    c     21.0120 *   11.8730 *   10.4830 *   0.03330    1.000000    
     48 C5    c     20.9780 *   10.4410 *   10.4060 *  -0.16780    1.000000    
     49 H5    c     20.0190 *    9.9260 *   10.3540 *   0.11690    1.000000    
     50 C5    c     22.1940 *    9.7170 *   10.4290 *  -0.10090    1.000000    
     51 H5    c     22.2000 *    8.6260 *   10.3860 *   0.14460    1.000000    
     52 N6    c     19.8170 *   12.6410 *   10.5340 *  -0.09400    1.000000    
     53 H6    c     19.8210 *   13.6860 *   10.5940 *   0.26060    1.000000    
     54 N5    c     18.6090 *   12.0430 *   10.5260 *  -0.09850    1.000000    
     55 C6    c     17.5010 *   12.8240 *   10.5620 *  -0.02040    1.000000    
     56 C5    c     16.1850 *   12.1150 *   10.5690 *  -0.00230    1.000000    
     57 C5    c     16.0930 *   10.6800 *   10.6080 *  -0.22620    1.000000    
     58 H5    c     17.0090 *   10.0870 *   10.6110 *   0.13940    1.000000    
     59 C5    c     14.8350 *   10.0360 *   10.6670 *  -0.05130    1.000000    
     60 H5    c     14.7570 *    8.9470 *   10.6990 *   0.14400    1.000000    
     61 C5    c     13.6500 *   10.8340 *   10.6850 *  -0.11590    1.000000    
     62 C5    c     13.6880 *   12.2450 *   10.6320 *  -0.09350    1.000000    
     63 H5    c     12.7630 *   12.8280 *   10.6670 *   0.12780    1.000000    
     64 C5    c     14.9640 *   12.9040 *   10.5730 *   0.03470    1.000000    
     65 C6    c     15.0380 *   14.3760 *   10.5750 *  -0.11610    1.000000    
     66 H5    c     14.0960 *   14.9340 *   10.6070 *   0.15660    1.000000    
     67 C7    c     16.2460 *   15.0550 *   10.5860 *  -0.36250    1.000000    
     68 H5    c     16.2920 *   16.1460 *   10.6120 *   0.14320    1.000000    
     69 C8    c     17.5420 *   14.3380 *   10.6050 *   0.60810    1.000000    
     70 O5    c     18.6520 *   14.9720 *   10.6590 *  -0.59680    1.000000    
     71 S5    c     12.0440 *    9.9920 *   10.9350 *   1.16590    1.000000    
     72 O5    c     11.7060 *    9.8740 *   12.4500 *  -0.68230    1.000000    
     73 O5    c     10.8790 *   10.7500 *   10.2500 *  -0.68230    1.000000    
     74 O5    c     12.0880 *    8.5490 *   10.3580 *  -0.68230    1.000000    
     75 Na5   c     10.3220 *   16.0660 *   13.7720 *   1.00000    1.000000    
     76 Na5   c     10.0890 *    8.8910 *   11.2010 *   1.00000    1.000000    
     77 Na5   c     27.0840 *   15.4800 *   13.6720 *   1.00000    1.000000    
     78 Na5   c     26.8570 *    8.2430 *   10.9140 *   1.00000    1.000000    
--------------------------------------------------------------------------------



  Molecule list generated from bond lengths :

  Total number of molecules =     2

--------------------------------------------------------------------------------
Molecule No./:  Atoms
Periodicity  :  
--------------------------------------------------------------------------------
     1  0    : O5   c     1 S5   c     2 O5   c     3 O5   c     4 C5   c     5
             : C5   c     6 H5   c     7 C5   c     8 H5   c     9 C5   c    10
             : C5   c    11 H5   c    12 C5   c    13 H5   c    14 N6   c    15
             : H6   c    16 N5   c    17 C6   c    18 C5   c    19 C5   c    20
             : H5   c    21 C5   c    22 H5   c    23 C5   c    24 C5   c    25
             : H5   c    26 C5   c    27 C6   c    28 H5   c    29 C7   c    30
             : H5   c    31 C8   c    32 O5   c    33 S5   c    34 O5   c    35
             : O5   c    36 O5   c    37
     2  0    : O5   c    38 S5   c    39 O5   c    40 O5   c    41 C5   c    42
             : C5   c    43 H5   c    44 C5   c    45 H5   c    46 C5   c    47
             : C5   c    48 H5   c    49 C5   c    50 H5   c    51 N6   c    52
             : H6   c    53 N5   c    54 C6   c    55 C5   c    56 C5   c    57
             : H5   c    58 C5   c    59 H5   c    60 C5   c    61 C5   c    62
             : H5   c    63 C5   c    64 C6   c    65 H5   c    66 C7   c    67
             : H5   c    68 C8   c    69 O5   c    70 S5   c    71 O5   c    72
             : O5   c    73 O5   c    74
--------------------------------------------------------------------------------


********************************************************************************
*  General input information                                                   *
********************************************************************************

  Species output for all configurations : 

--------------------------------------------------------------------------------
  Species    Type    Atomic    Atomic    Charge       Radii (Angs)     Library
                     Number     Mass       (e)     Cova   Ionic  VDW   Symbol
--------------------------------------------------------------------------------
    O5       Core        8      16.00  -0.681800   0.730  0.000  1.360          
    S5       Core       16      32.07   1.144000   1.020  0.000  1.700          
    C5       Core        6      12.01  -0.073400   0.770  0.000  1.530          
    H5       Core        1       1.01   0.144600   0.370  0.000  1.080          
    N6       Core        7      14.01  -0.094000   0.750  0.000  1.480          
    H6       Core        1       1.01   0.260600   0.370  0.000  1.080          
    N5       Core        7      14.01  -0.098500   0.750  0.000  1.480          
    C6       Core        6      12.01  -0.020400   0.770  0.000  1.530          
    C7       Core        6      12.01  -0.362500   0.770  0.000  1.530          
    C8       Core        6      12.01   0.608100   0.770  0.000  1.530          
    Na5      Core       11      22.99   1.000000   0.010  0.000  2.300          
--------------------------------------------------------------------------------


  Accuracy factor for short range sums = 12.000

  Time limit = Infinity

  Maximum range for interatomic potentials =        10.000000 Angstroms

  Taper potentials to zero over  10.0000 Angstroms using M-D-F

  General interatomic potentials :

--------------------------------------------------------------------------------
Atom  Types   Potential         A         B         C         D     Cutoffs(Ang)
  1     2                                                            Min    Max 
--------------------------------------------------------------------------------
C8   c C8   c Lenn/es 12  6 0.373E-02  3.82      0.00      0.00     3Bond ******
C8   c O5   c Lenn/es 12  6 0.583E-02  3.57      0.00      0.00     3Bond ******
O5   c O5   c Lenn/es 12  6 0.911E-02  3.32      0.00      0.00     3Bond ******
C7   c C8   c Lenn/es 12  6 0.373E-02  3.82      0.00      0.00     3Bond ******
C7   c O5   c Lenn/es 12  6 0.583E-02  3.57      0.00      0.00     3Bond ******
C7   c C7   c Lenn/es 12  6 0.373E-02  3.82      0.00      0.00     3Bond ******
C6   c C8   c Lenn/es 12  6 0.373E-02  3.82      0.00      0.00     3Bond ******
C6   c O5   c Lenn/es 12  6 0.583E-02  3.57      0.00      0.00     3Bond ******
C6   c C7   c Lenn/es 12  6 0.373E-02  3.82      0.00      0.00     3Bond ******
C6   c C6   c Lenn/es 12  6 0.373E-02  3.82      0.00      0.00     3Bond ******
C8   c N5   c Lenn/es 12  6 0.524E-02  3.73      0.00      0.00     3Bond ******
N5   c O5   c Lenn/es 12  6 0.819E-02  3.49      0.00      0.00     3Bond ******
C7   c N5   c Lenn/es 12  6 0.524E-02  3.73      0.00      0.00     3Bond ******
C6   c N5   c Lenn/es 12  6 0.524E-02  3.73      0.00      0.00     3Bond ******
N5   c N5   c Lenn/es 12  6 0.737E-02  3.65      0.00      0.00     3Bond ******
C8   c N6   c Lenn/es 12  6 0.524E-02  3.73      0.00      0.00     3Bond ******
N6   c O5   c Lenn/es 12  6 0.819E-02  3.49      0.00      0.00     3Bond ******
C7   c N6   c Lenn/es 12  6 0.524E-02  3.73      0.00      0.00     3Bond ******
C6   c N6   c Lenn/es 12  6 0.524E-02  3.73      0.00      0.00     3Bond ******
N5   c N6   c Lenn/es 12  6 0.737E-02  3.65      0.00      0.00     3Bond ******
N6   c N6   c Lenn/es 12  6 0.737E-02  3.65      0.00      0.00     3Bond ******
C5   c C8   c Lenn/es 12  6 0.373E-02  3.82      0.00      0.00     3Bond ******
C5   c O5   c Lenn/es 12  6 0.583E-02  3.57      0.00      0.00     3Bond ******
C5   c C7   c Lenn/es 12  6 0.373E-02  3.82      0.00      0.00     3Bond ******
C5   c C6   c Lenn/es 12  6 0.373E-02  3.82      0.00      0.00     3Bond ******
C5   c N5   c Lenn/es 12  6 0.524E-02  3.73      0.00      0.00     3Bond ******
C5   c N6   c Lenn/es 12  6 0.524E-02  3.73      0.00      0.00     3Bond ******
C5   c C5   c Lenn/es 12  6 0.373E-02  3.82      0.00      0.00     3Bond ******
H6   c C8   c Lenn/es 12  6 0.159E-02  2.51      0.00      0.00     3Bond ******
H6   c O5   c Lenn/es 12  6 0.249E-02  2.26      0.00      0.00     3Bond ******
H6   c C7   c Lenn/es 12  6 0.159E-02  2.51      0.00      0.00     3Bond ******
H6   c C6   c Lenn/es 12  6 0.159E-02  2.51      0.00      0.00     3Bond ******
H6   c N5   c Lenn/es 12  6 0.224E-02  2.42      0.00      0.00     3Bond ******
H6   c N6   c Lenn/es 12  6 0.224E-02  2.42      0.00      0.00     3Bond ******
H6   c C5   c Lenn/es 12  6 0.159E-02  2.51      0.00      0.00     3Bond ******
H6   c H6   c Lenn/es 12  6 0.681E-03  1.20      0.00      0.00     3Bond ******
H5   c C8   c Lenn/es 12  6 0.156E-02  3.37      0.00      0.00     3Bond ******
H5   c O5   c Lenn/es 12  6 0.243E-02  3.12      0.00      0.00     3Bond ******
H5   c C7   c Lenn/es 12  6 0.156E-02  3.37      0.00      0.00     3Bond ******
H5   c C6   c Lenn/es 12  6 0.156E-02  3.37      0.00      0.00     3Bond ******
H5   c N5   c Lenn/es 12  6 0.219E-02  3.28      0.00      0.00     3Bond ******
H5   c N6   c Lenn/es 12  6 0.219E-02  3.28      0.00      0.00     3Bond ******
H5   c C5   c Lenn/es 12  6 0.156E-02  3.37      0.00      0.00     3Bond ******
H5   c H6   c Lenn/es 12  6 0.665E-03  2.06      0.00      0.00     3Bond ******
H5   c H5   c Lenn/es 12  6 0.650E-03  2.92      0.00      0.00     3Bond ******
C8   c S5   c Lenn/es 12  6 0.636E-02  3.91      0.00      0.00     3Bond ******
O5   c S5   c Lenn/es 12  6 0.994E-02  3.66      0.00      0.00     3Bond ******
C7   c S5   c Lenn/es 12  6 0.636E-02  3.91      0.00      0.00     3Bond ******
C6   c S5   c Lenn/es 12  6 0.636E-02  3.91      0.00      0.00     3Bond ******
N5   c S5   c Lenn/es 12  6 0.894E-02  3.82      0.00      0.00     3Bond ******
N6   c S5   c Lenn/es 12  6 0.894E-02  3.82      0.00      0.00     3Bond ******
C5   c S5   c Lenn/es 12  6 0.636E-02  3.91      0.00      0.00     3Bond ******
H6   c S5   c Lenn/es 12  6 0.272E-02  2.60      0.00      0.00     3Bond ******
H5   c S5   c Lenn/es 12  6 0.266E-02  3.46      0.00      0.00     3Bond ******
S5   c S5   c Lenn/es 12  6 0.108E-01  4.00      0.00      0.00     3Bond ******
C8   c Na5  c Lenn/es 12  6 0.669E-03  3.78      0.00      0.00     3Bond ******
O5   c Na5  c Lenn/es 12  6 0.105E-02  3.53      0.00      0.00     3Bond ******
C7   c Na5  c Lenn/es 12  6 0.669E-03  3.78      0.00      0.00     3Bond ******
C6   c Na5  c Lenn/es 12  6 0.669E-03  3.78      0.00      0.00     3Bond ******
N5   c Na5  c Lenn/es 12  6 0.941E-03  3.69      0.00      0.00     3Bond ******
N6   c Na5  c Lenn/es 12  6 0.941E-03  3.69      0.00      0.00     3Bond ******
C5   c Na5  c Lenn/es 12  6 0.669E-03  3.78      0.00      0.00     3Bond ******
H6   c Na5  c Lenn/es 12  6 0.286E-03  2.47      0.00      0.00     3Bond ******
H5   c Na5  c Lenn/es 12  6 0.280E-03  3.33      0.00      0.00     3Bond ******
Na5  c S5   c Lenn/es 12  6 0.114E-02  3.87      0.00      0.00     3Bond ******
Na5  c Na5  c Lenn/es 12  6 0.120E-03  3.74      0.00      0.00     3Bond ******
--------------------------------------------------------------------------------

  Intramolecular potentials :

--------------------------------------------------------------------------------
Atom  Types   Potential         A         B         C         D     Cutoffs(Ang)
  1     2                                                            Min    Max 
--------------------------------------------------------------------------------
X    c X    c Coulomb        0.00      0.00      0.00      1.00     1-4only 7.00
H6   c N6   c Harmonic       34.8      1.01      0.00      0.00     0.000 1 Bond
H5   c C5   c Harmonic       29.9      1.09      0.00      0.00     0.000 1 Bond
C5   c S5   c Harmonic       22.9      1.76      0.00      0.00     0.000 1 Bond
C8   c O5   c Harmonic       56.2      1.21      0.00      0.00     0.000 1 Bond
C6   c C7   c Harmonic       43.7      1.37      0.00      0.00     0.000 1 Bond
C6   c N5   c Harmonic       49.7      1.29      0.00      0.00     0.000 1 Bond
H5   c C6   c Harmonic       30.1      1.08      0.00      0.00     0.000 1 Bond
O5   c S5   c Harmonic       46.9      1.44      0.00      0.00     0.000 1 Bond
C7   c C8   c Harmonic       32.7      1.46      0.00      0.00     0.000 1 Bond
C6   c C8   c Harmonic       32.7      1.46      0.00      0.00     0.000 1 Bond
C5   c C6   c Harmonic       35.7      1.43      0.00      0.00     0.000 1 Bond
C5   c C5   c Harmonic       41.5      1.39      0.00      0.00     0.000 1 Bond
H5   c C7   c Harmonic       30.1      1.08      0.00      0.00     0.000 1 Bond
N5   c N6   c Harmonic       45.5      1.36      0.00      0.00     0.000 1 Bond
C5   c N6   c Harmonic       38.9      1.36      0.00      0.00     0.000 1 Bond
--------------------------------------------------------------------------------

  Intermolecular potentials :

--------------------------------------------------------------------------------
Atom  Types   Potential         A         B         C         D     Cutoffs(Ang)
  1     2                                                            Min    Max 
--------------------------------------------------------------------------------
O5   c Na5  c Harmonic       2.00      2.40      0.00      0.00     0.000  5.000
--------------------------------------------------------------------------------

  Intramolecular Three-body potentials :

  Harmonic form:

--------------------------------------------------------------------------------
Atom    Atom    Atom           Force Constants            Theta     Cutoffs  
  1       2       3     (eVrad**-2/eVrad**-3/eVrad**-4)   (deg)  1-2  1-3  2-3
--------------------------------------------------------------------------------
N6    c H6    c C5    c  4.257        0.0000    0.0000   116.130     Bonded
C6    c C5    c C7    c  5.918        0.0000    0.0000   113.510     Bonded
C6    c C5    c N5    c  5.942        0.0000    0.0000   120.720     Bonded
C8    c C6    c C7    c  5.701        0.0000    0.0000   112.790     Bonded
S5    c C5    c O5    c  3.710        0.0000    0.0000   104.070     Bonded
C6    c H5    c C5    c  4.024        0.0000    0.0000   124.040     Bonded
C8    c C7    c O5    c  5.976        0.0000    0.0000   125.710     Bonded
C5    c C5    c C6    c  5.723        0.0000    0.0000   120.100     Bonded
C5    c C5    c N6    c  6.014        0.0000    0.0000   120.130     Bonded
C5    c C5    c C5    c  5.826        0.0000    0.0000   119.970     Bonded
N6    c H6    c N5    c  4.343        0.0000    0.0000   118.220     Bonded
C6    c C8    c N5    c  5.944        0.0000    0.0000   120.890     Bonded
C7    c H5    c C6    c  4.193        0.0000    0.0000   122.890     Bonded
C5    c H5    c C5    c  4.203        0.0000    0.0000   120.010     Bonded
C7    c C6    c C8    c  5.662        0.0000    0.0000   121.320     Bonded
N5    c C6    c N6    c  6.101        0.0000    0.0000   118.470     Bonded
S5    c O5    c O5    c  4.047        0.0000    0.0000   119.730     Bonded
C6    c H5    c C7    c  4.193        0.0000    0.0000   122.890     Bonded
C5    c C5    c S5    c  6.825        0.0000    0.0000   120.540     Bonded
C7    c H5    c C8    c  4.075        0.0000    0.0000   117.020     Bonded
C6    c C5    c C8    c  5.512        0.0000    0.0000   122.950     Bonded
C8    c C6    c O5    c  5.976        0.0000    0.0000   125.710     Bonded
N6    c C5    c N5    c  5.882        0.0000    0.0000   121.110     Bonded
--------------------------------------------------------------------------------

  Intramolecular Four-body potentials :

  Standard form:

--------------------------------------------------------------------------------
         Atom Types             Force cst Sign Phase Phi0         Cutoffs
   1       2       3       4       (eV)                     1-2  2-3  3-4  4-1
--------------------------------------------------------------------------------
H5    c C7    c C8    c O5    c  0.1247     +   2   180.00  Bonded              
H5    c C7    c C6    c H5    c  0.1735     +   2   180.00  Bonded              
C6    c C7    c C8    c O5    c  0.1247     +   2   180.00  Bonded              
H5    c C5    c C5    c H5    c  0.1572     +   2   180.00  Bonded              
C5    c C6    c N5    c N6    c  0.1800     +   2   180.00  Bonded              
C5    c C5    c C5    c N6    c  0.1572     +   2   180.00  Bonded              
C5    c C5    c S5    c O5    c  0.5637E-01 +   2   180.00  Bonded              
C6    c N5    c N6    c H6    c  0.1214     +   2   180.00  Bonded              
C8    c C7    c C6    c C5    c  0.1735     +   2   180.00  Bonded              
N5    c C6    c C8    c O5    c  0.1247     +   2   180.00  Bonded              
C5    c C5    c C5    c H5    c  0.1572     +   2   180.00  Bonded              
C5    c C6    c C8    c O5    c  0.1247     +   2   180.00  Bonded              
C6    c C7    c C8    c C6    c  0.1247     +   2   180.00  Bonded              
C8    c C6    c N5    c N6    c  0.1800     +   2   180.00  Bonded              
C5    c C5    c C5    c S5    c  0.1572     +   2   180.00  Bonded              
C8    c C7    c C6    c H5    c  0.1735     +   2   180.00  Bonded              
H5    c C5    c C5    c N6    c  0.1572     +   2   180.00  Bonded              
C6    c C5    c C5    c C6    c  0.1572     +   2   180.00  Bonded              
C7    c C8    c C6    c N5    c  0.1247     +   2   180.00  Bonded              
C5    c C5    c N6    c N5    c  0.4553E-01 +   2   180.00  Bonded              
C6    c C8    c C7    c H5    c  0.1247     +   2   180.00  Bonded              
C5    c C6    c C8    c C7    c  0.1247     +   2   180.00  Bonded              
C5    c C5    c C5    c C6    c  0.1572     +   2   180.00  Bonded              
C5    c N6    c N5    c C6    c  0.1214     +   2   180.00  Bonded              
C5    c C5    c C5    c C5    c  0.1572     +   2   180.00  Bonded              
C5    c C6    c C7    c H5    c  0.1735     +   2   180.00  Bonded              
C5    c C5    c N6    c H6    c  0.4553E-01 +   2   180.00  Bonded              
H5    c C5    c C5    c S5    c  0.1572     +   2   180.00  Bonded              
C5    c C5    c C6    c C7    c  0.3036E-01 +   2   180.00  Bonded              
C5    c C5    c C6    c H5    c  0.3036E-01 +   2   180.00  Bonded              
C6    c C5    c C5    c H5    c  0.1572     +   2   180.00  Bonded              
C8    c C6    c C5    c C5    c  0.3036E-01 +   2   180.00  Bonded              
C5    c C5    c C6    c N5    c  0.3036E-01 +   2   180.00  Bonded              
C5    c C6    c C7    c H5    c  0.4770E-01 +   2   180.00  Improp              
C6    c C8    c C7    c O5    c  0.4553     +   2   180.00  Improp              
C5    c N6    c H6    c N5    c  0.4770E-01 +   2   180.00  Improp              
C8    c C6    c C5    c N5    c  0.4770E-01 +   2   180.00  Improp              
C5    c C5    c C5    c N6    c  0.2385E-01 +   2   180.00  Improp              
C8    c C7    c C6    c H5    c  0.4770E-01 +   2   180.00  Improp              
C5    c C5    c C5    c H5    c  0.2385E-01 +   2   180.00  Improp              
C5    c C5    c C5    c S5    c  0.2385E-01 +   2   180.00  Improp              
C5    c C5    c C5    c C6    c  0.2385E-01 +   2   180.00  Improp              
--------------------------------------------------------------------------------

********************************************************************************
*  Output for configuration   1                                                *
********************************************************************************


  Components of energy : 

--------------------------------------------------------------------------------
  Interatomic potentials     =          11.83486215 eV
  Three-body potentials      =           1.95380705 eV
  Four-body potentials       =           1.41172975 eV
  Improper torsions          =           0.00470174 eV
  Out of plane potentials    =           0.00000000 eV
  Monopole - monopole (real) =         -22.72520459 eV
--------------------------------------------------------------------------------
  Total lattice energy       =          -7.52010390 eV
--------------------------------------------------------------------------------
  Total lattice energy       =            -725.5751 kJ/mol
--------------------------------------------------------------------------------


  Number of variables =      231

  Maximum number of calculations  =          1000
  Maximum Hessian update interval =            10
  Maximum step size               =   1.000000000
  Maximum parameter tolerance     =   0.000010000
  Maximum function  tolerance     =   0.000010000
  Maximum gradient  tolerance     =   0.001000000
  Maximum gradient  component     =   0.010000000

  Symmetry not applied to optimisation

  Newton-Raphson optimiser to be used

  BFGS hessian update to be used

  Minimiser to switch to RFO
  When gradient norm is less than     0.050000

  Start of cluster optimisation :

  Cycle:      0 Energy:        -7.520104  Gnorm:      0.113141  CPU:    0.020
  ** Hessian calculated **
  Cycle:      1 Energy:       -16.265764  Gnorm:      0.022388  CPU:    0.049
  ** Hessian has wrong structure
  ** Imaginary eigenvectors =   8
  Cycle:      2 Energy:       -16.267636  Gnorm:      0.022232  CPU:    0.218
  ** Hessian has wrong structure
  ** Imaginary eigenvectors =  13
  Cycle:      3 Energy:       -16.270417  Gnorm:      0.022188  CPU:    0.444
  ** Hessian has wrong structure
  ** Imaginary eigenvectors =  12
  Cycle:      4 Energy:       -16.286722  Gnorm:      0.019976  CPU:    0.669
  ** Hessian has wrong structure
  ** Imaginary eigenvectors =  12
  Cycle:      5 Energy:       -16.296472  Gnorm:      0.019193  CPU:    0.914
  ** Hessian has wrong structure
  ** Imaginary eigenvectors =  11
  Cycle:      6 Energy:       -16.347749  Gnorm:      0.017511  CPU:    1.156
  ** Hessian has wrong structure
  ** Imaginary eigenvectors =   8
  Cycle:      7 Energy:       -16.349158  Gnorm:      0.017127  CPU:    1.360
  ** Hessian has wrong structure
  ** Imaginary eigenvectors =   8
  Cycle:      8 Energy:       -16.353008  Gnorm:      0.016967  CPU:    1.569
  ** Hessian has wrong structure
  ** Imaginary eigenvectors =   7
  Cycle:      9 Energy:       -16.365748  Gnorm:      0.016737  CPU:    1.799
  ** Hessian has wrong structure
  ** Imaginary eigenvectors =   7
  Cycle:     10 Energy:       -16.369205  Gnorm:      0.016662  CPU:    2.001
  ** Hessian has wrong structure
  ** Imaginary eigenvectors =   6
  Cycle:     11 Energy:       -16.390249  Gnorm:      0.015203  CPU:    2.196
  ** Hessian has wrong structure
  ** Imaginary eigenvectors =   4
  Cycle:     12 Energy:       -16.397978  Gnorm:      0.014993  CPU:    2.422
  ** Hessian has wrong structure
  ** Imaginary eigenvectors =   4
  Cycle:     13 Energy:       -16.405042  Gnorm:      0.014657  CPU:    2.655
  ** Hessian has wrong structure
  ** Imaginary eigenvectors =   4
  Cycle:     14 Energy:       -16.407800  Gnorm:      0.014665  CPU:    2.868
  ** Hessian has wrong structure
  ** Imaginary eigenvectors =   3
  Cycle:     15 Energy:       -16.433479  Gnorm:      0.012707  CPU:    3.123
  ** Hessian has wrong structure
  ** Imaginary eigenvectors =   2
  Cycle:     16 Energy:       -16.445248  Gnorm:      0.012427  CPU:    3.378
  ** Hessian has wrong structure
  ** Imaginary eigenvectors =   1
  Cycle:     17 Energy:       -16.449165  Gnorm:      0.012211  CPU:    3.626
  ** Hessian has wrong structure
  ** Imaginary eigenvectors =   1
  Cycle:     18 Energy:       -16.450744  Gnorm:      0.012249  CPU:    3.884
  ** Hessian has required structure
  Cycle:     19 Energy:       -16.692675  Gnorm:      0.001509  CPU:    4.072
  ** Hessian has required structure
  Cycle:     20 Energy:       -16.714901  Gnorm:      0.002295  CPU:    4.235
  ** Hessian has required structure
  Cycle:     21 Energy:       -16.723613  Gnorm:      0.001292  CPU:    4.416
  ** Hessian has required structure
  Cycle:     22 Energy:       -16.730037  Gnorm:      0.001404  CPU:    4.570
  ** Hessian has required structure
  Cycle:     23 Energy:       -16.734637  Gnorm:      0.002153  CPU:    4.704
  ** Hessian has required structure
  Cycle:     24 Energy:       -16.737800  Gnorm:      0.001391  CPU:    4.843
  ** Hessian has required structure
  Cycle:     25 Energy:       -16.740141  Gnorm:      0.003672  CPU:    4.977
  ** Hessian has required structure
  Cycle:     26 Energy:       -16.745436  Gnorm:      0.001360  CPU:    5.136
  ** Hessian has required structure
  Cycle:     27 Energy:       -16.750160  Gnorm:      0.002406  CPU:    5.294
  ** Hessian has required structure
  Cycle:     28 Energy:       -16.754870  Gnorm:      0.003196  CPU:    5.440
  ** Hessian has wrong structure
  ** Imaginary eigenvectors =   1
  Cycle:     29 Energy:       -16.762697  Gnorm:      0.003735  CPU:    5.617
  ** Hessian has required structure
  Cycle:     30 Energy:       -16.779975  Gnorm:      0.001168  CPU:    5.831
  ** Hessian has required structure
  Cycle:     31 Energy:       -16.783064  Gnorm:      0.001747  CPU:    6.019
  ** Hessian has required structure
  Cycle:     32 Energy:       -16.787241  Gnorm:      0.002363  CPU:    6.241
  ** Hessian has required structure
  Cycle:     33 Energy:       -16.789558  Gnorm:      0.002068  CPU:    6.431
  ** Hessian has required structure
  Cycle:     34 Energy:       -16.791495  Gnorm:      0.001136  CPU:    6.607
  ** Hessian has required structure
  Cycle:     35 Energy:       -16.795063  Gnorm:      0.001595  CPU:    6.767
  ** Hessian has required structure
  Cycle:     36 Energy:       -16.796175  Gnorm:      0.001806  CPU:    6.909
  ** Hessian has required structure
  Cycle:     37 Energy:       -16.797922  Gnorm:      0.001367  CPU:    7.075
  ** Hessian has required structure
  Cycle:     38 Energy:       -16.799470  Gnorm:      0.001103  CPU:    7.235
  ** Hessian has required structure
  Cycle:     39 Energy:       -16.800323  Gnorm:      0.000712  CPU:    7.399
  ** Hessian has required structure
  Cycle:     40 Energy:       -16.800702  Gnorm:      0.000500  CPU:    7.575
  ** Hessian has wrong structure
  ** Imaginary eigenvectors =   1
  Cycle:     41 Energy:       -16.801198  Gnorm:      0.000444  CPU:    7.744
  ** Hessian has required structure
  Cycle:     42 Energy:       -16.801461  Gnorm:      0.000282  CPU:    7.897
  ** Hessian has required structure
  Cycle:     43 Energy:       -16.801646  Gnorm:      0.000204  CPU:    8.055
  ** Hessian has required structure
  ** Hessian has required structure
  Cycle:     44 Energy:       -16.801696  Gnorm:      0.000078  CPU:    8.337
  ** Hessian has required structure


  **** Optimisation achieved ****


  Final energy =     -16.80169961 eV
  Final Gnorm  =       0.00000853

  Components of energy : 

--------------------------------------------------------------------------------
  Interatomic potentials     =           1.73111989 eV
  Three-body potentials      =           2.55351899 eV
  Four-body potentials       =           1.29755459 eV
  Improper torsions          =           0.00330826 eV
  Out of plane potentials    =           0.00000000 eV
  Monopole - monopole (real) =         -22.38720133 eV
--------------------------------------------------------------------------------
  Total lattice energy       =         -16.80169961 eV
--------------------------------------------------------------------------------
  Total lattice energy       =           -1621.1072 kJ/mol
--------------------------------------------------------------------------------

  Final cartesian coordinates of atoms :

--------------------------------------------------------------------------------
   No.  Atomic        x           y          z          Radius
        Label       (Angs)      (Angs)     (Angs)       (Angs) 
--------------------------------------------------------------------------------
     1  O5    c    12.062373   15.463979   12.923262    0.000000
     2  S5    c    12.269464   14.857287   14.205478    0.000000
     3  O5    c    11.068572   14.120676   14.466841    0.000000
     4  O5    c    12.288997   15.987956   15.085037    0.000000
     5  C5    c    13.768437   13.922255   14.215365    0.000000
     6  C5    c    13.739676   12.532592   14.081462    0.000000
     7  H5    c    12.785150   12.014960   13.997123    0.000000
     8  C5    c    14.929305   11.809368   14.008307    0.000000
     9  H5    c    14.889899   10.731272   13.868841    0.000000
    10  C5    c    16.158681   12.465410   14.070318    0.000000
    11  C5    c    16.187738   13.853381   14.235428    0.000000
    12  H5    c    17.134269   14.386677   14.279239    0.000000
    13  C5    c    14.998541   14.575914   14.307081    0.000000
    14  H5    c    15.027637   15.659606   14.402828    0.000000
    15  N6    c    17.306325   11.730350   13.935387    0.000000
    16  H6    c    17.202383   10.730418   13.767417    0.000000
    17  N5    c    18.566000   12.245000   13.949000    0.000000
    18  C6    c    19.651457   11.536579   13.780871    0.000000
    19  C5    c    20.923695   12.233695   13.822944    0.000000
    20  C5    c    20.989251   13.628302   13.974931    0.000000
    21  H5    c    20.084443   14.223597   14.073466    0.000000
    22  C5    c    22.215047   14.288184   13.972179    0.000000
    23  H5    c    22.249936   15.372260   14.069096    0.000000
    24  C5    c    23.398021   13.569204   13.824174    0.000000
    25  C5    c    23.342827   12.182326   13.688823    0.000000
    26  H5    c    24.266415   11.622199   13.554169    0.000000
    27  C5    c    22.117766   11.513104   13.680996    0.000000
    28  C6    c    22.138769   10.083951   13.489785    0.000000
    29  H5    c    23.070953    9.538230   13.367174    0.000000
    30  C7    c    20.924842    9.434640   13.419735    0.000000
    31  H5    c    20.870993    8.365258   13.254586    0.000000
    32  C8    c    19.609295   10.069813   13.546607    0.000000
    33  O5    c    18.597870    9.393841   13.465975    0.000000
    34  S5    c    24.940179   14.418814   13.752032    0.000000
    35  O5    c    25.134231   14.996723   12.455939    0.000000
    36  O5    c    26.107128   13.621511   13.984145    0.000000
    37  O5    c    25.008199   15.557256   14.618263    0.000000
    38  O5    c    25.078768    9.857088   11.596414    0.000000
    39  S5    c    24.868454   10.457853   10.311955    0.000000
    40  O5    c    26.069067   11.192765   10.044626    0.000000
    41  O5    c    24.846162    9.323388    9.437391    0.000000
    42  C5    c    23.370142   11.393949   10.301991    0.000000
    43  C5    c    23.400014   12.783690   10.434849    0.000000
    44  H5    c    24.354967   13.300660   10.518427    0.000000
    45  C5    c    22.210971   13.507871   10.508003    0.000000
    46  H5    c    22.251269   14.586033   10.646735    0.000000
    47  C5    c    20.981071   12.852722   10.446981    0.000000
    48  C5    c    20.950881   11.464656   10.282840    0.000000
    49  H5    c    20.003924   10.932051   10.239857    0.000000
    50  C5    c    22.139499   10.741155   10.211244    0.000000
    51  H5    c    22.109522    9.657410   10.116316    0.000000
    52  N6    c    19.834071   13.588745   10.582124    0.000000
    53  H6    c    19.938930   14.588489   10.750643    0.000000
    54  N5    c    18.573932   13.075237   10.568356    0.000000
    55  C6    c    17.489156   13.784511   10.737280    0.000000
    56  C5    c    16.216237   13.088685   10.694375    0.000000
    57  C5    c    16.149314   11.694346   10.540603    0.000000
    58  H5    c    17.053543   11.098303   10.441351    0.000000
    59  C5    c    14.922859   11.035679   10.542347    0.000000
    60  H5    c    14.886877    9.951775   10.444001    0.000000
    61  C5    c    13.740582   11.755636   10.691095    0.000000
    62  C5    c    13.797138   13.142271   10.828257    0.000000
    63  H5    c    12.874085   13.703140   10.963450    0.000000
    64  C5    c    15.022862   13.810265   10.837118    0.000000
    65  C6    c    15.003244   15.239188   11.030140    0.000000
    66  H5    c    14.071587   15.785641   11.153483    0.000000
    67  C7    c    16.217802   15.887243   11.100917    0.000000
    68  H5    c    16.272693   16.956368   11.267354    0.000000
    69  C8    c    17.532734   15.250965   10.973213    0.000000
    70  O5    c    18.544806   15.925884   11.054555    0.000000
    71  S5    c    12.197573   10.907452   10.761832    0.000000
    72  O5    c    12.004530   10.324563   12.055837    0.000000
    73  O5    c    11.031135   11.706656   10.533710    0.000000
    74  O5    c    12.127594    9.772311    9.891455    0.000000
    75  Na5   c    10.150442   16.311315   14.056697    0.000000
    76  Na5   c    10.011339    9.568922   11.007430    0.000000
    77  Na5   c    27.125442   15.758460   13.503793    0.000000
    78  Na5   c    26.987210    9.003526   10.461726    0.000000
--------------------------------------------------------------------------------


  Final Cartesian derivatives :

--------------------------------------------------------------------------------
   No.  Atomic          x             y             z           Radius
        Label       (eV/Angs)     (eV/Angs)    (eV/Angs)      (eV/Angs)
--------------------------------------------------------------------------------
      1 O5    c      -0.000062      0.000293     -0.000481      0.000000
      2 S5    c       0.000033     -0.000873      0.000126      0.000000
      3 O5    c       0.000043     -0.000096     -0.000084      0.000000
      4 O5    c       0.000066      0.000571      0.000441      0.000000
      5 C5    c       0.000040     -0.000118      0.000007      0.000000
      6 C5    c       0.000037      0.000114     -0.000009      0.000000
      7 H5    c       0.000053      0.000039      0.000002      0.000000
      8 C5    c       0.000024      0.000046      0.000002      0.000000
      9 H5    c       0.000010      0.000113      0.000015      0.000000
     10 C5    c      -0.000028      0.000065      0.000002      0.000000
     11 C5    c      -0.000026     -0.000094     -0.000014      0.000000
     12 H5    c      -0.000060     -0.000060     -0.000004      0.000000
     13 C5    c      -0.000014     -0.000044     -0.000011      0.000000
     14 H5    c      -0.000016     -0.000129     -0.000009      0.000000
     15 N6    c       0.000008      0.000018      0.000001      0.000000
     16 H6    c       0.000002      0.000064      0.000014      0.000000
     17 N5    c       0.000000      0.000000      0.000000      0.000000
     18 C6    c       0.000042      0.000003     -0.000007      0.000000
     19 C5    c      -0.000019      0.000055      0.000008      0.000000
     20 C5    c       0.000101     -0.000031     -0.000013      0.000000
     21 H5    c       0.000015     -0.000014     -0.000004      0.000000
     22 C5    c      -0.000099     -0.000035      0.000006      0.000000
     23 H5    c      -0.000027     -0.000093     -0.000011      0.000000
     24 C5    c       0.000035     -0.000078     -0.000014      0.000000
     25 C5    c      -0.000092      0.000050      0.000010      0.000000
     26 H5    c      -0.000033      0.000014      0.000012      0.000000
     27 C5    c       0.000091      0.000021     -0.000008      0.000000
     28 C6    c      -0.000087      0.000018      0.000005      0.000000
     29 H5    c      -0.000017      0.000013      0.000002      0.000000
     30 C7    c       0.000095      0.000034     -0.000001      0.000000
     31 H5    c       0.000020      0.000082      0.000016      0.000000
     32 C8    c      -0.000086      0.000001      0.000011      0.000000
     33 O5    c       0.000140      0.000130      0.000012      0.000000
     34 S5    c       0.000085      0.000061      0.000056      0.000000
     35 O5    c       0.000090     -0.000108      0.000125      0.000000
     36 O5    c      -0.000238      0.000168     -0.000080      0.000000
     37 O5    c       0.000020     -0.000150     -0.000131      0.000000
     38 O5    c       0.000051      0.000093     -0.000158      0.000000
     39 S5    c       0.000164     -0.000058      0.000003      0.000000
     40 O5    c      -0.000229     -0.000153      0.000014      0.000000
     41 O5    c       0.000015      0.000082      0.000134      0.000000
     42 C5    c      -0.000057     -0.000001     -0.000009      0.000000
     43 C5    c      -0.000022     -0.000014      0.000005      0.000000
     44 H5    c      -0.000048     -0.000024      0.000006      0.000000
     45 C5    c      -0.000052     -0.000049     -0.000007      0.000000
     46 H5    c      -0.000010     -0.000028     -0.000006      0.000000
     47 C5    c       0.000025      0.000039      0.000002      0.000000
     48 C5    c       0.000006      0.000004      0.000004      0.000000
     49 H5    c       0.000063      0.000033      0.000002      0.000000
     50 C5    c       0.000044      0.000041      0.000006      0.000000
     51 H5    c       0.000011      0.000023      0.000004      0.000000
     52 N6    c      -0.000025      0.000086      0.000016      0.000000
     53 H6    c      -0.000006     -0.000107     -0.000017      0.000000
     54 N5    c      -0.000094      0.000181      0.000032      0.000000
     55 C6    c       0.000061      0.000049      0.000006      0.000000
     56 C5    c      -0.000060     -0.000128     -0.000005      0.000000
     57 C5    c      -0.000032      0.000193      0.000024      0.000000
     58 H5    c      -0.000062      0.000093      0.000010      0.000000
     59 C5    c      -0.000010      0.000055      0.000008      0.000000
     60 H5    c       0.000007      0.000221      0.000017      0.000000
     61 C5    c       0.000068      0.000145      0.000006      0.000000
     62 C5    c       0.000041     -0.000184     -0.000009      0.000000
     63 H5    c       0.000056     -0.000048      0.000003      0.000000
     64 C5    c      -0.000002      0.000055      0.000016      0.000000
     65 C6    c       0.000040     -0.000168     -0.000015      0.000000
     66 H5    c       0.000068     -0.000083     -0.000012      0.000000
     67 C7    c       0.000005     -0.000023     -0.000002      0.000000
     68 H5    c      -0.000004     -0.000206     -0.000028      0.000000
     69 C8    c       0.000029     -0.000079     -0.000017      0.000000
     70 O5    c      -0.000094     -0.000173     -0.000020      0.000000
     71 S5    c      -0.000259     -0.000476     -0.000063      0.000000
     72 O5    c      -0.000014      0.000148     -0.000461      0.000000
     73 O5    c       0.000210     -0.000231      0.000094      0.000000
     74 O5    c       0.000045      0.000608      0.000434      0.000000
     75 Na5   c      -0.000028      0.000045     -0.000030      0.000000
     76 Na5   c       0.000097      0.000090      0.000012      0.000000
     77 Na5   c      -0.000112     -0.000045      0.000003      0.000000
     78 Na5   c      -0.000023      0.000004      0.000009      0.000000
--------------------------------------------------------------------------------
  Maximum abs         0.000259      0.000873      0.000481      0.000000
--------------------------------------------------------------------------------


  Born effective charge tensors : 

-------------------------------------------------------------------------------
  Atom             x           y             z
-------------------------------------------------------------------------------
   1 O5    x      -0.6818      0.0000      0.0000
           y       0.0000     -0.6818      0.0000
           z       0.0000      0.0000     -0.6818
-------------------------------------------------------------------------------
   2 S5    x       1.1440      0.0000      0.0000
           y       0.0000      1.1440      0.0000
           z       0.0000      0.0000      1.1440
-------------------------------------------------------------------------------
   3 O5    x      -0.6818      0.0000      0.0000
           y       0.0000     -0.6818      0.0000
           z       0.0000      0.0000     -0.6818
-------------------------------------------------------------------------------
   4 O5    x      -0.6818      0.0000      0.0000
           y       0.0000     -0.6818      0.0000
           z       0.0000      0.0000     -0.6818
-------------------------------------------------------------------------------
   5 C5    x      -0.0734      0.0000      0.0000
           y       0.0000     -0.0734      0.0000
           z       0.0000      0.0000     -0.0734
-------------------------------------------------------------------------------
   6 C5    x      -0.1009      0.0000      0.0000
           y       0.0000     -0.1009      0.0000
           z       0.0000      0.0000     -0.1009
-------------------------------------------------------------------------------
   7 H5    x       0.1446      0.0000      0.0000
           y       0.0000      0.1446      0.0000
           z       0.0000      0.0000      0.1446
-------------------------------------------------------------------------------
   8 C5    x      -0.1678      0.0000      0.0000
           y       0.0000     -0.1678      0.0000
           z       0.0000      0.0000     -0.1678
-------------------------------------------------------------------------------
   9 H5    x       0.1169      0.0000      0.0000
           y       0.0000      0.1169      0.0000
           z       0.0000      0.0000      0.1169
-------------------------------------------------------------------------------
  10 C5    x       0.0333      0.0000      0.0000
           y       0.0000      0.0333      0.0000
           z       0.0000      0.0000      0.0333
-------------------------------------------------------------------------------
  11 C5    x      -0.1678      0.0000      0.0000
           y       0.0000     -0.1678      0.0000
           z       0.0000      0.0000     -0.1678
-------------------------------------------------------------------------------
  12 H5    x       0.1169      0.0000      0.0000
           y       0.0000      0.1169      0.0000
           z       0.0000      0.0000      0.1169
-------------------------------------------------------------------------------
  13 C5    x      -0.1009      0.0000      0.0000
           y       0.0000     -0.1009      0.0000
           z       0.0000      0.0000     -0.1009
-------------------------------------------------------------------------------
  14 H5    x       0.1446      0.0000      0.0000
           y       0.0000      0.1446      0.0000
           z       0.0000      0.0000      0.1446
-------------------------------------------------------------------------------
  15 N6    x      -0.0940      0.0000      0.0000
           y       0.0000     -0.0940      0.0000
           z       0.0000      0.0000     -0.0940
-------------------------------------------------------------------------------
  16 H6    x       0.2606      0.0000      0.0000
           y       0.0000      0.2606      0.0000
           z       0.0000      0.0000      0.2606
-------------------------------------------------------------------------------
  17 N5    x      -0.0985      0.0000      0.0000
           y       0.0000     -0.0985      0.0000
           z       0.0000      0.0000     -0.0985
-------------------------------------------------------------------------------
  18 C6    x      -0.0204      0.0000      0.0000
           y       0.0000     -0.0204      0.0000
           z       0.0000      0.0000     -0.0204
-------------------------------------------------------------------------------
  19 C5    x      -0.0023      0.0000      0.0000
           y       0.0000     -0.0023      0.0000
           z       0.0000      0.0000     -0.0023
-------------------------------------------------------------------------------
  20 C5    x      -0.2262      0.0000      0.0000
           y       0.0000     -0.2262      0.0000
           z       0.0000      0.0000     -0.2262
-------------------------------------------------------------------------------
  21 H5    x       0.1394      0.0000      0.0000
           y       0.0000      0.1394      0.0000
           z       0.0000      0.0000      0.1394
-------------------------------------------------------------------------------
  22 C5    x      -0.0513      0.0000      0.0000
           y       0.0000     -0.0513      0.0000
           z       0.0000      0.0000     -0.0513
-------------------------------------------------------------------------------
  23 H5    x       0.1440      0.0000      0.0000
           y       0.0000      0.1440      0.0000
           z       0.0000      0.0000      0.1440
-------------------------------------------------------------------------------
  24 C5    x      -0.1159      0.0000      0.0000
           y       0.0000     -0.1159      0.0000
           z       0.0000      0.0000     -0.1159
-------------------------------------------------------------------------------
  25 C5    x      -0.0935      0.0000      0.0000
           y       0.0000     -0.0935      0.0000
           z       0.0000      0.0000     -0.0935
-------------------------------------------------------------------------------
  26 H5    x       0.1278      0.0000      0.0000
           y       0.0000      0.1278      0.0000
           z       0.0000      0.0000      0.1278
-------------------------------------------------------------------------------
  27 C5    x       0.0347      0.0000      0.0000
           y       0.0000      0.0347      0.0000
           z       0.0000      0.0000      0.0347
-------------------------------------------------------------------------------
  28 C6    x      -0.1161      0.0000      0.0000
           y       0.0000     -0.1161      0.0000
           z       0.0000      0.0000     -0.1161
-------------------------------------------------------------------------------
  29 H5    x       0.1566      0.0000      0.0000
           y       0.0000      0.1566      0.0000
           z       0.0000      0.0000      0.1566
-------------------------------------------------------------------------------
  30 C7    x      -0.3625      0.0000      0.0000
           y       0.0000     -0.3625      0.0000
           z       0.0000      0.0000     -0.3625
-------------------------------------------------------------------------------
  31 H5    x       0.1432      0.0000      0.0000
           y       0.0000      0.1432      0.0000
           z       0.0000      0.0000      0.1432
-------------------------------------------------------------------------------
  32 C8    x       0.6081      0.0000      0.0000
           y       0.0000      0.6081      0.0000
           z       0.0000      0.0000      0.6081
-------------------------------------------------------------------------------
  33 O5    x      -0.5968      0.0000      0.0000
           y       0.0000     -0.5968      0.0000
           z       0.0000      0.0000     -0.5968
-------------------------------------------------------------------------------
  34 S5    x       1.1659      0.0000      0.0000
           y       0.0000      1.1659      0.0000
           z       0.0000      0.0000      1.1659
-------------------------------------------------------------------------------
  35 O5    x      -0.6823      0.0000      0.0000
           y       0.0000     -0.6823      0.0000
           z       0.0000      0.0000     -0.6823
-------------------------------------------------------------------------------
  36 O5    x      -0.6823      0.0000      0.0000
           y       0.0000     -0.6823      0.0000
           z       0.0000      0.0000     -0.6823
-------------------------------------------------------------------------------
  37 O5    x      -0.6823      0.0000      0.0000
           y       0.0000     -0.6823      0.0000
           z       0.0000      0.0000     -0.6823
-------------------------------------------------------------------------------
  38 O5    x      -0.6818      0.0000      0.0000
           y       0.0000     -0.6818      0.0000
           z       0.0000      0.0000     -0.6818
-------------------------------------------------------------------------------
  39 S5    x       1.1440      0.0000      0.0000
           y       0.0000      1.1440      0.0000
           z       0.0000      0.0000      1.1440
-------------------------------------------------------------------------------
  40 O5    x      -0.6818      0.0000      0.0000
           y       0.0000     -0.6818      0.0000
           z       0.0000      0.0000     -0.6818
-------------------------------------------------------------------------------
  41 O5    x      -0.6818      0.0000      0.0000
           y       0.0000     -0.6818      0.0000
           z       0.0000      0.0000     -0.6818
-------------------------------------------------------------------------------
  42 C5    x      -0.0734      0.0000      0.0000
           y       0.0000     -0.0734      0.0000
           z       0.0000      0.0000     -0.0734
-------------------------------------------------------------------------------
  43 C5    x      -0.1009      0.0000      0.0000
           y       0.0000     -0.1009      0.0000
           z       0.0000      0.0000     -0.1009
-------------------------------------------------------------------------------
  44 H5    x       0.1446      0.0000      0.0000
           y       0.0000      0.1446      0.0000
           z       0.0000      0.0000      0.1446
-------------------------------------------------------------------------------
  45 C5    x      -0.1678      0.0000      0.0000
           y       0.0000     -0.1678      0.0000
           z       0.0000      0.0000     -0.1678
-------------------------------------------------------------------------------
  46 H5    x       0.1169      0.0000      0.0000
           y       0.0000      0.1169      0.0000
           z       0.0000      0.0000      0.1169
-------------------------------------------------------------------------------
  47 C5    x       0.0333      0.0000      0.0000
           y       0.0000      0.0333      0.0000
           z       0.0000      0.0000      0.0333
-------------------------------------------------------------------------------
  48 C5    x      -0.1678      0.0000      0.0000
           y       0.0000     -0.1678      0.0000
           z       0.0000      0.0000     -0.1678
-------------------------------------------------------------------------------
  49 H5    x       0.1169      0.0000      0.0000
           y       0.0000      0.1169      0.0000
           z       0.0000      0.0000      0.1169
-------------------------------------------------------------------------------
  50 C5    x      -0.1009      0.0000      0.0000
           y       0.0000     -0.1009      0.0000
           z       0.0000      0.0000     -0.1009
-------------------------------------------------------------------------------
  51 H5    x       0.1446      0.0000      0.0000
           y       0.0000      0.1446      0.0000
           z       0.0000      0.0000      0.1446
-------------------------------------------------------------------------------
  52 N6    x      -0.0940      0.0000      0.0000
           y       0.0000     -0.0940      0.0000
           z       0.0000      0.0000     -0.0940
-------------------------------------------------------------------------------
  53 H6    x       0.2606      0.0000      0.0000
           y       0.0000      0.2606      0.0000
           z       0.0000      0.0000      0.2606
-------------------------------------------------------------------------------
  54 N5    x      -0.0985      0.0000      0.0000
           y       0.0000     -0.0985      0.0000
           z       0.0000      0.0000     -0.0985
-------------------------------------------------------------------------------
  55 C6    x      -0.0204      0.0000      0.0000
           y       0.0000     -0.0204      0.0000
           z       0.0000      0.0000     -0.0204
-------------------------------------------------------------------------------
  56 C5    x      -0.0023      0.0000      0.0000
           y       0.0000     -0.0023      0.0000
           z       0.0000      0.0000     -0.0023
-------------------------------------------------------------------------------
  57 C5    x      -0.2262      0.0000      0.0000
           y       0.0000     -0.2262      0.0000
           z       0.0000      0.0000     -0.2262
-------------------------------------------------------------------------------
  58 H5    x       0.1394      0.0000      0.0000
           y       0.0000      0.1394      0.0000
           z       0.0000      0.0000      0.1394
-------------------------------------------------------------------------------
  59 C5    x      -0.0513      0.0000      0.0000
           y       0.0000     -0.0513      0.0000
           z       0.0000      0.0000     -0.0513
-------------------------------------------------------------------------------
  60 H5    x       0.1440      0.0000      0.0000
           y       0.0000      0.1440      0.0000
           z       0.0000      0.0000      0.1440
-------------------------------------------------------------------------------
  61 C5    x      -0.1159      0.0000      0.0000
           y       0.0000     -0.1159      0.0000
           z       0.0000      0.0000     -0.1159
-------------------------------------------------------------------------------
  62 C5    x      -0.0935      0.0000      0.0000
           y       0.0000     -0.0935      0.0000
           z       0.0000      0.0000     -0.0935
-------------------------------------------------------------------------------
  63 H5    x       0.1278      0.0000      0.0000
           y       0.0000      0.1278      0.0000
           z       0.0000      0.0000      0.1278
-------------------------------------------------------------------------------
  64 C5    x       0.0347      0.0000      0.0000
           y       0.0000      0.0347      0.0000
           z       0.0000      0.0000      0.0347
-------------------------------------------------------------------------------
  65 C6    x      -0.1161      0.0000      0.0000
           y       0.0000     -0.1161      0.0000
           z       0.0000      0.0000     -0.1161
-------------------------------------------------------------------------------
  66 H5    x       0.1566      0.0000      0.0000
           y       0.0000      0.1566      0.0000
           z       0.0000      0.0000      0.1566
-------------------------------------------------------------------------------
  67 C7    x      -0.3625      0.0000      0.0000
           y       0.0000     -0.3625      0.0000
           z       0.0000      0.0000     -0.3625
-------------------------------------------------------------------------------
  68 H5    x       0.1432      0.0000      0.0000
           y       0.0000      0.1432      0.0000
           z       0.0000      0.0000      0.1432
-------------------------------------------------------------------------------
  69 C8    x       0.6081      0.0000      0.0000
           y       0.0000      0.6081      0.0000
           z       0.0000      0.0000      0.6081
-------------------------------------------------------------------------------
  70 O5    x      -0.5968      0.0000      0.0000
           y       0.0000     -0.5968      0.0000
           z       0.0000      0.0000     -0.5968
-------------------------------------------------------------------------------
  71 S5    x       1.1659      0.0000      0.0000
           y       0.0000      1.1659      0.0000
           z       0.0000      0.0000      1.1659
-------------------------------------------------------------------------------
  72 O5    x      -0.6823      0.0000      0.0000
           y       0.0000     -0.6823      0.0000
           z       0.0000      0.0000     -0.6823
-------------------------------------------------------------------------------
  73 O5    x      -0.6823      0.0000      0.0000
           y       0.0000     -0.6823      0.0000
           z       0.0000      0.0000     -0.6823
-------------------------------------------------------------------------------
  74 O5    x      -0.6823      0.0000      0.0000
           y       0.0000     -0.6823      0.0000
           z       0.0000      0.0000     -0.6823
-------------------------------------------------------------------------------
  75 Na5   x       1.0000      0.0000      0.0000
           y       0.0000      1.0000      0.0000
           z       0.0000      0.0000      1.0000
-------------------------------------------------------------------------------
  76 Na5   x       1.0000      0.0000      0.0000
           y       0.0000      1.0000      0.0000
           z       0.0000      0.0000      1.0000
-------------------------------------------------------------------------------
  77 Na5   x       1.0000      0.0000      0.0000
           y       0.0000      1.0000      0.0000
           z       0.0000      0.0000      1.0000
-------------------------------------------------------------------------------
  78 Na5   x       1.0000      0.0000      0.0000
           y       0.0000      1.0000      0.0000
           z       0.0000      0.0000      1.0000
-------------------------------------------------------------------------------




  Moment of inertia tensor (10^-46 x kgm^2): 

-------------------------------------------------------------------------------
                x           y           z           Principal axis system
-------------------------------------------------------------------------------
       x       1118.25      217.24      112.06         1100.848274
       y        217.24     4675.37     -237.45         4549.991992
       z        112.06     -237.45     4927.71         5070.492522
-------------------------------------------------------------------------------
  Centre of mass (Ang) =    18.569494    12.660335    12.258325
-------------------------------------------------------------------------------


  Vibrational Frequency Calculation : 

--------------------------------------------------------------------------------

  Frequencies (cm-1) :

   -0.00   -0.00   -0.00    0.00    0.00    0.00    7.43   13.45   18.44
   18.54   22.49   27.92   28.61   30.70   31.16   33.77   34.07   42.89
   47.79   49.14   62.79   67.28   78.95   82.80   85.32   93.52   96.00
   98.57  100.08  103.52  103.87  108.59  118.54  125.23  140.11  141.70
  170.08  174.54  175.96  178.95  200.26  200.30  211.36  216.59  222.61
  227.21  245.78  248.22  288.26  290.87  292.61  293.62  296.81  297.71
  300.66  301.72  321.92  325.27  334.83  335.52  335.56  336.77  337.78
  338.03  341.37  342.38  350.37  351.90  370.05  370.63  371.48  372.14
  387.36  388.52  421.22  421.42  424.76  424.80  440.00  440.53  450.62
  451.55  455.43  456.78  472.08  473.96  497.37  498.80  523.68  526.75
  534.97  535.43  538.19  540.30  544.45  544.69  554.62  554.66  581.07
  581.09  604.20  604.29  645.55  645.87  659.18  659.20  689.52  690.38
  711.85  713.03  730.71  730.79  733.95  734.35  745.02  745.05  798.88
  799.55  803.53  803.54  853.83  855.60  866.78  866.98  898.32  898.37
  906.59  906.63  914.16  915.18  944.98  945.02  985.73  985.91 1008.58
 1008.67 1027.09 1027.25 1030.59 1030.69 1042.22 1042.23 1092.77 1092.78
 1109.61 1109.71 1113.10 1113.19 1128.13 1128.14 1150.02 1150.08 1150.52
 1150.71 1161.23 1161.37 1169.46 1169.70 1175.23 1175.56 1191.71 1191.80
 1210.35 1210.68 1221.55 1221.63 1233.50 1233.60 1282.25 1282.64 1292.71
 1292.90 1313.90 1314.04 1346.07 1346.20 1386.88 1387.21 1402.30 1402.56
 1486.24 1486.26 1500.98 1501.07 1533.02 1533.24 1547.95 1548.18 1621.41
 1621.64 1659.63 1659.91 1699.58 1699.59 1712.01 1712.02 1745.47 1745.71
 1761.60 1761.67 1783.70 1783.73 1797.50 1797.90 1813.12 1813.25 1827.56
 1827.82 1842.26 1842.32 1898.83 1898.83 1909.92 1910.08 2965.94 2966.13
 2968.48 2968.51 2968.59 2968.65 2969.87 2969.90 2970.78 2970.80 2971.38
 2971.41 2972.99 2973.03 2981.04 2981.05 2985.37 2985.45 3179.33 3179.42


--------------------------------------------------------------------------------

  Vibrational properties (for cluster):  Temperature  =       0.000 K
--------------------------------------------------------------------------------
  Zero point energy             =        13.990238 eV
--------------------------------------------------------------------------------

  Vibrational density of states : 

--------------------------------------------------------------------------------
 Frequency     Density of States                                                
--------------------------------------------------------------------------------
    0.00000 |********************************************************      0.074
   50.00000 |**************************                                    0.035
  100.00000 |**************************                                    0.035
  150.00000 |*************                                                 0.017
  200.00000 |**************************                                    0.035
  250.00000 |********************                                          0.026
  300.00000 |****************************************                      0.052
  350.00000 |**************************                                    0.035
  400.00000 |********************                                          0.026
  450.00000 |**************************                                    0.035
  500.00000 |**************************                                    0.035
  550.00000 |*************                                                 0.017
  600.00000 |*************                                                 0.017
  650.00000 |*************                                                 0.017
  700.00000 |**************************                                    0.035
  750.00000 |******                                                        0.009
  800.00000 |******                                                        0.009
  850.00000 |********************                                          0.026
  900.00000 |********************                                          0.026
  950.00000 |******                                                        0.009
 1000.00000 |**************************                                    0.035
 1050.00000 |******                                                        0.009
 1100.00000 |********************                                          0.026
 1150.00000 |****************************************                      0.052
 1200.00000 |********************                                          0.026
 1250.00000 |*************                                                 0.017
 1300.00000 |*************                                                 0.017
 1350.00000 |******                                                        0.009
 1400.00000 |******                                                        0.009
 1450.00000 |******                                                        0.009
 1500.00000 |********************                                          0.026
 1550.00000 |                                                              0.000
 1600.00000 |******                                                        0.009
 1650.00000 |*************                                                 0.017
 1700.00000 |*************                                                 0.017
 1750.00000 |********************                                          0.026
 1800.00000 |********************                                          0.026
 1850.00000 |******                                                        0.009
 1900.00000 |******                                                        0.009
 1950.00000 |                                                              0.000
 2000.00000 |                                                              0.000
 2050.00000 |                                                              0.000
 2100.00000 |                                                              0.000
 2150.00000 |                                                              0.000
 2200.00000 |                                                              0.000
 2250.00000 |                                                              0.000
 2300.00000 |                                                              0.000
 2350.00000 |                                                              0.000
 2400.00000 |                                                              0.000
 2450.00000 |                                                              0.000
 2500.00000 |                                                              0.000
 2550.00000 |                                                              0.000
 2600.00000 |                                                              0.000
 2650.00000 |                                                              0.000
 2700.00000 |                                                              0.000
 2750.00000 |                                                              0.000
 2800.00000 |                                                              0.000
 2850.00000 |                                                              0.000
 2900.00000 |                                                              0.000
 2950.00000 |************************************************************  0.078
 3000.00000 |                                                              0.000
 3050.00000 |                                                              0.000
 3100.00000 |                                                              0.000
 3150.00000 |******                                                        0.009
--------------------------------------------------------------------------------



  Time to end of optimisation =       8.5675 seconds


  Peak dynamic memory used =       1.98 MB 


  Timing analysis for GULP :

--------------------------------------------------------------------------------
  Task / Subroutine                                          Time (Seconds)
--------------------------------------------------------------------------------
  Calculation of real space energy and derivatives                1.2330
  Calculation of three-body energy and derivatives                0.0688
  Calculation of four-body energy and derivatives                 0.1906
  Calculation of molecules and connectivity                       0.0004
  Calculation of phonons                                          0.0659
  Calculation of scattering                                       0.0000
  Calculation of matrix inversion                                 0.0067
  Disk read/write operations to scratch files                     0.0003
  Global summation overhead                                       0.0006
--------------------------------------------------------------------------------
  Total CPU time                                                  8.5676
--------------------------------------------------------------------------------


  Dump file written as ssy_dimer_c_i.res                                       


  Job Finished at 15:19.23 27th March      2014                               

