********************************************************************************
*                       GENERAL UTILITY LATTICE PROGRAM                        *
*                                 Julian Gale                                  *
*                      Nanochemistry Research Institute                        *
*                           Department of Chemistry                            *
*                    Curtin University, Western Australia                      *
********************************************************************************
* Version = 4.2.0 * Last modified =  16th January 2014                         *
********************************************************************************
*  optimise     - perform optimisation run                                     *
*  conp         - constant pressure calculation                                *
*  phonon       - calculate phonons for final geometry                         *
*  eckart       - remove rotation/translation from vibrations of molecules     *
*  lower_symtry - reduce symmetry according to imaginary phonon modes          *
*  nosymmetry   - turn off symmetry after initial structure generation         *
*  molmec       - molecule option activated, Coulomb subtract 1-2/1-3 terms    *
*  rfo          - optimisation step to be determined by RFO method             *
********************************************************************************

  Job Started  at 15:39.11 28th March      2014                               

  Number of CPUs =     1


  Total number of configurations input =   1

********************************************************************************
*  Input for Configuration =   1                                               *
********************************************************************************

  Formula = O14S4C32H20N4Na4                                            

  Number of irreducible atoms/shells =      78


  Total number atoms/shells =      78

  Dimensionality = 0               :  Cluster


  Charge on cluster =  -0.000000


  Initial cluster dipoles : x =      1.445462 e.Angs
                            y =     -3.591691 e.Angs
                            z =     -0.098093 e.Angs

  Temperature of configuration =  0.000     K 

  Symmetry number =      1

  Cartesian coordinates of cluster :

--------------------------------------------------------------------------------
   No.  Atomic       x           y          z         Charge      Occupancy
        Label      (Angs)      (Angs)     (Angs)        (e)         (Frac)  
--------------------------------------------------------------------------------
      1 O5    c     14.9887 *    4.9404 *   10.3775 *  -0.68180    1.000000    
      2 S5    c     14.6876 *    5.3865 *   11.6836 *   1.14400    1.000000    
      3 O5    c     13.2682 *    5.1143 *   11.8983 *  -0.68180    1.000000    
      4 O5    c     15.3890 *    4.4722 *   12.5175 *  -0.68180    1.000000    
      5 C5    c     15.1633 *    7.0691 *   11.9709 *  -0.07340    1.000000    
      6 C5    c     14.2315 *    8.0506 *   12.3138 *  -0.10090    1.000000    
      7 H5    c     13.1527 *    7.8117 *   12.4312 *   0.14460    1.000000    
      8 C5    c     14.6384 *    9.3692 *   12.5074 *  -0.16780    1.000000    
      9 H5    c     13.8812 *   10.1454 *   12.7647 *   0.11690    1.000000    
     10 C5    c     15.9764 *    9.7258 *   12.3499 *   0.03330    1.000000    
     11 C5    c     16.9137 *    8.7429 *   12.0181 *  -0.16780    1.000000    
     12 H5    c     17.9383 *    9.0000 *   11.8884 *   0.11690    1.000000    
     13 C5    c     16.5075 *    7.4220 *   11.8314 *  -0.10090    1.000000    
     14 H5    c     17.2030 *    6.6615 *   11.5731 *   0.14460    1.000000    
     15 N6    c     16.3199 *   11.0445 *   12.4769 *  -0.09400    1.000000    
     16 H6    c     15.5450 *   11.7210 *   12.5979 *   0.26060    1.000000    
     17 N5    c     17.5757     11.5463     12.3282    -0.09850    1.000000    
     18 C6    c     17.8480 *   12.8243 *   12.3046 *  -0.02040    1.000000    
     19 C5    c     19.2319 *   13.2125 *   12.1035 *  -0.00230    1.000000    
     20 C5    c     20.2630 *   12.2599 *   12.0702 *  -0.22620    1.000000    
     21 H5    c     20.0377 *   11.1894 *   12.1935 *   0.13940    1.000000    
     22 C5    c     21.5849 *   12.6452 *   11.8614 *  -0.05130    1.000000    
     23 H5    c     22.3619 *   11.8687 *   11.8236 *   0.14400    1.000000    
     24 C5    c     21.9020 *   13.9888 *   11.6772 *  -0.11590    1.000000    
     25 C5    c     20.8843 *   14.9412 *   11.7156 *  -0.09350    1.000000    
     26 H5    c     21.1469 *   15.9734 *   11.5785 *   0.12780    1.000000    
     27 C5    c     19.5578 *   14.5649 *   11.9349 *   0.03470    1.000000    
     28 C6    c     18.5645 *   15.6090 *   11.9889 *  -0.11610    1.000000    
     29 H5    c     18.8352 *   16.6472 *   11.8339 *   0.15660    1.000000    
     30 C7    c     17.2652 *   15.2369 *   12.2582 *  -0.36250    1.000000    
     31 H5    c     16.4847 *   15.9797 *   12.3249 *   0.14320    1.000000    
     32 C8    c     16.7904 *   13.8615 *   12.4352 *   0.60810    1.000000    
     33 O5    c     15.6114 *   13.6475 *   12.6610 *  -0.59680    1.000000    
     34 S5    c     23.5681 *   14.5028 *   11.3807 *   1.16590    1.000000    
     35 O5    c     23.7587 *   14.9983 *   10.0628 *  -0.68230    1.000000    
     36 O5    c     23.9808 *   15.5887 *   12.2012 *  -0.68230    1.000000    
     37 O5    c     24.5493 *   13.4507 *   11.5546 *  -0.68230    1.000000    
     38 O5    c     24.9447 *    9.1168 *   10.4119 *  -0.68180    1.000000    
     39 S5    c     24.8314 *    9.7203 *    9.1405 *   1.14400    1.000000    
     40 O5    c     26.0414 *   10.5187 *    8.9462 *  -0.68180    1.000000    
     41 O5    c     24.9470 *    8.6229 *    8.2413 *  -0.68180    1.000000    
     42 C5    c     23.3171 *   10.6126 *    8.9260 *  -0.07340    1.000000    
     43 C5    c     23.2987 *   11.9806 *    8.6486 *  -0.10090    1.000000    
     44 H5    c     24.2385 *   12.5621 *    8.5343 *   0.14460    1.000000    
     45 C5    c     22.0865 *   12.6560 *    8.5203 *  -0.16780    1.000000    
     46 H5    c     22.0867 *   13.7505 *    8.3187 *   0.11690    1.000000    
     47 C5    c     20.8796 *   11.9761 *    8.6755 *   0.03330    1.000000    
     48 C5    c     20.8953 *   10.6027 *    8.9376 *  -0.16780    1.000000    
     49 H5    c     19.9846 *   10.0682 *    9.0700 *   0.11690    1.000000    
     50 C5    c     22.1083 *    9.9265 *    9.0616 *  -0.10090    1.000000    
     51 H5    c     22.1440 *    8.8844 *    9.2728 *   0.14460    1.000000    
     52 N6    c     19.7139 *   12.6912 *    8.6173 *  -0.09400    1.000000    
     53 H6    c     19.7973 *   13.7179 *    8.5442 *   0.26060    1.000000    
     54 N5    c     18.4669 *   12.1709 *    8.7776 *  -0.09850    1.000000    
     55 C6    c     17.3827 *   12.8947 *    8.8687 *  -0.02040    1.000000    
     56 C5    c     16.1249 *   12.1990 *    9.0725 *  -0.00230    1.000000    
     57 C5    c     16.0497 *   10.7970 *    9.0488 *  -0.22620    1.000000    
     58 H5    c     16.9537 *   10.1899 *    8.8802 *   0.13940    1.000000    
     59 C5    c     14.8379 *   10.1426 *    9.2571 *  -0.05130    1.000000    
     60 H5    c     14.8215 *    9.0413 *    9.2473 *   0.14400    1.000000    
     61 C5    c     13.6787 *   10.8753 *    9.4991 *  -0.11590    1.000000    
     62 C5    c     13.7445 *   12.2682 *    9.5189 *  -0.09350    1.000000    
     63 H5    c     12.8403 *   12.8169 *    9.6993 *   0.12780    1.000000    
     64 C5    c     14.9529 *   12.9327 *    9.2999 *   0.03470    1.000000    
     65 C6    c     14.9362 *   14.3749 *    9.3079 *  -0.11610    1.000000    
     66 H5    c     14.0220 *   14.9204 *    9.5044 *   0.15660    1.000000    
     67 C7    c     16.1214 *   15.0260 *    9.0419 *  -0.36250    1.000000    
     68 H5    c     16.1621 *   16.1021 *    9.0201 *   0.14320    1.000000    
     69 C8    c     17.4161 *   14.3800 *    8.8070 *   0.60810    1.000000    
     70 O5    c     18.4059 *   15.0590 *    8.5902 *  -0.59680    1.000000    
     71 S5    c     12.1313 *   10.0705 *    9.7861 *   1.16590    1.000000    
     72 O5    c     11.7627 *   10.0850 *   11.1616 *  -0.68230    1.000000    
     73 O5    c     11.0288 *   10.6877 *    9.1377 *  -0.68230    1.000000    
     74 O5    c     12.1213 *    8.6700 *    9.4094 *  -0.68230    1.000000    
     75 Na5   c     25.9716 *   15.2823 *   10.8911 *   1.00000    1.000000    
     76 Na5   c      9.8879 *    8.9103 *   10.2868 *   1.00000    1.000000    
     77 Na5   c     14.1045 *    2.9188 *   11.2452 *   1.00000    1.000000    
     78 Na5   c     26.9668 *    8.3224 *    9.4688 *   1.00000    1.000000    
--------------------------------------------------------------------------------



  Molecule list generated from bond lengths :

  Total number of molecules =     2

--------------------------------------------------------------------------------
Molecule No./:  Atoms
Periodicity  :  
--------------------------------------------------------------------------------
     1  0    : O5   c     1 S5   c     2 O5   c     3 O5   c     4 C5   c     5
             : C5   c     6 H5   c     7 C5   c     8 H5   c     9 C5   c    10
             : C5   c    11 H5   c    12 C5   c    13 H5   c    14 N6   c    15
             : H6   c    16 N5   c    17 C6   c    18 C5   c    19 C5   c    20
             : H5   c    21 C5   c    22 H5   c    23 C5   c    24 C5   c    25
             : H5   c    26 C5   c    27 C6   c    28 H5   c    29 C7   c    30
             : H5   c    31 C8   c    32 O5   c    33 S5   c    34 O5   c    35
             : O5   c    36 O5   c    37
     2  0    : O5   c    38 S5   c    39 O5   c    40 O5   c    41 C5   c    42
             : C5   c    43 H5   c    44 C5   c    45 H5   c    46 C5   c    47
             : C5   c    48 H5   c    49 C5   c    50 H5   c    51 N6   c    52
             : H6   c    53 N5   c    54 C6   c    55 C5   c    56 C5   c    57
             : H5   c    58 C5   c    59 H5   c    60 C5   c    61 C5   c    62
             : H5   c    63 C5   c    64 C6   c    65 H5   c    66 C7   c    67
             : H5   c    68 C8   c    69 O5   c    70 S5   c    71 O5   c    72
             : O5   c    73 O5   c    74
--------------------------------------------------------------------------------


********************************************************************************
*  General input information                                                   *
********************************************************************************

  Species output for all configurations : 

--------------------------------------------------------------------------------
  Species    Type    Atomic    Atomic    Charge       Radii (Angs)     Library
                     Number     Mass       (e)     Cova   Ionic  VDW   Symbol
--------------------------------------------------------------------------------
    O5       Core        8      16.00  -0.681800   0.730  0.000  1.360          
    S5       Core       16      32.07   1.144000   1.020  0.000  1.700          
    C5       Core        6      12.01  -0.073400   0.770  0.000  1.530          
    H5       Core        1       1.01   0.144600   0.370  0.000  1.080          
    N6       Core        7      14.01  -0.094000   0.750  0.000  1.480          
    H6       Core        1       1.01   0.260600   0.370  0.000  1.080          
    N5       Core        7      14.01  -0.098500   0.750  0.000  1.480          
    C6       Core        6      12.01  -0.020400   0.770  0.000  1.530          
    C7       Core        6      12.01  -0.362500   0.770  0.000  1.530          
    C8       Core        6      12.01   0.608100   0.770  0.000  1.530          
    Na5      Core       11      22.99   1.000000   0.010  0.000  2.300          
--------------------------------------------------------------------------------


  Accuracy factor for short range sums = 12.000

  Time limit = Infinity

  Maximum range for interatomic potentials =        10.000000 Angstroms

  Taper potentials to zero over  10.0000 Angstroms using M-D-F

  General interatomic potentials :

--------------------------------------------------------------------------------
Atom  Types   Potential         A         B         C         D     Cutoffs(Ang)
  1     2                                                            Min    Max 
--------------------------------------------------------------------------------
C8   c C8   c Lenn/es 12  6 0.373E-02  3.82      0.00      0.00     3Bond 99.000
C8   c O5   c Lenn/es 12  6 0.583E-02  3.57      0.00      0.00     3Bond 99.000
O5   c O5   c Lenn/es 12  6 0.911E-02  3.32      0.00      0.00     3Bond 99.000
C7   c C8   c Lenn/es 12  6 0.373E-02  3.82      0.00      0.00     3Bond 99.000
C7   c O5   c Lenn/es 12  6 0.583E-02  3.57      0.00      0.00     3Bond 99.000
C7   c C7   c Lenn/es 12  6 0.373E-02  3.82      0.00      0.00     3Bond 99.000
C6   c C8   c Lenn/es 12  6 0.373E-02  3.82      0.00      0.00     3Bond 99.000
C6   c O5   c Lenn/es 12  6 0.583E-02  3.57      0.00      0.00     3Bond 99.000
C6   c C7   c Lenn/es 12  6 0.373E-02  3.82      0.00      0.00     3Bond 99.000
C6   c C6   c Lenn/es 12  6 0.373E-02  3.82      0.00      0.00     3Bond 99.000
C8   c N5   c Lenn/es 12  6 0.524E-02  3.73      0.00      0.00     3Bond 99.000
N5   c O5   c Lenn/es 12  6 0.819E-02  3.49      0.00      0.00     3Bond 99.000
C7   c N5   c Lenn/es 12  6 0.524E-02  3.73      0.00      0.00     3Bond 99.000
C6   c N5   c Lenn/es 12  6 0.524E-02  3.73      0.00      0.00     3Bond 99.000
N5   c N5   c Lenn/es 12  6 0.737E-02  3.65      0.00      0.00     3Bond 99.000
C8   c N6   c Lenn/es 12  6 0.524E-02  3.73      0.00      0.00     3Bond 99.000
N6   c O5   c Lenn/es 12  6 0.819E-02  3.49      0.00      0.00     3Bond 99.000
C7   c N6   c Lenn/es 12  6 0.524E-02  3.73      0.00      0.00     3Bond 99.000
C6   c N6   c Lenn/es 12  6 0.524E-02  3.73      0.00      0.00     3Bond 99.000
N5   c N6   c Lenn/es 12  6 0.737E-02  3.65      0.00      0.00     3Bond 99.000
N6   c N6   c Lenn/es 12  6 0.737E-02  3.65      0.00      0.00     3Bond 99.000
C5   c C8   c Lenn/es 12  6 0.373E-02  3.82      0.00      0.00     3Bond 99.000
C5   c O5   c Lenn/es 12  6 0.583E-02  3.57      0.00      0.00     3Bond 99.000
C5   c C7   c Lenn/es 12  6 0.373E-02  3.82      0.00      0.00     3Bond 99.000
C5   c C6   c Lenn/es 12  6 0.373E-02  3.82      0.00      0.00     3Bond 99.000
C5   c N5   c Lenn/es 12  6 0.524E-02  3.73      0.00      0.00     3Bond 99.000
C5   c N6   c Lenn/es 12  6 0.524E-02  3.73      0.00      0.00     3Bond 99.000
C5   c C5   c Lenn/es 12  6 0.373E-02  3.82      0.00      0.00     3Bond 99.000
H6   c C8   c Lenn/es 12  6 0.159E-02  2.51      0.00      0.00     3Bond 99.000
H6   c O5   c Lenn/es 12  6 0.249E-02  2.26      0.00      0.00     3Bond 99.000
H6   c C7   c Lenn/es 12  6 0.159E-02  2.51      0.00      0.00     3Bond 99.000
H6   c C6   c Lenn/es 12  6 0.159E-02  2.51      0.00      0.00     3Bond 99.000
H6   c N5   c Lenn/es 12  6 0.224E-02  2.42      0.00      0.00     3Bond 99.000
H6   c N6   c Lenn/es 12  6 0.224E-02  2.42      0.00      0.00     3Bond 99.000
H6   c C5   c Lenn/es 12  6 0.159E-02  2.51      0.00      0.00     3Bond 99.000
H6   c H6   c Lenn/es 12  6 0.681E-03  1.20      0.00      0.00     3Bond 99.000
H5   c C8   c Lenn/es 12  6 0.156E-02  3.37      0.00      0.00     3Bond 99.000
H5   c O5   c Lenn/es 12  6 0.243E-02  3.12      0.00      0.00     3Bond 99.000
H5   c C7   c Lenn/es 12  6 0.156E-02  3.37      0.00      0.00     3Bond 99.000
H5   c C6   c Lenn/es 12  6 0.156E-02  3.37      0.00      0.00     3Bond 99.000
H5   c N5   c Lenn/es 12  6 0.219E-02  3.28      0.00      0.00     3Bond 99.000
H5   c N6   c Lenn/es 12  6 0.219E-02  3.28      0.00      0.00     3Bond 99.000
H5   c C5   c Lenn/es 12  6 0.156E-02  3.37      0.00      0.00     3Bond 99.000
H5   c H6   c Lenn/es 12  6 0.665E-03  2.06      0.00      0.00     3Bond 99.000
H5   c H5   c Lenn/es 12  6 0.650E-03  2.92      0.00      0.00     3Bond 99.000
C8   c S5   c Lenn/es 12  6 0.636E-02  3.91      0.00      0.00     3Bond 99.000
O5   c S5   c Lenn/es 12  6 0.994E-02  3.66      0.00      0.00     3Bond 99.000
C7   c S5   c Lenn/es 12  6 0.636E-02  3.91      0.00      0.00     3Bond 99.000
C6   c S5   c Lenn/es 12  6 0.636E-02  3.91      0.00      0.00     3Bond 99.000
N5   c S5   c Lenn/es 12  6 0.894E-02  3.82      0.00      0.00     3Bond 99.000
N6   c S5   c Lenn/es 12  6 0.894E-02  3.82      0.00      0.00     3Bond 99.000
C5   c S5   c Lenn/es 12  6 0.636E-02  3.91      0.00      0.00     3Bond 99.000
H6   c S5   c Lenn/es 12  6 0.272E-02  2.60      0.00      0.00     3Bond 99.000
H5   c S5   c Lenn/es 12  6 0.266E-02  3.46      0.00      0.00     3Bond 99.000
S5   c S5   c Lenn/es 12  6 0.108E-01  4.00      0.00      0.00     3Bond 99.000
C8   c Na5  c Lenn/es 12  6 0.669E-03  3.78      0.00      0.00     3Bond 99.000
O5   c Na5  c Lenn/es 12  6 0.105E-02  3.53      0.00      0.00     3Bond 99.000
C7   c Na5  c Lenn/es 12  6 0.669E-03  3.78      0.00      0.00     3Bond 99.000
C6   c Na5  c Lenn/es 12  6 0.669E-03  3.78      0.00      0.00     3Bond 99.000
N5   c Na5  c Lenn/es 12  6 0.941E-03  3.69      0.00      0.00     3Bond 99.000
N6   c Na5  c Lenn/es 12  6 0.941E-03  3.69      0.00      0.00     3Bond 99.000
C5   c Na5  c Lenn/es 12  6 0.669E-03  3.78      0.00      0.00     3Bond 99.000
H6   c Na5  c Lenn/es 12  6 0.286E-03  2.47      0.00      0.00     3Bond 99.000
H5   c Na5  c Lenn/es 12  6 0.280E-03  3.33      0.00      0.00     3Bond 99.000
Na5  c S5   c Lenn/es 12  6 0.114E-02  3.87      0.00      0.00     3Bond 99.000
Na5  c Na5  c Lenn/es 12  6 0.120E-03  3.74      0.00      0.00     3Bond 99.000
--------------------------------------------------------------------------------

  Intramolecular potentials :

--------------------------------------------------------------------------------
Atom  Types   Potential         A         B         C         D     Cutoffs(Ang)
  1     2                                                            Min    Max 
--------------------------------------------------------------------------------
X    c X    c Coulomb        0.00      0.00      0.00      1.00     1-4only 7.00
H6   c N6   c Harmonic       34.8      1.01      0.00      0.00     0.000 1 Bond
H5   c C5   c Harmonic       29.9      1.09      0.00      0.00     0.000 1 Bond
C5   c S5   c Harmonic       22.9      1.76      0.00      0.00     0.000 1 Bond
C8   c O5   c Harmonic       56.2      1.21      0.00      0.00     0.000 1 Bond
C6   c C7   c Harmonic       43.7      1.37      0.00      0.00     0.000 1 Bond
C6   c N5   c Harmonic       49.7      1.29      0.00      0.00     0.000 1 Bond
H5   c C6   c Harmonic       30.1      1.08      0.00      0.00     0.000 1 Bond
O5   c S5   c Harmonic       46.9      1.44      0.00      0.00     0.000 1 Bond
C7   c C8   c Harmonic       32.7      1.46      0.00      0.00     0.000 1 Bond
C6   c C8   c Harmonic       32.7      1.46      0.00      0.00     0.000 1 Bond
C5   c C6   c Harmonic       35.7      1.43      0.00      0.00     0.000 1 Bond
C5   c C5   c Harmonic       41.5      1.39      0.00      0.00     0.000 1 Bond
H5   c C7   c Harmonic       30.1      1.08      0.00      0.00     0.000 1 Bond
N5   c N6   c Harmonic       45.5      1.36      0.00      0.00     0.000 1 Bond
C5   c N6   c Harmonic       38.9      1.36      0.00      0.00     0.000 1 Bond
--------------------------------------------------------------------------------

  Intermolecular potentials :

--------------------------------------------------------------------------------
Atom  Types   Potential         A         B         C         D     Cutoffs(Ang)
  1     2                                                            Min    Max 
--------------------------------------------------------------------------------
O5   c Na5  c Harmonic       2.00      2.40      0.00      0.00     0.000  5.000
--------------------------------------------------------------------------------

  Intramolecular Three-body potentials :

  Harmonic form:

--------------------------------------------------------------------------------
Atom    Atom    Atom           Force Constants            Theta     Cutoffs  
  1       2       3     (eVrad**-2/eVrad**-3/eVrad**-4)   (deg)  1-2  1-3  2-3
--------------------------------------------------------------------------------
N6    c H6    c C5    c  4.257        0.0000    0.0000   116.130     Bonded
C6    c C5    c C7    c  5.917        0.0000    0.0000   113.510     Bonded
C6    c C5    c N5    c  5.942        0.0000    0.0000   120.720     Bonded
C8    c C6    c C7    c  5.701        0.0000    0.0000   112.790     Bonded
S5    c C5    c O5    c  3.710        0.0000    0.0000   104.070     Bonded
C6    c H5    c C5    c  4.024        0.0000    0.0000   124.040     Bonded
C8    c C7    c O5    c  5.977        0.0000    0.0000   125.710     Bonded
C5    c C5    c C6    c  5.723        0.0000    0.0000   120.100     Bonded
C5    c C5    c N6    c  6.014        0.0000    0.0000   120.130     Bonded
C5    c C5    c C5    c  5.826        0.0000    0.0000   119.970     Bonded
N6    c H6    c N5    c  4.343        0.0000    0.0000   118.220     Bonded
C6    c C8    c N5    c  5.944        0.0000    0.0000   120.890     Bonded
C7    c H5    c C6    c  4.193        0.0000    0.0000   122.890     Bonded
C5    c H5    c C5    c  4.203        0.0000    0.0000   120.010     Bonded
C7    c C6    c C8    c  5.662        0.0000    0.0000   121.320     Bonded
N5    c C6    c N6    c  6.101        0.0000    0.0000   118.470     Bonded
S5    c O5    c O5    c  4.047        0.0000    0.0000   119.730     Bonded
C6    c H5    c C7    c  4.193        0.0000    0.0000   122.890     Bonded
C5    c C5    c S5    c  6.825        0.0000    0.0000   120.540     Bonded
C7    c H5    c C8    c  4.075        0.0000    0.0000   117.020     Bonded
C6    c C5    c C8    c  5.512        0.0000    0.0000   122.950     Bonded
C8    c C6    c O5    c  5.977        0.0000    0.0000   125.710     Bonded
N6    c C5    c N5    c  5.882        0.0000    0.0000   121.110     Bonded
--------------------------------------------------------------------------------

  Intramolecular Four-body potentials :

  Standard form:

--------------------------------------------------------------------------------
         Atom Types             Force cst Sign Phase Phi0         Cutoffs
   1       2       3       4       (eV)                     1-2  2-3  3-4  4-1
--------------------------------------------------------------------------------
H5    c C7    c C8    c O5    c  0.1247     +   2   180.00  Bonded              
H5    c C7    c C6    c H5    c  0.1735     +   2   180.00  Bonded              
C6    c C7    c C8    c O5    c  0.1247     +   2   180.00  Bonded              
H5    c C5    c C5    c H5    c  0.1572     +   2   180.00  Bonded              
C5    c C6    c N5    c N6    c  0.1800     +   2   180.00  Bonded              
C5    c C5    c C5    c N6    c  0.1572     +   2   180.00  Bonded              
C5    c C5    c S5    c O5    c  0.5637E-01 +   2   180.00  Bonded              
C6    c N5    c N6    c H6    c  0.1214     +   2   180.00  Bonded              
C8    c C7    c C6    c C5    c  0.1735     +   2   180.00  Bonded              
N5    c C6    c C8    c O5    c  0.1247     +   2   180.00  Bonded              
C5    c C5    c C5    c H5    c  0.1572     +   2   180.00  Bonded              
C5    c C6    c C8    c O5    c  0.1247     +   2   180.00  Bonded              
C6    c C7    c C8    c C6    c  0.1247     +   2   180.00  Bonded              
C8    c C6    c N5    c N6    c  0.1800     +   2   180.00  Bonded              
C5    c C5    c C5    c S5    c  0.1572     +   2   180.00  Bonded              
C8    c C7    c C6    c H5    c  0.1735     +   2   180.00  Bonded              
H5    c C5    c C5    c N6    c  0.1572     +   2   180.00  Bonded              
C6    c C5    c C5    c C6    c  0.1572     +   2   180.00  Bonded              
C7    c C8    c C6    c N5    c  0.1247     +   2   180.00  Bonded              
C5    c C5    c N6    c N5    c  0.4553E-01 +   2   180.00  Bonded              
C6    c C8    c C7    c H5    c  0.1247     +   2   180.00  Bonded              
C5    c C6    c C8    c C7    c  0.1247     +   2   180.00  Bonded              
C5    c C5    c C5    c C6    c  0.1572     +   2   180.00  Bonded              
C5    c N6    c N5    c C6    c  0.1214     +   2   180.00  Bonded              
C5    c C5    c C5    c C5    c  0.1572     +   2   180.00  Bonded              
C5    c C6    c C7    c H5    c  0.1735     +   2   180.00  Bonded              
C5    c C5    c N6    c H6    c  0.4553E-01 +   2   180.00  Bonded              
H5    c C5    c C5    c S5    c  0.1572     +   2   180.00  Bonded              
C5    c C5    c C6    c C7    c  0.3036E-01 +   2   180.00  Bonded              
C5    c C5    c C6    c H5    c  0.3036E-01 +   2   180.00  Bonded              
C6    c C5    c C5    c H5    c  0.1572     +   2   180.00  Bonded              
C8    c C6    c C5    c C5    c  0.3036E-01 +   2   180.00  Bonded              
C5    c C5    c C6    c N5    c  0.3036E-01 +   2   180.00  Bonded              
C5    c C6    c C7    c H5    c  0.4770E-01 +   2   180.00  Improp              
C6    c C8    c C7    c O5    c  0.4553     +   2   180.00  Improp              
C5    c N6    c H6    c N5    c  0.4770E-01 +   2   180.00  Improp              
C8    c C6    c C5    c N5    c  0.4770E-01 +   2   180.00  Improp              
C5    c C5    c C5    c N6    c  0.2385E-01 +   2   180.00  Improp              
C8    c C7    c C6    c H5    c  0.4770E-01 +   2   180.00  Improp              
C5    c C5    c C5    c H5    c  0.2385E-01 +   2   180.00  Improp              
C5    c C5    c C5    c S5    c  0.2385E-01 +   2   180.00  Improp              
C5    c C5    c C5    c C6    c  0.2385E-01 +   2   180.00  Improp              
--------------------------------------------------------------------------------

********************************************************************************
*  Output for configuration   1                                                *
********************************************************************************


  Components of energy : 

--------------------------------------------------------------------------------
  Interatomic potentials     =           1.99724220 eV
  Three-body potentials      =           2.50225717 eV
  Four-body potentials       =           1.35645339 eV
  Improper torsions          =           0.00364266 eV
  Out of plane potentials    =           0.00000000 eV
  Monopole - monopole (real) =         -22.25644433 eV
--------------------------------------------------------------------------------
  Total lattice energy       =         -16.39684891 eV
--------------------------------------------------------------------------------
  Total lattice energy       =           -1582.0453 kJ/mol
--------------------------------------------------------------------------------


  Number of variables =      231

  Maximum number of calculations  =          1000
  Maximum Hessian update interval =            10
  Maximum step size               =   1.000000000
  Maximum parameter tolerance     =   0.000010000
  Maximum function  tolerance     =   0.000010000
  Maximum gradient  tolerance     =   0.001000000
  Maximum gradient  component     =   0.010000000

  RFO method to be used

  DFP hessian update to be used

  Minimiser to switch to RFO
  When gradient norm is less than     0.000500

  Start of cluster optimisation :

  Cycle:      0 Energy:       -16.396849  Gnorm:      0.026788  CPU:    0.017
  ** Hessian has wrong structure
  ** Imaginary eigenvectors =   6
  Cycle:      1 Energy:       -16.628553  Gnorm:      0.000884  CPU:    0.188
  ** Hessian has required structure
  Cycle:      2 Energy:       -16.631058  Gnorm:      0.000776  CPU:    0.315
  ** Hessian has required structure
  Cycle:      3 Energy:       -16.631611  Gnorm:      0.000758  CPU:    0.426
  ** Hessian has required structure
  Cycle:      4 Energy:       -16.631752  Gnorm:      0.000750  CPU:    0.541
  ** Hessian has required structure
  Cycle:      5 Energy:       -16.631836  Gnorm:      0.000746  CPU:    0.655
  ** Hessian has required structure
  Cycle:      6 Energy:       -16.631836  Gnorm:      0.000746  CPU:    0.771
  ** Hessian has required structure
  Cycle:      7 Energy:       -16.631836  Gnorm:      0.000746  CPU:    0.893
  ** Hessian calculated **


  **** Optimisation achieved ****


  Final energy =     -16.63183589 eV
  Final Gnorm  =       0.00074567

  Components of energy : 

--------------------------------------------------------------------------------
  Interatomic potentials     =           1.78492113 eV
  Three-body potentials      =           2.55674505 eV
  Four-body potentials       =           1.31902937 eV
  Improper torsions          =           0.00408031 eV
  Out of plane potentials    =           0.00000000 eV
  Monopole - monopole (real) =         -22.29661174 eV
--------------------------------------------------------------------------------
  Total lattice energy       =         -16.63183589 eV
--------------------------------------------------------------------------------
  Total lattice energy       =           -1604.7179 kJ/mol
--------------------------------------------------------------------------------

  Final cartesian coordinates of atoms :

--------------------------------------------------------------------------------
   No.  Atomic        x           y          z          Radius
        Label       (Angs)      (Angs)     (Angs)       (Angs) 
--------------------------------------------------------------------------------
     1  O5    c    15.007223    4.920985   10.439282    0.000000
     2  S5    c    14.629121    5.406799   11.733971    0.000000
     3  O5    c    13.230647    5.135970   11.900287    0.000000
     4  O5    c    15.323617    4.498395   12.597710    0.000000
     5  C5    c    15.143389    7.078543   11.996273    0.000000
     6  C5    c    14.214446    8.066808   12.328721    0.000000
     7  H5    c    13.160333    7.814093   12.426346    0.000000
     8  C5    c    14.627213    9.384814   12.516093    0.000000
     9  H5    c    13.888691   10.148083   12.755837    0.000000
    10  C5    c    15.967857    9.733871   12.362930    0.000000
    11  C5    c    16.901787    8.743642   12.044217    0.000000
    12  H5    c    17.951907    8.995380   11.918194    0.000000
    13  C5    c    16.489842    7.423878   11.863795    0.000000
    14  H5    c    17.217919    6.656354   11.608665    0.000000
    15  N6    c    16.317252   11.052213   12.483289    0.000000
    16  H6    c    15.556539   11.722564   12.596834    0.000000
    17  N5    c    17.575711   11.546300   12.328195    0.000000
    18  C6    c    17.854252   12.822953   12.293758    0.000000
    19  C5    c    19.239072   13.203823   12.085775    0.000000
    20  C5    c    20.266142   12.246861   12.058815    0.000000
    21  H5    c    20.048924   11.190070   12.192769    0.000000
    22  C5    c    21.588631   12.624540   11.839323    0.000000
    23  H5    c    22.370661   11.866482   11.801173    0.000000
    24  C5    c    21.909808   13.964832   11.638089    0.000000
    25  C5    c    20.896343   14.921559   11.671788    0.000000
    26  H5    c    21.150908   15.967402   11.514784    0.000000
    27  C5    c    19.569605   14.553013   11.901740    0.000000
    28  C6    c    18.580966   15.601523   11.948664    0.000000
    29  H5    c    18.841646   16.642614   11.781769    0.000000
    30  C7    c    17.280969   15.237259   12.225350    0.000000
    31  H5    c    16.493404   15.978663   12.288906    0.000000
    32  C8    c    16.801048   13.865555   12.416948    0.000000
    33  O5    c    15.621660   13.660448   12.647239    0.000000
    34  S5    c    23.579422   14.444235   11.331412    0.000000
    35  O5    c    23.750595   14.990042   10.017461    0.000000
    36  O5    c    24.010666   15.527953   12.162538    0.000000
    37  O5    c    24.550012   13.400820   11.469421    0.000000
    38  O5    c    24.934106    9.103577   10.386292    0.000000
    39  S5    c    24.861956    9.784972    9.126659    0.000000
    40  O5    c    26.055850   10.566715    8.981058    0.000000
    41  O5    c    24.987494    8.695106    8.204689    0.000000
    42  C5    c    23.325792   10.635101    8.914780    0.000000
    43  C5    c    23.300904   11.991915    8.582278    0.000000
    44  H5    c    24.233160   12.538877    8.455145    0.000000
    45  C5    c    22.085485   12.662129    8.454042    0.000000
    46  H5    c    22.083527   13.728115    8.231422    0.000000
    47  C5    c    20.882258   11.987183    8.657906    0.000000
    48  C5    c    20.904384   10.624569    8.975112    0.000000
    49  H5    c    19.977928   10.084560    9.161204    0.000000
    50  C5    c    22.120297    9.954649    9.103291    0.000000
    51  H5    c    22.134870    8.900564    9.379930    0.000000
    52  N6    c    19.714592   12.699783    8.599284    0.000000
    53  H6    c    19.794660   13.713044    8.513190    0.000000
    54  N5    c    18.470406   12.176458    8.770968    0.000000
    55  C6    c    17.382969   12.896489    8.857543    0.000000
    56  C5    c    16.127883   12.198049    9.067730    0.000000
    57  C5    c    16.057376   10.795667    9.053946    0.000000
    58  H5    c    16.947231   10.193008    8.889453    0.000000
    59  C5    c    14.847477   10.138746    9.265572    0.000000
    60  H5    c    14.813933    9.049313    9.266009    0.000000
    61  C5    c    13.685600   10.869653    9.501733    0.000000
    62  C5    c    13.747114   12.262477    9.511956    0.000000
    63  H5    c    12.837500   12.830795    9.692704    0.000000
    64  C5    c    14.953328   12.929289    9.289312    0.000000
    65  C6    c    14.931388   14.371104    9.286013    0.000000
    66  H5    c    14.020648   14.930244    9.479382    0.000000
    67  C7    c    16.113889   15.024377    9.013385    0.000000
    68  H5    c    16.161180   16.106295    8.980415    0.000000
    69  C8    c    17.410828   14.381268    8.782412    0.000000
    70  O5    c    18.396586   15.062846    8.558463    0.000000
    71  S5    c    12.153333   10.041996    9.785006    0.000000
    72  O5    c    11.751726   10.115887   11.158493    0.000000
    73  O5    c    11.047035   10.651220    9.109187    0.000000
    74  O5    c    12.144545    8.649178    9.453150    0.000000
    75  Na5   c    25.983517   15.214778   10.822805    0.000000
    76  Na5   c     9.903413    8.892134   10.286477    0.000000
    77  Na5   c    14.063278    2.927609   11.325582    0.000000
    78  Na5   c    26.990886    8.372167    9.447569    0.000000
--------------------------------------------------------------------------------


  Final Cartesian derivatives :

--------------------------------------------------------------------------------
   No.  Atomic          x             y             z           Radius
        Label       (eV/Angs)     (eV/Angs)    (eV/Angs)      (eV/Angs)
--------------------------------------------------------------------------------
      1 O5    c       0.031593     -0.021336     -0.043080      0.000000
      2 S5    c      -0.026907      0.017875      0.006566      0.000000
      3 O5    c      -0.009567      0.004078      0.026047      0.000000
      4 O5    c       0.020343     -0.007969      0.001965      0.000000
      5 C5    c       0.004630     -0.000775      0.001036      0.000000
      6 C5    c       0.004750     -0.002709     -0.008055      0.000000
      7 H5    c      -0.012918      0.008282      0.012362      0.000000
      8 C5    c       0.001265     -0.000313     -0.006714      0.000000
      9 H5    c      -0.006037      0.004924      0.008368      0.000000
     10 C5    c      -0.000139      0.001021     -0.000544      0.000000
     11 C5    c      -0.000608      0.000462     -0.004038      0.000000
     12 H5    c      -0.003229     -0.004196      0.007031      0.000000
     13 C5    c      -0.003815     -0.000650     -0.006298      0.000000
     14 H5    c      -0.002761     -0.001816      0.011268      0.000000
     15 N6    c       0.000496     -0.000834     -0.002589      0.000000
     16 H6    c      -0.004593      0.002414      0.002609      0.000000
     17 N5    c       0.000000      0.000000      0.000000      0.000000
     18 C6    c      -0.000655      0.000417      0.000072      0.000000
     19 C5    c      -0.001154     -0.001164      0.000496      0.000000
     20 C5    c      -0.000417      0.000716      0.002873      0.000000
     21 H5    c      -0.006437     -0.005518     -0.002688      0.000000
     22 C5    c      -0.000279      0.000152      0.001464      0.000000
     23 H5    c      -0.003163     -0.008818      0.000491      0.000000
     24 C5    c      -0.002474      0.004012     -0.001319      0.000000
     25 C5    c       0.000861     -0.001352      0.005526      0.000000
     26 H5    c       0.002764     -0.000893     -0.003129      0.000000
     27 C5    c      -0.001517      0.001324      0.000215      0.000000
     28 C6    c      -0.001090     -0.000417      0.000517      0.000000
     29 H5    c       0.003532      0.000498     -0.000431      0.000000
     30 C7    c      -0.001268      0.000724     -0.000192      0.000000
     31 H5    c       0.001761      0.001769     -0.000587      0.000000
     32 C8    c      -0.000753     -0.000788      0.000224      0.000000
     33 O5    c      -0.001968     -0.001653      0.000334      0.000000
     34 S5    c      -0.000356     -0.005829      0.007212      0.000000
     35 O5    c      -0.006331      0.017032     -0.021751      0.000000
     36 O5    c       0.001098      0.007163      0.000909      0.000000
     37 O5    c       0.003869     -0.004925      0.014963      0.000000
     38 O5    c      -0.019196     -0.041973      0.047146      0.000000
     39 S5    c       0.016266      0.033239     -0.019943      0.000000
     40 O5    c       0.003788      0.010359     -0.027153      0.000000
     41 O5    c      -0.007289     -0.019518      0.001887      0.000000
     42 C5    c       0.015296     -0.014936      0.005301      0.000000
     43 C5    c       0.004203      0.027107     -0.021442      0.000000
     44 H5    c       0.004063      0.023138      0.005137      0.000000
     45 C5    c       0.018574      0.011327     -0.012979      0.000000
     46 H5    c       0.001960      0.018291      0.010564      0.000000
     47 C5    c      -0.014748      0.020183     -0.006354      0.000000
     48 C5    c       0.014232     -0.023654     -0.018360      0.000000
     49 H5    c      -0.017933     -0.016928      0.032939      0.000000
     50 C5    c      -0.017541      0.007430     -0.040149      0.000000
     51 H5    c      -0.001465     -0.037042      0.042645      0.000000
     52 N6    c      -0.000787     -0.003991     -0.002870      0.000000
     53 H6    c       0.000291      0.006011      0.004539      0.000000
     54 N5    c      -0.003191     -0.001740      0.000565      0.000000
     55 C6    c      -0.000550     -0.000847      0.000384      0.000000
     56 C5    c      -0.000713      0.000531      0.000174      0.000000
     57 C5    c      -0.002085     -0.000886      0.000294      0.000000
     58 H5    c       0.005043     -0.000071     -0.000844      0.000000
     59 C5    c      -0.003044      0.002997      0.001619      0.000000
     60 H5    c       0.007123     -0.006373     -0.003383      0.000000
     61 C5    c      -0.001839      0.001514      0.000372      0.000000
     62 C5    c      -0.000577     -0.000565      0.001194      0.000000
     63 H5    c       0.000058     -0.003241     -0.003278      0.000000
     64 C5    c      -0.000662     -0.000112     -0.000111      0.000000
     65 C6    c       0.001026      0.000766      0.001172      0.000000
     66 H5    c      -0.002645     -0.002563     -0.000842      0.000000
     67 C7    c       0.000358     -0.000276      0.001208      0.000000
     68 H5    c      -0.002096      0.000066     -0.000945      0.000000
     69 C8    c      -0.000325      0.000441      0.000108      0.000000
     70 O5    c       0.001827     -0.000129     -0.000026      0.000000
     71 S5    c       0.005503      0.002072     -0.009904      0.000000
     72 O5    c      -0.007675      0.005678      0.028227      0.000000
     73 O5    c      -0.009264      0.011938     -0.001526      0.000000
     74 O5    c       0.001881     -0.007649     -0.016226      0.000000
     75 Na5   c       0.000847      0.004813     -0.001098      0.000000
     76 Na5   c      -0.004281      0.002763      0.001650      0.000000
     77 Na5   c       0.002909     -0.004613     -0.006516      0.000000
     78 Na5   c       0.000049     -0.004488      0.007264      0.000000
--------------------------------------------------------------------------------
  Maximum abs         0.031593      0.041973      0.047146      0.000000
--------------------------------------------------------------------------------


  Born effective charge tensors : 

-------------------------------------------------------------------------------
  Atom             x           y             z
-------------------------------------------------------------------------------
   1 O5    x      -0.6818      0.0000      0.0000
           y       0.0000     -0.6818      0.0000
           z       0.0000      0.0000     -0.6818
-------------------------------------------------------------------------------
   2 S5    x       1.1440      0.0000      0.0000
           y       0.0000      1.1440      0.0000
           z       0.0000      0.0000      1.1440
-------------------------------------------------------------------------------
   3 O5    x      -0.6818      0.0000      0.0000
           y       0.0000     -0.6818      0.0000
           z       0.0000      0.0000     -0.6818
-------------------------------------------------------------------------------
   4 O5    x      -0.6818      0.0000      0.0000
           y       0.0000     -0.6818      0.0000
           z       0.0000      0.0000     -0.6818
-------------------------------------------------------------------------------
   5 C5    x      -0.0734      0.0000      0.0000
           y       0.0000     -0.0734      0.0000
           z       0.0000      0.0000     -0.0734
-------------------------------------------------------------------------------
   6 C5    x      -0.1009      0.0000      0.0000
           y       0.0000     -0.1009      0.0000
           z       0.0000      0.0000     -0.1009
-------------------------------------------------------------------------------
   7 H5    x       0.1446      0.0000      0.0000
           y       0.0000      0.1446      0.0000
           z       0.0000      0.0000      0.1446
-------------------------------------------------------------------------------
   8 C5    x      -0.1678      0.0000      0.0000
           y       0.0000     -0.1678      0.0000
           z       0.0000      0.0000     -0.1678
-------------------------------------------------------------------------------
   9 H5    x       0.1169      0.0000      0.0000
           y       0.0000      0.1169      0.0000
           z       0.0000      0.0000      0.1169
-------------------------------------------------------------------------------
  10 C5    x       0.0333      0.0000      0.0000
           y       0.0000      0.0333      0.0000
           z       0.0000      0.0000      0.0333
-------------------------------------------------------------------------------
  11 C5    x      -0.1678      0.0000      0.0000
           y       0.0000     -0.1678      0.0000
           z       0.0000      0.0000     -0.1678
-------------------------------------------------------------------------------
  12 H5    x       0.1169      0.0000      0.0000
           y       0.0000      0.1169      0.0000
           z       0.0000      0.0000      0.1169
-------------------------------------------------------------------------------
  13 C5    x      -0.1009      0.0000      0.0000
           y       0.0000     -0.1009      0.0000
           z       0.0000      0.0000     -0.1009
-------------------------------------------------------------------------------
  14 H5    x       0.1446      0.0000      0.0000
           y       0.0000      0.1446      0.0000
           z       0.0000      0.0000      0.1446
-------------------------------------------------------------------------------
  15 N6    x      -0.0940      0.0000      0.0000
           y       0.0000     -0.0940      0.0000
           z       0.0000      0.0000     -0.0940
-------------------------------------------------------------------------------
  16 H6    x       0.2606      0.0000      0.0000
           y       0.0000      0.2606      0.0000
           z       0.0000      0.0000      0.2606
-------------------------------------------------------------------------------
  17 N5    x      -0.0985      0.0000      0.0000
           y       0.0000     -0.0985      0.0000
           z       0.0000      0.0000     -0.0985
-------------------------------------------------------------------------------
  18 C6    x      -0.0204      0.0000      0.0000
           y       0.0000     -0.0204      0.0000
           z       0.0000      0.0000     -0.0204
-------------------------------------------------------------------------------
  19 C5    x      -0.0023      0.0000      0.0000
           y       0.0000     -0.0023      0.0000
           z       0.0000      0.0000     -0.0023
-------------------------------------------------------------------------------
  20 C5    x      -0.2262      0.0000      0.0000
           y       0.0000     -0.2262      0.0000
           z       0.0000      0.0000     -0.2262
-------------------------------------------------------------------------------
  21 H5    x       0.1394      0.0000      0.0000
           y       0.0000      0.1394      0.0000
           z       0.0000      0.0000      0.1394
-------------------------------------------------------------------------------
  22 C5    x      -0.0513      0.0000      0.0000
           y       0.0000     -0.0513      0.0000
           z       0.0000      0.0000     -0.0513
-------------------------------------------------------------------------------
  23 H5    x       0.1440      0.0000      0.0000
           y       0.0000      0.1440      0.0000
           z       0.0000      0.0000      0.1440
-------------------------------------------------------------------------------
  24 C5    x      -0.1159      0.0000      0.0000
           y       0.0000     -0.1159      0.0000
           z       0.0000      0.0000     -0.1159
-------------------------------------------------------------------------------
  25 C5    x      -0.0935      0.0000      0.0000
           y       0.0000     -0.0935      0.0000
           z       0.0000      0.0000     -0.0935
-------------------------------------------------------------------------------
  26 H5    x       0.1278      0.0000      0.0000
           y       0.0000      0.1278      0.0000
           z       0.0000      0.0000      0.1278
-------------------------------------------------------------------------------
  27 C5    x       0.0347      0.0000      0.0000
           y       0.0000      0.0347      0.0000
           z       0.0000      0.0000      0.0347
-------------------------------------------------------------------------------
  28 C6    x      -0.1161      0.0000      0.0000
           y       0.0000     -0.1161      0.0000
           z       0.0000      0.0000     -0.1161
-------------------------------------------------------------------------------
  29 H5    x       0.1566      0.0000      0.0000
           y       0.0000      0.1566      0.0000
           z       0.0000      0.0000      0.1566
-------------------------------------------------------------------------------
  30 C7    x      -0.3625      0.0000      0.0000
           y       0.0000     -0.3625      0.0000
           z       0.0000      0.0000     -0.3625
-------------------------------------------------------------------------------
  31 H5    x       0.1432      0.0000      0.0000
           y       0.0000      0.1432      0.0000
           z       0.0000      0.0000      0.1432
-------------------------------------------------------------------------------
  32 C8    x       0.6081      0.0000      0.0000
           y       0.0000      0.6081      0.0000
           z       0.0000      0.0000      0.6081
-------------------------------------------------------------------------------
  33 O5    x      -0.5968      0.0000      0.0000
           y       0.0000     -0.5968      0.0000
           z       0.0000      0.0000     -0.5968
-------------------------------------------------------------------------------
  34 S5    x       1.1659      0.0000      0.0000
           y       0.0000      1.1659      0.0000
           z       0.0000      0.0000      1.1659
-------------------------------------------------------------------------------
  35 O5    x      -0.6823      0.0000      0.0000
           y       0.0000     -0.6823      0.0000
           z       0.0000      0.0000     -0.6823
-------------------------------------------------------------------------------
  36 O5    x      -0.6823      0.0000      0.0000
           y       0.0000     -0.6823      0.0000
           z       0.0000      0.0000     -0.6823
-------------------------------------------------------------------------------
  37 O5    x      -0.6823      0.0000      0.0000
           y       0.0000     -0.6823      0.0000
           z       0.0000      0.0000     -0.6823
-------------------------------------------------------------------------------
  38 O5    x      -0.6818      0.0000      0.0000
           y       0.0000     -0.6818      0.0000
           z       0.0000      0.0000     -0.6818
-------------------------------------------------------------------------------
  39 S5    x       1.1440      0.0000      0.0000
           y       0.0000      1.1440      0.0000
           z       0.0000      0.0000      1.1440
-------------------------------------------------------------------------------
  40 O5    x      -0.6818      0.0000      0.0000
           y       0.0000     -0.6818      0.0000
           z       0.0000      0.0000     -0.6818
-------------------------------------------------------------------------------
  41 O5    x      -0.6818      0.0000      0.0000
           y       0.0000     -0.6818      0.0000
           z       0.0000      0.0000     -0.6818
-------------------------------------------------------------------------------
  42 C5    x      -0.0734      0.0000      0.0000
           y       0.0000     -0.0734      0.0000
           z       0.0000      0.0000     -0.0734
-------------------------------------------------------------------------------
  43 C5    x      -0.1009      0.0000      0.0000
           y       0.0000     -0.1009      0.0000
           z       0.0000      0.0000     -0.1009
-------------------------------------------------------------------------------
  44 H5    x       0.1446      0.0000      0.0000
           y       0.0000      0.1446      0.0000
           z       0.0000      0.0000      0.1446
-------------------------------------------------------------------------------
  45 C5    x      -0.1678      0.0000      0.0000
           y       0.0000     -0.1678      0.0000
           z       0.0000      0.0000     -0.1678
-------------------------------------------------------------------------------
  46 H5    x       0.1169      0.0000      0.0000
           y       0.0000      0.1169      0.0000
           z       0.0000      0.0000      0.1169
-------------------------------------------------------------------------------
  47 C5    x       0.0333      0.0000      0.0000
           y       0.0000      0.0333      0.0000
           z       0.0000      0.0000      0.0333
-------------------------------------------------------------------------------
  48 C5    x      -0.1678      0.0000      0.0000
           y       0.0000     -0.1678      0.0000
           z       0.0000      0.0000     -0.1678
-------------------------------------------------------------------------------
  49 H5    x       0.1169      0.0000      0.0000
           y       0.0000      0.1169      0.0000
           z       0.0000      0.0000      0.1169
-------------------------------------------------------------------------------
  50 C5    x      -0.1009      0.0000      0.0000
           y       0.0000     -0.1009      0.0000
           z       0.0000      0.0000     -0.1009
-------------------------------------------------------------------------------
  51 H5    x       0.1446      0.0000      0.0000
           y       0.0000      0.1446      0.0000
           z       0.0000      0.0000      0.1446
-------------------------------------------------------------------------------
  52 N6    x      -0.0940      0.0000      0.0000
           y       0.0000     -0.0940      0.0000
           z       0.0000      0.0000     -0.0940
-------------------------------------------------------------------------------
  53 H6    x       0.2606      0.0000      0.0000
           y       0.0000      0.2606      0.0000
           z       0.0000      0.0000      0.2606
-------------------------------------------------------------------------------
  54 N5    x      -0.0985      0.0000      0.0000
           y       0.0000     -0.0985      0.0000
           z       0.0000      0.0000     -0.0985
-------------------------------------------------------------------------------
  55 C6    x      -0.0204      0.0000      0.0000
           y       0.0000     -0.0204      0.0000
           z       0.0000      0.0000     -0.0204
-------------------------------------------------------------------------------
  56 C5    x      -0.0023      0.0000      0.0000
           y       0.0000     -0.0023      0.0000
           z       0.0000      0.0000     -0.0023
-------------------------------------------------------------------------------
  57 C5    x      -0.2262      0.0000      0.0000
           y       0.0000     -0.2262      0.0000
           z       0.0000      0.0000     -0.2262
-------------------------------------------------------------------------------
  58 H5    x       0.1394      0.0000      0.0000
           y       0.0000      0.1394      0.0000
           z       0.0000      0.0000      0.1394
-------------------------------------------------------------------------------
  59 C5    x      -0.0513      0.0000      0.0000
           y       0.0000     -0.0513      0.0000
           z       0.0000      0.0000     -0.0513
-------------------------------------------------------------------------------
  60 H5    x       0.1440      0.0000      0.0000
           y       0.0000      0.1440      0.0000
           z       0.0000      0.0000      0.1440
-------------------------------------------------------------------------------
  61 C5    x      -0.1159      0.0000      0.0000
           y       0.0000     -0.1159      0.0000
           z       0.0000      0.0000     -0.1159
-------------------------------------------------------------------------------
  62 C5    x      -0.0935      0.0000      0.0000
           y       0.0000     -0.0935      0.0000
           z       0.0000      0.0000     -0.0935
-------------------------------------------------------------------------------
  63 H5    x       0.1278      0.0000      0.0000
           y       0.0000      0.1278      0.0000
           z       0.0000      0.0000      0.1278
-------------------------------------------------------------------------------
  64 C5    x       0.0347      0.0000      0.0000
           y       0.0000      0.0347      0.0000
           z       0.0000      0.0000      0.0347
-------------------------------------------------------------------------------
  65 C6    x      -0.1161      0.0000      0.0000
           y       0.0000     -0.1161      0.0000
           z       0.0000      0.0000     -0.1161
-------------------------------------------------------------------------------
  66 H5    x       0.1566      0.0000      0.0000
           y       0.0000      0.1566      0.0000
           z       0.0000      0.0000      0.1566
-------------------------------------------------------------------------------
  67 C7    x      -0.3625      0.0000      0.0000
           y       0.0000     -0.3625      0.0000
           z       0.0000      0.0000     -0.3625
-------------------------------------------------------------------------------
  68 H5    x       0.1432      0.0000      0.0000
           y       0.0000      0.1432      0.0000
           z       0.0000      0.0000      0.1432
-------------------------------------------------------------------------------
  69 C8    x       0.6081      0.0000      0.0000
           y       0.0000      0.6081      0.0000
           z       0.0000      0.0000      0.6081
-------------------------------------------------------------------------------
  70 O5    x      -0.5968      0.0000      0.0000
           y       0.0000     -0.5968      0.0000
           z       0.0000      0.0000     -0.5968
-------------------------------------------------------------------------------
  71 S5    x       1.1659      0.0000      0.0000
           y       0.0000      1.1659      0.0000
           z       0.0000      0.0000      1.1659
-------------------------------------------------------------------------------
  72 O5    x      -0.6823      0.0000      0.0000
           y       0.0000     -0.6823      0.0000
           z       0.0000      0.0000     -0.6823
-------------------------------------------------------------------------------
  73 O5    x      -0.6823      0.0000      0.0000
           y       0.0000     -0.6823      0.0000
           z       0.0000      0.0000     -0.6823
-------------------------------------------------------------------------------
  74 O5    x      -0.6823      0.0000      0.0000
           y       0.0000     -0.6823      0.0000
           z       0.0000      0.0000     -0.6823
-------------------------------------------------------------------------------
  75 Na5   x       1.0000      0.0000      0.0000
           y       0.0000      1.0000      0.0000
           z       0.0000      0.0000      1.0000
-------------------------------------------------------------------------------
  76 Na5   x       1.0000      0.0000      0.0000
           y       0.0000      1.0000      0.0000
           z       0.0000      0.0000      1.0000
-------------------------------------------------------------------------------
  77 Na5   x       1.0000      0.0000      0.0000
           y       0.0000      1.0000      0.0000
           z       0.0000      0.0000      1.0000
-------------------------------------------------------------------------------
  78 Na5   x       1.0000      0.0000      0.0000
           y       0.0000      1.0000      0.0000
           z       0.0000      0.0000      1.0000
-------------------------------------------------------------------------------




  Moment of inertia tensor (10^-46 x kgm^2): 

-------------------------------------------------------------------------------
                x           y           z           Principal axis system
-------------------------------------------------------------------------------
       x       1864.43     -830.09      181.56         1515.819098
       y       -830.09     3569.72       66.07         3907.005474
       z        181.56       66.07     4822.73         4834.052940
-------------------------------------------------------------------------------
  Centre of mass (Ang) =    18.385985    10.958105    10.521598
-------------------------------------------------------------------------------


  Vibrational Frequency Calculation : 

--------------------------------------------------------------------------------

 Frequencies (cm-1) : 

   -0.00   -0.00   -0.00   -0.00    0.00    0.00    4.73    9.20   12.12
   15.23   22.50   23.08   26.10   28.44   30.40   34.87   37.60   41.09
   45.33   57.61   67.42   71.50   72.94   80.30   80.99   82.30   87.67
   92.82   99.14  102.67  106.00  113.49  120.06  127.81  140.26  140.58
  167.67  170.32  181.38  182.43  199.66  200.12  206.60  209.53  219.53
  224.80  248.19  249.77  288.08  293.38  294.72  295.96  296.50  298.76
  300.68  301.33  321.84  324.45  333.44  333.81  336.61  336.88  339.54
  339.94  340.64  341.91  350.45  351.45  365.17  366.67  369.19  369.56
  388.87  389.72  419.78  420.99  422.04  423.19  438.23  439.17  451.81
  452.10  456.43  456.91  470.63  472.51  498.35  498.95  522.23  523.75
  534.98  535.92  536.73  537.38  544.72  544.97  554.52  554.83  579.06
  579.15  603.81  604.31  645.57  645.64  658.90  659.06  687.85  689.37
  710.38  710.93  730.47  730.76  735.31  737.06  745.80  746.11  791.63
  792.92  803.01  803.22  847.50  852.80  867.60  867.78  897.92  901.10
  909.41  909.77  914.91  915.81  944.69  944.76  985.70  985.84 1008.54
 1008.61 1018.93 1019.10 1027.30 1027.37 1042.36 1042.59 1087.04 1090.02
 1109.76 1111.59 1115.73 1116.21 1128.74 1128.94 1147.92 1148.64 1150.10
 1150.73 1162.69 1163.22 1169.79 1170.51 1175.46 1175.57 1190.71 1191.56
 1209.41 1210.07 1219.51 1219.61 1235.03 1235.79 1281.34 1281.87 1291.83
 1292.25 1313.47 1313.73 1346.05 1346.52 1388.98 1389.75 1400.90 1400.96
 1484.33 1484.92 1499.57 1499.66 1532.57 1532.90 1547.68 1548.02 1621.08
 1621.49 1659.44 1659.88 1697.60 1697.82 1712.68 1712.95 1745.78 1746.25
 1761.52 1761.91 1783.67 1783.73 1797.01 1797.26 1812.66 1812.80 1827.45
 1827.85 1841.51 1841.71 1898.95 1899.11 1909.52 1909.61 2966.53 2966.61
 2968.19 2968.60 2968.85 2969.18 2969.48 2969.51 2970.42 2970.52 2970.88
 2971.26 2972.38 2972.42 2980.79 2980.93 2983.06 2983.83 3179.80 3180.21


--------------------------------------------------------------------------------

  No imaginary modes present - current symmetry is correct

  Vibrational properties (for cluster):  Temperature  =       0.000 K
--------------------------------------------------------------------------------
  Zero point energy             =        13.981912 eV
--------------------------------------------------------------------------------

  Vibrational density of states : 

--------------------------------------------------------------------------------
 Frequency     Density of States                                                
--------------------------------------------------------------------------------
    0.00000 |**************************************************            0.065
   50.00000 |*********************************                             0.043
  100.00000 |***********************                                       0.030
  150.00000 |****************                                              0.022
  200.00000 |***********************                                       0.030
  250.00000 |********************                                          0.026
  300.00000 |****************************************                      0.052
  350.00000 |**************************                                    0.035
  400.00000 |********************                                          0.026
  450.00000 |**************************                                    0.035
  500.00000 |**************************                                    0.035
  550.00000 |*************                                                 0.017
  600.00000 |*************                                                 0.017
  650.00000 |*************                                                 0.017
  700.00000 |**************************                                    0.035
  750.00000 |******                                                        0.009
  800.00000 |**********                                                    0.013
  850.00000 |*************                                                 0.017
  900.00000 |***********************                                       0.030
  950.00000 |******                                                        0.009
 1000.00000 |**************************                                    0.035
 1050.00000 |******                                                        0.009
 1100.00000 |**************************                                    0.035
 1150.00000 |*********************************                             0.043
 1200.00000 |********************                                          0.026
 1250.00000 |*************                                                 0.017
 1300.00000 |*************                                                 0.017
 1350.00000 |******                                                        0.009
 1400.00000 |******                                                        0.009
 1450.00000 |*************                                                 0.017
 1500.00000 |*************                                                 0.017
 1550.00000 |                                                              0.000
 1600.00000 |******                                                        0.009
 1650.00000 |*************                                                 0.017
 1700.00000 |*************                                                 0.017
 1750.00000 |********************                                          0.026
 1800.00000 |********************                                          0.026
 1850.00000 |******                                                        0.009
 1900.00000 |******                                                        0.009
 1950.00000 |                                                              0.000
 2000.00000 |                                                              0.000
 2050.00000 |                                                              0.000
 2100.00000 |                                                              0.000
 2150.00000 |                                                              0.000
 2200.00000 |                                                              0.000
 2250.00000 |                                                              0.000
 2300.00000 |                                                              0.000
 2350.00000 |                                                              0.000
 2400.00000 |                                                              0.000
 2450.00000 |                                                              0.000
 2500.00000 |                                                              0.000
 2550.00000 |                                                              0.000
 2600.00000 |                                                              0.000
 2650.00000 |                                                              0.000
 2700.00000 |                                                              0.000
 2750.00000 |                                                              0.000
 2800.00000 |                                                              0.000
 2850.00000 |                                                              0.000
 2900.00000 |                                                              0.000
 2950.00000 |************************************************************  0.078
 3000.00000 |                                                              0.000
 3050.00000 |                                                              0.000
 3100.00000 |                                                              0.000
 3150.00000 |******                                                        0.009
--------------------------------------------------------------------------------



  Time to end of optimisation =       1.0620 seconds


  Peak dynamic memory used =       1.99 MB 


  Timing analysis for GULP :

--------------------------------------------------------------------------------
  Task / Subroutine                                          Time (Seconds)
--------------------------------------------------------------------------------
  Calculation of real space energy and derivatives                0.1463
  Calculation of three-body energy and derivatives                0.0076
  Calculation of four-body energy and derivatives                 0.0212
  Calculation of molecules and connectivity                       0.0003
  Calculation of phonons                                          0.1280
  Calculation of scattering                                       0.0000
  Calculation of matrix inversion                                 0.0051
  Disk read/write operations to scratch files                     0.0002
--------------------------------------------------------------------------------
  Total CPU time                                                  1.0620
--------------------------------------------------------------------------------


  Dump file written as ssy_dimer_c2prime_p.res                                 


  Job Finished at 15:39.12 28th March      2014                               

