********************************************************************************
*                       GENERAL UTILITY LATTICE PROGRAM                        *
*                                 Julian Gale                                  *
*                      Nanochemistry Research Institute                        *
*                           Department of Chemistry                            *
*                    Curtin University, Western Australia                      *
********************************************************************************
* Version = 4.2.0 * Last modified =  16th January 2014                         *
********************************************************************************
*  optimise     - perform optimisation run                                     *
*  conp         - constant pressure calculation                                *
*  phonon       - calculate phonons for final geometry                         *
*  eckart       - remove rotation/translation from vibrations of molecules     *
*  lower_symtry - reduce symmetry according to imaginary phonon modes          *
*  nosymmetry   - turn off symmetry after initial structure generation         *
*  molmec       - molecule option activated, Coulomb subtract 1-2/1-3 terms    *
*  rfo          - optimisation step to be determined by RFO method             *
********************************************************************************

  Job Started  at 14:52.51 28th March      2014                               

  Number of CPUs =     1


  Total number of configurations input =   1

********************************************************************************
*  Input for Configuration =   1                                               *
********************************************************************************

  Formula = O14S4C32H20N4Na4                                            

  Number of irreducible atoms/shells =      78


  Total number atoms/shells =      78

  Dimensionality = 0               :  Cluster


  Charge on cluster =  -0.000000


  Initial cluster dipoles : x =     -2.162148 e.Angs
                            y =     -3.696089 e.Angs
                            z =      0.684663 e.Angs

  Temperature of configuration =  0.000     K 

  Symmetry number =      1

  Cartesian coordinates of cluster :

--------------------------------------------------------------------------------
   No.  Atomic       x           y          z         Charge      Occupancy
        Label      (Angs)      (Angs)     (Angs)        (e)         (Frac)  
--------------------------------------------------------------------------------
      1 O5    c     21.0854 *    4.5944 *   12.6703 *  -0.68180    1.000000    
      2 S5    c     21.6728 *    5.2725 *   13.7572 *   1.14400    1.000000    
      3 O5    c     23.1030 *    4.9910 *   13.7183 *  -0.68180    1.000000    
      4 O5    c     21.1859 *    4.5469 *   14.8914 *  -0.68180    1.000000    
      5 C5    c     21.2479 *    6.9857 *   13.8400 *  -0.07340    1.000000    
      6 C5    c     22.2230 *    7.9827 *   13.9052 *  -0.10090    1.000000    
      7 H5    c     23.3075 *    7.7250 *   13.9332 *   0.14460    1.000000    
      8 C5    c     21.8535 *    9.3261 *   13.9437 *  -0.16780    1.000000    
      9 H5    c     22.6499 *   10.1012 *   13.9921 *   0.11690    1.000000    
     10 C5    c     20.5079 *    9.6905 *   13.9123 *   0.03330    1.000000    
     11 C5    c     19.5295 *    8.6936 *   13.8544 *  -0.16780    1.000000    
     12 H5    c     18.5015 *    8.9536 *   13.8297 *   0.11690    1.000000    
     13 C5    c     19.8996 *    7.3495 *   13.8185 *  -0.10090    1.000000    
     14 H5    c     19.1697 *    6.5754 *   13.7761 *   0.14460    1.000000    
     15 N6    c     20.1863 *   11.0221 *   13.9101 *  -0.09400    1.000000    
     16 H6    c     20.9785 *   11.6864 *   13.8209 *   0.26060    1.000000    
     17 N5    c     18.9233     11.5274     13.9662    -0.09850    1.000000    
     18 C6    c     18.6459 *   12.8026 *   13.8905 *  -0.02040    1.000000    
     19 C5    c     17.2471 *   13.1923 *   13.9222 *  -0.00230    1.000000    
     20 C5    c     16.2234 *   12.2466 *   14.0981 *  -0.22620    1.000000    
     21 H5    c     16.4728 *   11.1820 *   14.2209 *   0.13940    1.000000    
     22 C5    c     14.8841 *   12.6309 *   14.0856 *  -0.05130    1.000000    
     23 H5    c     14.1186 *   11.8645 *   14.1955 *   0.14400    1.000000    
     24 C5    c     14.5426 *   13.9688 *   13.9022 *  -0.11590    1.000000    
     25 C5    c     15.5534 *   14.9155 *   13.7446 *  -0.09350    1.000000    
     26 H5    c     15.2886 *   15.9466 *   13.6013 *   0.12780    1.000000    
     27 C5    c     16.8969 *   14.5389 *   13.7538 *   0.03470    1.000000    
     28 C6    c     17.8811 *   15.5766 *   13.5722 *  -0.11610    1.000000    
     29 H5    c     17.6046 *   16.6105 *   13.4294 *   0.15660    1.000000    
     30 C7    c     19.2065 *   15.2028 *   13.5827 *  -0.36250    1.000000    
     31 H5    c     20.0002 *   15.9360 *   13.4533 *   0.14320    1.000000    
     32 C8    c     19.7059 *   13.8342 *   13.7352 *   0.60810    1.000000    
     33 O5    c     20.9034 *   13.6231 *   13.7201 *  -0.59680    1.000000    
     34 S5    c     12.8425 *   14.4774 *   13.8291 *   1.16590    1.000000    
     35 O5    c     12.4290 *   14.6749 *   12.4784 *  -0.68230    1.000000    
     36 O5    c     12.5955 *   15.7393 *   14.4348 *  -0.68230    1.000000    
     37 O5    c     11.9128 *   13.5289 *   14.3820 *  -0.68230    1.000000    
     38 O5    c     25.0739 *    9.1978 *   12.6501 *  -0.68180    1.000000    
     39 S5    c     24.8386 *    9.3777 *   11.2515 *   1.14400    1.000000    
     40 O5    c     26.0205 *   10.0025 *   10.7829 *  -0.68180    1.000000    
     41 O5    c     24.7975 *    8.0345 *   10.7164 *  -0.68180    1.000000    
     42 C5    c     23.3427 *   10.2995 *   10.9829 *  -0.07340    1.000000    
     43 C5    c     23.3644 *   11.6921 *   11.0825 *  -0.10090    1.000000    
     44 H5    c     24.2858 *   12.1865 *   11.2969 *   0.14460    1.000000    
     45 C5    c     22.1924 *   12.4280 *   10.9136 *  -0.16780    1.000000    
     46 H5    c     22.2087 *   13.5022 *   11.0106 *   0.11690    1.000000    
     47 C5    c     20.9856 *   11.7803 *   10.6536 *   0.03330    1.000000    
     48 C5    c     20.9642 *   10.3865 *   10.5462 *  -0.16780    1.000000    
     49 H5    c     20.0075 *    9.8580 *   10.3621 *   0.11690    1.000000    
     50 C5    c     22.1373 *    9.6515 *   10.7062 *  -0.10090    1.000000    
     51 H5    c     22.0806 *    8.5554 *   10.6499 *   0.14460    1.000000    
     52 N6    c     19.8482 *   12.5299 *   10.5290 *  -0.09400    1.000000    
     53 H6    c     19.9422 *   13.5413 *   10.4899 *   0.26060    1.000000    
     54 N5    c     18.5873 *   12.0212 *   10.5732 *  -0.09850    1.000000    
     55 C6    c     17.4977 *   12.7421 *   10.5053 *  -0.02040    1.000000    
     56 C5    c     16.2300 *   12.0601 *   10.6889 *  -0.00230    1.000000    
     57 C5    c     16.1727 *   10.6838 *   10.9630 *  -0.22620    1.000000    
     58 H5    c     17.0552 *   10.0965 *   11.0230 *   0.13940    1.000000    
     59 C5    c     14.9526 *   10.0522 *   11.1870 *  -0.05130    1.000000    
     60 H5    c     14.8919 *    9.0033 *   11.4003 *   0.14400    1.000000    
     61 C5    c     13.7666 *   10.7790 *   11.1362 *  -0.11590    1.000000    
     62 C5    c     13.8137 *   12.1429 *   10.8495 *  -0.09350    1.000000    
     63 H5    c     12.8731 *   12.7374 *   10.8060 *   0.12780    1.000000    
     64 C5    c     15.0334 *   12.7876 *   10.6330 *   0.03470    1.000000    
     65 C6    c     15.0061 *   14.2083 *   10.3858 *  -0.11610    1.000000    
     66 H5    c     14.0676 *   14.7858 *   10.3545 *   0.15660    1.000000    
     67 C7    c     16.2156 *   14.8502 *   10.2267 *  -0.36250    1.000000    
     68 H5    c     16.2646 *   15.9319 *   10.0597 *   0.14320    1.000000    
     69 C8    c     17.5339 *   14.2097 *   10.2759 *   0.60810    1.000000    
     70 O5    c     18.5425 *   14.8773 *   10.1233 *  -0.59680    1.000000    
     71 S5    c     12.2578 *    9.9517 *   11.4863 *   1.16590    1.000000    
     72 O5    c     12.2011 *    9.4744 *   12.8155 *  -0.68230    1.000000    
     73 O5    c     11.0442 *   10.7389 *   11.2818 *  -0.68230    1.000000    
     74 O5    c     12.0887 *    8.7618 *   10.7093 *  -0.68230    1.000000    
     75 Na5   c     22.1734 *    2.7473 *   13.6809 *   1.00000    1.000000    
     76 Na5   c     10.1265 *    8.6207 *   12.0635 *   1.00000    1.000000    
     77 Na5   c     10.3997 *   15.2370 *   13.5873 *   1.00000    1.000000    
     78 Na5   c     26.9537 *    8.0237 *   11.7930 *   1.00000    1.000000    
--------------------------------------------------------------------------------



  Molecule list generated from bond lengths :

  Total number of molecules =     2

--------------------------------------------------------------------------------
Molecule No./:  Atoms
Periodicity  :  
--------------------------------------------------------------------------------
     1  0    : O5   c     1 S5   c     2 O5   c     3 O5   c     4 C5   c     5
             : C5   c     6 H5   c     7 C5   c     8 H5   c     9 C5   c    10
             : C5   c    11 H5   c    12 C5   c    13 H5   c    14 N6   c    15
             : H6   c    16 N5   c    17 C6   c    18 C5   c    19 C5   c    20
             : H5   c    21 C5   c    22 H5   c    23 C5   c    24 C5   c    25
             : H5   c    26 C5   c    27 C6   c    28 H5   c    29 C7   c    30
             : H5   c    31 C8   c    32 O5   c    33 S5   c    34 O5   c    35
             : O5   c    36 O5   c    37
     2  0    : O5   c    38 S5   c    39 O5   c    40 O5   c    41 C5   c    42
             : C5   c    43 H5   c    44 C5   c    45 H5   c    46 C5   c    47
             : C5   c    48 H5   c    49 C5   c    50 H5   c    51 N6   c    52
             : H6   c    53 N5   c    54 C6   c    55 C5   c    56 C5   c    57
             : H5   c    58 C5   c    59 H5   c    60 C5   c    61 C5   c    62
             : H5   c    63 C5   c    64 C6   c    65 H5   c    66 C7   c    67
             : H5   c    68 C8   c    69 O5   c    70 S5   c    71 O5   c    72
             : O5   c    73 O5   c    74
--------------------------------------------------------------------------------


********************************************************************************
*  General input information                                                   *
********************************************************************************

  Species output for all configurations : 

--------------------------------------------------------------------------------
  Species    Type    Atomic    Atomic    Charge       Radii (Angs)     Library
                     Number     Mass       (e)     Cova   Ionic  VDW   Symbol
--------------------------------------------------------------------------------
    O5       Core        8      16.00  -0.681800   0.730  0.000  1.360          
    S5       Core       16      32.07   1.144000   1.020  0.000  1.700          
    C5       Core        6      12.01  -0.073400   0.770  0.000  1.530          
    H5       Core        1       1.01   0.144600   0.370  0.000  1.080          
    N6       Core        7      14.01  -0.094000   0.750  0.000  1.480          
    H6       Core        1       1.01   0.260600   0.370  0.000  1.080          
    N5       Core        7      14.01  -0.098500   0.750  0.000  1.480          
    C6       Core        6      12.01  -0.020400   0.770  0.000  1.530          
    C7       Core        6      12.01  -0.362500   0.770  0.000  1.530          
    C8       Core        6      12.01   0.608100   0.770  0.000  1.530          
    Na5      Core       11      22.99   1.000000   0.010  0.000  2.300          
--------------------------------------------------------------------------------


  Accuracy factor for short range sums = 12.000

  Time limit = Infinity

  Maximum range for interatomic potentials =        10.000000 Angstroms

  Taper potentials to zero over  10.0000 Angstroms using M-D-F

  General interatomic potentials :

--------------------------------------------------------------------------------
Atom  Types   Potential         A         B         C         D     Cutoffs(Ang)
  1     2                                                            Min    Max 
--------------------------------------------------------------------------------
C8   c C8   c Lenn/es 12  6 0.373E-02  3.82      0.00      0.00     3Bond 99.000
C8   c O5   c Lenn/es 12  6 0.583E-02  3.57      0.00      0.00     3Bond 99.000
O5   c O5   c Lenn/es 12  6 0.911E-02  3.32      0.00      0.00     3Bond 99.000
C7   c C8   c Lenn/es 12  6 0.373E-02  3.82      0.00      0.00     3Bond 99.000
C7   c O5   c Lenn/es 12  6 0.583E-02  3.57      0.00      0.00     3Bond 99.000
C7   c C7   c Lenn/es 12  6 0.373E-02  3.82      0.00      0.00     3Bond 99.000
C6   c C8   c Lenn/es 12  6 0.373E-02  3.82      0.00      0.00     3Bond 99.000
C6   c O5   c Lenn/es 12  6 0.583E-02  3.57      0.00      0.00     3Bond 99.000
C6   c C7   c Lenn/es 12  6 0.373E-02  3.82      0.00      0.00     3Bond 99.000
C6   c C6   c Lenn/es 12  6 0.373E-02  3.82      0.00      0.00     3Bond 99.000
C8   c N5   c Lenn/es 12  6 0.524E-02  3.73      0.00      0.00     3Bond 99.000
N5   c O5   c Lenn/es 12  6 0.819E-02  3.49      0.00      0.00     3Bond 99.000
C7   c N5   c Lenn/es 12  6 0.524E-02  3.73      0.00      0.00     3Bond 99.000
C6   c N5   c Lenn/es 12  6 0.524E-02  3.73      0.00      0.00     3Bond 99.000
N5   c N5   c Lenn/es 12  6 0.737E-02  3.65      0.00      0.00     3Bond 99.000
C8   c N6   c Lenn/es 12  6 0.524E-02  3.73      0.00      0.00     3Bond 99.000
N6   c O5   c Lenn/es 12  6 0.819E-02  3.49      0.00      0.00     3Bond 99.000
C7   c N6   c Lenn/es 12  6 0.524E-02  3.73      0.00      0.00     3Bond 99.000
C6   c N6   c Lenn/es 12  6 0.524E-02  3.73      0.00      0.00     3Bond 99.000
N5   c N6   c Lenn/es 12  6 0.737E-02  3.65      0.00      0.00     3Bond 99.000
N6   c N6   c Lenn/es 12  6 0.737E-02  3.65      0.00      0.00     3Bond 99.000
C5   c C8   c Lenn/es 12  6 0.373E-02  3.82      0.00      0.00     3Bond 99.000
C5   c O5   c Lenn/es 12  6 0.583E-02  3.57      0.00      0.00     3Bond 99.000
C5   c C7   c Lenn/es 12  6 0.373E-02  3.82      0.00      0.00     3Bond 99.000
C5   c C6   c Lenn/es 12  6 0.373E-02  3.82      0.00      0.00     3Bond 99.000
C5   c N5   c Lenn/es 12  6 0.524E-02  3.73      0.00      0.00     3Bond 99.000
C5   c N6   c Lenn/es 12  6 0.524E-02  3.73      0.00      0.00     3Bond 99.000
C5   c C5   c Lenn/es 12  6 0.373E-02  3.82      0.00      0.00     3Bond 99.000
H6   c C8   c Lenn/es 12  6 0.159E-02  2.51      0.00      0.00     3Bond 99.000
H6   c O5   c Lenn/es 12  6 0.249E-02  2.26      0.00      0.00     3Bond 99.000
H6   c C7   c Lenn/es 12  6 0.159E-02  2.51      0.00      0.00     3Bond 99.000
H6   c C6   c Lenn/es 12  6 0.159E-02  2.51      0.00      0.00     3Bond 99.000
H6   c N5   c Lenn/es 12  6 0.224E-02  2.42      0.00      0.00     3Bond 99.000
H6   c N6   c Lenn/es 12  6 0.224E-02  2.42      0.00      0.00     3Bond 99.000
H6   c C5   c Lenn/es 12  6 0.159E-02  2.51      0.00      0.00     3Bond 99.000
H6   c H6   c Lenn/es 12  6 0.681E-03  1.20      0.00      0.00     3Bond 99.000
H5   c C8   c Lenn/es 12  6 0.156E-02  3.37      0.00      0.00     3Bond 99.000
H5   c O5   c Lenn/es 12  6 0.243E-02  3.12      0.00      0.00     3Bond 99.000
H5   c C7   c Lenn/es 12  6 0.156E-02  3.37      0.00      0.00     3Bond 99.000
H5   c C6   c Lenn/es 12  6 0.156E-02  3.37      0.00      0.00     3Bond 99.000
H5   c N5   c Lenn/es 12  6 0.219E-02  3.28      0.00      0.00     3Bond 99.000
H5   c N6   c Lenn/es 12  6 0.219E-02  3.28      0.00      0.00     3Bond 99.000
H5   c C5   c Lenn/es 12  6 0.156E-02  3.37      0.00      0.00     3Bond 99.000
H5   c H6   c Lenn/es 12  6 0.665E-03  2.06      0.00      0.00     3Bond 99.000
H5   c H5   c Lenn/es 12  6 0.650E-03  2.92      0.00      0.00     3Bond 99.000
C8   c S5   c Lenn/es 12  6 0.636E-02  3.91      0.00      0.00     3Bond 99.000
O5   c S5   c Lenn/es 12  6 0.994E-02  3.66      0.00      0.00     3Bond 99.000
C7   c S5   c Lenn/es 12  6 0.636E-02  3.91      0.00      0.00     3Bond 99.000
C6   c S5   c Lenn/es 12  6 0.636E-02  3.91      0.00      0.00     3Bond 99.000
N5   c S5   c Lenn/es 12  6 0.894E-02  3.82      0.00      0.00     3Bond 99.000
N6   c S5   c Lenn/es 12  6 0.894E-02  3.82      0.00      0.00     3Bond 99.000
C5   c S5   c Lenn/es 12  6 0.636E-02  3.91      0.00      0.00     3Bond 99.000
H6   c S5   c Lenn/es 12  6 0.272E-02  2.60      0.00      0.00     3Bond 99.000
H5   c S5   c Lenn/es 12  6 0.266E-02  3.46      0.00      0.00     3Bond 99.000
S5   c S5   c Lenn/es 12  6 0.108E-01  4.00      0.00      0.00     3Bond 99.000
C8   c Na5  c Lenn/es 12  6 0.669E-03  3.78      0.00      0.00     3Bond 99.000
O5   c Na5  c Lenn/es 12  6 0.105E-02  3.53      0.00      0.00     3Bond 99.000
C7   c Na5  c Lenn/es 12  6 0.669E-03  3.78      0.00      0.00     3Bond 99.000
C6   c Na5  c Lenn/es 12  6 0.669E-03  3.78      0.00      0.00     3Bond 99.000
N5   c Na5  c Lenn/es 12  6 0.941E-03  3.69      0.00      0.00     3Bond 99.000
N6   c Na5  c Lenn/es 12  6 0.941E-03  3.69      0.00      0.00     3Bond 99.000
C5   c Na5  c Lenn/es 12  6 0.669E-03  3.78      0.00      0.00     3Bond 99.000
H6   c Na5  c Lenn/es 12  6 0.286E-03  2.47      0.00      0.00     3Bond 99.000
H5   c Na5  c Lenn/es 12  6 0.280E-03  3.33      0.00      0.00     3Bond 99.000
Na5  c S5   c Lenn/es 12  6 0.114E-02  3.87      0.00      0.00     3Bond 99.000
Na5  c Na5  c Lenn/es 12  6 0.120E-03  3.74      0.00      0.00     3Bond 99.000
--------------------------------------------------------------------------------

  Intramolecular potentials :

--------------------------------------------------------------------------------
Atom  Types   Potential         A         B         C         D     Cutoffs(Ang)
  1     2                                                            Min    Max 
--------------------------------------------------------------------------------
X    c X    c Coulomb        0.00      0.00      0.00      1.00     1-4only 7.00
H6   c N6   c Harmonic       34.8      1.01      0.00      0.00     0.000 1 Bond
H5   c C5   c Harmonic       29.9      1.09      0.00      0.00     0.000 1 Bond
C5   c S5   c Harmonic       22.9      1.76      0.00      0.00     0.000 1 Bond
C8   c O5   c Harmonic       56.2      1.21      0.00      0.00     0.000 1 Bond
C6   c C7   c Harmonic       43.7      1.37      0.00      0.00     0.000 1 Bond
C6   c N5   c Harmonic       49.7      1.29      0.00      0.00     0.000 1 Bond
H5   c C6   c Harmonic       30.1      1.08      0.00      0.00     0.000 1 Bond
O5   c S5   c Harmonic       46.9      1.44      0.00      0.00     0.000 1 Bond
C7   c C8   c Harmonic       32.7      1.46      0.00      0.00     0.000 1 Bond
C6   c C8   c Harmonic       32.7      1.46      0.00      0.00     0.000 1 Bond
C5   c C6   c Harmonic       35.7      1.43      0.00      0.00     0.000 1 Bond
C5   c C5   c Harmonic       41.5      1.39      0.00      0.00     0.000 1 Bond
H5   c C7   c Harmonic       30.1      1.08      0.00      0.00     0.000 1 Bond
N5   c N6   c Harmonic       45.5      1.36      0.00      0.00     0.000 1 Bond
C5   c N6   c Harmonic       38.9      1.36      0.00      0.00     0.000 1 Bond
--------------------------------------------------------------------------------

  Intermolecular potentials :

--------------------------------------------------------------------------------
Atom  Types   Potential         A         B         C         D     Cutoffs(Ang)
  1     2                                                            Min    Max 
--------------------------------------------------------------------------------
O5   c Na5  c Harmonic       2.00      2.40      0.00      0.00     0.000  5.000
--------------------------------------------------------------------------------

  Intramolecular Three-body potentials :

  Harmonic form:

--------------------------------------------------------------------------------
Atom    Atom    Atom           Force Constants            Theta     Cutoffs  
  1       2       3     (eVrad**-2/eVrad**-3/eVrad**-4)   (deg)  1-2  1-3  2-3
--------------------------------------------------------------------------------
N6    c H6    c C5    c  4.257        0.0000    0.0000   116.130     Bonded
C6    c C5    c C7    c  5.917        0.0000    0.0000   113.510     Bonded
C6    c C5    c N5    c  5.942        0.0000    0.0000   120.720     Bonded
C8    c C6    c C7    c  5.701        0.0000    0.0000   112.790     Bonded
S5    c C5    c O5    c  3.710        0.0000    0.0000   104.070     Bonded
C6    c H5    c C5    c  4.024        0.0000    0.0000   124.040     Bonded
C8    c C7    c O5    c  5.977        0.0000    0.0000   125.710     Bonded
C5    c C5    c C6    c  5.723        0.0000    0.0000   120.100     Bonded
C5    c C5    c N6    c  6.014        0.0000    0.0000   120.130     Bonded
C5    c C5    c C5    c  5.826        0.0000    0.0000   119.970     Bonded
N6    c H6    c N5    c  4.343        0.0000    0.0000   118.220     Bonded
C6    c C8    c N5    c  5.944        0.0000    0.0000   120.890     Bonded
C7    c H5    c C6    c  4.193        0.0000    0.0000   122.890     Bonded
C5    c H5    c C5    c  4.203        0.0000    0.0000   120.010     Bonded
C7    c C6    c C8    c  5.662        0.0000    0.0000   121.320     Bonded
N5    c C6    c N6    c  6.101        0.0000    0.0000   118.470     Bonded
S5    c O5    c O5    c  4.047        0.0000    0.0000   119.730     Bonded
C6    c H5    c C7    c  4.193        0.0000    0.0000   122.890     Bonded
C5    c C5    c S5    c  6.825        0.0000    0.0000   120.540     Bonded
C7    c H5    c C8    c  4.075        0.0000    0.0000   117.020     Bonded
C6    c C5    c C8    c  5.512        0.0000    0.0000   122.950     Bonded
C8    c C6    c O5    c  5.977        0.0000    0.0000   125.710     Bonded
N6    c C5    c N5    c  5.882        0.0000    0.0000   121.110     Bonded
--------------------------------------------------------------------------------

  Intramolecular Four-body potentials :

  Standard form:

--------------------------------------------------------------------------------
         Atom Types             Force cst Sign Phase Phi0         Cutoffs
   1       2       3       4       (eV)                     1-2  2-3  3-4  4-1
--------------------------------------------------------------------------------
H5    c C7    c C8    c O5    c  0.1247     +   2   180.00  Bonded              
H5    c C7    c C6    c H5    c  0.1735     +   2   180.00  Bonded              
C6    c C7    c C8    c O5    c  0.1247     +   2   180.00  Bonded              
H5    c C5    c C5    c H5    c  0.1572     +   2   180.00  Bonded              
C5    c C6    c N5    c N6    c  0.1800     +   2   180.00  Bonded              
C5    c C5    c C5    c N6    c  0.1572     +   2   180.00  Bonded              
C5    c C5    c S5    c O5    c  0.5637E-01 +   2   180.00  Bonded              
C6    c N5    c N6    c H6    c  0.1214     +   2   180.00  Bonded              
C8    c C7    c C6    c C5    c  0.1735     +   2   180.00  Bonded              
N5    c C6    c C8    c O5    c  0.1247     +   2   180.00  Bonded              
C5    c C5    c C5    c H5    c  0.1572     +   2   180.00  Bonded              
C5    c C6    c C8    c O5    c  0.1247     +   2   180.00  Bonded              
C6    c C7    c C8    c C6    c  0.1247     +   2   180.00  Bonded              
C8    c C6    c N5    c N6    c  0.1800     +   2   180.00  Bonded              
C5    c C5    c C5    c S5    c  0.1572     +   2   180.00  Bonded              
C8    c C7    c C6    c H5    c  0.1735     +   2   180.00  Bonded              
H5    c C5    c C5    c N6    c  0.1572     +   2   180.00  Bonded              
C6    c C5    c C5    c C6    c  0.1572     +   2   180.00  Bonded              
C7    c C8    c C6    c N5    c  0.1247     +   2   180.00  Bonded              
C5    c C5    c N6    c N5    c  0.4553E-01 +   2   180.00  Bonded              
C6    c C8    c C7    c H5    c  0.1247     +   2   180.00  Bonded              
C5    c C6    c C8    c C7    c  0.1247     +   2   180.00  Bonded              
C5    c C5    c C5    c C6    c  0.1572     +   2   180.00  Bonded              
C5    c N6    c N5    c C6    c  0.1214     +   2   180.00  Bonded              
C5    c C5    c C5    c C5    c  0.1572     +   2   180.00  Bonded              
C5    c C6    c C7    c H5    c  0.1735     +   2   180.00  Bonded              
C5    c C5    c N6    c H6    c  0.4553E-01 +   2   180.00  Bonded              
H5    c C5    c C5    c S5    c  0.1572     +   2   180.00  Bonded              
C5    c C5    c C6    c C7    c  0.3036E-01 +   2   180.00  Bonded              
C5    c C5    c C6    c H5    c  0.3036E-01 +   2   180.00  Bonded              
C6    c C5    c C5    c H5    c  0.1572     +   2   180.00  Bonded              
C8    c C6    c C5    c C5    c  0.3036E-01 +   2   180.00  Bonded              
C5    c C5    c C6    c N5    c  0.3036E-01 +   2   180.00  Bonded              
C5    c C6    c C7    c H5    c  0.4770E-01 +   2   180.00  Improp              
C6    c C8    c C7    c O5    c  0.4553     +   2   180.00  Improp              
C5    c N6    c H6    c N5    c  0.4770E-01 +   2   180.00  Improp              
C8    c C6    c C5    c N5    c  0.4770E-01 +   2   180.00  Improp              
C5    c C5    c C5    c N6    c  0.2385E-01 +   2   180.00  Improp              
C8    c C7    c C6    c H5    c  0.4770E-01 +   2   180.00  Improp              
C5    c C5    c C5    c H5    c  0.2385E-01 +   2   180.00  Improp              
C5    c C5    c C5    c S5    c  0.2385E-01 +   2   180.00  Improp              
C5    c C5    c C5    c C6    c  0.2385E-01 +   2   180.00  Improp              
--------------------------------------------------------------------------------

********************************************************************************
*  Output for configuration   1                                                *
********************************************************************************


  Components of energy : 

--------------------------------------------------------------------------------
  Interatomic potentials     =           1.95766741 eV
  Three-body potentials      =           2.51286930 eV
  Four-body potentials       =           1.33661486 eV
  Improper torsions          =           0.00269441 eV
  Out of plane potentials    =           0.00000000 eV
  Monopole - monopole (real) =         -22.25946326 eV
--------------------------------------------------------------------------------
  Total lattice energy       =         -16.44961728 eV
--------------------------------------------------------------------------------
  Total lattice energy       =           -1587.1366 kJ/mol
--------------------------------------------------------------------------------


  Number of variables =      231

  Maximum number of calculations  =          1000
  Maximum Hessian update interval =            10
  Maximum step size               =   1.000000000
  Maximum parameter tolerance     =   0.000010000
  Maximum function  tolerance     =   0.000010000
  Maximum gradient  tolerance     =   0.001000000
  Maximum gradient  component     =   0.010000000

  RFO method to be used

  DFP hessian update to be used

  Minimiser to switch to RFO
  When gradient norm is less than     0.000500

  Start of cluster optimisation :

  Cycle:      0 Energy:       -16.449617  Gnorm:      0.025043  CPU:    0.025
  ** Hessian has wrong structure
  ** Imaginary eigenvectors =   6
  Cycle:      1 Energy:       -16.662798  Gnorm:      0.000597  CPU:    0.169
  ** Hessian has required structure
  Cycle:      2 Energy:       -16.663503  Gnorm:      0.000558  CPU:    0.284
  ** Hessian has required structure
  Cycle:      3 Energy:       -16.663669  Gnorm:      0.000550  CPU:    0.397
  ** Hessian has required structure
  Cycle:      4 Energy:       -16.663669  Gnorm:      0.000550  CPU:    0.511
  ** Hessian has required structure
  Cycle:      5 Energy:       -16.663669  Gnorm:      0.000550  CPU:    0.630
  ** Hessian calculated **


  **** Optimisation achieved ****


  Final energy =     -16.66366924 eV
  Final Gnorm  =       0.00054966

  Components of energy : 

--------------------------------------------------------------------------------
  Interatomic potentials     =           1.77072660 eV
  Three-body potentials      =           2.56246546 eV
  Four-body potentials       =           1.30787660 eV
  Improper torsions          =           0.00268921 eV
  Out of plane potentials    =           0.00000000 eV
  Monopole - monopole (real) =         -22.30742712 eV
--------------------------------------------------------------------------------
  Total lattice energy       =         -16.66366924 eV
--------------------------------------------------------------------------------
  Total lattice energy       =           -1607.7894 kJ/mol
--------------------------------------------------------------------------------

  Final cartesian coordinates of atoms :

--------------------------------------------------------------------------------
   No.  Atomic        x           y          z          Radius
        Label       (Angs)      (Angs)     (Angs)       (Angs) 
--------------------------------------------------------------------------------
     1  O5    c    21.148615    4.591308   12.774109    0.000000
     2  S5    c    21.741846    5.291097   13.874743    0.000000
     3  O5    c    23.147662    5.010473   13.845831    0.000000
     4  O5    c    21.213326    4.572351   14.996698    0.000000
     5  C5    c    21.275363    6.997293   13.914044    0.000000
     6  C5    c    22.244415    8.001131   13.969947    0.000000
     7  H5    c    23.301140    7.738769   13.988839    0.000000
     8  C5    c    21.866438    9.343056   13.987851    0.000000
     9  H5    c    22.636289   10.112778   14.016470    0.000000
    10  C5    c    20.518495    9.698989   13.944818    0.000000
    11  C5    c    19.546978    8.695021   13.897597    0.000000
    12  H5    c    18.491134    8.950735   13.856722    0.000000
    13  C5    c    19.925438    7.352891   13.882854    0.000000
    14  H5    c    19.167186    6.573857   13.838737    0.000000
    15  N6    c    20.190144   11.028719   13.922912    0.000000
    16  H6    c    20.959609   11.691459   13.821434    0.000000
    17  N5    c    18.923333   11.527417   13.966242    0.000000
    18  C6    c    18.639075   12.800342   13.870860    0.000000
    19  C5    c    17.238834   13.184204   13.894910    0.000000
    20  C5    c    16.220031   12.236731   14.087675    0.000000
    21  H5    c    16.456522   11.184956   14.229685    0.000000
    22  C5    c    14.878924   12.614212   14.067424    0.000000
    23  H5    c    14.100494   11.861298   14.190884    0.000000
    24  C5    c    14.531032   13.947148   13.858994    0.000000
    25  C5    c    15.537379   14.895587   13.684284    0.000000
    26  H5    c    15.262152   15.934146   13.514435    0.000000
    27  C5    c    16.882565   14.525904   13.701753    0.000000
    28  C6    c    17.862157   15.564649   13.502177    0.000000
    29  H5    c    17.577614   16.599398   13.334190    0.000000
    30  C7    c    19.189383   15.197454   13.523499    0.000000
    31  H5    c    19.974922   15.930280   13.379578    0.000000
    32  C8    c    19.694875   13.834097   13.701724    0.000000
    33  O5    c    20.896111   13.629794   13.695201    0.000000
    34  S5    c    12.837155   14.430110   13.778716    0.000000
    35  O5    c    12.434715   14.676788   12.425438    0.000000
    36  O5    c    12.569345   15.688728   14.407572    0.000000
    37  O5    c    11.899288   13.479707   14.295978    0.000000
    38  O5    c    25.074232    9.220999   12.676982    0.000000
    39  S5    c    24.816028    9.364431   11.274693    0.000000
    40  O5    c    26.009193    9.994394   10.793428    0.000000
    41  O5    c    24.791792    8.025001   10.767372    0.000000
    42  C5    c    23.336673   10.292031   10.999101    0.000000
    43  C5    c    23.358435   11.687354   11.058421    0.000000
    44  H5    c    24.295537   12.204685   11.256276    0.000000
    45  C5    c    22.184960   12.418230   10.878359    0.000000
    46  H5    c    22.212150   13.504203   10.947631    0.000000
    47  C5    c    20.976219   11.763357   10.646106    0.000000
    48  C5    c    20.954320   10.366629   10.577781    0.000000
    49  H5    c    20.020983    9.836254   10.403685    0.000000
    50  C5    c    22.128795    9.636079   10.749842    0.000000
    51  H5    c    22.099523    8.547671   10.714779    0.000000
    52  N6    c    19.836633   12.509931   10.507634    0.000000
    53  H6    c    19.942972   13.522527   10.443809    0.000000
    54  N5    c    18.575571   12.002543   10.560524    0.000000
    55  C6    c    17.487152   12.720693   10.479245    0.000000
    56  C5    c    16.219686   12.041290   10.673909    0.000000
    57  C5    c    16.164421   10.671827   10.981624    0.000000
    58  H5    c    17.073592   10.081474   11.070822    0.000000
    59  C5    c    14.945233   10.043636   11.217762    0.000000
    60  H5    c    14.917440    8.985982   11.478903    0.000000
    61  C5    c    13.758082   10.766425   11.146036    0.000000
    62  C5    c    13.802343   12.123563   10.826221    0.000000
    63  H5    c    12.875760   12.692392   10.782644    0.000000
    64  C5    c    15.021859   12.765505   10.598617    0.000000
    65  C6    c    14.994012   14.181792   10.325982    0.000000
    66  H5    c    14.061207   14.738553   10.288302    0.000000
    67  C7    c    16.203700   14.821847   10.160317    0.000000
    68  H5    c    16.252691   15.888333    9.974845    0.000000
    69  C8    c    17.522562   14.183644   10.223187    0.000000
    70  O5    c    18.530013   14.849912   10.061569    0.000000
    71  S5    c    12.229226    9.964900   11.501874    0.000000
    72  O5    c    12.224682    9.444985   12.837330    0.000000
    73  O5    c    11.032102   10.736356   11.340014    0.000000
    74  O5    c    12.062728    8.770443   10.729005    0.000000
    75  Na5   c    22.240794    2.764221   13.834258    0.000000
    76  Na5   c    10.120576    8.616030   12.105850    0.000000
    77  Na5   c    10.389004   15.188254   13.523982    0.000000
    78  Na5   c    26.945306    8.030684   11.829594    0.000000
--------------------------------------------------------------------------------


  Final Cartesian derivatives :

--------------------------------------------------------------------------------
   No.  Atomic          x             y             z           Radius
        Label       (eV/Angs)     (eV/Angs)    (eV/Angs)      (eV/Angs)
--------------------------------------------------------------------------------
      1 O5    c       0.002089     -0.007955     -0.001305      0.000000
      2 S5    c       0.002725      0.001970     -0.024633      0.000000
      3 O5    c       0.000396      0.003411     -0.004502      0.000000
      4 O5    c      -0.016843     -0.009538      0.023552      0.000000
      5 C5    c      -0.006113      0.007495      0.001183      0.000000
      6 C5    c      -0.001025     -0.006622     -0.006292      0.000000
      7 H5    c       0.012078      0.006111      0.007711      0.000000
      8 C5    c      -0.005929      0.002126     -0.010887      0.000000
      9 H5    c       0.014170      0.004197      0.009625      0.000000
     10 C5    c      -0.001367     -0.000054     -0.001568      0.000000
     11 C5    c       0.001282      0.004977      0.008134      0.000000
     12 H5    c       0.004709     -0.003918     -0.005062      0.000000
     13 C5    c       0.003172     -0.006689      0.001055      0.000000
     14 H5    c       0.008636      0.000365      0.004481      0.000000
     15 N6    c      -0.004078      0.000385     -0.006381      0.000000
     16 H6    c       0.012233      0.001718      0.005173      0.000000
     17 N5    c       0.000000      0.000000      0.000000      0.000000
     18 C6    c      -0.000740      0.002768     -0.000302      0.000000
     19 C5    c       0.002340     -0.003053      0.000569      0.000000
     20 C5    c      -0.002673      0.000168      0.004630      0.000000
     21 H5    c       0.009975     -0.008531     -0.005071      0.000000
     22 C5    c       0.003189     -0.003219      0.003500      0.000000
     23 H5    c       0.003135     -0.007882     -0.000028      0.000000
     24 C5    c      -0.000928      0.002771     -0.002434      0.000000
     25 C5    c       0.003861      0.000584      0.007811      0.000000
     26 H5    c      -0.000171      0.002244     -0.005774      0.000000
     27 C5    c      -0.000719      0.003422      0.000151      0.000000
     28 C6    c       0.002053     -0.000318      0.003180      0.000000
     29 H5    c      -0.000487      0.004950     -0.003349      0.000000
     30 C7    c      -0.001101      0.002209     -0.001318      0.000000
     31 H5    c       0.003981      0.003223      0.001466      0.000000
     32 C8    c       0.000552     -0.003372     -0.000254      0.000000
     33 O5    c       0.002182     -0.000538     -0.000076      0.000000
     34 S5    c       0.008672      0.002895      0.008953      0.000000
     35 O5    c      -0.004623      0.001328     -0.020315      0.000000
     36 O5    c      -0.003679      0.010826      0.000133      0.000000
     37 O5    c      -0.004667     -0.002564      0.015440      0.000000
     38 O5    c       0.002795     -0.002322      0.015058      0.000000
     39 S5    c       0.010773      0.008430     -0.006813      0.000000
     40 O5    c       0.004086      0.005006      0.001801      0.000000
     41 O5    c      -0.005162     -0.005689     -0.011405      0.000000
     42 C5    c       0.007940     -0.011465      0.000290      0.000000
     43 C5    c      -0.000890      0.008855      0.012097      0.000000
     44 H5    c       0.001683      0.004750     -0.011369      0.000000
     45 C5    c       0.005008      0.001280      0.008495      0.000000
     46 H5    c      -0.000082      0.008564     -0.005517      0.000000
     47 C5    c      -0.004173      0.007745      0.000142      0.000000
     48 C5    c       0.001867     -0.018051     -0.000967      0.000000
     49 H5    c      -0.010385      0.001193     -0.003446      0.000000
     50 C5    c      -0.001840     -0.002565      0.002408      0.000000
     51 H5    c      -0.011850     -0.012517     -0.006441      0.000000
     52 N6    c       0.000734     -0.005849      0.003365      0.000000
     53 H6    c      -0.002180      0.009203     -0.001835      0.000000
     54 N5    c       0.003530     -0.004620      0.001723      0.000000
     55 C6    c       0.000217     -0.002722      0.002469      0.000000
     56 C5    c       0.002707      0.007343     -0.002162      0.000000
     57 C5    c      -0.007367     -0.009738     -0.010692      0.000000
     58 H5    c       0.002265     -0.002355      0.018103      0.000000
     59 C5    c      -0.002231      0.015453     -0.023786      0.000000
     60 H5    c      -0.004233     -0.024188      0.020226      0.000000
     61 C5    c       0.000101     -0.014319      0.001169      0.000000
     62 C5    c      -0.001203      0.005958     -0.007585      0.000000
     63 H5    c      -0.002844      0.012990     -0.001494      0.000000
     64 C5    c      -0.000744     -0.001335      0.000830      0.000000
     65 C6    c       0.000115      0.000533     -0.004648      0.000000
     66 H5    c      -0.001846      0.010422      0.003234      0.000000
     67 C7    c      -0.000491     -0.003530     -0.003927      0.000000
     68 H5    c      -0.000126      0.009300      0.005549      0.000000
     69 C8    c       0.000738      0.002640     -0.000305      0.000000
     70 O5    c       0.001225      0.001733     -0.000114      0.000000
     71 S5    c      -0.014958      0.021728     -0.010802      0.000000
     72 O5    c       0.025399     -0.032618      0.041023      0.000000
     73 O5    c      -0.005862      0.008315     -0.032895      0.000000
     74 O5    c       0.006968     -0.009001      0.000146      0.000000
     75 Na5   c      -0.002133     -0.004861     -0.002608      0.000000
     76 Na5   c       0.000189     -0.002155      0.002767      0.000000
     77 Na5   c      -0.002234      0.003399     -0.000740      0.000000
     78 Na5   c       0.004461      0.000580      0.001012      0.000000
--------------------------------------------------------------------------------
  Maximum abs         0.025399      0.032618      0.041023      0.000000
--------------------------------------------------------------------------------


  Born effective charge tensors : 

-------------------------------------------------------------------------------
  Atom             x           y             z
-------------------------------------------------------------------------------
   1 O5    x      -0.6818      0.0000      0.0000
           y       0.0000     -0.6818      0.0000
           z       0.0000      0.0000     -0.6818
-------------------------------------------------------------------------------
   2 S5    x       1.1440      0.0000      0.0000
           y       0.0000      1.1440      0.0000
           z       0.0000      0.0000      1.1440
-------------------------------------------------------------------------------
   3 O5    x      -0.6818      0.0000      0.0000
           y       0.0000     -0.6818      0.0000
           z       0.0000      0.0000     -0.6818
-------------------------------------------------------------------------------
   4 O5    x      -0.6818      0.0000      0.0000
           y       0.0000     -0.6818      0.0000
           z       0.0000      0.0000     -0.6818
-------------------------------------------------------------------------------
   5 C5    x      -0.0734      0.0000      0.0000
           y       0.0000     -0.0734      0.0000
           z       0.0000      0.0000     -0.0734
-------------------------------------------------------------------------------
   6 C5    x      -0.1009      0.0000      0.0000
           y       0.0000     -0.1009      0.0000
           z       0.0000      0.0000     -0.1009
-------------------------------------------------------------------------------
   7 H5    x       0.1446      0.0000      0.0000
           y       0.0000      0.1446      0.0000
           z       0.0000      0.0000      0.1446
-------------------------------------------------------------------------------
   8 C5    x      -0.1678      0.0000      0.0000
           y       0.0000     -0.1678      0.0000
           z       0.0000      0.0000     -0.1678
-------------------------------------------------------------------------------
   9 H5    x       0.1169      0.0000      0.0000
           y       0.0000      0.1169      0.0000
           z       0.0000      0.0000      0.1169
-------------------------------------------------------------------------------
  10 C5    x       0.0333      0.0000      0.0000
           y       0.0000      0.0333      0.0000
           z       0.0000      0.0000      0.0333
-------------------------------------------------------------------------------
  11 C5    x      -0.1678      0.0000      0.0000
           y       0.0000     -0.1678      0.0000
           z       0.0000      0.0000     -0.1678
-------------------------------------------------------------------------------
  12 H5    x       0.1169      0.0000      0.0000
           y       0.0000      0.1169      0.0000
           z       0.0000      0.0000      0.1169
-------------------------------------------------------------------------------
  13 C5    x      -0.1009      0.0000      0.0000
           y       0.0000     -0.1009      0.0000
           z       0.0000      0.0000     -0.1009
-------------------------------------------------------------------------------
  14 H5    x       0.1446      0.0000      0.0000
           y       0.0000      0.1446      0.0000
           z       0.0000      0.0000      0.1446
-------------------------------------------------------------------------------
  15 N6    x      -0.0940      0.0000      0.0000
           y       0.0000     -0.0940      0.0000
           z       0.0000      0.0000     -0.0940
-------------------------------------------------------------------------------
  16 H6    x       0.2606      0.0000      0.0000
           y       0.0000      0.2606      0.0000
           z       0.0000      0.0000      0.2606
-------------------------------------------------------------------------------
  17 N5    x      -0.0985      0.0000      0.0000
           y       0.0000     -0.0985      0.0000
           z       0.0000      0.0000     -0.0985
-------------------------------------------------------------------------------
  18 C6    x      -0.0204      0.0000      0.0000
           y       0.0000     -0.0204      0.0000
           z       0.0000      0.0000     -0.0204
-------------------------------------------------------------------------------
  19 C5    x      -0.0023      0.0000      0.0000
           y       0.0000     -0.0023      0.0000
           z       0.0000      0.0000     -0.0023
-------------------------------------------------------------------------------
  20 C5    x      -0.2262      0.0000      0.0000
           y       0.0000     -0.2262      0.0000
           z       0.0000      0.0000     -0.2262
-------------------------------------------------------------------------------
  21 H5    x       0.1394      0.0000      0.0000
           y       0.0000      0.1394      0.0000
           z       0.0000      0.0000      0.1394
-------------------------------------------------------------------------------
  22 C5    x      -0.0513      0.0000      0.0000
           y       0.0000     -0.0513      0.0000
           z       0.0000      0.0000     -0.0513
-------------------------------------------------------------------------------
  23 H5    x       0.1440      0.0000      0.0000
           y       0.0000      0.1440      0.0000
           z       0.0000      0.0000      0.1440
-------------------------------------------------------------------------------
  24 C5    x      -0.1159      0.0000      0.0000
           y       0.0000     -0.1159      0.0000
           z       0.0000      0.0000     -0.1159
-------------------------------------------------------------------------------
  25 C5    x      -0.0935      0.0000      0.0000
           y       0.0000     -0.0935      0.0000
           z       0.0000      0.0000     -0.0935
-------------------------------------------------------------------------------
  26 H5    x       0.1278      0.0000      0.0000
           y       0.0000      0.1278      0.0000
           z       0.0000      0.0000      0.1278
-------------------------------------------------------------------------------
  27 C5    x       0.0347      0.0000      0.0000
           y       0.0000      0.0347      0.0000
           z       0.0000      0.0000      0.0347
-------------------------------------------------------------------------------
  28 C6    x      -0.1161      0.0000      0.0000
           y       0.0000     -0.1161      0.0000
           z       0.0000      0.0000     -0.1161
-------------------------------------------------------------------------------
  29 H5    x       0.1566      0.0000      0.0000
           y       0.0000      0.1566      0.0000
           z       0.0000      0.0000      0.1566
-------------------------------------------------------------------------------
  30 C7    x      -0.3625      0.0000      0.0000
           y       0.0000     -0.3625      0.0000
           z       0.0000      0.0000     -0.3625
-------------------------------------------------------------------------------
  31 H5    x       0.1432      0.0000      0.0000
           y       0.0000      0.1432      0.0000
           z       0.0000      0.0000      0.1432
-------------------------------------------------------------------------------
  32 C8    x       0.6081      0.0000      0.0000
           y       0.0000      0.6081      0.0000
           z       0.0000      0.0000      0.6081
-------------------------------------------------------------------------------
  33 O5    x      -0.5968      0.0000      0.0000
           y       0.0000     -0.5968      0.0000
           z       0.0000      0.0000     -0.5968
-------------------------------------------------------------------------------
  34 S5    x       1.1659      0.0000      0.0000
           y       0.0000      1.1659      0.0000
           z       0.0000      0.0000      1.1659
-------------------------------------------------------------------------------
  35 O5    x      -0.6823      0.0000      0.0000
           y       0.0000     -0.6823      0.0000
           z       0.0000      0.0000     -0.6823
-------------------------------------------------------------------------------
  36 O5    x      -0.6823      0.0000      0.0000
           y       0.0000     -0.6823      0.0000
           z       0.0000      0.0000     -0.6823
-------------------------------------------------------------------------------
  37 O5    x      -0.6823      0.0000      0.0000
           y       0.0000     -0.6823      0.0000
           z       0.0000      0.0000     -0.6823
-------------------------------------------------------------------------------
  38 O5    x      -0.6818      0.0000      0.0000
           y       0.0000     -0.6818      0.0000
           z       0.0000      0.0000     -0.6818
-------------------------------------------------------------------------------
  39 S5    x       1.1440      0.0000      0.0000
           y       0.0000      1.1440      0.0000
           z       0.0000      0.0000      1.1440
-------------------------------------------------------------------------------
  40 O5    x      -0.6818      0.0000      0.0000
           y       0.0000     -0.6818      0.0000
           z       0.0000      0.0000     -0.6818
-------------------------------------------------------------------------------
  41 O5    x      -0.6818      0.0000      0.0000
           y       0.0000     -0.6818      0.0000
           z       0.0000      0.0000     -0.6818
-------------------------------------------------------------------------------
  42 C5    x      -0.0734      0.0000      0.0000
           y       0.0000     -0.0734      0.0000
           z       0.0000      0.0000     -0.0734
-------------------------------------------------------------------------------
  43 C5    x      -0.1009      0.0000      0.0000
           y       0.0000     -0.1009      0.0000
           z       0.0000      0.0000     -0.1009
-------------------------------------------------------------------------------
  44 H5    x       0.1446      0.0000      0.0000
           y       0.0000      0.1446      0.0000
           z       0.0000      0.0000      0.1446
-------------------------------------------------------------------------------
  45 C5    x      -0.1678      0.0000      0.0000
           y       0.0000     -0.1678      0.0000
           z       0.0000      0.0000     -0.1678
-------------------------------------------------------------------------------
  46 H5    x       0.1169      0.0000      0.0000
           y       0.0000      0.1169      0.0000
           z       0.0000      0.0000      0.1169
-------------------------------------------------------------------------------
  47 C5    x       0.0333      0.0000      0.0000
           y       0.0000      0.0333      0.0000
           z       0.0000      0.0000      0.0333
-------------------------------------------------------------------------------
  48 C5    x      -0.1678      0.0000      0.0000
           y       0.0000     -0.1678      0.0000
           z       0.0000      0.0000     -0.1678
-------------------------------------------------------------------------------
  49 H5    x       0.1169      0.0000      0.0000
           y       0.0000      0.1169      0.0000
           z       0.0000      0.0000      0.1169
-------------------------------------------------------------------------------
  50 C5    x      -0.1009      0.0000      0.0000
           y       0.0000     -0.1009      0.0000
           z       0.0000      0.0000     -0.1009
-------------------------------------------------------------------------------
  51 H5    x       0.1446      0.0000      0.0000
           y       0.0000      0.1446      0.0000
           z       0.0000      0.0000      0.1446
-------------------------------------------------------------------------------
  52 N6    x      -0.0940      0.0000      0.0000
           y       0.0000     -0.0940      0.0000
           z       0.0000      0.0000     -0.0940
-------------------------------------------------------------------------------
  53 H6    x       0.2606      0.0000      0.0000
           y       0.0000      0.2606      0.0000
           z       0.0000      0.0000      0.2606
-------------------------------------------------------------------------------
  54 N5    x      -0.0985      0.0000      0.0000
           y       0.0000     -0.0985      0.0000
           z       0.0000      0.0000     -0.0985
-------------------------------------------------------------------------------
  55 C6    x      -0.0204      0.0000      0.0000
           y       0.0000     -0.0204      0.0000
           z       0.0000      0.0000     -0.0204
-------------------------------------------------------------------------------
  56 C5    x      -0.0023      0.0000      0.0000
           y       0.0000     -0.0023      0.0000
           z       0.0000      0.0000     -0.0023
-------------------------------------------------------------------------------
  57 C5    x      -0.2262      0.0000      0.0000
           y       0.0000     -0.2262      0.0000
           z       0.0000      0.0000     -0.2262
-------------------------------------------------------------------------------
  58 H5    x       0.1394      0.0000      0.0000
           y       0.0000      0.1394      0.0000
           z       0.0000      0.0000      0.1394
-------------------------------------------------------------------------------
  59 C5    x      -0.0513      0.0000      0.0000
           y       0.0000     -0.0513      0.0000
           z       0.0000      0.0000     -0.0513
-------------------------------------------------------------------------------
  60 H5    x       0.1440      0.0000      0.0000
           y       0.0000      0.1440      0.0000
           z       0.0000      0.0000      0.1440
-------------------------------------------------------------------------------
  61 C5    x      -0.1159      0.0000      0.0000
           y       0.0000     -0.1159      0.0000
           z       0.0000      0.0000     -0.1159
-------------------------------------------------------------------------------
  62 C5    x      -0.0935      0.0000      0.0000
           y       0.0000     -0.0935      0.0000
           z       0.0000      0.0000     -0.0935
-------------------------------------------------------------------------------
  63 H5    x       0.1278      0.0000      0.0000
           y       0.0000      0.1278      0.0000
           z       0.0000      0.0000      0.1278
-------------------------------------------------------------------------------
  64 C5    x       0.0347      0.0000      0.0000
           y       0.0000      0.0347      0.0000
           z       0.0000      0.0000      0.0347
-------------------------------------------------------------------------------
  65 C6    x      -0.1161      0.0000      0.0000
           y       0.0000     -0.1161      0.0000
           z       0.0000      0.0000     -0.1161
-------------------------------------------------------------------------------
  66 H5    x       0.1566      0.0000      0.0000
           y       0.0000      0.1566      0.0000
           z       0.0000      0.0000      0.1566
-------------------------------------------------------------------------------
  67 C7    x      -0.3625      0.0000      0.0000
           y       0.0000     -0.3625      0.0000
           z       0.0000      0.0000     -0.3625
-------------------------------------------------------------------------------
  68 H5    x       0.1432      0.0000      0.0000
           y       0.0000      0.1432      0.0000
           z       0.0000      0.0000      0.1432
-------------------------------------------------------------------------------
  69 C8    x       0.6081      0.0000      0.0000
           y       0.0000      0.6081      0.0000
           z       0.0000      0.0000      0.6081
-------------------------------------------------------------------------------
  70 O5    x      -0.5968      0.0000      0.0000
           y       0.0000     -0.5968      0.0000
           z       0.0000      0.0000     -0.5968
-------------------------------------------------------------------------------
  71 S5    x       1.1659      0.0000      0.0000
           y       0.0000      1.1659      0.0000
           z       0.0000      0.0000      1.1659
-------------------------------------------------------------------------------
  72 O5    x      -0.6823      0.0000      0.0000
           y       0.0000     -0.6823      0.0000
           z       0.0000      0.0000     -0.6823
-------------------------------------------------------------------------------
  73 O5    x      -0.6823      0.0000      0.0000
           y       0.0000     -0.6823      0.0000
           z       0.0000      0.0000     -0.6823
-------------------------------------------------------------------------------
  74 O5    x      -0.6823      0.0000      0.0000
           y       0.0000     -0.6823      0.0000
           z       0.0000      0.0000     -0.6823
-------------------------------------------------------------------------------
  75 Na5   x       1.0000      0.0000      0.0000
           y       0.0000      1.0000      0.0000
           z       0.0000      0.0000      1.0000
-------------------------------------------------------------------------------
  76 Na5   x       1.0000      0.0000      0.0000
           y       0.0000      1.0000      0.0000
           z       0.0000      0.0000      1.0000
-------------------------------------------------------------------------------
  77 Na5   x       1.0000      0.0000      0.0000
           y       0.0000      1.0000      0.0000
           z       0.0000      0.0000      1.0000
-------------------------------------------------------------------------------
  78 Na5   x       1.0000      0.0000      0.0000
           y       0.0000      1.0000      0.0000
           z       0.0000      0.0000      1.0000
-------------------------------------------------------------------------------




  Moment of inertia tensor (10^-46 x kgm^2): 

-------------------------------------------------------------------------------
                x           y           z           Principal axis system
-------------------------------------------------------------------------------
       x       1924.69     1073.99       43.54         1391.497208
       y       1073.99     3554.81       93.02         4073.819937
       z         43.54       93.02     4817.56         4831.738648
-------------------------------------------------------------------------------
  Centre of mass (Ang) =    18.165931    10.815084    12.445936
-------------------------------------------------------------------------------


  Vibrational Frequency Calculation : 

--------------------------------------------------------------------------------

 Frequencies (cm-1) : 

   -0.00   -0.00   -0.00    0.00    0.00    0.00    4.98   11.06   12.38
   14.63   20.07   23.17   26.16   28.60   33.31   35.41   38.27   41.96
   45.89   51.36   58.44   67.52   73.63   78.70   81.53   82.94   90.38
   96.01   99.23  104.60  110.01  112.69  117.59  127.39  138.61  141.16
  163.55  169.83  181.33  186.32  198.69  200.64  208.26  214.55  222.67
  226.22  246.90  249.03  285.56  292.51  293.65  295.22  295.58  299.01
  300.18  301.66  321.73  325.38  333.36  335.21  336.04  337.75  338.90
  339.47  340.79  342.76  349.01  354.38  364.39  368.11  369.32  372.50
  389.61  390.43  419.15  421.50  422.22  423.08  439.30  442.62  449.63
  452.16  456.15  457.20  471.71  474.32  496.65  498.84  521.11  522.67
  535.85  536.05  536.97  539.09  544.73  545.55  554.73  554.93  580.34
  581.03  603.71  603.94  644.97  645.49  658.72  659.27  688.55  691.26
  710.22  711.15  730.74  730.86  733.64  735.76  745.05  745.84  792.97
  800.31  803.28  803.50  849.57  856.57  865.73  867.97  897.14  898.13
  906.68  910.26  911.68  917.84  944.78  945.13  985.74  985.96 1008.33
 1009.19 1019.42 1026.23 1027.64 1040.78 1041.63 1043.03 1088.03 1093.61
 1108.54 1109.96 1113.84 1116.76 1125.01 1129.89 1147.72 1149.06 1150.14
 1151.07 1160.20 1162.32 1170.51 1171.83 1174.84 1176.56 1190.89 1191.62
 1208.73 1209.86 1219.77 1222.66 1233.36 1234.21 1282.39 1282.93 1292.44
 1292.91 1313.33 1314.46 1345.40 1346.56 1386.42 1389.01 1401.48 1402.33
 1484.82 1486.26 1499.72 1501.83 1532.61 1533.42 1546.61 1547.31 1621.56
 1621.69 1659.55 1659.93 1698.04 1699.56 1711.99 1712.71 1745.52 1745.89
 1761.31 1762.10 1782.69 1784.60 1797.29 1797.72 1812.73 1812.85 1827.49
 1827.97 1841.82 1842.03 1898.45 1899.18 1909.71 1910.06 2965.97 2966.63
 2968.34 2968.51 2968.65 2968.87 2968.94 2969.98 2970.21 2970.25 2971.04
 2971.33 2972.85 2973.64 2980.83 2981.06 2983.42 2984.87 3178.77 3180.30


--------------------------------------------------------------------------------

  No imaginary modes present - current symmetry is correct

  Vibrational properties (for cluster):  Temperature  =       0.000 K
--------------------------------------------------------------------------------
  Zero point energy             =        13.984673 eV
--------------------------------------------------------------------------------

  Vibrational density of states : 

--------------------------------------------------------------------------------
 Frequency     Density of States                                                
--------------------------------------------------------------------------------
    0.00000 |*****************************************************         0.069
   50.00000 |*********************************                             0.043
  100.00000 |***********************                                       0.030
  150.00000 |****************                                              0.022
  200.00000 |***********************                                       0.030
  250.00000 |********************                                          0.026
  300.00000 |*******************************************                   0.056
  350.00000 |***********************                                       0.030
  400.00000 |***********************                                       0.030
  450.00000 |***********************                                       0.030
  500.00000 |**************************                                    0.035
  550.00000 |*************                                                 0.017
  600.00000 |*************                                                 0.017
  650.00000 |*************                                                 0.017
  700.00000 |**************************                                    0.035
  750.00000 |***                                                           0.004
  800.00000 |*************                                                 0.017
  850.00000 |****************                                              0.022
  900.00000 |********************                                          0.026
  950.00000 |******                                                        0.009
 1000.00000 |**************************                                    0.035
 1050.00000 |******                                                        0.009
 1100.00000 |**************************                                    0.035
 1150.00000 |*********************************                             0.043
 1200.00000 |********************                                          0.026
 1250.00000 |*************                                                 0.017
 1300.00000 |*************                                                 0.017
 1350.00000 |******                                                        0.009
 1400.00000 |******                                                        0.009
 1450.00000 |**********                                                    0.013
 1500.00000 |****************                                              0.022
 1550.00000 |                                                              0.000
 1600.00000 |******                                                        0.009
 1650.00000 |*************                                                 0.017
 1700.00000 |*************                                                 0.017
 1750.00000 |********************                                          0.026
 1800.00000 |********************                                          0.026
 1850.00000 |******                                                        0.009
 1900.00000 |******                                                        0.009
 1950.00000 |                                                              0.000
 2000.00000 |                                                              0.000
 2050.00000 |                                                              0.000
 2100.00000 |                                                              0.000
 2150.00000 |                                                              0.000
 2200.00000 |                                                              0.000
 2250.00000 |                                                              0.000
 2300.00000 |                                                              0.000
 2350.00000 |                                                              0.000
 2400.00000 |                                                              0.000
 2450.00000 |                                                              0.000
 2500.00000 |                                                              0.000
 2550.00000 |                                                              0.000
 2600.00000 |                                                              0.000
 2650.00000 |                                                              0.000
 2700.00000 |                                                              0.000
 2750.00000 |                                                              0.000
 2800.00000 |                                                              0.000
 2850.00000 |                                                              0.000
 2900.00000 |                                                              0.000
 2950.00000 |************************************************************  0.078
 3000.00000 |                                                              0.000
 3050.00000 |                                                              0.000
 3100.00000 |                                                              0.000
 3150.00000 |******                                                        0.009
--------------------------------------------------------------------------------



  Time to end of optimisation =       0.7935 seconds


  Peak dynamic memory used =       1.99 MB 


  Timing analysis for GULP :

--------------------------------------------------------------------------------
  Task / Subroutine                                          Time (Seconds)
--------------------------------------------------------------------------------
  Calculation of real space energy and derivatives                0.1265
  Calculation of three-body energy and derivatives                0.0067
  Calculation of four-body energy and derivatives                 0.0186
  Calculation of molecules and connectivity                       0.0005
  Calculation of phonons                                          0.1204
  Calculation of scattering                                       0.0000
  Calculation of matrix inversion                                 0.0049
  Disk read/write operations to scratch files                     0.0002
--------------------------------------------------------------------------------
  Total CPU time                                                  0.7937
--------------------------------------------------------------------------------


  Dump file written as ssy_dimer_c1_m.res                                      


  Job Finished at 14:52.51 28th March      2014                               

