ITEM: TIMESTEP
0
ITEM: NUMBER OF ATOMS
12000
ITEM: BOX BOUNDS pp pp pp
2.0523244327128509e-01 2.7135767556728819e+01
2.1438173255445037e-01 2.7126618267445817e+01
1.7340467038930569e+00 2.1699395329610445e+02
ITEM: ATOMS id type x y z c_peratom fx fy fz 
242 2 5.50443 5.73103 6.99239 -24.6773 2.98504 -0.409263 4.13184 
1201 3 5.8024 3.03602 4.51795 -28.2049 -0.313514 -0.533236 0.0955205 
1202 3 5.35965 2.96996 9.83057 -29.2331 2.75442 -0.342767 0.383904 
2041 2 2.89814 5.45376 4.30618 -24.1053 -1.59345 2.79935 2.51891 
2042 2 3.04024 5.66549 10.0116 -24.586 -2.68738 -0.207312 -1.39883 
3002 3 3.03576 3.01523 6.9087 -27.987 -1.37291 -1.17161 2.287 
4001 1 1.42469 1.67664 2.79722 -7.6582 0.414656 -0.142441 0.608823 
4002 1 1.59541 1.56581 8.23037 -7.19688 0.409204 0.403839 0.891418 
5001 1 4.43788 4.32987 5.73193 -8.34645 -4.06429 -2.55277 -1.99397 
6001 1 4.30684 4.44987 2.93374 -8.69073 -0.579054 -1.21817 0.880682 
6002 1 4.24411 4.48347 8.38287 -7.88409 -1.64609 -1.60784 0.490472 
7001 1 1.27007 1.49827 5.50226 -7.32336 0.587006 0.514314 -0.669937 
8001 1 4.17424 1.60087 5.95025 -7.54748 -0.227597 1.24176 0.281167 
9001 1 1.3541 4.18034 3.28235 -8.83984 1.41214 0.688376 0.400742 
9002 1 1.41479 4.42477 8.79965 -7.55087 0.570393 0.230186 0.851184 
10001 1 1.42539 4.21406 6.17048 -7.34859 2.83208 -1.13063 -2.15526 
11001 1 4.1199 1.51133 3.28414 -8.00759 1.31612 1.93863 -0.301803 
11002 1 4.23722 1.64572 8.6843 -7.81349 0.276433 -0.148806 -0.523963 
10201 1 6.81988 4.47359 5.88941 -7.31 3.35185 -1.76273 0.998242 
7201 1 6.92482 1.50523 5.74755 -7.90811 -1.66654 1.69333 0.442308 
9202 1 6.78315 4.12952 8.55845 -7.02687 0.273316 0.932023 -0.525715 
3001 2 2.9059 3.14581 1.75983 -24.3157 -0.785663 -3.46168 1.10264 
42 2 0.275265 5.70792 7.35771 -26.2938 -1.91426 -0.0994219 -0.418566 
4041 1 1.02865 6.80316 3.34562 -7.55432 0.281492 0.229229 -0.581728 
8041 1 4.30333 6.89459 5.7841 -8.20443 -2.06173 1.6969 -1.46701 
7041 1 1.52474 6.80386 5.9794 -7.06151 1.75807 0.417345 -1.31865 
2001 2 2.68894 0.253424 4.31554 -25.2879 1.85698 -0.426939 2.37788 
201 2 5.53857 0.401062 1.84728 -25.2845 0.3943 -2.44018 0.357755 
4201 1 7.01236 1.78582 3.08445 -8.11456 -1.92579 -1.21227 0.0277674 
9201 1 6.9606 4.37799 3.48591 -7.21558 1.26527 -0.46387 -1.85989 
4202 1 6.95034 1.56306 8.46492 -7.38911 0.115559 -0.411149 -0.711865 
442 2 10.9005 5.60674 7.00651 -25.4692 -0.627762 -0.230134 2.01034 
1401 2 10.7915 2.90861 4.35338 -24.9839 0.667044 -0.591936 -0.487469 
1402 3 10.7563 2.90314 9.68003 -30.1639 1.39115 -0.288982 1.38381 
2241 3 8.13688 5.88223 4.22313 -28.4202 -0.625787 -1.18975 2.61643 
2242 2 8.13675 5.46186 10.0114 -25.4585 3.78401 -0.526045 -3.54812 
3202 3 8.26993 2.94787 7.20566 -28.1731 -1.69685 -0.308708 0.123925 
4401 1 12.3249 1.74474 3.29616 -7.59965 0.202536 -1.37274 -2.42533 
4402 1 12.2317 1.53538 8.40283 -6.5651 -0.480381 0.993566 -2.22488 
5201 1 9.62733 4.38446 5.45714 -8.29391 -1.47664 -0.0769997 0.637196 
6201 1 9.77372 4.00448 2.52944 -7.63641 -0.224101 0.517432 3.94815 
6202 1 9.41281 4.25149 8.37398 -7.80677 -0.236683 0.475157 -1.045 
7401 1 12.108 1.28921 5.63739 -7.60369 -0.011389 1.78619 1.53807 
8201 1 9.36456 1.47297 5.65984 -8.12808 2.47985 2.7506 1.68238 
9401 1 12.2521 4.26826 3.00889 -7.69749 3.20579 -1.2318 0.593739 
9402 1 12.0293 4.18501 8.62556 -7.40006 1.18056 0.368373 -2.22958 
10401 1 12.2602 4.20466 5.72231 -8.12389 0.645828 -1.189 0.419551 
11201 1 9.51776 1.34352 2.97762 -7.34263 -0.366183 2.64859 1.67327 
11202 1 9.59836 1.69567 8.5431 -7.66681 -1.106 -0.752932 -1.6721 
3402 2 13.5752 2.92059 6.95524 -25.0063 -0.95475 -2.40057 2.01566 
2442 2 13.5972 5.54309 9.66347 -24.7177 0.397932 -1.96518 3.68602 
3401 3 13.5757 2.77915 1.76492 -28.4549 0.647002 -0.109034 -0.282694 
4442 1 12.5907 6.79929 8.45843 -7.18229 -3.39092 3.71392 -2.83715 
7441 1 12.3033 6.79148 5.77852 -7.76104 1.94618 0.936115 -0.00566851 
4441 1 12.2687 6.85304 3.16691 -7.29937 -0.787955 1.15777 -0.742502 
441 2 11.1145 5.52495 1.78747 -24.6442 -1.54403 2.61939 -2.19829 
2201 3 8.23755 0.286846 4.58743 -28.9759 -0.914532 -1.53325 -1.88714 
2202 3 8.21428 0.305616 9.71237 -29.4948 -0.00135808 -0.528116 0.270281 
2441 2 13.9618 5.38715 4.39303 -24.3762 -3.53141 -0.0313752 0.367789 
642 2 16.415 5.5699 7.24661 -24.6564 0.350981 0.171298 -1.49565 
1601 3 16.3098 2.76932 4.46972 -29.3251 0.832882 -0.459334 -0.46288 
1602 2 15.9589 3.0081 9.94754 -24.9837 1.3287 0.153139 -0.214231 
2641 3 19.0562 5.61881 4.59213 -28.2864 -2.7796 -1.11517 0.503741 
2642 2 18.9836 5.94942 9.98329 -24.8437 -1.79212 -2.44711 0.418428 
3602 2 18.8301 2.91342 7.4843 -25.2561 0.765595 1.03854 -1.53781 
4601 1 17.5354 1.48018 3.20217 -7.64714 -0.268747 0.20035 -0.550236 
4602 1 17.2282 1.83355 8.63649 -7.64924 2.9537 -2.12504 -0.688562 
5401 1 15.0899 3.94099 5.65209 -8.01914 -0.366826 2.58975 -0.334045 
6401 1 15.0739 3.97627 2.92151 -8.13227 -1.41001 2.46618 -0.253419 
6402 1 14.8681 4.20928 8.30153 -8.23704 -1.61296 0.366242 1.00283 
7601 1 17.5615 1.49682 5.91875 -7.71218 -0.661504 0.977523 0.160903 
8401 1 14.9043 1.54373 5.81818 -7.72617 -0.315085 -1.79894 -1.30335 
9601 1 17.5619 4.17154 3.46015 -7.04753 0.242495 0.819973 -0.707438 
9602 1 17.3216 4.3758 8.79561 -7.67198 3.00972 1.31949 -0.411758 
10601 1 17.7249 4.28497 5.91261 -7.20394 -0.707137 -0.750838 1.98977 
11401 1 14.9518 1.59424 3.02668 -7.18288 -0.635662 -0.9187 -0.159081 
11402 1 14.7595 1.47331 8.41167 -7.10093 0.316339 0.192956 -0.0264237 
5601 1 20.1468 4.71217 6.10554 -7.78191 2.10318 0.340971 -0.963616 
11601 1 20.1379 1.44781 3.21731 -7.84959 0.219397 0.572402 1.32855 
8601 1 20.1014 1.76759 5.98821 -7.09696 0.736365 1.76122 -0.924085 
641 3 16.1818 5.40565 1.76978 -28.8883 0.894561 1.8818 0.274744 
3601 2 18.859 2.8222 1.92451 -25.0769 2.09377 -0.677335 1.882 
6602 1 20.2339 4.32253 8.75966 -7.77506 -1.53707 1.05351 -0.394123 
6601 1 20.1616 4.16628 3.14481 -8.30561 0.645462 -0.483742 1.99408 
11602 1 20.3762 1.5908 8.5632 -7.68221 -1.83839 -0.523044 0.150185 
2401 3 13.6907 0.252715 4.40799 -29.2086 0.352841 0.146728 0.371203 
7641 1 17.7524 6.94089 5.76185 -8.11972 0.910481 0.805823 0.482074 
8441 1 15.1559 6.77331 5.87917 -8.34276 0.203039 -1.74485 -2.60311 
11641 1 20.0741 6.70244 3.30691 -8.2381 0.728204 0.537049 0.149408 
11442 1 15.0257 6.92449 8.46365 -7.67814 1.98545 0.098418 0.0114873 
11441 1 14.7625 6.78302 3.03115 -7.81811 1.4638 0.075419 0.401652 
602 3 16.2844 0.371479 7.2292 -29.5018 -1.20741 -0.831647 -0.466737 
2602 3 19.2419 0.280292 10.0586 -27.5136 -1.78311 -0.0981247 -1.16609 
2601 3 18.7782 0.257785 4.59431 -29.7008 1.11199 0.14963 0.579577 
1001 3 26.983 2.95836 4.23984 -28.2663 -0.0756359 -0.266037 3.026 
841 3 21.4709 5.51128 2.10522 -28.4776 0.64104 0.656719 -2.6106 
41 3 26.9063 5.52683 2.09459 -28.4792 0.120583 -0.382334 -0.455206 
2801 2 24.4582 0.34539 4.47456 -24.8883 0.157047 -0.574885 0.481376 
1002 2 27.0037 2.98959 10.0221 -24.8803 0.501892 -0.836922 -2.6342 
842 3 21.5954 5.89999 7.44057 -28.294 0.431628 -0.575457 0.274344 
1801 3 21.517 3.10011 4.65781 -27.9266 -1.11495 -2.25167 -0.413064 
1802 3 21.5918 3.21892 10.068 -29.864 1.13937 -1.22762 -0.425316 
2841 3 24.1911 5.53191 4.66026 -28.6446 0.888333 0.548291 -0.0599506 
2842 2 24.4303 5.68392 9.88409 -25.4979 -2.0458 -1.14019 1.744 
3802 2 24.1758 3.06311 7.13735 -25.6682 1.72663 -1.07416 2.46729 
4801 1 22.8842 1.72479 3.24752 -8.3029 0.783054 0.228765 0.41174 
4802 1 22.9571 1.85706 8.76284 -7.13082 0.537755 -1.03663 0.0619982 
5801 1 25.7523 4.34465 5.90257 -7.35897 -1.82116 0.240326 -2.40707 
6801 1 25.5373 4.41458 3.1032 -7.63259 -0.27817 -1.09054 1.02934 
6802 1 25.4066 4.48361 8.39991 -7.28983 1.68346 -1.61891 0.875704 
7801 1 22.8064 1.55886 6.12336 -7.64626 1.10815 -0.526208 -2.72888 
8801 1 25.5076 1.49995 6.01177 -7.25991 -0.173047 0.64139 -1.00849 
9801 1 22.7159 4.49488 3.26137 -7.9308 0.841382 -0.779047 1.25111 
9802 1 22.8083 4.55574 8.74686 -7.27352 -0.447471 0.170408 -1.56535 
10801 1 22.7309 4.06036 5.89353 -8.29943 0.528612 2.15715 -0.703274 
11801 1 25.7265 1.8779 3.23674 -7.83129 -1.45384 -1.64843 0.970676 
11802 1 25.6484 1.70241 8.57358 -7.72661 0.684226 -0.683569 2.09851 
11841 1 25.2297 6.85357 3.48991 -7.2679 1.35678 0.674223 -0.487893 
7841 1 23.323 6.5764 6.23392 -7.72417 -1.53001 0.122972 -0.0218208 
11842 1 25.9235 6.93877 8.84468 -7.23486 -0.0448131 0.672596 -1.01124 
2802 3 24.4485 0.298874 9.93535 -27.9337 -0.995213 1.19424 0.119695 
802 2 21.6647 0.298937 7.36745 -24.9195 -1.32189 -0.354237 -1.13321 
801 2 21.5939 0.31905 2.01925 -25.3242 1.42001 -0.0278922 -0.788735 
4241 1 6.76441 6.94868 2.98452 -7.95687 -1.53983 0.988643 -0.439094 
11041 1 3.74933 7.01587 2.9418 -7.78684 1.35936 -1.6388 0.516049 
11042 1 4.16141 7.03705 8.70511 -7.55507 0.968027 -1.057 -2.38419 
4042 1 1.51174 7.33198 8.53486 -6.46045 0.819266 -1.89122 -0.908717 
282 2 5.27366 11.1472 7.32442 -25.5552 3.07483 -1.5672 -1.33913 
1241 2 5.45699 8.38393 4.53203 -24.9126 3.25012 -1.12251 1.4412 
1242 2 5.61735 8.26704 9.82662 -25.5339 -0.0212302 -0.0151001 0.886739 
2081 2 2.63568 11.0612 4.64061 -23.7624 2.6741 -2.23866 -1.34094 
2082 2 2.8261 10.7868 9.96001 -25.5754 -0.0992 1.12142 0.607476 
3042 3 2.77011 8.28002 7.21243 -29.1794 0.195716 -0.183973 0.517141 
4081 1 1.37069 12.3543 3.18165 -8.725 0.869204 -0.0767035 -2.45479 
4082 1 1.33737 12.7179 8.01189 -7.24033 -0.435228 0.617092 2.11181 
5041 1 4.2282 9.57096 6.06198 -7.61388 -1.41378 1.26635 -0.409376 
6041 1 4.249 9.48718 3.32537 -7.82786 -1.87436 4.01874 -3.24427 
6042 1 4.09736 9.5173 8.64936 -7.34534 -0.444934 1.59112 -1.51565 
7081 1 1.30072 12.3041 5.68502 -7.78152 0.0462958 0.58614 -0.185143 
8081 1 4.10073 12.5704 5.83707 -8.51172 -0.381565 -1.38344 -1.32488 
9041 1 1.41467 9.54383 3.24088 -8.39554 0.642752 1.17443 -1.81896 
9042 1 1.30933 9.75547 8.66251 -7.75173 -1.19974 2.75988 -1.31105 
10041 1 1.60191 9.41243 5.75847 -8.00141 -1.1385 1.53134 1.46699 
11081 1 4.25047 12.4584 3.01599 -8.65976 -1.76156 -2.22815 -1.23253 
11082 1 3.9325 12.3301 8.53434 -7.27075 -0.569178 -0.197382 -0.397589 
10241 1 6.82519 9.78439 5.87309 -6.48147 -0.136906 -0.409697 -0.810724 
4282 1 6.67201 12.4283 8.61434 -7.64307 0.722918 -0.832671 -0.442433 
7281 1 6.93121 12.3701 5.98377 -7.17613 0.450859 1.79919 -0.273633 
9242 1 6.83053 9.63734 8.56721 -7.04192 -1.68805 0.795516 0.210666 
7241 1 7.1174 7.18375 5.65123 -7.61266 -1.83587 -0.70933 -0.137273 
8241 1 9.67655 7.18822 5.86731 -7.11478 -0.814214 -2.92453 1.61635 
481 3 11.0956 10.9123 1.87011 -28.4967 0.774013 -0.965343 0.467419 
4242 1 7.09832 7.04371 8.37012 -7.95121 -1.26511 -1.61992 0.771254 
11241 1 9.35485 7.04561 3.31122 -7.62463 1.41209 -0.830614 -0.769126 
11242 1 9.91439 6.94619 8.58459 -6.98935 -0.542469 0.805039 -0.992538 
4281 1 6.97118 12.3976 3.22245 -7.81329 0.0765405 -0.623304 1.18667 
9241 1 7.09367 9.78367 3.08727 -8.28052 -0.38439 -1.40049 -1.19765 
482 3 10.7938 10.8044 7.44941 -29.1475 -0.0532309 0.628689 -1.72295 
1441 2 11.0226 8.2319 4.63359 -25.4636 0.199012 1.95291 -2.20859 
1442 3 10.9966 8.35154 9.85511 -29.1068 -1.47403 -1.39485 1.53641 
2281 2 8.44901 10.9568 4.43104 -25.1299 -2.12041 -1.63278 2.90089 
2282 3 8.238 10.9294 9.96545 -29.2597 -0.918347 0.628581 0.399656 
3242 3 8.1602 8.32769 7.21103 -29.811 0.581722 1.33474 -0.504786 
4481 1 12.5097 12.035 3.08579 -7.56671 -0.365476 1.46809 0.428495 
4482 1 12.0978 12.3566 8.43353 -8.32524 0.28831 -0.0849303 0.00845616 
5241 1 9.45085 9.57826 6.13982 -6.96019 1.02093 0.519114 -1.08218 
6241 1 9.83498 9.57734 3.07468 -7.71829 -0.444666 0.45217 1.43481 
6242 1 9.22321 9.77076 8.72095 -7.04308 2.58894 -2.06974 -0.576074 
7481 1 12.7054 12.128 5.72494 -6.11449 -0.927285 1.3668 0.203933 
8281 1 9.90758 11.971 5.7516 -7.62196 -0.0446699 2.01266 0.369021 
9441 1 12.4966 9.56327 3.40094 -7.6487 0.548663 -1.67755 -0.60313 
9442 1 11.892 9.75586 8.88962 -7.59962 0.587049 -0.0186958 -1.79325 
10441 1 12.262 9.62247 6.01354 -7.49473 -0.246017 -1.90379 1.24048 
11281 1 9.69613 12.1517 3.07984 -9.1075 0.623175 1.51244 -1.26858 
11282 1 9.34272 12.25 8.51519 -7.89613 0.827258 1.12197 0.494025 
3241 3 8.27964 8.29533 1.85175 -29.0461 0.116898 0.231372 -0.803182 
1481 2 10.9559 13.527 4.45732 -24.8276 1.86945 -0.374011 1.21188 
3482 3 13.5557 13.4129 7.36755 -28.9236 0.753488 0.922021 -2.89907 
3281 3 8.35088 13.4272 2.02514 -28.3972 0.150743 3.68706 -0.999017 
3282 3 8.09241 13.5497 7.37165 -28.3072 -0.114814 0.218317 -0.59426 
681 3 16.4074 10.8334 1.97987 -28.8727 0.647546 0.669649 -2.33963 
3441 3 13.7226 8.30747 1.88455 -28.9833 -0.753965 -1.38082 -0.475908 
3641 2 18.8503 8.22724 1.75384 -26.041 1.71498 1.83609 1.88042 
11642 1 20.3043 7.20416 8.76656 -7.92648 1.08153 -1.33187 -0.88646 
3442 2 13.8273 8.11495 6.88824 -24.5739 -3.04029 0.598751 3.8985 
2481 3 13.887 10.6334 4.40312 -28.7759 -1.93935 2.94406 1.5343 
4641 1 17.3507 7.12989 3.07456 -7.04173 0.571234 -3.67316 0.568068 
2482 3 13.8121 11.0041 9.76019 -28.6056 -1.75491 -1.44943 1.64219 
4642 1 17.6696 7.28567 8.55663 -8.18597 -0.144419 -2.62845 -0.866317 
682 3 16.3478 11.1635 7.15043 -28.8838 -0.488526 -1.96478 1.98714 
1641 3 16.4835 8.24771 4.49697 -28.6913 -0.936554 -0.929097 -0.216838 
1642 3 16.2406 8.21476 9.74556 -29.3788 -0.310776 2.56911 1.07018 
2681 3 18.8289 10.9119 4.66255 -28.2891 1.68498 0.885312 -1.99357 
2682 2 19.1289 11.0917 9.9201 -24.6377 -1.95359 -0.549929 0.352097 
3642 2 18.8871 8.53876 7.2317 -24.7104 0.593353 0.746855 0.543671 
4681 1 17.6665 12.5025 2.85014 -7.32506 0.577459 -2.01384 1.14536 
4682 1 17.4788 12.3284 8.37742 -7.78847 1.13021 1.82281 2.42259 
5441 1 14.9271 9.27202 5.55804 -8.24125 0.467621 1.87058 -1.64658 
6441 1 15.165 9.48846 2.89707 -7.96307 -1.45876 0.538477 2.43565 
6442 1 14.6328 9.66225 8.4307 -7.54364 0.317523 -1.578 -1.41197 
7681 1 17.6926 12.0756 5.84901 -7.9418 0.4688 2.36599 -2.14857 
8481 1 15.1431 12.0347 5.96401 -7.66466 0.404577 0.945618 -1.96237 
9641 1 17.5922 9.47685 3.30735 -7.81054 1.95238 4.31257 0.157919 
9642 1 17.4813 9.81229 8.52668 -7.63478 0.988603 -0.0697855 -0.0130313 
10641 1 17.3694 9.71584 5.86744 -7.97652 1.30711 -1.96127 0.182307 
11481 1 15.2686 12.1918 3.19838 -8.30409 -1.60053 -1.21995 1.95471 
11482 1 14.8552 12.149 8.53728 -7.86903 -0.305132 1.73614 0.582023 
5641 1 20.047 10.2047 6.13813 -8.08668 -0.515605 -1.35538 -0.84076 
11681 1 20.2491 12.153 3.44565 -6.78069 0.144033 -3.36043 -0.545938 
6641 1 20.2585 9.35551 3.34217 -7.52253 0.637545 0.568293 0.473238 
8681 1 20.3466 12.7147 6.02744 -7.37337 1.34735 1.11913 -0.832485 
3682 3 19.093 13.4402 7.311 -28.3296 -2.52961 2.37238 -1.41648 
11682 1 20.164 12.5162 8.53074 -8.14197 1.82573 -1.98855 2.77128 
1681 3 16.3174 13.5021 4.57004 -28.6663 2.11687 1.0417 0.460872 
3481 2 13.8619 13.5127 2.01823 -25.0975 -0.0986663 -0.871755 -2.82548 
3881 2 24.3983 13.5561 1.83632 -24.2473 -1.90262 1.92149 -0.463975 
6642 1 20.5452 9.75279 8.66722 -7.50416 -3.4625 1.38563 1.08155 
4841 1 22.7323 7.05418 3.56147 -8.02456 -0.498986 -1.01378 -1.14903 
1041 3 27.1344 8.42168 4.52687 -28.8026 -1.34207 -2.88268 1.59487 
8641 1 20.4347 7.4889 6.15415 -8.40272 1.55091 -1.40362 -1.90572 
8841 1 25.8457 7.38367 6.14862 -6.8565 1.13189 -1.53361 -0.0532002 
1042 3 26.996 8.50361 10.0183 -29.7895 0.679339 -1.38897 -0.194562 
82 2 26.7878 11.2367 7.297 -23.7985 2.02655 -2.25293 0.156682 
4842 1 23.1975 7.14791 8.8726 -7.75466 -1.33332 0.677219 -1.03158 
882 3 21.6163 11.0225 7.15305 -29.5048 1.72154 -0.322643 0.952038 
1841 3 21.7278 8.24296 4.5719 -27.8298 -1.27816 2.08834 0.962073 
1842 2 21.748 8.46654 10.1402 -25.1229 -0.842347 0.184115 -3.35958 
2881 3 24.3014 10.7453 4.60473 -28.5587 -0.495807 1.28858 1.41314 
2882 3 24.2369 11.0595 10.229 -27.7266 0.855753 -0.942568 -2.91195 
3842 3 24.571 8.25865 7.50447 -29.586 -2.01844 0.121404 -1.08035 
4881 1 23.0266 12.4727 3.52423 -8.27351 0.142622 0.342634 -2.60015 
4882 1 23.0433 12.3617 8.69843 -7.95049 0.000490508 0.222383 0.727913 
5841 1 25.4615 9.79347 6.08072 -7.93922 1.45102 1.6635 0.980545 
6841 1 25.6949 9.48479 3.3512 -8.03119 0.681326 0.672 1.16223 
6842 1 25.3696 9.42803 9.01455 -7.73592 0.959971 2.46711 -1.09489 
7881 1 22.9633 12.0877 6.02862 -7.33177 0.575456 -0.181428 0.494975 
8881 1 25.7 12.3644 5.78363 -8.1733 -2.31057 -0.417466 1.30944 
9841 1 23.1325 9.7219 3.26604 -8.06071 -1.44856 0.747991 0.429346 
9842 1 22.9001 9.7353 8.36902 -6.30004 1.78899 0.386281 1.75521 
10841 1 22.8469 9.35758 5.87899 -7.28748 -0.633396 -0.156577 -1.52551 
11881 1 25.6271 12.2079 3.07097 -8.65202 -0.995899 -0.63562 0.376735 
11882 1 25.7053 12.393 8.81506 -8.43592 -1.01126 -0.382488 -1.69938 
1081 2 26.7978 13.6498 4.36469 -24.6812 2.23129 0.589368 0.860796 
81 2 26.8989 10.8911 1.93496 -23.7538 1.53004 -1.19931 0.0239708 
3841 2 24.2757 8.17532 1.98682 -25.0767 0.00922095 -0.642099 1.41437 
881 2 21.8091 11.2088 1.98236 -24.752 -1.93796 -1.59813 0.0937054 
3882 3 24.5238 13.6041 7.40462 -28.144 -1.76542 0.294372 -2.1126 
11004 1 4.17864 1.31 19.6236 -6.72481 -0.740503 -0.249025 -1.36879 
11044 1 3.89709 6.90422 19.2975 -7.56603 0.934504 -3.03789 0.874553 
9004 1 1.4108 4.58717 19.1443 -7.14676 -0.496584 -0.674191 0.0735341 
243 3 5.39546 5.58728 12.69 -28.7896 1.0522 -0.97682 -0.322521 
244 2 5.25018 5.67383 17.8534 -24.8278 0.470088 0.371338 1.78886 
1203 3 5.66192 3.05477 15.4355 -28.5151 -2.18674 -0.401834 -1.28551 
2043 3 2.75911 5.48703 15.1193 -29.6293 0.40672 -0.213934 0.282134 
3003 3 2.73373 2.69815 12.568 -27.9782 1.64069 0.500263 0.482641 
3004 3 2.71877 2.91623 17.8236 -29.5147 -1.2431 1.1133 1.98797 
4003 1 1.74858 1.26096 13.9213 -8.23066 -1.81282 2.94289 -3.42184 
5002 1 4.30189 4.23697 11.2072 -8.48304 -1.30528 0.567953 0.563508 
5003 1 4.08056 4.5213 16.4659 -7.53516 0.331234 -1.20214 2.12857 
6003 1 4.0832 4.24783 14.0924 -6.96749 0.362329 -1.63468 -3.03462 
7002 1 1.63836 1.53655 11.0097 -7.8443 -0.265053 -1.05396 0.909671 
7003 1 1.51874 1.40113 16.6279 -6.83639 -1.45772 0.176247 -1.33223 
8002 1 4.33187 1.56788 11.3452 -7.86525 -1.34815 0.488051 -0.0614089 
8003 1 3.93043 1.94211 16.7814 -7.75877 4.02273 -2.13214 -0.942058 
9003 1 1.43077 4.017 14.0089 -8.32213 -0.298145 0.200574 -2.27326 
10002 1 1.43257 3.99412 11.4025 -8.1125 2.13055 2.23869 1.13598 
10003 1 1.42143 3.91631 16.4643 -7.22052 2.1547 2.01717 1.81423 
11003 1 4.41473 1.64587 14.0875 -7.892 -0.859349 -0.609238 0.247222 
4004 1 1.28311 1.87654 19.0743 -7.64954 -0.188266 0.169572 1.97011 
4043 1 1.81094 6.6373 13.5315 -7.67578 -1.24603 -1.51454 0.0645223 
6004 1 3.8459 3.91796 19.3185 -6.7273 0.854116 1.55073 -0.924963 
7203 1 6.84021 1.70388 16.8414 -8.40242 -1.35362 0.0267515 -0.867262 
10203 1 6.79827 4.35002 16.8169 -8.56009 0.453296 -0.631535 -0.544565 
4204 1 6.81779 1.5913 19.6603 -7.05201 1.44246 0.57979 -2.05326 
9204 1 6.50014 4.18885 19.4628 -7.56232 0.418332 1.43739 0.222558 
9203 1 6.83292 4.25515 14.0073 -8.07232 -0.699307 0.0323585 -0.0283807 
2003 2 2.90622 0.252652 15.2917 -24.7993 -1.00543 -0.172745 1.6569 
1003 3 0.291214 2.94749 15.2007 -28.5245 -1.81605 -1.81704 1.55401 
43 2 0.225223 5.50045 12.5855 -24.6218 -1.20635 2.18231 0.459075 
203 2 5.45901 0.238887 12.7089 -25.1533 2.55269 0.308095 -1.06759 
7043 1 1.26631 6.67562 16.1215 -8.19443 -0.728723 -0.237756 1.28155 
7242 1 6.83375 6.59343 11.1413 -7.79629 -1.83354 3.67461 1.52648 
11043 1 4.21559 6.66506 13.9465 -7.0589 0.850736 1.17577 -0.211307 
204 2 5.40645 0.274877 17.9234 -25.2391 1.31294 1.07832 4.37296 
8202 1 9.38238 1.42034 11.1738 -7.49335 1.75961 -1.3751 -0.535079 
403 3 10.897 0.309123 12.3574 -29.0536 -0.342605 -1.60445 0.0683705 
11244 1 9.34596 6.78772 19.2707 -7.32375 -0.0723676 0.589774 -1.69562 
10202 1 7.00254 4.10292 11.1456 -6.72698 -0.852726 -1.36862 2.08334 
6204 1 9.16295 4.12565 19.6531 -6.98525 -0.655344 0.946797 -2.45914 
7202 1 6.97526 1.56272 11.2368 -6.68627 -1.66992 -1.43203 0.518583 
4203 1 7.02326 1.61411 14.187 -7.90639 0.0174074 -0.895202 -0.157735 
4404 1 12.3015 1.52924 19.0091 -7.70484 -0.383035 -0.117847 1.06714 
7402 1 11.9177 1.58621 10.9149 -6.9919 1.3104 -1.236 1.64049 
443 2 11.0956 5.61249 12.4377 -25.3663 -4.71837 -2.83038 1.97551 
444 3 10.8352 5.42656 18.0693 -28.8424 -2.39525 1.12535 -2.2911 
1403 2 10.8997 2.77699 15.2379 -24.5986 0.446031 0.674563 0.860659 
2243 2 8.09415 5.46437 15.3301 -25.0601 0.81771 0.887676 -1.7252 
3203 2 8.40256 2.64583 12.6421 -25.0279 -4.62087 4.88167 -3.26922 
3204 2 8.05405 2.83438 18.1999 -24.6544 1.26183 1.14383 1.38667 
4403 1 12.3133 1.27686 13.6643 -7.93326 -0.496577 0.509408 0.328196 
5202 1 9.80019 4.1453 11.1318 -6.92848 -3.58035 0.124982 0.169047 
5203 1 9.69638 4.13659 16.6371 -7.75803 -1.4608 -1.67819 0.996419 
6203 1 9.57698 4.23291 13.9104 -7.52387 -0.367497 -0.208159 0.0023671 
7403 1 12.236 1.23625 16.4352 -7.95938 -1.19769 2.94735 -0.568011 
8203 1 9.51268 1.31567 16.8724 -8.2582 -0.173569 2.41188 -0.411392 
9403 1 12.2734 4.00456 14.0548 -7.4785 -0.803718 -0.579848 -1.52696 
10402 1 12.122 4.12818 11.2434 -6.64873 4.0757 -0.076168 0.651058 
10403 1 12.3598 4.17163 16.6144 -7.42934 -0.79669 -1.79841 0.955606 
11203 1 9.59541 1.53466 13.8148 -8.49543 3.36355 -2.30262 3.76662 
9404 1 11.7559 4.28368 19.2729 -7.9669 3.09872 -0.72801 1.02188 
3404 2 13.6129 2.81635 17.8855 -24.1992 -0.719868 -0.869915 -0.927198 
3403 3 13.5285 2.92324 12.6069 -28.8066 -0.853219 -0.704852 -0.285421 
7442 1 12.1605 6.83108 11.1697 -8.00426 2.96973 2.8558 -1.21675 
7443 1 11.7896 6.63298 16.5596 -7.2757 1.35726 1.53564 1.50664 
2443 3 13.457 5.45857 15.3394 -29.3221 -0.0864384 0.451721 0.526688 
4444 1 11.9816 6.87902 19.3417 -8.50224 -0.122014 -0.748115 0.201915 
4443 1 12.085 6.63687 14.0423 -7.64601 2.64273 1.00314 -0.72775 
8243 1 9.24329 6.68489 16.6015 -7.49311 0.739554 2.07107 1.27138 
2203 3 8.24406 0.283605 15.3658 -28.7043 0.221612 -1.3988 -1.22639 
4604 1 17.861 1.38808 19.1607 -7.41964 -2.01925 -1.2237 2.01601 
603 3 16.1778 0.408626 12.3369 -28.6587 -0.114012 -1.14048 0.435959 
9604 1 17.234 4.25662 19.6338 -7.34182 1.25179 0.30921 -2.94282 
6404 1 14.6646 4.11903 19.2779 -7.88483 -0.88608 -0.273608 0.44498 
7602 1 17.3432 1.87491 11.4203 -7.61643 0.334138 -0.110764 0.307804 
5402 1 14.7795 4.29902 11.4319 -8.37194 0.195459 0.32002 -2.23688 
643 2 16.083 5.71459 12.6499 -25.0197 1.64846 -0.296863 -0.658205 
644 3 16.1348 5.47707 18.1129 -29.2649 -0.0710696 0.905171 -0.966259 
1603 2 16.1624 2.74556 15.1673 -24.8041 -0.600193 1.4231 1.01406 
2643 2 18.6201 5.45243 15.5172 -25.31 3.52265 2.72112 -1.28822 
3603 2 18.9163 3.24104 12.6461 -25.68 -0.538816 -1.99167 -2.04162 
3604 2 18.9451 2.83908 18.0347 -25.3128 -0.102801 1.66473 1.31184 
4603 1 17.8744 1.77736 14.0685 -8.00223 0.0506547 -1.11077 -0.244632 
5403 1 14.8536 4.13313 16.6381 -7.84117 1.61947 -0.745566 -0.742978 
6403 1 14.681 4.30333 13.9449 -7.49305 1.90705 -0.111204 0.637829 
7603 1 17.3292 1.62019 16.6947 -7.16165 -0.603376 0.486023 -0.258179 
8402 1 14.7645 1.61761 11.0761 -7.99267 -1.84721 -0.035826 1.13681 
8403 1 14.8356 1.09938 16.3307 -8.24864 -0.374204 0.338459 1.31475 
9603 1 17.4421 4.38409 14.1231 -7.52723 -2.49911 -3.30401 -0.826656 
10602 1 17.6082 4.69572 11.3556 -7.37159 0.341364 -1.18901 0.226226 
10603 1 17.5306 4.29503 16.9442 -7.50155 -0.666899 -2.02407 1.02161 
11403 1 14.9671 1.58875 13.7518 -7.74675 0.747791 1.12944 -0.714624 
11404 1 14.9278 1.21323 19.2886 -8.68122 0.481654 1.52564 -0.00505067 
5603 1 20.1935 4.40919 16.6213 -7.86362 1.96754 -0.759182 0.609064 
6603 1 20.1386 4.44422 13.8591 -7.42336 0.922327 1.9618 3.0738 
8603 1 19.8738 1.65336 16.5748 -7.54375 3.33909 0.419293 -1.93548 
6604 1 20.1401 4.29111 19.4107 -7.55024 0.442948 -0.521505 -2.43887 
11444 1 14.8235 6.73986 19.471 -8.80426 0.445997 1.75135 0.271258 
8602 1 20.0083 1.74176 10.958 -7.2454 1.0248 0.817186 2.10101 
8443 1 14.5862 6.85732 16.7944 -7.17723 -1.29538 -0.314974 0.156663 
4643 1 17.8437 6.70884 13.7291 -7.14284 -0.0340776 3.05444 0.285761 
7643 1 17.2416 6.76009 16.4427 -6.92018 -1.70433 2.13914 0.0489788 
4644 1 17.612 6.88993 19.0892 -7.6641 0.541807 0.151736 0.868038 
2603 3 18.8602 0.38631 15.4354 -28.6817 0.563145 -1.01459 -1.13355 
44 3 27.0415 5.59658 17.7774 -29.0544 0.630134 0.380355 0.823245 
4844 1 23.1887 6.82174 19.4025 -8.35454 -1.16682 0.64658 -0.328801 
5602 1 20.4855 4.29261 11.4027 -6.9576 -1.22997 1.74707 -0.610825 
11604 1 20.4767 1.54953 19.4061 -6.95558 -0.51483 -0.334393 -1.11508 
5802 1 25.7654 4.30633 11.4383 -8.09247 -0.216996 -0.97723 -2.20581 
11804 1 25.495 1.47749 19.4957 -7.69326 0.517021 0.679668 -1.50344 
11603 1 20.7579 1.7995 13.6424 -7.47361 -1.95568 -0.530362 -0.264327 
6804 1 25.7196 4.36767 19.1094 -8.44888 -2.19359 0.205618 -0.581859 
7802 1 23.0252 1.64945 11.3918 -7.20348 0.263707 0.262732 -0.804851 
843 3 21.5979 5.9618 12.8849 -29.0941 0.351249 -1.592 -0.903286 
844 3 21.8086 5.58737 17.979 -27.719 -2.38033 1.07436 1.18884 
1803 2 21.6835 2.95026 15.1906 -24.5682 -0.947174 0.365429 1.7395 
2843 3 24.3112 5.65182 15.4041 -27.91 0.133495 1.12207 -0.342999 
3803 2 24.4588 3.24943 12.8193 -24.6543 -3.00939 -3.10106 -2.82534 
3804 2 24.3021 2.9701 17.9726 -24.4595 0.531846 -1.58529 0.25591 
4803 1 23.2728 1.80467 13.9922 -7.78155 0.617016 0.857705 1.28465 
5803 1 25.9668 4.31542 16.436 -7.20237 -2.61546 0.542139 2.07002 
6803 1 25.4773 4.47982 14.1307 -8.10022 1.94147 0.765388 -0.736608 
7803 1 22.8391 1.37384 16.6973 -7.1724 0.233158 1.94893 -2.08531 
8802 1 25.9133 1.64545 11.4054 -8.02969 -1.08928 -1.51965 -1.62189 
8803 1 25.6976 1.68724 16.6385 -8.02626 -0.782649 0.580036 -0.31949 
9803 1 22.7761 4.56213 14.137 -8.08765 0.986323 -1.0355 0.367937 
10802 1 23.0155 4.29861 11.3259 -7.02151 1.55432 1.23583 0.930439 
10803 1 22.9476 4.36266 16.9119 -9.30982 1.46684 -0.0777919 -1.47698 
11803 1 25.9342 1.63421 13.8559 -8.17951 0.570778 0.158839 1.68705 
8843 1 25.4898 6.93587 16.7114 -8.65985 -0.744793 -0.236617 0.833886 
8842 1 25.397 6.77844 11.4463 -6.90439 1.90132 0.408073 0.622443 
4804 1 22.9585 1.72092 19.1582 -6.88636 0.15091 -2.58051 1.69413 
2803 2 24.4842 0.240698 15.1602 -24.7964 0.798892 2.06117 2.98008 
803 3 21.9553 0.405447 12.5821 -28.8213 -1.24727 0.645664 0.824365 
4 2 26.9149 0.379534 18.0222 -25.71 2.06784 -1.26598 0.0675925 
4044 1 1.28028 7.14201 18.8571 -6.45209 -0.442736 0.394397 -1.24178 
8042 1 4.18417 6.99045 11.3101 -7.95332 -0.752732 -0.715724 1.38215 
4243 1 6.7723 7.00817 13.8125 -7.53276 -0.666362 -1.93877 -0.274379 
7042 1 1.18341 7.08592 10.9975 -7.30551 1.60392 -2.33405 2.24877 
9044 1 1.55197 9.68403 19.5865 -6.69825 -1.67081 0.730477 -1.11147 
4244 1 6.55877 7.09796 19.1164 -8.02443 0.719408 -0.433996 -0.0437701 
1083 3 0.272744 13.5393 15.3022 -28.4187 -1.82956 -0.0500093 -0.977015 
4084 1 1.13143 12.2803 19.5289 -8.09195 2.2199 0.517013 -1.59629 
4284 1 6.39527 12.6023 19.0757 -7.01212 0.558782 -1.67378 -0.172704 
7243 1 6.55073 7.0055 16.3703 -7.63867 -0.215396 -0.536169 1.37621 
8043 1 3.81553 6.99639 16.462 -8.051 1.0562 1.49663 0.960826 
283 2 5.75818 10.8246 12.7155 -24.7155 -2.77422 0.147231 -0.804539 
284 3 5.42905 10.9167 17.8549 -29.4326 -0.404821 -0.369044 1.38026 
1243 3 5.31682 8.18816 15.1976 -29.3163 0.724631 0.297306 0.363518 
2083 2 2.63262 10.8098 15.1398 -25.5577 1.70762 -0.502349 0.51541 
3043 3 2.67525 8.13435 12.6789 -28.9781 1.18461 1.83715 -1.55586 
3044 3 2.74895 8.18017 17.6931 -29.1135 0.602747 -0.396375 3.80409 
4083 1 1.33003 12.0616 13.895 -8.31754 0.239112 2.05731 -0.448046 
5042 1 4.35342 9.56994 11.1653 -7.14701 -1.04498 1.23089 2.1193 
5043 1 4.22202 9.91912 16.4434 -7.50134 0.368137 -0.932655 0.460553 
6043 1 4.02245 9.23845 13.9893 -7.48552 0.299249 0.332267 -1.29745 
7082 1 1.39314 12.248 10.9561 -7.45138 0.922892 1.62621 0.453673 
7083 1 1.30545 12.0381 16.5103 -8.19223 -1.04715 1.05749 1.82001 
8082 1 4.07607 12.4543 11.038 -7.38809 -1.09744 0.110858 2.42183 
8083 1 3.72236 12.6696 16.2885 -7.62907 -3.01941 -1.5122 3.60754 
9043 1 1.41393 9.27134 13.9263 -7.49933 -1.29492 0.740742 1.95289 
10042 1 1.43627 9.66087 11.3704 -7.24986 0.938778 0.0134784 -0.0572055 
10043 1 1.68943 9.44408 16.801 -8.18581 -3.12522 0.608362 -1.56117 
11083 1 4.09519 11.9135 13.8136 -7.51433 0.941601 0.717025 -0.734902 
7283 1 6.3774 12.0525 16.3925 -7.66497 0.398722 1.68342 0.107596 
10243 1 6.89039 9.74833 16.9244 -6.51402 -0.381081 -1.4675 0.552684 
10242 1 6.91479 9.57649 11.32 -8.37588 1.66473 -1.22117 0.311691 
9243 1 6.76307 9.53307 14.3398 -7.25967 -3.13766 1.3589 -1.99904 
7282 1 6.79079 12.2553 11.2662 -7.09302 0.306662 -1.59188 0.340427 
9244 1 6.58472 9.83565 19.5214 -7.24644 -0.616403 0.0724067 -0.452812 
1283 2 5.24422 13.5498 15.3548 -24.5883 3.79351 2.9221 -4.50044 
6044 1 4.00093 9.26785 19.0227 -6.70181 1.62214 2.41508 -0.595845 
11084 1 3.89536 12.1444 19.194 -8.0349 -1.19945 -0.603131 -0.147767 
3284 3 8.15456 13.5868 18.0199 -28.7534 -2.64493 1.58011 0.713541 
3484 2 13.58 13.3217 17.9791 -24.6329 0.704335 1.40289 -0.593509 
3283 3 7.9709 13.6439 12.6084 -28.6211 1.40511 0.168004 -1.80078 
3483 2 13.491 13.5227 12.5607 -25.2936 -0.633701 1.87135 1.88593 
4283 1 7.04052 12.2859 13.8438 -8.27459 -1.08911 -0.484738 0.164179 
9444 1 12.2568 9.48428 19.6457 -7.76208 -1.3739 -0.361241 -0.218508 
4484 1 12.1046 12.1755 19.523 -8.42175 -0.0630927 -0.533184 -2.0191 
8242 1 9.61186 6.95905 11.1543 -7.08447 -1.65454 -0.0498185 1.01605 
11284 1 9.01664 12.3021 19.3711 -7.89329 2.23188 -0.97445 -0.916936 
11243 1 9.57889 7.06039 13.9343 -7.02983 -0.490013 -1.55631 -0.163721 
6244 1 9.34244 9.69144 19.3384 -7.77137 0.420722 -1.74582 0.671117 
10442 1 12.4501 9.71893 11.3444 -7.33408 1.0427 -0.537853 -0.0576553 
483 2 10.931 11.1084 12.6633 -25.7159 0.105384 -2.61 -0.615126 
484 2 10.4513 10.9614 17.9545 -23.9092 1.47041 0.917515 0.88253 
1443 3 10.8811 8.00831 15.3178 -28.8112 -1.36884 0.351726 -0.552072 
2283 3 7.93694 11.1383 15.2433 -29.3708 1.81367 -2.94429 1.37238 
3243 2 8.12482 8.16677 12.6597 -25.3789 2.10209 0.828008 -0.948023 