# LAMMPS data file written by Ovito Basic 3.0.0-dev791
320 atoms
5 atom types
-9.11425 9.11425 xlo xhi
-7.2914 7.2914 ylo yhi
-7.2914 7.2914 zlo zhi

Atoms  # atomic

1 5 -9.11425 -5.46855 -5.46855
2 5 -9.11425 -7.2914 -7.2914
3 5 -7.2914 -7.2914 -5.46855
4 5 -7.2914 -5.46855 -7.2914
82 4 -9.11425 -7.2914 -3.6457
84 3 -7.2914 -5.46855 -3.6457
22 4 -9.11425 -3.6457 -7.2914
23 2 -7.2914 -3.6457 -5.46855
102 4 -9.11425 -3.6457 -3.6457
5 1 -5.46855 -5.46855 -5.46855
6 4 -5.46855 -7.2914 -7.2914
86 4 -5.46855 -7.2914 -3.6457
26 4 -5.46855 -3.6457 -7.2914
106 4 -5.46855 -3.6457 -3.6457
7 2 -3.6457 -7.2914 -5.46855
8 3 -3.6457 -5.46855 -7.2914
88 3 -3.6457 -5.46855 -3.6457
27 2 -3.6457 -3.6457 -5.46855
9 5 -1.82285 -5.46855 -5.46855
10 4 -1.82285 -7.2914 -7.2914
11 5 0.0 -7.2914 -5.46855
12 5 0.0 -5.46855 -7.2914
90 5 -1.82285 -7.2914 -3.6457
92 3 0.0 -5.46855 -3.6457
30 4 -1.82285 -3.6457 -7.2914
31 2 0.0 -3.6457 -5.46855
110 4 -1.82285 -3.6457 -3.6457
13 1 1.82285 -5.46855 -5.46855
14 4 1.82285 -7.2914 -7.2914
15 2 3.6457 -7.2914 -5.46855
16 3 3.6457 -5.46855 -7.2914
94 4 1.82285 -7.2914 -3.6457
96 3 3.6457 -5.46855 -3.6457
34 4 1.82285 -3.6457 -7.2914
35 2 3.6457 -3.6457 -5.46855
114 4 1.82285 -3.6457 -3.6457
17 5 5.46855 -5.46855 -5.46855
18 5 5.46855 -7.2914 -7.2914
19 5 7.2914 -7.2914 -5.46855
20 5 7.2914 -5.46855 -7.2914
98 4 5.46855 -7.2914 -3.6457
100 3 7.2914 -5.46855 -3.6457
38 4 5.46855 -3.6457 -7.2914
39 2 7.2914 -3.6457 -5.46855
118 4 5.46855 -3.6457 -3.6457
21 1 -9.11425 -1.82285 -5.46855
24 3 -7.2914 -1.82285 -7.2914
104 3 -7.2914 -1.82285 -3.6457
41 1 -9.11425 1.82285 -5.46855
42 4 -9.11425 0.0 -7.2914
43 2 -7.2914 0.0 -5.46855
44 3 -7.2914 1.82285 -7.2914
122 4 -9.11425 0.0 -3.6457
124 3 -7.2914 1.82285 -3.6457
25 1 -5.46855 -1.82285 -5.46855
45 1 -5.46855 1.82285 -5.46855
46 4 -5.46855 0.0 -7.2914
126 4 -5.46855 0.0 -3.6457
28 3 -3.6457 -1.82285 -7.2914
108 3 -3.6457 -1.82285 -3.6457
47 2 -3.6457 0.0 -5.46855
48 3 -3.6457 1.82285 -7.2914
128 3 -3.6457 1.82285 -3.6457
29 1 -1.82285 -1.82285 -5.46855
32 3 0.0 -1.82285 -7.2914
112 5 0.0 -1.82285 -3.6457
49 5 -1.82285 1.82285 -5.46855
50 5 -1.82285 0.0 -7.2914
51 5 0.0 0.0 -5.46855
52 3 0.0 1.82285 -7.2914
130 4 -1.82285 0.0 -3.6457
132 3 0.0 1.82285 -3.6457
33 1 1.82285 -1.82285 -5.46855
36 3 3.6457 -1.82285 -7.2914
116 3 3.6457 -1.82285 -3.6457
53 1 1.82285 1.82285 -5.46855
54 4 1.82285 0.0 -7.2914
55 2 3.6457 0.0 -5.46855
56 3 3.6457 1.82285 -7.2914
134 4 1.82285 0.0 -3.6457
136 3 3.6457 1.82285 -3.6457
37 1 5.46855 -1.82285 -5.46855
40 3 7.2914 -1.82285 -7.2914
120 3 7.2914 -1.82285 -3.6457
57 1 5.46855 1.82285 -5.46855
58 4 5.46855 0.0 -7.2914
59 2 7.2914 0.0 -5.46855
60 3 7.2914 1.82285 -7.2914
138 4 5.46855 0.0 -3.6457
140 3 7.2914 1.82285 -3.6457
61 1 -9.11425 5.46855 -5.46855
62 4 -9.11425 3.6457 -7.2914
63 2 -7.2914 3.6457 -5.46855
64 3 -7.2914 5.46855 -7.2914
142 4 -9.11425 3.6457 -3.6457
144 3 -7.2914 5.46855 -3.6457
65 1 -5.46855 5.46855 -5.46855
66 4 -5.46855 3.6457 -7.2914
146 4 -5.46855 3.6457 -3.6457
67 2 -3.6457 3.6457 -5.46855
68 3 -3.6457 5.46855 -7.2914
148 5 -3.6457 5.46855 -3.6457
69 5 -1.82285 5.46855 -5.46855
70 5 -1.82285 3.6457 -7.2914
71 5 0.0 3.6457 -5.46855
72 3 0.0 5.46855 -7.2914
150 4 -1.82285 3.6457 -3.6457
152 3 0.0 5.46855 -3.6457
73 5 1.82285 5.46855 -5.46855
74 5 1.82285 3.6457 -7.2914
75 5 3.6457 3.6457 -5.46855
76 5 3.6457 5.46855 -7.2914
154 4 1.82285 3.6457 -3.6457
156 3 3.6457 5.46855 -3.6457
77 1 5.46855 5.46855 -5.46855
78 4 5.46855 3.6457 -7.2914
79 2 7.2914 3.6457 -5.46855
80 3 7.2914 5.46855 -7.2914
158 4 5.46855 3.6457 -3.6457
160 3 7.2914 5.46855 -3.6457
81 1 -9.11425 -5.46855 -1.82285
83 2 -7.2914 -7.2914 -1.82285
161 1 -9.11425 -5.46855 1.82285
162 4 -9.11425 -7.2914 0.0
163 2 -7.2914 -7.2914 1.82285
164 5 -7.2914 -5.46855 0.0
103 2 -7.2914 -3.6457 -1.82285
182 5 -9.11425 -3.6457 0.0
183 5 -7.2914 -3.6457 1.82285
85 5 -5.46855 -5.46855 -1.82285
165 1 -5.46855 -5.46855 1.82285
166 4 -5.46855 -7.2914 0.0
186 4 -5.46855 -3.6457 0.0
87 2 -3.6457 -7.2914 -1.82285
167 2 -3.6457 -7.2914 1.82285
168 3 -3.6457 -5.46855 0.0
107 2 -3.6457 -3.6457 -1.82285
187 2 -3.6457 -3.6457 1.82285
89 1 -1.82285 -5.46855 -1.82285
91 2 0.0 -7.2914 -1.82285
169 5 -1.82285 -5.46855 1.82285
170 5 -1.82285 -7.2914 0.0
171 5 0.0 -7.2914 1.82285
172 5 0.0 -5.46855 0.0
111 2 0.0 -3.6457 -1.82285
190 4 -1.82285 -3.6457 0.0
191 2 0.0 -3.6457 1.82285
93 1 1.82285 -5.46855 -1.82285
95 2 3.6457 -7.2914 -1.82285
173 5 1.82285 -5.46855 1.82285
174 5 1.82285 -7.2914 0.0
175 5 3.6457 -7.2914 1.82285
176 5 3.6457 -5.46855 0.0
115 2 3.6457 -3.6457 -1.82285
194 4 1.82285 -3.6457 0.0
195 2 3.6457 -3.6457 1.82285
97 1 5.46855 -5.46855 -1.82285
99 2 7.2914 -7.2914 -1.82285
177 1 5.46855 -5.46855 1.82285
178 4 5.46855 -7.2914 0.0
179 2 7.2914 -7.2914 1.82285
180 3 7.2914 -5.46855 0.0
119 2 7.2914 -3.6457 -1.82285
198 4 5.46855 -3.6457 0.0
199 2 7.2914 -3.6457 1.82285
101 1 -9.11425 -1.82285 -1.82285
181 1 -9.11425 -1.82285 1.82285
184 3 -7.2914 -1.82285 0.0
121 1 -9.11425 1.82285 -1.82285
123 2 -7.2914 0.0 -1.82285
201 5 -9.11425 1.82285 1.82285
202 5 -9.11425 0.0 0.0
203 5 -7.2914 0.0 1.82285
204 5 -7.2914 1.82285 0.0
105 1 -5.46855 -1.82285 -1.82285
185 1 -5.46855 -1.82285 1.82285
125 1 -5.46855 1.82285 -1.82285
205 1 -5.46855 1.82285 1.82285
206 4 -5.46855 0.0 0.0
188 3 -3.6457 -1.82285 0.0
127 2 -3.6457 0.0 -1.82285
207 2 -3.6457 0.0 1.82285
208 3 -3.6457 1.82285 0.0
109 1 -1.82285 -1.82285 -1.82285
189 1 -1.82285 -1.82285 1.82285
192 3 0.0 -1.82285 0.0
129 1 -1.82285 1.82285 -1.82285
131 2 0.0 0.0 -1.82285
209 1 -1.82285 1.82285 1.82285
210 4 -1.82285 0.0 0.0
211 2 0.0 0.0 1.82285
212 3 0.0 1.82285 0.0
113 1 1.82285 -1.82285 -1.82285
193 1 1.82285 -1.82285 1.82285
196 3 3.6457 -1.82285 0.0
133 1 1.82285 1.82285 -1.82285
135 2 3.6457 0.0 -1.82285
213 5 1.82285 1.82285 1.82285
214 5 1.82285 0.0 0.0
215 5 3.6457 0.0 1.82285
216 5 3.6457 1.82285 0.0
117 1 5.46855 -1.82285 -1.82285
197 1 5.46855 -1.82285 1.82285
200 3 7.2914 -1.82285 0.0
137 1 5.46855 1.82285 -1.82285
139 2 7.2914 0.0 -1.82285
217 1 5.46855 1.82285 1.82285
218 4 5.46855 0.0 0.0
219 2 7.2914 0.0 1.82285
220 3 7.2914 1.82285 0.0
141 1 -9.11425 5.46855 -1.82285
143 2 -7.2914 3.6457 -1.82285
221 1 -9.11425 5.46855 1.82285
222 4 -9.11425 3.6457 0.0
223 2 -7.2914 3.6457 1.82285
224 3 -7.2914 5.46855 0.0
145 1 -5.46855 5.46855 -1.82285
225 1 -5.46855 5.46855 1.82285
226 4 -5.46855 3.6457 0.0
147 2 -3.6457 3.6457 -1.82285
227 2 -3.6457 3.6457 1.82285
228 3 -3.6457 5.46855 0.0
149 1 -1.82285 5.46855 -1.82285
151 2 0.0 3.6457 -1.82285
229 1 -1.82285 5.46855 1.82285
230 4 -1.82285 3.6457 0.0
231 2 0.0 3.6457 1.82285
232 3 0.0 5.46855 0.0
153 1 1.82285 5.46855 -1.82285
155 2 3.6457 3.6457 -1.82285
233 1 1.82285 5.46855 1.82285
234 4 1.82285 3.6457 0.0
235 2 3.6457 3.6457 1.82285
236 3 3.6457 5.46855 0.0
157 1 5.46855 5.46855 -1.82285
159 2 7.2914 3.6457 -1.82285
237 1 5.46855 5.46855 1.82285
238 4 5.46855 3.6457 0.0
239 2 7.2914 3.6457 1.82285
240 3 7.2914 5.46855 0.0
241 1 -9.11425 -5.46855 5.46855
242 4 -9.11425 -7.2914 3.6457
243 2 -7.2914 -7.2914 5.46855
244 5 -7.2914 -5.46855 3.6457
262 5 -9.11425 -3.6457 3.6457
263 5 -7.2914 -3.6457 5.46855
245 5 -5.46855 -5.46855 5.46855
246 4 -5.46855 -7.2914 3.6457
266 4 -5.46855 -3.6457 3.6457
247 2 -3.6457 -7.2914 5.46855
248 3 -3.6457 -5.46855 3.6457
267 2 -3.6457 -3.6457 5.46855
249 1 -1.82285 -5.46855 5.46855
250 4 -1.82285 -7.2914 3.6457
251 2 0.0 -7.2914 5.46855
252 5 0.0 -5.46855 3.6457
270 5 -1.82285 -3.6457 3.6457
271 5 0.0 -3.6457 5.46855
253 5 1.82285 -5.46855 5.46855
254 4 1.82285 -7.2914 3.6457
255 2 3.6457 -7.2914 5.46855
256 3 3.6457 -5.46855 3.6457
274 4 1.82285 -3.6457 3.6457
275 2 3.6457 -3.6457 5.46855
257 1 5.46855 -5.46855 5.46855
258 4 5.46855 -7.2914 3.6457
259 2 7.2914 -7.2914 5.46855
260 3 7.2914 -5.46855 3.6457
278 4 5.46855 -3.6457 3.6457
279 2 7.2914 -3.6457 5.46855
261 1 -9.11425 -1.82285 5.46855
264 3 -7.2914 -1.82285 3.6457
281 1 -9.11425 1.82285 5.46855
282 4 -9.11425 0.0 3.6457
283 2 -7.2914 0.0 5.46855
284 3 -7.2914 1.82285 3.6457
265 1 -5.46855 -1.82285 5.46855
285 1 -5.46855 1.82285 5.46855
286 4 -5.46855 0.0 3.6457
268 3 -3.6457 -1.82285 3.6457
287 2 -3.6457 0.0 5.46855
288 3 -3.6457 1.82285 3.6457
269 1 -1.82285 -1.82285 5.46855
272 3 0.0 -1.82285 3.6457
289 1 -1.82285 1.82285 5.46855
290 4 -1.82285 0.0 3.6457
291 2 0.0 0.0 5.46855
292 3 0.0 1.82285 3.6457
273 1 1.82285 -1.82285 5.46855
276 5 3.6457 -1.82285 3.6457
293 5 1.82285 1.82285 5.46855
294 5 1.82285 0.0 3.6457
295 5 3.6457 0.0 5.46855
296 3 3.6457 1.82285 3.6457
277 1 5.46855 -1.82285 5.46855
280 3 7.2914 -1.82285 3.6457
297 1 5.46855 1.82285 5.46855
298 4 5.46855 0.0 3.6457
299 2 7.2914 0.0 5.46855
300 3 7.2914 1.82285 3.6457
301 5 -9.11425 5.46855 5.46855
302 5 -9.11425 3.6457 3.6457
303 5 -7.2914 3.6457 5.46855
304 5 -7.2914 5.46855 3.6457
305 1 -5.46855 5.46855 5.46855
306 4 -5.46855 3.6457 3.6457
307 2 -3.6457 3.6457 5.46855
308 3 -3.6457 5.46855 3.6457
309 1 -1.82285 5.46855 5.46855
310 4 -1.82285 3.6457 3.6457
311 2 0.0 3.6457 5.46855
312 3 0.0 5.46855 3.6457
313 1 1.82285 5.46855 5.46855
314 4 1.82285 3.6457 3.6457
315 2 3.6457 3.6457 5.46855
316 3 3.6457 5.46855 3.6457
317 5 5.46855 5.46855 5.46855
318 5 5.46855 3.6457 3.6457
319 5 7.2914 3.6457 5.46855
320 5 7.2914 5.46855 3.6457
