LAMMPS (22 Dec 2022)
  using 1 OpenMP thread(s) per MPI task
Loaded 1 plugins from C:\Program Files\LAMMPS 64-bit 23Jun2022\plugins
Loaded 0 plugins from C:\Program Files\LAMMPS 64-bit 23Jun2022-MPI\plugins
Loaded 1 plugins from C:\Program Files\LAMMPS 64-bit 22Dec2022-MSMPI\plugins
Loaded 1 plugins from C:\Program Files\LAMMPS 64-bit 28Mar2023-MPI\plugins
#------------------------------------------------------------------------------------------
# LAMMPS 64-bit 22Dec2022-MSMPI
#------------------------------------------------------------------------------------------
clear
  using 1 OpenMP thread(s) per MPI task
Loaded 1 plugins from C:\Program Files\LAMMPS 64-bit 23Jun2022\plugins
Loaded 0 plugins from C:\Program Files\LAMMPS 64-bit 23Jun2022-MPI\plugins
Loaded 1 plugins from C:\Program Files\LAMMPS 64-bit 22Dec2022-MSMPI\plugins
Loaded 1 plugins from C:\Program Files\LAMMPS 64-bit 28Mar2023-MPI\plugins
#echo both
# ---------- Initializing Simulation ---------------------------------
units metal
dimension 3
boundary p p p
atom_style atomic
atom_modify map array

#read_data ./../../NiTi.data
#read_data ./../../TiC.data
read_data ./../../NiC.data
Reading data file ...
  orthogonal box = (0 0 0) to (4.08 4.08 4.08)
  2 by 2 by 2 MPI processor grid
  reading atoms ...
  8 atoms
  read_data CPU = 0.001 seconds

replicate 1 1 1
Replication is creating a 1x1x1 = 1 times larger system...
  orthogonal box = (0 0 0) to (4.08 4.08 4.08)
  2 by 2 by 2 MPI processor grid
  8 atoms
  replicate CPU = 0.000 seconds

# ---------- Defining the Interatomic Potential ---------------------
pair_style meam
#pair_coeff * * ./../../library.meam Ni Ti C ./../../NiTiC.meam Ni Ti
#pair_coeff * * ./../../library.meam Ni Ti C ./../../NiTiC.meam Ti C
pair_coeff * * ./../../library.meam Ni Ti C ./../../NiTiC.meam Ni C

# ---------- Running Minimization -------------------------------------
fix 1 all box/relax iso 0.0 vmax 0.001

thermo 10
thermo_style custom step pe etotal lx ly lz vol press pxx pyy pzz

min_style cg
minimize 1e-25 1e-25 5000 10000
Neighbor list info ...
  update: every = 1 steps, delay = 0 steps, check = yes
  max neighbors/atom: 2000, page size: 100000
  master list distance cutoff = 6.8
  ghost atom cutoff = 6.8
  binsize = 3.4, bins = 2 2 2
  2 neighbor lists, perpetual/occasional/extra = 2 0 0
  (1) pair meam, perpetual
      attributes: full, newton on
      pair build: full/bin/atomonly
      stencil: full/bin/3d
      bin: standard
  (2) pair meam, perpetual, half/full from (1)
      attributes: half, newton on
      pair build: halffull/newton
      stencil: none
      bin: none
Per MPI rank memory allocation (min/avg/max) = 9.684 | 9.684 | 9.684 Mbytes
   Step         PotEng         TotEng           Lx             Ly             Lz           Volume         Press           Pxx            Pyy            Pzz      
         0  -39.52         -39.52          4.08           4.08           4.08           67.917312      0.0096116139   0.0096116139   0.0096116139   0.0096116139 
         2  -39.52         -39.52          4.08           4.08           4.08           67.917312     -1.5387312e-09 -1.5387312e-09 -1.5387312e-09 -1.5387312e-09
Loop time of 0.00149862 on 8 procs for 2 steps with 8 atoms

0.0% CPU use with 8 MPI tasks x 1 OpenMP threads

Minimization stats:
  Stopping criterion = energy tolerance
  Energy initial, next-to-last, final = 
     -39.5200000012822  -39.5200000012822  -39.5200000012822
  Force two-norm initial, final = 1.2223278e-06 1.9568347e-13
  Force max component initial, final = 1.2223278e-06 1.9568347e-13
  Final line search alpha, max atom move = 1 1.9568347e-13
  Iterations, force evaluations = 2 4

MPI task timing breakdown:
Section |  min time  |  avg time  |  max time  |%varavg| %total
---------------------------------------------------------------
Pair    | 0.000847   | 0.00090275 | 0.001055   |   0.0 | 60.24
Neigh   | 0          | 0          | 0          |   0.0 |  0.00
Comm    | 0.000166   | 0.00031012 | 0.000376   |   0.0 | 20.69
Output  | 0          | 0          | 0          |   0.0 |  0.00
Modify  | 0          | 0          | 0          |   0.0 |  0.00
Other   |            | 0.0002858  |            |       | 19.07

Nlocal:              1 ave           1 max           1 min
Histogram: 8 0 0 0 0 0 0 0 0 0
Nghost:            511 ave         511 max         511 min
Histogram: 8 0 0 0 0 0 0 0 0 0
Neighs:             85 ave          85 max          85 min
Histogram: 8 0 0 0 0 0 0 0 0 0
FullNghs:          170 ave         170 max         170 min
Histogram: 8 0 0 0 0 0 0 0 0 0

Total # of neighbors = 1360
Ave neighs/atom = 170
Neighbor list builds = 0
Dangerous builds = 0

variable  natoms equal "count(all)"
variable      x0 equal "lx"
variable      y0 equal "ly"
variable      z0 equal "lz"
variable      v0 equal "vol"
variable   etot0 equal "etotal"
variable   ecoh0 equal "pe/v_natoms"

unfix 1
write_data ./../step2_elastic/data.in
System init for write_data ...

# ---------- For Equation of States -------------------------------------
change_box all x scale 0.94 y scale 0.94 z scale 0.94 remap
Changing box ...
  orthogonal box = (0.1224 -2.6065708e-09 -2.6065708e-09) to (3.9576 4.08 4.08)
  orthogonal box = (0.1224 0.1224 -2.6065708e-09) to (3.9576 3.9576 4.08)
  orthogonal box = (0.1224 0.1224 0.1224) to (3.9576 3.9576 3.9576)
run 1
WARNING: No fixes with time integration, atoms won't move (src/verlet.cpp:60)
WARNING: Proc sub-domain size < neighbor skin, could lead to lost atoms (src/domain.cpp:966)
Per MPI rank memory allocation (min/avg/max) = 8.559 | 8.559 | 8.559 Mbytes
   Step         PotEng         TotEng           Lx             Ly             Lz           Volume         Press           Pxx            Pyy            Pzz      
         2  -37.418516     -37.418516      3.8352         3.8352         3.8352         56.411033      686206.82      686206.82      686206.82      686206.82    
         3  -37.418516     -37.418516      3.8352         3.8352         3.8352         56.411033      686206.82      686206.82      686206.82      686206.82    
Loop time of 0.000184375 on 8 procs for 1 steps with 8 atoms

Performance: 468.610 ns/day, 0.051 hours/ns, 5423.729 timesteps/s, 43.390 katom-step/s
0.0% CPU use with 8 MPI tasks x 1 OpenMP threads

MPI task timing breakdown:
Section |  min time  |  avg time  |  max time  |%varavg| %total
---------------------------------------------------------------
Pair    | 0.00012    | 0.000135   | 0.000147   |   0.0 | 73.22
Neigh   | 0          | 0          | 0          |   0.0 |  0.00
Comm    | 2e-05      | 3.225e-05  | 4.8e-05    |   0.0 | 17.49
Output  | 1.2e-05    | 1.275e-05  | 1.3e-05    |   0.0 |  6.92
Modify  | 0          | 2.5e-07    | 1e-06      |   0.0 |  0.14
Other   |            | 4.125e-06  |            |       |  2.24

Nlocal:              1 ave           1 max           1 min
Histogram: 8 0 0 0 0 0 0 0 0 0
Nghost:            511 ave         511 max         511 min
Histogram: 8 0 0 0 0 0 0 0 0 0
Neighs:             89 ave          89 max          89 min
Histogram: 8 0 0 0 0 0 0 0 0 0
FullNghs:          178 ave         178 max         178 min
Histogram: 8 0 0 0 0 0 0 0 0 0

Total # of neighbors = 1424
Ave neighs/atom = 178
Neighbor list builds = 0
Dangerous builds = 0
print "# Lattice constant (Angstroms), Volume (Angstrom), Total energy (eV), Cohesive energy (eV/atom)" file lattice_cohesive_energy.txt screen no


# Loop over lattice constants
variable i loop 49 # Number of steps
label loop

change_box all x scale 1.0025 y scale 1.0025 z scale 1.0025 remap
Changing box ...
  orthogonal box = (0.117606 0.1224 0.1224) to (3.962394 3.9576 3.9576)
  orthogonal box = (0.117606 0.117606 0.1224) to (3.962394 3.962394 3.9576)
  orthogonal box = (0.117606 0.117606 0.117606) to (3.962394 3.962394 3.962394)

run 1
WARNING: No fixes with time integration, atoms won't move (src/verlet.cpp:60)
WARNING: Proc sub-domain size < neighbor skin, could lead to lost atoms (src/domain.cpp:966)
Per MPI rank memory allocation (min/avg/max) = 8.559 | 8.559 | 8.559 Mbytes
   Step         PotEng         TotEng           Lx             Ly             Lz           Volume         Press           Pxx            Pyy            Pzz      
         3  -37.595156     -37.595156      3.844788       3.844788       3.844788       56.835174      648504.53      648504.53      648504.53      648504.53    
         4  -37.595156     -37.595156      3.844788       3.844788       3.844788       56.835174      648504.53      648504.53      648504.53      648504.53    
Loop time of 0.000214625 on 8 procs for 1 steps with 8 atoms

Performance: 402.563 ns/day, 0.060 hours/ns, 4659.289 timesteps/s, 37.274 katom-step/s
0.0% CPU use with 8 MPI tasks x 1 OpenMP threads

MPI task timing breakdown:
Section |  min time  |  avg time  |  max time  |%varavg| %total
---------------------------------------------------------------
Pair    | 0.000107   | 0.00012287 | 0.000164   |   0.0 | 57.25
Neigh   | 0          | 0          | 0          |   0.0 |  0.00
Comm    | 2.2e-05    | 6.2875e-05 | 7.8e-05    |   0.0 | 29.30
Output  | 2e-05      | 2.15e-05   | 2.3e-05    |   0.0 | 10.02
Modify  | 0          | 5e-07      | 2e-06      |   0.0 |  0.23
Other   |            | 6.875e-06  |            |       |  3.20

Nlocal:              1 ave           1 max           1 min
Histogram: 8 0 0 0 0 0 0 0 0 0
Nghost:            511 ave         511 max         511 min
Histogram: 8 0 0 0 0 0 0 0 0 0
Neighs:             89 ave          89 max          89 min
Histogram: 8 0 0 0 0 0 0 0 0 0
FullNghs:          178 ave         178 max         178 min
Histogram: 8 0 0 0 0 0 0 0 0 0

Total # of neighbors = 1424
Ave neighs/atom = 178
Neighbor list builds = 0
Dangerous builds = 0
variable  natoms equal "count(all)"
variable xlength equal "lx"
variable  volume equal "vol"
variable  etotal equal "etotal"
variable    ecoh equal "pe/v_natoms"
print "${xlength}, ${volume}, ${etotal}, ${ecoh}" append lattice_cohesive_energy.txt screen no

next i
jump SELF loop

change_box all x scale 1.0025 y scale 1.0025 z scale 1.0025 remap
Changing box ...
  orthogonal box = (0.11280001 0.117606 0.117606) to (3.9672 3.962394 3.962394)
  orthogonal box = (0.11280001 0.11280001 0.117606) to (3.9672 3.9672 3.962394)
  orthogonal box = (0.11280001 0.11280001 0.11280001) to (3.9672 3.9672 3.9672)

run 1
WARNING: No fixes with time integration, atoms won't move (src/verlet.cpp:60)
WARNING: Proc sub-domain size < neighbor skin, could lead to lost atoms (src/domain.cpp:966)
Per MPI rank memory allocation (min/avg/max) = 8.559 | 8.559 | 8.559 Mbytes
   Step         PotEng         TotEng           Lx             Ly             Lz           Volume         Press           Pxx            Pyy            Pzz      
         4  -37.763199     -37.763199      3.8544         3.8544         3.8544         57.262505      611772.64      611772.64      611772.64      611772.64    
         5  -37.763199     -37.763199      3.8544         3.8544         3.8544         57.262505      611772.64      611772.64      611772.64      611772.64    
Loop time of 0.0001935 on 8 procs for 1 steps with 8 atoms

Performance: 446.512 ns/day, 0.054 hours/ns, 5167.959 timesteps/s, 41.344 katom-step/s
0.0% CPU use with 8 MPI tasks x 1 OpenMP threads

MPI task timing breakdown:
Section |  min time  |  avg time  |  max time  |%varavg| %total
---------------------------------------------------------------
Pair    | 0.000138   | 0.0001425  | 0.000146   |   0.0 | 73.64
Neigh   | 0          | 0          | 0          |   0.0 |  0.00
Comm    | 2.6e-05    | 2.9625e-05 | 3.4e-05    |   0.0 | 15.31
Output  | 1.4e-05    | 1.575e-05  | 1.7e-05    |   0.0 |  8.14
Modify  | 0          | 0          | 0          |   0.0 |  0.00
Other   |            | 5.625e-06  |            |       |  2.91

Nlocal:              1 ave           1 max           1 min
Histogram: 8 0 0 0 0 0 0 0 0 0
Nghost:            511 ave         511 max         511 min
Histogram: 8 0 0 0 0 0 0 0 0 0
Neighs:             89 ave          89 max          89 min
Histogram: 8 0 0 0 0 0 0 0 0 0
FullNghs:          178 ave         178 max         178 min
Histogram: 8 0 0 0 0 0 0 0 0 0

Total # of neighbors = 1424
Ave neighs/atom = 178
Neighbor list builds = 0
Dangerous builds = 0
variable  natoms equal "count(all)"
variable xlength equal "lx"
variable  volume equal "vol"
variable  etotal equal "etotal"
variable    ecoh equal "pe/v_natoms"
print "${xlength}, ${volume}, ${etotal}, ${ecoh}" append lattice_cohesive_energy.txt screen no

next i
jump SELF loop

change_box all x scale 1.0025 y scale 1.0025 z scale 1.0025 remap
Changing box ...
  orthogonal box = (0.10798201 0.11280001 0.11280001) to (3.972018 3.9672 3.9672)
  orthogonal box = (0.10798201 0.10798201 0.11280001) to (3.972018 3.972018 3.9672)
  orthogonal box = (0.10798201 0.10798201 0.10798201) to (3.972018 3.972018 3.972018)

run 1
WARNING: No fixes with time integration, atoms won't move (src/verlet.cpp:60)
WARNING: Proc sub-domain size < neighbor skin, could lead to lost atoms (src/domain.cpp:966)
Per MPI rank memory allocation (min/avg/max) = 8.559 | 8.559 | 8.559 Mbytes
   Step         PotEng         TotEng           Lx             Ly             Lz           Volume         Press           Pxx            Pyy            Pzz      
         5  -37.922762     -37.922762      3.864036       3.864036       3.864036       57.693048      575992.86      575992.86      575992.86      575992.86    
         6  -37.922762     -37.922762      3.864036       3.864036       3.864036       57.693048      575992.86      575992.86      575992.86      575992.86    
Loop time of 0.0001975 on 8 procs for 1 steps with 8 atoms

Performance: 437.468 ns/day, 0.055 hours/ns, 5063.291 timesteps/s, 40.506 katom-step/s
0.0% CPU use with 8 MPI tasks x 1 OpenMP threads

MPI task timing breakdown:
Section |  min time  |  avg time  |  max time  |%varavg| %total
---------------------------------------------------------------
Pair    | 0.00014    | 0.00014525 | 0.000148   |   0.0 | 73.54
Neigh   | 0          | 0          | 0          |   0.0 |  0.00
Comm    | 2.8e-05    | 3.0875e-05 | 3.7e-05    |   0.0 | 15.63
Output  | 1.5e-05    | 1.6375e-05 | 1.8e-05    |   0.0 |  8.29
Modify  | 0          | 2.5e-07    | 1e-06      |   0.0 |  0.13
Other   |            | 4.75e-06   |            |       |  2.41

Nlocal:              1 ave           1 max           1 min
Histogram: 8 0 0 0 0 0 0 0 0 0
Nghost:            511 ave         511 max         511 min
Histogram: 8 0 0 0 0 0 0 0 0 0
Neighs:             89 ave          89 max          89 min
Histogram: 8 0 0 0 0 0 0 0 0 0
FullNghs:          178 ave         178 max         178 min
Histogram: 8 0 0 0 0 0 0 0 0 0

Total # of neighbors = 1424
Ave neighs/atom = 178
Neighbor list builds = 0
Dangerous builds = 0
variable  natoms equal "count(all)"
variable xlength equal "lx"
variable  volume equal "vol"
variable  etotal equal "etotal"
variable    ecoh equal "pe/v_natoms"
print "${xlength}, ${volume}, ${etotal}, ${ecoh}" append lattice_cohesive_energy.txt screen no

next i
jump SELF loop

change_box all x scale 1.0025 y scale 1.0025 z scale 1.0025 remap
Changing box ...
  orthogonal box = (0.10315197 0.10798201 0.10798201) to (3.976848 3.972018 3.972018)
  orthogonal box = (0.10315197 0.10315197 0.10798201) to (3.976848 3.976848 3.972018)
  orthogonal box = (0.10315197 0.10315197 0.10315197) to (3.976848 3.976848 3.976848)

run 1
WARNING: No fixes with time integration, atoms won't move (src/verlet.cpp:60)
WARNING: Proc sub-domain size < neighbor skin, could lead to lost atoms (src/domain.cpp:966)
Per MPI rank memory allocation (min/avg/max) = 8.559 | 8.559 | 8.559 Mbytes
   Step         PotEng         TotEng           Lx             Ly             Lz           Volume         Press           Pxx            Pyy            Pzz      
         6  -38.073965     -38.073965      3.8736961      3.8736961      3.8736961      58.126828      541147.13      541147.13      541147.13      541147.13    
         7  -38.073965     -38.073965      3.8736961      3.8736961      3.8736961      58.126828      541147.13      541147.13      541147.13      541147.13    
Loop time of 0.000203 on 8 procs for 1 steps with 8 atoms

Performance: 425.616 ns/day, 0.056 hours/ns, 4926.108 timesteps/s, 39.409 katom-step/s
0.0% CPU use with 8 MPI tasks x 1 OpenMP threads

MPI task timing breakdown:
Section |  min time  |  avg time  |  max time  |%varavg| %total
---------------------------------------------------------------
Pair    | 0.000138   | 0.00014637 | 0.000152   |   0.0 | 72.11
Neigh   | 0          | 0          | 0          |   0.0 |  0.00
Comm    | 2.8e-05    | 3.35e-05   | 4.2e-05    |   0.0 | 16.50
Output  | 1.6e-05    | 1.7125e-05 | 1.8e-05    |   0.0 |  8.44
Modify  | 0          | 5e-07      | 2e-06      |   0.0 |  0.25
Other   |            | 5.5e-06    |            |       |  2.71

Nlocal:              1 ave           1 max           1 min
Histogram: 8 0 0 0 0 0 0 0 0 0
Nghost:            511 ave         511 max         511 min
Histogram: 8 0 0 0 0 0 0 0 0 0
Neighs:             89 ave          89 max          89 min
Histogram: 8 0 0 0 0 0 0 0 0 0
FullNghs:          178 ave         178 max         178 min
Histogram: 8 0 0 0 0 0 0 0 0 0

Total # of neighbors = 1424
Ave neighs/atom = 178
Neighbor list builds = 0
Dangerous builds = 0
variable  natoms equal "count(all)"
variable xlength equal "lx"
variable  volume equal "vol"
variable  etotal equal "etotal"
variable    ecoh equal "pe/v_natoms"
print "${xlength}, ${volume}, ${etotal}, ${ecoh}" append lattice_cohesive_energy.txt screen no

next i
jump SELF loop

change_box all x scale 1.0025 y scale 1.0025 z scale 1.0025 remap
Changing box ...
  orthogonal box = (0.098309848 0.10315197 0.10315197) to (3.9816902 3.976848 3.976848)
  orthogonal box = (0.098309848 0.098309848 0.10315197) to (3.9816902 3.9816902 3.976848)
  orthogonal box = (0.098309848 0.098309848 0.098309848) to (3.9816902 3.9816902 3.9816902)

run 1
WARNING: No fixes with time integration, atoms won't move (src/verlet.cpp:60)
WARNING: Proc sub-domain size < neighbor skin, could lead to lost atoms (src/domain.cpp:966)
Per MPI rank memory allocation (min/avg/max) = 8.559 | 8.559 | 8.559 Mbytes
   Step         PotEng         TotEng           Lx             Ly             Lz           Volume         Press           Pxx            Pyy            Pzz      
         7  -38.216925     -38.216925      3.8833803      3.8833803      3.8833803      58.56387       507217.69      507217.69      507217.69      507217.69    
         8  -38.216925     -38.216925      3.8833803      3.8833803      3.8833803      58.56387       507217.69      507217.69      507217.69      507217.69    
Loop time of 0.000197125 on 8 procs for 1 steps with 8 atoms

Performance: 438.301 ns/day, 0.055 hours/ns, 5072.923 timesteps/s, 40.583 katom-step/s
0.0% CPU use with 8 MPI tasks x 1 OpenMP threads

MPI task timing breakdown:
Section |  min time  |  avg time  |  max time  |%varavg| %total
---------------------------------------------------------------
Pair    | 0.000138   | 0.00014387 | 0.000148   |   0.0 | 72.99
Neigh   | 0          | 0          | 0          |   0.0 |  0.00
Comm    | 2.7e-05    | 3.1375e-05 | 3.7e-05    |   0.0 | 15.92
Output  | 1.4e-05    | 1.6e-05    | 1.7e-05    |   0.0 |  8.12
Modify  | 0          | 1.25e-07   | 1e-06      |   0.0 |  0.06
Other   |            | 5.75e-06   |            |       |  2.92

Nlocal:              1 ave           1 max           1 min
Histogram: 8 0 0 0 0 0 0 0 0 0
Nghost:            511 ave         511 max         511 min
Histogram: 8 0 0 0 0 0 0 0 0 0
Neighs:             89 ave          89 max          89 min
Histogram: 8 0 0 0 0 0 0 0 0 0
FullNghs:          178 ave         178 max         178 min
Histogram: 8 0 0 0 0 0 0 0 0 0

Total # of neighbors = 1424
Ave neighs/atom = 178
Neighbor list builds = 0
Dangerous builds = 0
variable  natoms equal "count(all)"
variable xlength equal "lx"
variable  volume equal "vol"
variable  etotal equal "etotal"
variable    ecoh equal "pe/v_natoms"
print "${xlength}, ${volume}, ${etotal}, ${ecoh}" append lattice_cohesive_energy.txt screen no

next i
jump SELF loop

change_box all x scale 1.0025 y scale 1.0025 z scale 1.0025 remap
Changing box ...
  orthogonal box = (0.093455622 0.098309848 0.098309848) to (3.9865444 3.9816902 3.9816902)
  orthogonal box = (0.093455622 0.093455622 0.098309848) to (3.9865444 3.9865444 3.9816902)
  orthogonal box = (0.093455622 0.093455622 0.093455622) to (3.9865444 3.9865444 3.9865444)

run 1
WARNING: No fixes with time integration, atoms won't move (src/verlet.cpp:60)
WARNING: Proc sub-domain size < neighbor skin, could lead to lost atoms (src/domain.cpp:966)
Per MPI rank memory allocation (min/avg/max) = 8.559 | 8.559 | 8.559 Mbytes
   Step         PotEng         TotEng           Lx             Ly             Lz           Volume         Press           Pxx            Pyy            Pzz      
         8  -38.351759     -38.351759      3.8930888      3.8930888      3.8930888      59.004198      474187         474187         474187         474187       
         9  -38.351759     -38.351759      3.8930888      3.8930888      3.8930888      59.004198      474187         474187         474187         474187       
Loop time of 0.000192125 on 8 procs for 1 steps with 8 atoms

Performance: 449.707 ns/day, 0.053 hours/ns, 5204.945 timesteps/s, 41.640 katom-step/s
0.0% CPU use with 8 MPI tasks x 1 OpenMP threads

MPI task timing breakdown:
Section |  min time  |  avg time  |  max time  |%varavg| %total
---------------------------------------------------------------
Pair    | 0.000133   | 0.0001395  | 0.000145   |   0.0 | 72.61
Neigh   | 0          | 0          | 0          |   0.0 |  0.00
Comm    | 2.7e-05    | 3.175e-05  | 3.9e-05    |   0.0 | 16.53
Output  | 1.3e-05    | 1.5e-05    | 1.6e-05    |   0.0 |  7.81
Modify  | 0          | 2.5e-07    | 1e-06      |   0.0 |  0.13
Other   |            | 5.625e-06  |            |       |  2.93

Nlocal:              1 ave           1 max           1 min
Histogram: 8 0 0 0 0 0 0 0 0 0
Nghost:            511 ave         511 max         511 min
Histogram: 8 0 0 0 0 0 0 0 0 0
Neighs:             89 ave          89 max          89 min
Histogram: 8 0 0 0 0 0 0 0 0 0
FullNghs:          178 ave         178 max         178 min
Histogram: 8 0 0 0 0 0 0 0 0 0

Total # of neighbors = 1424
Ave neighs/atom = 178
Neighbor list builds = 0
Dangerous builds = 0
variable  natoms equal "count(all)"
variable xlength equal "lx"
variable  volume equal "vol"
variable  etotal equal "etotal"
variable    ecoh equal "pe/v_natoms"
print "${xlength}, ${volume}, ${etotal}, ${ecoh}" append lattice_cohesive_energy.txt screen no

next i
jump SELF loop

change_box all x scale 1.0025 y scale 1.0025 z scale 1.0025 remap
Changing box ...
  orthogonal box = (0.088589261 0.093455622 0.093455622) to (3.9914107 3.9865444 3.9865444)
  orthogonal box = (0.088589261 0.088589261 0.093455622) to (3.9914107 3.9914107 3.9865444)
  orthogonal box = (0.088589261 0.088589261 0.088589261) to (3.9914107 3.9914107 3.9914107)

run 1
WARNING: No fixes with time integration, atoms won't move (src/verlet.cpp:60)
WARNING: Proc sub-domain size < neighbor skin, could lead to lost atoms (src/domain.cpp:966)
Per MPI rank memory allocation (min/avg/max) = 8.615 | 8.617 | 8.629 Mbytes
   Step         PotEng         TotEng           Lx             Ly             Lz           Volume         Press           Pxx            Pyy            Pzz      
         9  -38.478584     -38.478584      3.9028215      3.9028215      3.9028215      59.447837      442037.82      442037.82      442037.82      442037.82    
        10  -38.478584     -38.478584      3.9028215      3.9028215      3.9028215      59.447837      442037.82      442037.82      442037.82      442037.82    
Loop time of 0.000291 on 8 procs for 1 steps with 8 atoms

Performance: 296.907 ns/day, 0.081 hours/ns, 3436.426 timesteps/s, 27.491 katom-step/s
0.0% CPU use with 8 MPI tasks x 1 OpenMP threads

MPI task timing breakdown:
Section |  min time  |  avg time  |  max time  |%varavg| %total
---------------------------------------------------------------
Pair    | 0.000235   | 0.00024087 | 0.000245   |   0.0 | 82.77
Neigh   | 0          | 0          | 0          |   0.0 |  0.00
Comm    | 1.6e-05    | 2.2125e-05 | 3e-05      |   0.0 |  7.60
Output  | 1.4e-05    | 2.2125e-05 | 3e-05      |   0.0 |  7.60
Modify  | 0          | 2.5e-07    | 1e-06      |   0.0 |  0.09
Other   |            | 5.625e-06  |            |       |  1.93

Nlocal:              1 ave           8 max           0 min
Histogram: 7 0 0 0 0 0 0 0 0 1
Nghost:            511 ave         512 max         504 min
Histogram: 1 0 0 0 0 0 0 0 0 7
Neighs:             89 ave         712 max           0 min
Histogram: 7 0 0 0 0 0 0 0 0 1
FullNghs:          178 ave        1424 max           0 min
Histogram: 7 0 0 0 0 0 0 0 0 1

Total # of neighbors = 1424
Ave neighs/atom = 178
Neighbor list builds = 0
Dangerous builds = 0
variable  natoms equal "count(all)"
variable xlength equal "lx"
variable  volume equal "vol"
variable  etotal equal "etotal"
variable    ecoh equal "pe/v_natoms"
print "${xlength}, ${volume}, ${etotal}, ${ecoh}" append lattice_cohesive_energy.txt screen no

next i
jump SELF loop

change_box all x scale 1.0025 y scale 1.0025 z scale 1.0025 remap
Changing box ...
  orthogonal box = (0.083710734 0.088589261 0.088589261) to (3.9962893 3.9914107 3.9914107)
  orthogonal box = (0.083710734 0.083710734 0.088589261) to (3.9962893 3.9962893 3.9914107)
  orthogonal box = (0.083710734 0.083710734 0.083710734) to (3.9962893 3.9962893 3.9962893)

run 1
WARNING: No fixes with time integration, atoms won't move (src/verlet.cpp:60)
WARNING: Proc sub-domain size < neighbor skin, could lead to lost atoms (src/domain.cpp:966)
Per MPI rank memory allocation (min/avg/max) = 8.615 | 8.617 | 8.629 Mbytes
   Step         PotEng         TotEng           Lx             Ly             Lz           Volume         Press           Pxx            Pyy            Pzz      
        10  -38.597514     -38.597514      3.9125785      3.9125785      3.9125785      59.894812      410753.15      410753.15      410753.15      410753.15    
        11  -38.597514     -38.597514      3.9125785      3.9125785      3.9125785      59.894812      410753.15      410753.15      410753.15      410753.15    
Loop time of 0.000198 on 8 procs for 1 steps with 8 atoms

Performance: 436.364 ns/day, 0.055 hours/ns, 5050.505 timesteps/s, 40.404 katom-step/s
0.0% CPU use with 8 MPI tasks x 1 OpenMP threads

MPI task timing breakdown:
Section |  min time  |  avg time  |  max time  |%varavg| %total
---------------------------------------------------------------
Pair    | 0.000137   | 0.00014362 | 0.000148   |   0.0 | 72.54
Neigh   | 0          | 0          | 0          |   0.0 |  0.00
Comm    | 2.8e-05    | 3.1625e-05 | 3.9e-05    |   0.0 | 15.97
Output  | 1.4e-05    | 1.675e-05  | 1.9e-05    |   0.0 |  8.46
Modify  | 0          | 2.5e-07    | 1e-06      |   0.0 |  0.13
Other   |            | 5.75e-06   |            |       |  2.90

Nlocal:              1 ave           1 max           1 min
Histogram: 8 0 0 0 0 0 0 0 0 0
Nghost:            511 ave         511 max         511 min
Histogram: 8 0 0 0 0 0 0 0 0 0
Neighs:             89 ave          89 max          89 min
Histogram: 8 0 0 0 0 0 0 0 0 0
FullNghs:          178 ave         178 max         178 min
Histogram: 8 0 0 0 0 0 0 0 0 0

Total # of neighbors = 1424
Ave neighs/atom = 178
Neighbor list builds = 0
Dangerous builds = 0
variable  natoms equal "count(all)"
variable xlength equal "lx"
variable  volume equal "vol"
variable  etotal equal "etotal"
variable    ecoh equal "pe/v_natoms"
print "${xlength}, ${volume}, ${etotal}, ${ecoh}" append lattice_cohesive_energy.txt screen no

next i
jump SELF loop

change_box all x scale 1.0025 y scale 1.0025 z scale 1.0025 remap
Changing box ...
  orthogonal box = (0.078820011 0.083710734 0.083710734) to (4.00118 3.9962893 3.9962893)
  orthogonal box = (0.078820011 0.078820011 0.083710734) to (4.00118 4.00118 3.9962893)
  orthogonal box = (0.078820011 0.078820011 0.078820011) to (4.00118 4.00118 4.00118)

run 1
WARNING: No fixes with time integration, atoms won't move (src/verlet.cpp:60)
WARNING: Proc sub-domain size < neighbor skin, could lead to lost atoms (src/domain.cpp:966)
Per MPI rank memory allocation (min/avg/max) = 8.615 | 8.617 | 8.629 Mbytes
   Step         PotEng         TotEng           Lx             Ly             Lz           Volume         Press           Pxx            Pyy            Pzz      
        11  -38.708665     -38.708665      3.92236        3.92236        3.92236        60.345147      380316.23      380316.23      380316.23      380316.23    
        12  -38.708665     -38.708665      3.92236        3.92236        3.92236        60.345147      380316.23      380316.23      380316.23      380316.23    
Loop time of 0.000226875 on 8 procs for 1 steps with 8 atoms

Performance: 380.826 ns/day, 0.063 hours/ns, 4407.713 timesteps/s, 35.262 katom-step/s
0.0% CPU use with 8 MPI tasks x 1 OpenMP threads

MPI task timing breakdown:
Section |  min time  |  avg time  |  max time  |%varavg| %total
---------------------------------------------------------------
Pair    | 0.000146   | 0.00015713 | 0.000181   |   0.0 | 69.26
Neigh   | 0          | 0          | 0          |   0.0 |  0.00
Comm    | 2.3e-05    | 4.6875e-05 | 5.9e-05    |   0.0 | 20.66
Output  | 1.5e-05    | 1.6375e-05 | 1.8e-05    |   0.0 |  7.22
Modify  | 0          | 2.5e-07    | 1e-06      |   0.0 |  0.11
Other   |            | 6.25e-06   |            |       |  2.75

Nlocal:              1 ave           1 max           1 min
Histogram: 8 0 0 0 0 0 0 0 0 0
Nghost:            511 ave         511 max         511 min
Histogram: 8 0 0 0 0 0 0 0 0 0
Neighs:             89 ave          89 max          89 min
Histogram: 8 0 0 0 0 0 0 0 0 0
FullNghs:          178 ave         178 max         178 min
Histogram: 8 0 0 0 0 0 0 0 0 0

Total # of neighbors = 1424
Ave neighs/atom = 178
Neighbor list builds = 0
Dangerous builds = 0
variable  natoms equal "count(all)"
variable xlength equal "lx"
variable  volume equal "vol"
variable  etotal equal "etotal"
variable    ecoh equal "pe/v_natoms"
print "${xlength}, ${volume}, ${etotal}, ${ecoh}" append lattice_cohesive_energy.txt screen no

next i
jump SELF loop

change_box all x scale 1.0025 y scale 1.0025 z scale 1.0025 remap
Changing box ...
  orthogonal box = (0.073917061 0.078820011 0.078820011) to (4.0060829 4.00118 4.00118)
  orthogonal box = (0.073917061 0.073917061 0.078820011) to (4.0060829 4.0060829 4.00118)
  orthogonal box = (0.073917061 0.073917061 0.073917061) to (4.0060829 4.0060829 4.0060829)

run 1
WARNING: No fixes with time integration, atoms won't move (src/verlet.cpp:60)
WARNING: Proc sub-domain size < neighbor skin, could lead to lost atoms (src/domain.cpp:966)
Per MPI rank memory allocation (min/avg/max) = 8.615 | 8.617 | 8.629 Mbytes
   Step         PotEng         TotEng           Lx             Ly             Lz           Volume         Press           Pxx            Pyy            Pzz      
        12  -38.81215      -38.81215       3.9321659      3.9321659      3.9321659      60.798868      350710.59      350710.59      350710.59      350710.59    
        13  -38.81215      -38.81215       3.9321659      3.9321659      3.9321659      60.798868      350710.59      350710.59      350710.59      350710.59    
Loop time of 0.00019125 on 8 procs for 1 steps with 8 atoms

Performance: 451.765 ns/day, 0.053 hours/ns, 5228.758 timesteps/s, 41.830 katom-step/s
0.0% CPU use with 8 MPI tasks x 1 OpenMP threads

MPI task timing breakdown:
Section |  min time  |  avg time  |  max time  |%varavg| %total
---------------------------------------------------------------
Pair    | 0.000132   | 0.00013825 | 0.000143   |   0.0 | 72.29
Neigh   | 0          | 0          | 0          |   0.0 |  0.00
Comm    | 2.7e-05    | 3.15e-05   | 3.8e-05    |   0.0 | 16.47
Output  | 1.4e-05    | 1.5625e-05 | 1.7e-05    |   0.0 |  8.17
Modify  | 0          | 1.25e-07   | 1e-06      |   0.0 |  0.07
Other   |            | 5.75e-06   |            |       |  3.01

Nlocal:              1 ave           1 max           1 min
Histogram: 8 0 0 0 0 0 0 0 0 0
Nghost:            511 ave         511 max         511 min
Histogram: 8 0 0 0 0 0 0 0 0 0
Neighs:             85 ave          85 max          85 min
Histogram: 8 0 0 0 0 0 0 0 0 0
FullNghs:          170 ave         170 max         170 min
Histogram: 8 0 0 0 0 0 0 0 0 0

Total # of neighbors = 1360
Ave neighs/atom = 170
Neighbor list builds = 0
Dangerous builds = 0
variable  natoms equal "count(all)"
variable xlength equal "lx"
variable  volume equal "vol"
variable  etotal equal "etotal"
variable    ecoh equal "pe/v_natoms"
print "${xlength}, ${volume}, ${etotal}, ${ecoh}" append lattice_cohesive_energy.txt screen no

next i
jump SELF loop

change_box all x scale 1.0025 y scale 1.0025 z scale 1.0025 remap
Changing box ...
  orthogonal box = (0.069001854 0.073917061 0.073917061) to (4.0109981 4.0060829 4.0060829)
  orthogonal box = (0.069001854 0.069001854 0.073917061) to (4.0109981 4.0109981 4.0060829)
  orthogonal box = (0.069001854 0.069001854 0.069001854) to (4.0109981 4.0109981 4.0109981)

run 1
WARNING: No fixes with time integration, atoms won't move (src/verlet.cpp:60)
WARNING: Proc sub-domain size < neighbor skin, could lead to lost atoms (src/domain.cpp:966)
Per MPI rank memory allocation (min/avg/max) = 8.615 | 8.617 | 8.629 Mbytes
   Step         PotEng         TotEng           Lx             Ly             Lz           Volume         Press           Pxx            Pyy            Pzz      
        13  -38.908083     -38.908083      3.9419963      3.9419963      3.9419963      61.256         321919.97      321919.97      321919.97      321919.97    
        14  -38.908083     -38.908083      3.9419963      3.9419963      3.9419963      61.256         321919.97      321919.97      321919.97      321919.97    
Loop time of 0.000264 on 8 procs for 1 steps with 8 atoms

Performance: 327.273 ns/day, 0.073 hours/ns, 3787.879 timesteps/s, 30.303 katom-step/s
0.0% CPU use with 8 MPI tasks x 1 OpenMP threads

MPI task timing breakdown:
Section |  min time  |  avg time  |  max time  |%varavg| %total
---------------------------------------------------------------
Pair    | 0.000207   | 0.00021275 | 0.000218   |   0.0 | 80.59
Neigh   | 0          | 0          | 0          |   0.0 |  0.00
Comm    | 1.5e-05    | 2.0875e-05 | 3e-05      |   0.0 |  7.91
Output  | 1.4e-05    | 2.3125e-05 | 3.2e-05    |   0.0 |  8.76
Modify  | 0          | 1.25e-07   | 1e-06      |   0.0 |  0.05
Other   |            | 7.125e-06  |            |       |  2.70

Nlocal:              1 ave           8 max           0 min
Histogram: 7 0 0 0 0 0 0 0 0 1
Nghost:            511 ave         512 max         504 min
Histogram: 1 0 0 0 0 0 0 0 0 7
Neighs:             85 ave         680 max           0 min
Histogram: 7 0 0 0 0 0 0 0 0 1
FullNghs:          170 ave        1360 max           0 min
Histogram: 7 0 0 0 0 0 0 0 0 1

Total # of neighbors = 1360
Ave neighs/atom = 170
Neighbor list builds = 0
Dangerous builds = 0
variable  natoms equal "count(all)"
variable xlength equal "lx"
variable  volume equal "vol"
variable  etotal equal "etotal"
variable    ecoh equal "pe/v_natoms"
print "${xlength}, ${volume}, ${etotal}, ${ecoh}" append lattice_cohesive_energy.txt screen no

next i
jump SELF loop

change_box all x scale 1.0025 y scale 1.0025 z scale 1.0025 remap
Changing box ...
  orthogonal box = (0.064074358 0.069001854 0.069001854) to (4.0159256 4.0109981 4.0109981)
  orthogonal box = (0.064074358 0.064074358 0.069001854) to (4.0159256 4.0159256 4.0109981)
  orthogonal box = (0.064074358 0.064074358 0.064074358) to (4.0159256 4.0159256 4.0159256)

run 1
WARNING: No fixes with time integration, atoms won't move (src/verlet.cpp:60)
WARNING: Proc sub-domain size < neighbor skin, could lead to lost atoms (src/domain.cpp:966)
Per MPI rank memory allocation (min/avg/max) = 8.615 | 8.617 | 8.629 Mbytes
   Step         PotEng         TotEng           Lx             Ly             Lz           Volume         Press           Pxx            Pyy            Pzz      
        14  -38.996577     -38.996577      3.9518513      3.9518513      3.9518513      61.71657       293928.39      293928.39      293928.39      293928.39    
        15  -38.996577     -38.996577      3.9518513      3.9518513      3.9518513      61.71657       293928.39      293928.39      293928.39      293928.39    
Loop time of 0.000260875 on 8 procs for 1 steps with 8 atoms

Performance: 331.193 ns/day, 0.072 hours/ns, 3833.253 timesteps/s, 30.666 katom-step/s
0.0% CPU use with 8 MPI tasks x 1 OpenMP threads

MPI task timing breakdown:
Section |  min time  |  avg time  |  max time  |%varavg| %total
---------------------------------------------------------------
Pair    | 0.000206   | 0.000212   | 0.000217   |   0.0 | 81.26
Neigh   | 0          | 0          | 0          |   0.0 |  0.00
Comm    | 1.4e-05    | 2.0375e-05 | 3.2e-05    |   0.0 |  7.81
Output  | 1.4e-05    | 2.3e-05    | 3.1e-05    |   0.0 |  8.82
Modify  | 0          | 1.25e-07   | 1e-06      |   0.0 |  0.05
Other   |            | 5.375e-06  |            |       |  2.06

Nlocal:              1 ave           8 max           0 min
Histogram: 7 0 0 0 0 0 0 0 0 1
Nghost:            511 ave         512 max         504 min
Histogram: 1 0 0 0 0 0 0 0 0 7
Neighs:             85 ave         680 max           0 min
Histogram: 7 0 0 0 0 0 0 0 0 1
FullNghs:          170 ave        1360 max           0 min
Histogram: 7 0 0 0 0 0 0 0 0 1

Total # of neighbors = 1360
Ave neighs/atom = 170
Neighbor list builds = 0
Dangerous builds = 0
variable  natoms equal "count(all)"
variable xlength equal "lx"
variable  volume equal "vol"
variable  etotal equal "etotal"
variable    ecoh equal "pe/v_natoms"
print "${xlength}, ${volume}, ${etotal}, ${ecoh}" append lattice_cohesive_energy.txt screen no

next i
jump SELF loop

change_box all x scale 1.0025 y scale 1.0025 z scale 1.0025 remap
Changing box ...
  orthogonal box = (0.059134544 0.064074358 0.064074358) to (4.0208655 4.0159256 4.0159256)
  orthogonal box = (0.059134544 0.059134544 0.064074358) to (4.0208655 4.0208655 4.0159256)
  orthogonal box = (0.059134544 0.059134544 0.059134544) to (4.0208655 4.0208655 4.0208655)

run 1
WARNING: No fixes with time integration, atoms won't move (src/verlet.cpp:60)
WARNING: Proc sub-domain size < neighbor skin, could lead to lost atoms (src/domain.cpp:966)
Per MPI rank memory allocation (min/avg/max) = 8.615 | 8.617 | 8.629 Mbytes
   Step         PotEng         TotEng           Lx             Ly             Lz           Volume         Press           Pxx            Pyy            Pzz      
        15  -39.077742     -39.077742      3.9617309      3.9617309      3.9617309      62.180602      266720.09      266720.09      266720.09      266720.09    
        16  -39.077742     -39.077742      3.9617309      3.9617309      3.9617309      62.180602      266720.09      266720.09      266720.09      266720.09    
Loop time of 0.000259125 on 8 procs for 1 steps with 8 atoms

Performance: 333.430 ns/day, 0.072 hours/ns, 3859.141 timesteps/s, 30.873 katom-step/s
0.0% CPU use with 8 MPI tasks x 1 OpenMP threads

MPI task timing breakdown:
Section |  min time  |  avg time  |  max time  |%varavg| %total
---------------------------------------------------------------
Pair    | 0.000205   | 0.00021113 | 0.000216   |   0.0 | 81.48
Neigh   | 0          | 0          | 0          |   0.0 |  0.00
Comm    | 1.4e-05    | 2.0125e-05 | 3e-05      |   0.0 |  7.77
Output  | 1.4e-05    | 2.2125e-05 | 3.1e-05    |   0.0 |  8.54
Modify  | 0          | 0          | 0          |   0.0 |  0.00
Other   |            | 5.75e-06   |            |       |  2.22

Nlocal:              1 ave           8 max           0 min
Histogram: 7 0 0 0 0 0 0 0 0 1
Nghost:            511 ave         512 max         504 min
Histogram: 1 0 0 0 0 0 0 0 0 7
Neighs:             85 ave         680 max           0 min
Histogram: 7 0 0 0 0 0 0 0 0 1
FullNghs:          170 ave        1360 max           0 min
Histogram: 7 0 0 0 0 0 0 0 0 1

Total # of neighbors = 1360
Ave neighs/atom = 170
Neighbor list builds = 0
Dangerous builds = 0
variable  natoms equal "count(all)"
variable xlength equal "lx"
variable  volume equal "vol"
variable  etotal equal "etotal"
variable    ecoh equal "pe/v_natoms"
print "${xlength}, ${volume}, ${etotal}, ${ecoh}" append lattice_cohesive_energy.txt screen no

next i
jump SELF loop

change_box all x scale 1.0025 y scale 1.0025 z scale 1.0025 remap
Changing box ...
  orthogonal box = (0.054182381 0.059134544 0.059134544) to (4.0258176 4.0208655 4.0208655)
  orthogonal box = (0.054182381 0.054182381 0.059134544) to (4.0258176 4.0258176 4.0208655)
  orthogonal box = (0.054182381 0.054182381 0.054182381) to (4.0258176 4.0258176 4.0258176)

run 1
WARNING: No fixes with time integration, atoms won't move (src/verlet.cpp:60)
WARNING: Proc sub-domain size < neighbor skin, could lead to lost atoms (src/domain.cpp:966)
Per MPI rank memory allocation (min/avg/max) = 8.615 | 8.617 | 8.629 Mbytes
   Step         PotEng         TotEng           Lx             Ly             Lz           Volume         Press           Pxx            Pyy            Pzz      
        16  -39.151691     -39.151691      3.9716352      3.9716352      3.9716352      62.648123      240279.55      240279.55      240279.55      240279.55    
        17  -39.151691     -39.151691      3.9716352      3.9716352      3.9716352      62.648123      240279.55      240279.55      240279.55      240279.55    
Loop time of 0.00025975 on 8 procs for 1 steps with 8 atoms

Performance: 332.628 ns/day, 0.072 hours/ns, 3849.856 timesteps/s, 30.799 katom-step/s
0.0% CPU use with 8 MPI tasks x 1 OpenMP threads

MPI task timing breakdown:
Section |  min time  |  avg time  |  max time  |%varavg| %total
---------------------------------------------------------------
Pair    | 0.000204   | 0.000211   | 0.000217   |   0.0 | 81.23
Neigh   | 0          | 0          | 0          |   0.0 |  0.00
Comm    | 1.3e-05    | 2.0375e-05 | 3e-05      |   0.0 |  7.84
Output  | 1.4e-05    | 2.2625e-05 | 3e-05      |   0.0 |  8.71
Modify  | 0          | 0          | 0          |   0.0 |  0.00
Other   |            | 5.75e-06   |            |       |  2.21

Nlocal:              1 ave           8 max           0 min
Histogram: 7 0 0 0 0 0 0 0 0 1
Nghost:            511 ave         512 max         504 min
Histogram: 1 0 0 0 0 0 0 0 0 7
Neighs:             85 ave         680 max           0 min
Histogram: 7 0 0 0 0 0 0 0 0 1
FullNghs:          170 ave        1360 max           0 min
Histogram: 7 0 0 0 0 0 0 0 0 1

Total # of neighbors = 1360
Ave neighs/atom = 170
Neighbor list builds = 0
Dangerous builds = 0
variable  natoms equal "count(all)"
variable xlength equal "lx"
variable  volume equal "vol"
variable  etotal equal "etotal"
variable    ecoh equal "pe/v_natoms"
print "${xlength}, ${volume}, ${etotal}, ${ecoh}" append lattice_cohesive_energy.txt screen no

next i
jump SELF loop

change_box all x scale 1.0025 y scale 1.0025 z scale 1.0025 remap
Changing box ...
  orthogonal box = (0.049217837 0.054182381 0.054182381) to (4.0307822 4.0258176 4.0258176)
  orthogonal box = (0.049217837 0.049217837 0.054182381) to (4.0307822 4.0307822 4.0258176)
  orthogonal box = (0.049217837 0.049217837 0.049217837) to (4.0307822 4.0307822 4.0307822)

run 1
WARNING: No fixes with time integration, atoms won't move (src/verlet.cpp:60)
WARNING: Proc sub-domain size < neighbor skin, could lead to lost atoms (src/domain.cpp:966)
Per MPI rank memory allocation (min/avg/max) = 8.615 | 8.617 | 8.629 Mbytes
   Step         PotEng         TotEng           Lx             Ly             Lz           Volume         Press           Pxx            Pyy            Pzz      
        17  -39.218534     -39.218534      3.9815643      3.9815643      3.9815643      63.11916       214591.51      214591.51      214591.51      214591.51    
        18  -39.218534     -39.218534      3.9815643      3.9815643      3.9815643      63.11916       214591.51      214591.51      214591.51      214591.51    
Loop time of 0.000262125 on 8 procs for 1 steps with 8 atoms

Performance: 329.614 ns/day, 0.073 hours/ns, 3814.974 timesteps/s, 30.520 katom-step/s
0.0% CPU use with 8 MPI tasks x 1 OpenMP threads

MPI task timing breakdown:
Section |  min time  |  avg time  |  max time  |%varavg| %total
---------------------------------------------------------------
Pair    | 0.000206   | 0.0002115  | 0.000215   |   0.0 | 80.69
Neigh   | 0          | 0          | 0          |   0.0 |  0.00
Comm    | 1.5e-05    | 2.0375e-05 | 2.9e-05    |   0.0 |  7.77
Output  | 1.5e-05    | 2.2625e-05 | 3.1e-05    |   0.0 |  8.63
Modify  | 0          | 5e-07      | 2e-06      |   0.0 |  0.19
Other   |            | 7.125e-06  |            |       |  2.72

Nlocal:              1 ave           8 max           0 min
Histogram: 7 0 0 0 0 0 0 0 0 1
Nghost:            511 ave         512 max         504 min
Histogram: 1 0 0 0 0 0 0 0 0 7
Neighs:             85 ave         680 max           0 min
Histogram: 7 0 0 0 0 0 0 0 0 1
FullNghs:          170 ave        1360 max           0 min
Histogram: 7 0 0 0 0 0 0 0 0 1

Total # of neighbors = 1360
Ave neighs/atom = 170
Neighbor list builds = 0
Dangerous builds = 0
variable  natoms equal "count(all)"
variable xlength equal "lx"
variable  volume equal "vol"
variable  etotal equal "etotal"
variable    ecoh equal "pe/v_natoms"
print "${xlength}, ${volume}, ${etotal}, ${ecoh}" append lattice_cohesive_energy.txt screen no

next i
jump SELF loop

change_box all x scale 1.0025 y scale 1.0025 z scale 1.0025 remap
Changing box ...
  orthogonal box = (0.044240881 0.049217837 0.049217837) to (4.0357591 4.0307822 4.0307822)
  orthogonal box = (0.044240881 0.044240881 0.049217837) to (4.0357591 4.0357591 4.0307822)
  orthogonal box = (0.044240881 0.044240881 0.044240881) to (4.0357591 4.0357591 4.0357591)

run 1
WARNING: No fixes with time integration, atoms won't move (src/verlet.cpp:60)
WARNING: Proc sub-domain size < neighbor skin, could lead to lost atoms (src/domain.cpp:966)
Per MPI rank memory allocation (min/avg/max) = 8.615 | 8.617 | 8.629 Mbytes
   Step         PotEng         TotEng           Lx             Ly             Lz           Volume         Press           Pxx            Pyy            Pzz      
        18  -39.27838      -39.27838       3.9915182      3.9915182      3.9915182      63.593738      189640.92      189640.92      189640.92      189640.92    
        19  -39.27838      -39.27838       3.9915182      3.9915182      3.9915182      63.593738      189640.92      189640.92      189640.92      189640.92    
Loop time of 0.000261625 on 8 procs for 1 steps with 8 atoms

Performance: 330.244 ns/day, 0.073 hours/ns, 3822.265 timesteps/s, 30.578 katom-step/s
0.0% CPU use with 8 MPI tasks x 1 OpenMP threads

MPI task timing breakdown:
Section |  min time  |  avg time  |  max time  |%varavg| %total
---------------------------------------------------------------
Pair    | 0.000204   | 0.00021262 | 0.000218   |   0.0 | 81.27
Neigh   | 0          | 0          | 0          |   0.0 |  0.00
Comm    | 1.6e-05    | 2.075e-05  | 3.2e-05    |   0.0 |  7.93
Output  | 1.4e-05    | 2.3e-05    | 3.1e-05    |   0.0 |  8.79
Modify  | 0          | 2.5e-07    | 1e-06      |   0.0 |  0.10
Other   |            | 5e-06      |            |       |  1.91

Nlocal:              1 ave           8 max           0 min
Histogram: 7 0 0 0 0 0 0 0 0 1
Nghost:            511 ave         512 max         504 min
Histogram: 1 0 0 0 0 0 0 0 0 7
Neighs:             85 ave         680 max           0 min
Histogram: 7 0 0 0 0 0 0 0 0 1
FullNghs:          170 ave        1360 max           0 min
Histogram: 7 0 0 0 0 0 0 0 0 1

Total # of neighbors = 1360
Ave neighs/atom = 170
Neighbor list builds = 0
Dangerous builds = 0
variable  natoms equal "count(all)"
variable xlength equal "lx"
variable  volume equal "vol"
variable  etotal equal "etotal"
variable    ecoh equal "pe/v_natoms"
print "${xlength}, ${volume}, ${etotal}, ${ecoh}" append lattice_cohesive_energy.txt screen no

next i
jump SELF loop

change_box all x scale 1.0025 y scale 1.0025 z scale 1.0025 remap
Changing box ...
  orthogonal box = (0.039251484 0.044240881 0.044240881) to (4.0407485 4.0357591 4.0357591)
  orthogonal box = (0.039251484 0.039251484 0.044240881) to (4.0407485 4.0407485 4.0357591)
  orthogonal box = (0.039251484 0.039251484 0.039251484) to (4.0407485 4.0407485 4.0407485)

run 1
WARNING: No fixes with time integration, atoms won't move (src/verlet.cpp:60)
Per MPI rank memory allocation (min/avg/max) = 8.615 | 8.617 | 8.629 Mbytes
   Step         PotEng         TotEng           Lx             Ly             Lz           Volume         Press           Pxx            Pyy            Pzz      
        19  -39.331338     -39.331338      4.001497       4.001497       4.001497       64.071884      165412.99      165412.99      165412.99      165412.99    
        20  -39.331338     -39.331338      4.001497       4.001497       4.001497       64.071884      165412.99      165412.99      165412.99      165412.99    
Loop time of 0.000264625 on 8 procs for 1 steps with 8 atoms

Performance: 326.500 ns/day, 0.074 hours/ns, 3778.932 timesteps/s, 30.231 katom-step/s
0.0% CPU use with 8 MPI tasks x 1 OpenMP threads

MPI task timing breakdown:
Section |  min time  |  avg time  |  max time  |%varavg| %total
---------------------------------------------------------------
Pair    | 0.000211   | 0.00021662 | 0.000221   |   0.0 | 81.86
Neigh   | 0          | 0          | 0          |   0.0 |  0.00
Comm    | 1.3e-05    | 2e-05      | 3e-05      |   0.0 |  7.56
Output  | 1.3e-05    | 2.1875e-05 | 3e-05      |   0.0 |  8.27
Modify  | 0          | 6.25e-07   | 2e-06      |   0.0 |  0.24
Other   |            | 5.5e-06    |            |       |  2.08

Nlocal:              1 ave           8 max           0 min
Histogram: 7 0 0 0 0 0 0 0 0 1
Nghost:            511 ave         512 max         504 min
Histogram: 1 0 0 0 0 0 0 0 0 7
Neighs:             85 ave         680 max           0 min
Histogram: 7 0 0 0 0 0 0 0 0 1
FullNghs:          170 ave        1360 max           0 min
Histogram: 7 0 0 0 0 0 0 0 0 1

Total # of neighbors = 1360
Ave neighs/atom = 170
Neighbor list builds = 0
Dangerous builds = 0
variable  natoms equal "count(all)"
variable xlength equal "lx"
variable  volume equal "vol"
variable  etotal equal "etotal"
variable    ecoh equal "pe/v_natoms"
print "${xlength}, ${volume}, ${etotal}, ${ecoh}" append lattice_cohesive_energy.txt screen no

next i
jump SELF loop

change_box all x scale 1.0025 y scale 1.0025 z scale 1.0025 remap
Changing box ...
  orthogonal box = (0.034249612 0.039251484 0.039251484) to (4.0457504 4.0407485 4.0407485)
  orthogonal box = (0.034249612 0.034249612 0.039251484) to (4.0457504 4.0457504 4.0407485)
  orthogonal box = (0.034249612 0.034249612 0.034249612) to (4.0457504 4.0457504 4.0457504)

run 1
WARNING: No fixes with time integration, atoms won't move (src/verlet.cpp:60)
Per MPI rank memory allocation (min/avg/max) = 8.615 | 8.617 | 8.629 Mbytes
   Step         PotEng         TotEng           Lx             Ly             Lz           Volume         Press           Pxx            Pyy            Pzz      
        20  -39.377516     -39.377516      4.0115008      4.0115008      4.0115008      64.553626      141893.13      141893.13      141893.13      141893.13    
        21  -39.377516     -39.377516      4.0115008      4.0115008      4.0115008      64.553626      141893.13      141893.13      141893.13      141893.13    
Loop time of 0.0002505 on 8 procs for 1 steps with 8 atoms

Performance: 344.910 ns/day, 0.070 hours/ns, 3992.016 timesteps/s, 31.936 katom-step/s
0.0% CPU use with 8 MPI tasks x 1 OpenMP threads

MPI task timing breakdown:
Section |  min time  |  avg time  |  max time  |%varavg| %total
---------------------------------------------------------------
Pair    | 0.000204   | 0.00020687 | 0.000209   |   0.0 | 82.58
Neigh   | 0          | 0          | 0          |   0.0 |  0.00
Comm    | 1.3e-05    | 1.8e-05    | 2.2e-05    |   0.0 |  7.19
Output  | 1.4e-05    | 1.9375e-05 | 2.4e-05    |   0.0 |  7.73
Modify  | 0          | 1.25e-07   | 1e-06      |   0.0 |  0.05
Other   |            | 6.125e-06  |            |       |  2.45

Nlocal:              1 ave           8 max           0 min
Histogram: 7 0 0 0 0 0 0 0 0 1
Nghost:            511 ave         512 max         504 min
Histogram: 1 0 0 0 0 0 0 0 0 7
Neighs:             85 ave         680 max           0 min
Histogram: 7 0 0 0 0 0 0 0 0 1
FullNghs:          170 ave        1360 max           0 min
Histogram: 7 0 0 0 0 0 0 0 0 1

Total # of neighbors = 1360
Ave neighs/atom = 170
Neighbor list builds = 0
Dangerous builds = 0
variable  natoms equal "count(all)"
variable xlength equal "lx"
variable  volume equal "vol"
variable  etotal equal "etotal"
variable    ecoh equal "pe/v_natoms"
print "${xlength}, ${volume}, ${etotal}, ${ecoh}" append lattice_cohesive_energy.txt screen no

next i
jump SELF loop

change_box all x scale 1.0025 y scale 1.0025 z scale 1.0025 remap
Changing box ...
  orthogonal box = (0.029235236 0.034249612 0.034249612) to (4.0507648 4.0457504 4.0457504)
  orthogonal box = (0.029235236 0.029235236 0.034249612) to (4.0507648 4.0507648 4.0457504)
  orthogonal box = (0.029235236 0.029235236 0.029235236) to (4.0507648 4.0507648 4.0507648)

run 1
WARNING: No fixes with time integration, atoms won't move (src/verlet.cpp:60)
Per MPI rank memory allocation (min/avg/max) = 8.615 | 8.617 | 8.629 Mbytes
   Step         PotEng         TotEng           Lx             Ly             Lz           Volume         Press           Pxx            Pyy            Pzz      
        21  -39.417022     -39.417022      4.0215295      4.0215295      4.0215295      65.03899       119067         119067         119067         119067       
        22  -39.417022     -39.417022      4.0215295      4.0215295      4.0215295      65.03899       119067         119067         119067         119067       
Loop time of 0.000248 on 8 procs for 1 steps with 8 atoms

Performance: 348.387 ns/day, 0.069 hours/ns, 4032.258 timesteps/s, 32.258 katom-step/s
0.0% CPU use with 8 MPI tasks x 1 OpenMP threads

MPI task timing breakdown:
Section |  min time  |  avg time  |  max time  |%varavg| %total
---------------------------------------------------------------
Pair    | 0.000202   | 0.00020488 | 0.000208   |   0.0 | 82.61
Neigh   | 0          | 0          | 0          |   0.0 |  0.00
Comm    | 1.4e-05    | 1.8125e-05 | 2.2e-05    |   0.0 |  7.31
Output  | 1.4e-05    | 1.9125e-05 | 2.5e-05    |   0.0 |  7.71
Modify  | 0          | 2.5e-07    | 1e-06      |   0.0 |  0.10
Other   |            | 5.625e-06  |            |       |  2.27

Nlocal:              1 ave           8 max           0 min
Histogram: 7 0 0 0 0 0 0 0 0 1
Nghost:            511 ave         512 max         504 min
Histogram: 1 0 0 0 0 0 0 0 0 7
Neighs:             85 ave         680 max           0 min
Histogram: 7 0 0 0 0 0 0 0 0 1
FullNghs:          170 ave        1360 max           0 min
Histogram: 7 0 0 0 0 0 0 0 0 1

Total # of neighbors = 1360
Ave neighs/atom = 170
Neighbor list builds = 0
Dangerous builds = 0
variable  natoms equal "count(all)"
variable xlength equal "lx"
variable  volume equal "vol"
variable  etotal equal "etotal"
variable    ecoh equal "pe/v_natoms"
print "${xlength}, ${volume}, ${etotal}, ${ecoh}" append lattice_cohesive_energy.txt screen no

next i
jump SELF loop

change_box all x scale 1.0025 y scale 1.0025 z scale 1.0025 remap
Changing box ...
  orthogonal box = (0.024208324 0.029235236 0.029235236) to (4.0557917 4.0507648 4.0507648)
  orthogonal box = (0.024208324 0.024208324 0.029235236) to (4.0557917 4.0557917 4.0507648)
  orthogonal box = (0.024208324 0.024208324 0.024208324) to (4.0557917 4.0557917 4.0557917)

run 1
WARNING: No fixes with time integration, atoms won't move (src/verlet.cpp:60)
Per MPI rank memory allocation (min/avg/max) = 8.615 | 8.617 | 8.629 Mbytes
   Step         PotEng         TotEng           Lx             Ly             Lz           Volume         Press           Pxx            Pyy            Pzz      
        22  -39.449962     -39.449962      4.0315834      4.0315834      4.0315834      65.528002      96920.462      96920.462      96920.462      96920.462    
        23  -39.449962     -39.449962      4.0315834      4.0315834      4.0315834      65.528002      96920.462      96920.462      96920.462      96920.462    
Loop time of 0.000252625 on 8 procs for 1 steps with 8 atoms

Performance: 342.009 ns/day, 0.070 hours/ns, 3958.436 timesteps/s, 31.667 katom-step/s
0.0% CPU use with 8 MPI tasks x 1 OpenMP threads

MPI task timing breakdown:
Section |  min time  |  avg time  |  max time  |%varavg| %total
---------------------------------------------------------------
Pair    | 0.000201   | 0.00020588 | 0.00021    |   0.0 | 81.49
Neigh   | 0          | 0          | 0          |   0.0 |  0.00
Comm    | 1.3e-05    | 1.85e-05   | 2.4e-05    |   0.0 |  7.32
Output  | 1.4e-05    | 2.0125e-05 | 2.8e-05    |   0.0 |  7.97
Modify  | 0          | 1.25e-07   | 1e-06      |   0.0 |  0.05
Other   |            | 8e-06      |            |       |  3.17

Nlocal:              1 ave           8 max           0 min
Histogram: 7 0 0 0 0 0 0 0 0 1
Nghost:            511 ave         512 max         504 min
Histogram: 1 0 0 0 0 0 0 0 0 7
Neighs:             85 ave         680 max           0 min
Histogram: 7 0 0 0 0 0 0 0 0 1
FullNghs:          170 ave        1360 max           0 min
Histogram: 7 0 0 0 0 0 0 0 0 1

Total # of neighbors = 1360
Ave neighs/atom = 170
Neighbor list builds = 0
Dangerous builds = 0
variable  natoms equal "count(all)"
variable xlength equal "lx"
variable  volume equal "vol"
variable  etotal equal "etotal"
variable    ecoh equal "pe/v_natoms"
print "${xlength}, ${volume}, ${etotal}, ${ecoh}" append lattice_cohesive_energy.txt screen no

next i
jump SELF loop

change_box all x scale 1.0025 y scale 1.0025 z scale 1.0025 remap
Changing box ...
  orthogonal box = (0.019168845 0.024208324 0.024208324) to (4.0608312 4.0557917 4.0557917)
  orthogonal box = (0.019168845 0.019168845 0.024208324) to (4.0608312 4.0608312 4.0557917)
  orthogonal box = (0.019168845 0.019168845 0.019168845) to (4.0608312 4.0608312 4.0608312)

run 1
WARNING: No fixes with time integration, atoms won't move (src/verlet.cpp:60)
Per MPI rank memory allocation (min/avg/max) = 8.615 | 8.617 | 8.629 Mbytes
   Step         PotEng         TotEng           Lx             Ly             Lz           Volume         Press           Pxx            Pyy            Pzz      
        23  -39.476443     -39.476443      4.0416623      4.0416623      4.0416623      66.020692      75439.619      75439.619      75439.619      75439.619    
        24  -39.476443     -39.476443      4.0416623      4.0416623      4.0416623      66.020692      75439.619      75439.619      75439.619      75439.619    
Loop time of 0.000252 on 8 procs for 1 steps with 8 atoms

Performance: 342.857 ns/day, 0.070 hours/ns, 3968.254 timesteps/s, 31.746 katom-step/s
0.0% CPU use with 8 MPI tasks x 1 OpenMP threads

MPI task timing breakdown:
Section |  min time  |  avg time  |  max time  |%varavg| %total
---------------------------------------------------------------
Pair    | 0.000204   | 0.00020812 | 0.000211   |   0.0 | 82.59
Neigh   | 0          | 0          | 0          |   0.0 |  0.00
Comm    | 1.4e-05    | 1.9625e-05 | 2.4e-05    |   0.0 |  7.79
Output  | 1.3e-05    | 1.9e-05    | 2.6e-05    |   0.0 |  7.54
Modify  | 0          | 0          | 0          |   0.0 |  0.00
Other   |            | 5.25e-06   |            |       |  2.08

Nlocal:              1 ave           8 max           0 min
Histogram: 7 0 0 0 0 0 0 0 0 1
Nghost:            511 ave         512 max         504 min
Histogram: 1 0 0 0 0 0 0 0 0 7
Neighs:             85 ave         680 max           0 min
Histogram: 7 0 0 0 0 0 0 0 0 1
FullNghs:          170 ave        1360 max           0 min
Histogram: 7 0 0 0 0 0 0 0 0 1

Total # of neighbors = 1360
Ave neighs/atom = 170
Neighbor list builds = 0
Dangerous builds = 0
variable  natoms equal "count(all)"
variable xlength equal "lx"
variable  volume equal "vol"
variable  etotal equal "etotal"
variable    ecoh equal "pe/v_natoms"
print "${xlength}, ${volume}, ${etotal}, ${ecoh}" append lattice_cohesive_energy.txt screen no

next i
jump SELF loop

change_box all x scale 1.0025 y scale 1.0025 z scale 1.0025 remap
Changing box ...
  orthogonal box = (0.014116767 0.019168845 0.019168845) to (4.0658832 4.0608312 4.0608312)
  orthogonal box = (0.014116767 0.014116767 0.019168845) to (4.0658832 4.0658832 4.0608312)
  orthogonal box = (0.014116767 0.014116767 0.014116767) to (4.0658832 4.0658832 4.0658832)

run 1
WARNING: No fixes with time integration, atoms won't move (src/verlet.cpp:60)
Per MPI rank memory allocation (min/avg/max) = 8.615 | 8.617 | 8.629 Mbytes
   Step         PotEng         TotEng           Lx             Ly             Lz           Volume         Press           Pxx            Pyy            Pzz      
        24  -39.496569     -39.496569      4.0517665      4.0517665      4.0517665      66.517086      54610.781      54610.781      54610.781      54610.781    
        25  -39.496569     -39.496569      4.0517665      4.0517665      4.0517665      66.517086      54610.781      54610.781      54610.781      54610.781    
Loop time of 0.00025 on 8 procs for 1 steps with 8 atoms

Performance: 345.600 ns/day, 0.069 hours/ns, 4000.000 timesteps/s, 32.000 katom-step/s
0.0% CPU use with 8 MPI tasks x 1 OpenMP threads

MPI task timing breakdown:
Section |  min time  |  avg time  |  max time  |%varavg| %total
---------------------------------------------------------------
Pair    | 0.000204   | 0.000207   | 0.00021    |   0.0 | 82.80
Neigh   | 0          | 0          | 0          |   0.0 |  0.00
Comm    | 1.3e-05    | 1.825e-05  | 2.3e-05    |   0.0 |  7.30
Output  | 1.3e-05    | 1.8875e-05 | 2.5e-05    |   0.0 |  7.55
Modify  | 0          | 0          | 0          |   0.0 |  0.00
Other   |            | 5.875e-06  |            |       |  2.35

Nlocal:              1 ave           8 max           0 min
Histogram: 7 0 0 0 0 0 0 0 0 1
Nghost:            511 ave         512 max         504 min
Histogram: 1 0 0 0 0 0 0 0 0 7
Neighs:             85 ave         680 max           0 min
Histogram: 7 0 0 0 0 0 0 0 0 1
FullNghs:          170 ave        1360 max           0 min
Histogram: 7 0 0 0 0 0 0 0 0 1

Total # of neighbors = 1360
Ave neighs/atom = 170
Neighbor list builds = 0
Dangerous builds = 0
variable  natoms equal "count(all)"
variable xlength equal "lx"
variable  volume equal "vol"
variable  etotal equal "etotal"
variable    ecoh equal "pe/v_natoms"
print "${xlength}, ${volume}, ${etotal}, ${ecoh}" append lattice_cohesive_energy.txt screen no

next i
jump SELF loop

change_box all x scale 1.0025 y scale 1.0025 z scale 1.0025 remap
Changing box ...
  orthogonal box = (0.0090520592 0.014116767 0.014116767) to (4.0709479 4.0658832 4.0658832)
  orthogonal box = (0.0090520592 0.0090520592 0.014116767) to (4.0709479 4.0709479 4.0658832)
  orthogonal box = (0.0090520592 0.0090520592 0.0090520592) to (4.0709479 4.0709479 4.0709479)

run 1
WARNING: No fixes with time integration, atoms won't move (src/verlet.cpp:60)
Per MPI rank memory allocation (min/avg/max) = 8.615 | 8.617 | 8.629 Mbytes
   Step         PotEng         TotEng           Lx             Ly             Lz           Volume         Press           Pxx            Pyy            Pzz      
        25  -39.510444     -39.510444      4.0618959      4.0618959      4.0618959      67.017213      34420.476      34420.476      34420.476      34420.476    
        26  -39.510444     -39.510444      4.0618959      4.0618959      4.0618959      67.017213      34420.476      34420.476      34420.476      34420.476    
Loop time of 0.00024975 on 8 procs for 1 steps with 8 atoms

Performance: 345.946 ns/day, 0.069 hours/ns, 4004.004 timesteps/s, 32.032 katom-step/s
0.0% CPU use with 8 MPI tasks x 1 OpenMP threads

MPI task timing breakdown:
Section |  min time  |  avg time  |  max time  |%varavg| %total
---------------------------------------------------------------
Pair    | 0.000203   | 0.00020625 | 0.000208   |   0.0 | 82.58
Neigh   | 0          | 0          | 0          |   0.0 |  0.00
Comm    | 1.3e-05    | 1.8125e-05 | 2.3e-05    |   0.0 |  7.26
Output  | 1.3e-05    | 1.95e-05   | 2.6e-05    |   0.0 |  7.81
Modify  | 0          | 1.25e-07   | 1e-06      |   0.0 |  0.05
Other   |            | 5.75e-06   |            |       |  2.30

Nlocal:              1 ave           8 max           0 min
Histogram: 7 0 0 0 0 0 0 0 0 1
Nghost:            511 ave         512 max         504 min
Histogram: 1 0 0 0 0 0 0 0 0 7
Neighs:             85 ave         680 max           0 min
Histogram: 7 0 0 0 0 0 0 0 0 1
FullNghs:          170 ave        1360 max           0 min
Histogram: 7 0 0 0 0 0 0 0 0 1

Total # of neighbors = 1360
Ave neighs/atom = 170
Neighbor list builds = 0
Dangerous builds = 0
variable  natoms equal "count(all)"
variable xlength equal "lx"
variable  volume equal "vol"
variable  etotal equal "etotal"
variable    ecoh equal "pe/v_natoms"
print "${xlength}, ${volume}, ${etotal}, ${ecoh}" append lattice_cohesive_energy.txt screen no

next i
jump SELF loop

change_box all x scale 1.0025 y scale 1.0025 z scale 1.0025 remap
Changing box ...
  orthogonal box = (0.0039746893 0.0090520592 0.0090520592) to (4.0760253 4.0709479 4.0709479)
  orthogonal box = (0.0039746893 0.0039746893 0.0090520592) to (4.0760253 4.0760253 4.0709479)
  orthogonal box = (0.0039746893 0.0039746893 0.0039746893) to (4.0760253 4.0760253 4.0760253)

run 1
WARNING: No fixes with time integration, atoms won't move (src/verlet.cpp:60)
Per MPI rank memory allocation (min/avg/max) = 8.615 | 8.617 | 8.629 Mbytes
   Step         PotEng         TotEng           Lx             Ly             Lz           Volume         Press           Pxx            Pyy            Pzz      
        26  -39.518173     -39.518173      4.0720506      4.0720506      4.0720506      67.521099      14855.446      14855.446      14855.446      14855.446    
        27  -39.518173     -39.518173      4.0720506      4.0720506      4.0720506      67.521099      14855.446      14855.446      14855.446      14855.446    
Loop time of 0.0002905 on 8 procs for 1 steps with 8 atoms

Performance: 297.418 ns/day, 0.081 hours/ns, 3442.341 timesteps/s, 27.539 katom-step/s
0.0% CPU use with 8 MPI tasks x 1 OpenMP threads

MPI task timing breakdown:
Section |  min time  |  avg time  |  max time  |%varavg| %total
---------------------------------------------------------------
Pair    | 0.000241   | 0.00024537 | 0.00025    |   0.0 | 84.47
Neigh   | 0          | 0          | 0          |   0.0 |  0.00
Comm    | 1.4e-05    | 1.8625e-05 | 2.3e-05    |   0.0 |  6.41
Output  | 1.5e-05    | 2.025e-05  | 2.7e-05    |   0.0 |  6.97
Modify  | 0          | 2.5e-07    | 1e-06      |   0.0 |  0.09
Other   |            | 6e-06      |            |       |  2.07

Nlocal:              1 ave           8 max           0 min
Histogram: 7 0 0 0 0 0 0 0 0 1
Nghost:            511 ave         512 max         504 min
Histogram: 1 0 0 0 0 0 0 0 0 7
Neighs:             85 ave         680 max           0 min
Histogram: 7 0 0 0 0 0 0 0 0 1
FullNghs:          170 ave        1360 max           0 min
Histogram: 7 0 0 0 0 0 0 0 0 1

Total # of neighbors = 1360
Ave neighs/atom = 170
Neighbor list builds = 0
Dangerous builds = 0
variable  natoms equal "count(all)"
variable xlength equal "lx"
variable  volume equal "vol"
variable  etotal equal "etotal"
variable    ecoh equal "pe/v_natoms"
print "${xlength}, ${volume}, ${etotal}, ${ecoh}" append lattice_cohesive_energy.txt screen no

next i
jump SELF loop

change_box all x scale 1.0025 y scale 1.0025 z scale 1.0025 remap
Changing box ...
  orthogonal box = (-0.001115374 0.0039746893 0.0039746893) to (4.0811154 4.0760253 4.0760253)
  orthogonal box = (-0.001115374 -0.001115374 0.0039746893) to (4.0811154 4.0811154 4.0760253)
  orthogonal box = (-0.001115374 -0.001115374 -0.001115374) to (4.0811154 4.0811154 4.0811154)

run 1
WARNING: No fixes with time integration, atoms won't move (src/verlet.cpp:60)
Per MPI rank memory allocation (min/avg/max) = 8.615 | 8.617 | 8.629 Mbytes
   Step         PotEng         TotEng           Lx             Ly             Lz           Volume         Press           Pxx            Pyy            Pzz      
        27  -39.519857     -39.519857      4.0822307      4.0822307      4.0822307      68.028775     -4097.3549     -4097.3549     -4097.3549     -4097.3549    
        28  -39.519857     -39.519857      4.0822307      4.0822307      4.0822307      68.028775     -4097.3549     -4097.3549     -4097.3549     -4097.3549    
Loop time of 0.00036125 on 8 procs for 1 steps with 8 atoms

Performance: 239.170 ns/day, 0.100 hours/ns, 2768.166 timesteps/s, 22.145 katom-step/s
0.0% CPU use with 8 MPI tasks x 1 OpenMP threads

MPI task timing breakdown:
Section |  min time  |  avg time  |  max time  |%varavg| %total
---------------------------------------------------------------
Pair    | 0.000202   | 0.00026125 | 0.000321   |   0.0 | 72.32
Neigh   | 0          | 0          | 0          |   0.0 |  0.00
Comm    | 1.5e-05    | 3.3e-05    | 0.000134   |   0.0 |  9.13
Output  | 1.4e-05    | 6.1e-05    | 0.000136   |   0.0 | 16.89
Modify  | 0          | 1.25e-07   | 1e-06      |   0.0 |  0.03
Other   |            | 5.875e-06  |            |       |  1.63

Nlocal:              1 ave           8 max           0 min
Histogram: 7 0 0 0 0 0 0 0 0 1
Nghost:            511 ave         512 max         504 min
Histogram: 1 0 0 0 0 0 0 0 0 7
Neighs:             85 ave         680 max           0 min
Histogram: 7 0 0 0 0 0 0 0 0 1
FullNghs:          170 ave        1360 max           0 min
Histogram: 7 0 0 0 0 0 0 0 0 1

Total # of neighbors = 1360
Ave neighs/atom = 170
Neighbor list builds = 0
Dangerous builds = 0
variable  natoms equal "count(all)"
variable xlength equal "lx"
variable  volume equal "vol"
variable  etotal equal "etotal"
variable    ecoh equal "pe/v_natoms"
print "${xlength}, ${volume}, ${etotal}, ${ecoh}" append lattice_cohesive_energy.txt screen no

next i
jump SELF loop

change_box all x scale 1.0025 y scale 1.0025 z scale 1.0025 remap
Changing box ...
  orthogonal box = (-0.0062181624 -0.001115374 -0.001115374) to (4.0862182 4.0811154 4.0811154)
  orthogonal box = (-0.0062181624 -0.0062181624 -0.001115374) to (4.0862182 4.0862182 4.0811154)
  orthogonal box = (-0.0062181624 -0.0062181624 -0.0062181624) to (4.0862182 4.0862182 4.0862182)

run 1
WARNING: No fixes with time integration, atoms won't move (src/verlet.cpp:60)
Per MPI rank memory allocation (min/avg/max) = 8.615 | 8.617 | 8.629 Mbytes
   Step         PotEng         TotEng           Lx             Ly             Lz           Volume         Press           Pxx            Pyy            Pzz      
        28  -39.5156       -39.5156        4.0924363      4.0924363      4.0924363      68.540267     -22450.766     -22450.766     -22450.766     -22450.766    
        29  -39.5156       -39.5156        4.0924363      4.0924363      4.0924363      68.540267     -22450.766     -22450.766     -22450.766     -22450.766    
Loop time of 0.0004175 on 8 procs for 1 steps with 8 atoms

Performance: 206.946 ns/day, 0.116 hours/ns, 2395.210 timesteps/s, 19.162 katom-step/s
0.0% CPU use with 8 MPI tasks x 1 OpenMP threads

MPI task timing breakdown:
Section |  min time  |  avg time  |  max time  |%varavg| %total
---------------------------------------------------------------
Pair    | 0.000224   | 0.0002605  | 0.000362   |   0.0 | 62.40
Neigh   | 0          | 0          | 0          |   0.0 |  0.00
Comm    | 1.5e-05    | 5.325e-05  | 0.000158   |   0.0 | 12.75
Output  | 1.9e-05    | 9.275e-05  | 0.000165   |   0.0 | 22.22
Modify  | 0          | 1.25e-07   | 1e-06      |   0.0 |  0.03
Other   |            | 1.088e-05  |            |       |  2.60

Nlocal:              1 ave           8 max           0 min
Histogram: 7 0 0 0 0 0 0 0 0 1
Nghost:            511 ave         512 max         504 min
Histogram: 1 0 0 0 0 0 0 0 0 7
Neighs:             85 ave         680 max           0 min
Histogram: 7 0 0 0 0 0 0 0 0 1
FullNghs:          170 ave        1360 max           0 min
Histogram: 7 0 0 0 0 0 0 0 0 1

Total # of neighbors = 1360
Ave neighs/atom = 170
Neighbor list builds = 0
Dangerous builds = 0
variable  natoms equal "count(all)"
variable xlength equal "lx"
variable  volume equal "vol"
variable  etotal equal "etotal"
variable    ecoh equal "pe/v_natoms"
print "${xlength}, ${volume}, ${etotal}, ${ecoh}" append lattice_cohesive_energy.txt screen no

next i
jump SELF loop

change_box all x scale 1.0025 y scale 1.0025 z scale 1.0025 remap
Changing box ...
  orthogonal box = (-0.011333708 -0.0062181624 -0.0062181624) to (4.0913337 4.0862182 4.0862182)
  orthogonal box = (-0.011333708 -0.011333708 -0.0062181624) to (4.0913337 4.0913337 4.0862182)
  orthogonal box = (-0.011333708 -0.011333708 -0.011333708) to (4.0913337 4.0913337 4.0913337)

run 1
WARNING: No fixes with time integration, atoms won't move (src/verlet.cpp:60)
Per MPI rank memory allocation (min/avg/max) = 8.615 | 8.617 | 8.629 Mbytes
   Step         PotEng         TotEng           Lx             Ly             Lz           Volume         Press           Pxx            Pyy            Pzz      
        29  -39.505502     -39.505502      4.1026674      4.1026674      4.1026674      69.055605     -40217.419     -40217.419     -40217.419     -40217.419    
        30  -39.505502     -39.505502      4.1026674      4.1026674      4.1026674      69.055605     -40217.419     -40217.419     -40217.419     -40217.419    
Loop time of 0.000279 on 8 procs for 1 steps with 8 atoms

Performance: 309.677 ns/day, 0.077 hours/ns, 3584.229 timesteps/s, 28.674 katom-step/s
0.0% CPU use with 8 MPI tasks x 1 OpenMP threads

MPI task timing breakdown:
Section |  min time  |  avg time  |  max time  |%varavg| %total
---------------------------------------------------------------
Pair    | 0.000201   | 0.00021025 | 0.00023    |   0.0 | 75.36
Neigh   | 0          | 0          | 0          |   0.0 |  0.00
Comm    | 1.3e-05    | 2.525e-05  | 4.9e-05    |   0.0 |  9.05
Output  | 1.5e-05    | 3.475e-05  | 5.5e-05    |   0.0 | 12.46
Modify  | 0          | 3.75e-07   | 1e-06      |   0.0 |  0.13
Other   |            | 8.375e-06  |            |       |  3.00

Nlocal:              1 ave           8 max           0 min
Histogram: 7 0 0 0 0 0 0 0 0 1
Nghost:            511 ave         512 max         504 min
Histogram: 1 0 0 0 0 0 0 0 0 7
Neighs:             73 ave         584 max           0 min
Histogram: 7 0 0 0 0 0 0 0 0 1
FullNghs:          146 ave        1168 max           0 min
Histogram: 7 0 0 0 0 0 0 0 0 1

Total # of neighbors = 1168
Ave neighs/atom = 146
Neighbor list builds = 0
Dangerous builds = 0
variable  natoms equal "count(all)"
variable xlength equal "lx"
variable  volume equal "vol"
variable  etotal equal "etotal"
variable    ecoh equal "pe/v_natoms"
print "${xlength}, ${volume}, ${etotal}, ${ecoh}" append lattice_cohesive_energy.txt screen no

next i
jump SELF loop

change_box all x scale 1.0025 y scale 1.0025 z scale 1.0025 remap
Changing box ...
  orthogonal box = (-0.016462042 -0.011333708 -0.011333708) to (4.096462 4.0913337 4.0913337)
  orthogonal box = (-0.016462042 -0.016462042 -0.011333708) to (4.096462 4.096462 4.0913337)
  orthogonal box = (-0.016462042 -0.016462042 -0.016462042) to (4.096462 4.096462 4.096462)

run 1
WARNING: No fixes with time integration, atoms won't move (src/verlet.cpp:60)
Per MPI rank memory allocation (min/avg/max) = 8.615 | 8.617 | 8.629 Mbytes
   Step         PotEng         TotEng           Lx             Ly             Lz           Volume         Press           Pxx            Pyy            Pzz      
        30  -39.489665     -39.489665      4.1129241      4.1129241      4.1129241      69.574818     -57409.744     -57409.744     -57409.744     -57409.744    
        31  -39.489665     -39.489665      4.1129241      4.1129241      4.1129241      69.574818     -57409.744     -57409.744     -57409.744     -57409.744    
Loop time of 0.00034825 on 8 procs for 1 steps with 8 atoms

Performance: 248.098 ns/day, 0.097 hours/ns, 2871.500 timesteps/s, 22.972 katom-step/s
0.0% CPU use with 8 MPI tasks x 1 OpenMP threads

MPI task timing breakdown:
Section |  min time  |  avg time  |  max time  |%varavg| %total
---------------------------------------------------------------
Pair    | 0.000217   | 0.00024063 | 0.000299   |   0.0 | 69.10
Neigh   | 0          | 0          | 0          |   0.0 |  0.00
Comm    | 1.4e-05    | 3.85e-05   | 0.000102   |   0.0 | 11.06
Output  | 1.7e-05    | 6.1e-05    | 0.000104   |   0.0 | 17.52
Modify  | 0          | 3.75e-07   | 1e-06      |   0.0 |  0.11
Other   |            | 7.75e-06   |            |       |  2.23

Nlocal:              1 ave           8 max           0 min
Histogram: 7 0 0 0 0 0 0 0 0 1
Nghost:            511 ave         512 max         504 min
Histogram: 1 0 0 0 0 0 0 0 0 7
Neighs:             73 ave         584 max           0 min
Histogram: 7 0 0 0 0 0 0 0 0 1
FullNghs:          146 ave        1168 max           0 min
Histogram: 7 0 0 0 0 0 0 0 0 1

Total # of neighbors = 1168
Ave neighs/atom = 146
Neighbor list builds = 0
Dangerous builds = 0
variable  natoms equal "count(all)"
variable xlength equal "lx"
variable  volume equal "vol"
variable  etotal equal "etotal"
variable    ecoh equal "pe/v_natoms"
print "${xlength}, ${volume}, ${etotal}, ${ecoh}" append lattice_cohesive_energy.txt screen no

next i
jump SELF loop

change_box all x scale 1.0025 y scale 1.0025 z scale 1.0025 remap
Changing box ...
  orthogonal box = (-0.021603197 -0.016462042 -0.016462042) to (4.1016032 4.096462 4.096462)
[...]
Pair    | 0.000209   | 0.00023138 | 0.00029    |   0.0 | 69.30
Neigh   | 0          | 0          | 0          |   0.0 |  0.00
Comm    | 1.5e-05    | 3.8875e-05 | 0.000101   |   0.0 | 11.64
Output  | 1.4e-05    | 5.8125e-05 | 0.000101   |   0.0 | 17.41
Modify  | 0          | 3.75e-07   | 1e-06      |   0.0 |  0.11
Other   |            | 5.125e-06  |            |       |  1.54

Nlocal:              1 ave           8 max           0 min
Histogram: 7 0 0 0 0 0 0 0 0 1
Nghost:            511 ave         512 max         504 min
Histogram: 1 0 0 0 0 0 0 0 0 7
Neighs:             73 ave         584 max           0 min
Histogram: 7 0 0 0 0 0 0 0 0 1
FullNghs:          146 ave        1168 max           0 min
Histogram: 7 0 0 0 0 0 0 0 0 1

Total # of neighbors = 1168
Ave neighs/atom = 146
Neighbor list builds = 0
Dangerous builds = 0
variable  natoms equal "count(all)"
variable xlength equal "lx"
variable  volume equal "vol"
variable  etotal equal "etotal"
variable    ecoh equal "pe/v_natoms"
print "${xlength}, ${volume}, ${etotal}, ${ecoh}" append lattice_cohesive_energy.txt screen no

next i
jump SELF loop

change_box all x scale 1.0025 y scale 1.0025 z scale 1.0025 remap
Changing box ...
  orthogonal box = (-0.094943652 -0.089619603 -0.089619603) to (4.1749437 4.1696196 4.1696196)
  orthogonal box = (-0.094943652 -0.094943652 -0.089619603) to (4.1749437 4.1749437 4.1696196)
  orthogonal box = (-0.094943652 -0.094943652 -0.094943652) to (4.1749437 4.1749437 4.1749437)

run 1
WARNING: No fixes with time integration, atoms won't move (src/verlet.cpp:60)
Per MPI rank memory allocation (min/avg/max) = 8.615 | 8.617 | 8.629 Mbytes
   Step         PotEng         TotEng           Lx             Ly             Lz           Volume         Press           Pxx            Pyy            Pzz      
        45  -38.629302     -38.629302      4.2698873      4.2698873      4.2698873      77.848319     -254233.92     -254233.92     -254233.92     -254233.92    
        46  -38.629302     -38.629302      4.2698873      4.2698873      4.2698873      77.848319     -254233.92     -254233.92     -254233.92     -254233.92    
Loop time of 0.000247 on 8 procs for 1 steps with 8 atoms

Performance: 349.798 ns/day, 0.069 hours/ns, 4048.583 timesteps/s, 32.389 katom-step/s
0.0% CPU use with 8 MPI tasks x 1 OpenMP threads

MPI task timing breakdown:
Section |  min time  |  avg time  |  max time  |%varavg| %total
---------------------------------------------------------------
Pair    | 0.000202   | 0.00020413 | 0.000206   |   0.0 | 82.64
Neigh   | 0          | 0          | 0          |   0.0 |  0.00
Comm    | 1.5e-05    | 1.8625e-05 | 2.3e-05    |   0.0 |  7.54
Output  | 1.3e-05    | 1.825e-05  | 2.3e-05    |   0.0 |  7.39
Modify  | 0          | 5e-07      | 1e-06      |   0.0 |  0.20
Other   |            | 5.5e-06    |            |       |  2.23

Nlocal:              1 ave           8 max           0 min
Histogram: 7 0 0 0 0 0 0 0 0 1
Nghost:            511 ave         512 max         504 min
Histogram: 1 0 0 0 0 0 0 0 0 7
Neighs:             73 ave         584 max           0 min
Histogram: 7 0 0 0 0 0 0 0 0 1
FullNghs:          146 ave        1168 max           0 min
Histogram: 7 0 0 0 0 0 0 0 0 1

Total # of neighbors = 1168
Ave neighs/atom = 146
Neighbor list builds = 0
Dangerous builds = 0
variable  natoms equal "count(all)"
variable xlength equal "lx"
variable  volume equal "vol"
variable  etotal equal "etotal"
variable    ecoh equal "pe/v_natoms"
print "${xlength}, ${volume}, ${etotal}, ${ecoh}" append lattice_cohesive_energy.txt screen no

next i
jump SELF loop

change_box all x scale 1.0025 y scale 1.0025 z scale 1.0025 remap
Changing box ...
  orthogonal box = (-0.10028101 -0.094943652 -0.094943652) to (4.180281 4.1749437 4.1749437)
  orthogonal box = (-0.10028101 -0.10028101 -0.094943652) to (4.180281 4.180281 4.1749437)
  orthogonal box = (-0.10028101 -0.10028101 -0.10028101) to (4.180281 4.180281 4.180281)

run 1
WARNING: No fixes with time integration, atoms won't move (src/verlet.cpp:60)
Per MPI rank memory allocation (min/avg/max) = 8.615 | 8.617 | 8.629 Mbytes
   Step         PotEng         TotEng           Lx             Ly             Lz           Volume         Press           Pxx            Pyy            Pzz      
        46  -38.534666     -38.534666      4.280562       4.280562       4.280562       78.433642     -263771.02     -263771.02     -263771.02     -263771.02    
        47  -38.534666     -38.534666      4.280562       4.280562       4.280562       78.433642     -263771.02     -263771.02     -263771.02     -263771.02    
Loop time of 0.00025375 on 8 procs for 1 steps with 8 atoms

Performance: 340.493 ns/day, 0.070 hours/ns, 3940.887 timesteps/s, 31.527 katom-step/s
0.0% CPU use with 8 MPI tasks x 1 OpenMP threads

MPI task timing breakdown:
Section |  min time  |  avg time  |  max time  |%varavg| %total
---------------------------------------------------------------
Pair    | 0.000207   | 0.00021075 | 0.000214   |   0.0 | 83.05
Neigh   | 0          | 0          | 0          |   0.0 |  0.00
Comm    | 1.4e-05    | 1.85e-05   | 2.3e-05    |   0.0 |  7.29
Output  | 1.3e-05    | 1.8875e-05 | 2.3e-05    |   0.0 |  7.44
Modify  | 0          | 1.25e-07   | 1e-06      |   0.0 |  0.05
Other   |            | 5.5e-06    |            |       |  2.17

Nlocal:              1 ave           8 max           0 min
Histogram: 7 0 0 0 0 0 0 0 0 1
Nghost:            511 ave         512 max         504 min
Histogram: 1 0 0 0 0 0 0 0 0 7
Neighs:             73 ave         584 max           0 min
Histogram: 7 0 0 0 0 0 0 0 0 1
FullNghs:          146 ave        1168 max           0 min
Histogram: 7 0 0 0 0 0 0 0 0 1

Total # of neighbors = 1168
Ave neighs/atom = 146
Neighbor list builds = 0
Dangerous builds = 0
variable  natoms equal "count(all)"
variable xlength equal "lx"
variable  volume equal "vol"
variable  etotal equal "etotal"
variable    ecoh equal "pe/v_natoms"
print "${xlength}, ${volume}, ${etotal}, ${ecoh}" append lattice_cohesive_energy.txt screen no

next i
jump SELF loop

change_box all x scale 1.0025 y scale 1.0025 z scale 1.0025 remap
Changing box ...
  orthogonal box = (-0.10563171 -0.10028101 -0.10028101) to (4.1856317 4.180281 4.180281)
  orthogonal box = (-0.10563171 -0.10563171 -0.10028101) to (4.1856317 4.1856317 4.180281)
  orthogonal box = (-0.10563171 -0.10563171 -0.10563171) to (4.1856317 4.1856317 4.1856317)

run 1
WARNING: No fixes with time integration, atoms won't move (src/verlet.cpp:60)
Per MPI rank memory allocation (min/avg/max) = 8.615 | 8.617 | 8.629 Mbytes
   Step         PotEng         TotEng           Lx             Ly             Lz           Volume         Press           Pxx            Pyy            Pzz      
        47  -38.435881     -38.435881      4.2912634      4.2912634      4.2912634      79.023366     -272916.33     -272916.33     -272916.33     -272916.33    
        48  -38.435881     -38.435881      4.2912634      4.2912634      4.2912634      79.023366     -272916.33     -272916.33     -272916.33     -272916.33    
Loop time of 0.000271 on 8 procs for 1 steps with 8 atoms

Performance: 318.819 ns/day, 0.075 hours/ns, 3690.037 timesteps/s, 29.520 katom-step/s
720.7% CPU use with 8 MPI tasks x 1 OpenMP threads

MPI task timing breakdown:
Section |  min time  |  avg time  |  max time  |%varavg| %total
---------------------------------------------------------------
Pair    | 0.000217   | 0.000222   | 0.000229   |   0.0 | 81.92
Neigh   | 0          | 0          | 0          |   0.0 |  0.00
Comm    | 1.4e-05    | 2.15e-05   | 3e-05      |   0.0 |  7.93
Output  | 1.3e-05    | 2.175e-05  | 2.9e-05    |   0.0 |  8.03
Modify  | 0          | 1.25e-07   | 1e-06      |   0.0 |  0.05
Other   |            | 5.625e-06  |            |       |  2.08

Nlocal:              1 ave           8 max           0 min
Histogram: 7 0 0 0 0 0 0 0 0 1
Nghost:            511 ave         512 max         504 min
Histogram: 1 0 0 0 0 0 0 0 0 7
Neighs:             73 ave         584 max           0 min
Histogram: 7 0 0 0 0 0 0 0 0 1
FullNghs:          146 ave        1168 max           0 min
Histogram: 7 0 0 0 0 0 0 0 0 1

Total # of neighbors = 1168
Ave neighs/atom = 146
Neighbor list builds = 0
Dangerous builds = 0
variable  natoms equal "count(all)"
variable xlength equal "lx"
variable  volume equal "vol"
variable  etotal equal "etotal"
variable    ecoh equal "pe/v_natoms"
print "${xlength}, ${volume}, ${etotal}, ${ecoh}" append lattice_cohesive_energy.txt screen no

next i
jump SELF loop

change_box all x scale 1.0025 y scale 1.0025 z scale 1.0025 remap
Changing box ...
  orthogonal box = (-0.11099579 -0.10563171 -0.10563171) to (4.1909958 4.1856317 4.1856317)
  orthogonal box = (-0.11099579 -0.11099579 -0.10563171) to (4.1909958 4.1909958 4.1856317)
  orthogonal box = (-0.11099579 -0.11099579 -0.11099579) to (4.1909958 4.1909958 4.1909958)

run 1
WARNING: No fixes with time integration, atoms won't move (src/verlet.cpp:60)
Per MPI rank memory allocation (min/avg/max) = 8.615 | 8.617 | 8.629 Mbytes
   Step         PotEng         TotEng           Lx             Ly             Lz           Volume         Press           Pxx            Pyy            Pzz      
        48  -38.333033     -38.333033      4.3019916      4.3019916      4.3019916      79.617524     -281679.04     -281679.04     -281679.04     -281679.04    
        49  -38.333033     -38.333033      4.3019916      4.3019916      4.3019916      79.617524     -281679.04     -281679.04     -281679.04     -281679.04    
Loop time of 0.000234 on 8 procs for 1 steps with 8 atoms

Performance: 369.231 ns/day, 0.065 hours/ns, 4273.504 timesteps/s, 34.188 katom-step/s
0.0% CPU use with 8 MPI tasks x 1 OpenMP threads

MPI task timing breakdown:
Section |  min time  |  avg time  |  max time  |%varavg| %total
---------------------------------------------------------------
Pair    | 0.000189   | 0.00019125 | 0.000194   |   0.0 | 81.73
Neigh   | 0          | 0          | 0          |   0.0 |  0.00
Comm    | 1.4e-05    | 1.8e-05    | 2.2e-05    |   0.0 |  7.69
Output  | 1.4e-05    | 1.8875e-05 | 2.4e-05    |   0.0 |  8.07
Modify  | 0          | 1.25e-07   | 1e-06      |   0.0 |  0.05
Other   |            | 5.75e-06   |            |       |  2.46

Nlocal:              1 ave           8 max           0 min
Histogram: 7 0 0 0 0 0 0 0 0 1
Nghost:            511 ave         512 max         504 min
Histogram: 1 0 0 0 0 0 0 0 0 7
Neighs:             61 ave         488 max           0 min
Histogram: 7 0 0 0 0 0 0 0 0 1
FullNghs:          122 ave         976 max           0 min
Histogram: 7 0 0 0 0 0 0 0 0 1

Total # of neighbors = 976
Ave neighs/atom = 122
Neighbor list builds = 0
Dangerous builds = 0
variable  natoms equal "count(all)"
variable xlength equal "lx"
variable  volume equal "vol"
variable  etotal equal "etotal"
variable    ecoh equal "pe/v_natoms"
print "${xlength}, ${volume}, ${etotal}, ${ecoh}" append lattice_cohesive_energy.txt screen no

next i
jump SELF loop

change_box all x scale 1.0025 y scale 1.0025 z scale 1.0025 remap
Changing box ...
  orthogonal box = (-0.11637328 -0.11099579 -0.11099579) to (4.1963733 4.1909958 4.1909958)
  orthogonal box = (-0.11637328 -0.11637328 -0.11099579) to (4.1963733 4.1963733 4.1909958)
  orthogonal box = (-0.11637328 -0.11637328 -0.11637328) to (4.1963733 4.1963733 4.1963733)

run 1
WARNING: No fixes with time integration, atoms won't move (src/verlet.cpp:60)
Per MPI rank memory allocation (min/avg/max) = 8.615 | 8.617 | 8.629 Mbytes
   Step         PotEng         TotEng           Lx             Ly             Lz           Volume         Press           Pxx            Pyy            Pzz      
        49  -38.226208     -38.226208      4.3127466      4.3127466      4.3127466      80.21615      -290068.16     -290068.16     -290068.16     -290068.16    
        50  -38.226208     -38.226208      4.3127466      4.3127466      4.3127466      80.21615      -290068.16     -290068.16     -290068.16     -290068.16    
Loop time of 0.000238 on 8 procs for 1 steps with 8 atoms

Performance: 363.025 ns/day, 0.066 hours/ns, 4201.681 timesteps/s, 33.613 katom-step/s
0.0% CPU use with 8 MPI tasks x 1 OpenMP threads

MPI task timing breakdown:
Section |  min time  |  avg time  |  max time  |%varavg| %total
---------------------------------------------------------------
Pair    | 0.000185   | 0.00018987 | 0.000196   |   0.0 | 79.78
Neigh   | 0          | 0          | 0          |   0.0 |  0.00
Comm    | 1.3e-05    | 2.0375e-05 | 3.1e-05    |   0.0 |  8.56
Output  | 1.3e-05    | 2.2e-05    | 3.1e-05    |   0.0 |  9.24
Modify  | 0          | 1.25e-07   | 1e-06      |   0.0 |  0.05
Other   |            | 5.625e-06  |            |       |  2.36

Nlocal:              1 ave           8 max           0 min
Histogram: 7 0 0 0 0 0 0 0 0 1
Nghost:            511 ave         512 max         504 min
Histogram: 1 0 0 0 0 0 0 0 0 7
Neighs:             61 ave         488 max           0 min
Histogram: 7 0 0 0 0 0 0 0 0 1
FullNghs:          122 ave         976 max           0 min
Histogram: 7 0 0 0 0 0 0 0 0 1

Total # of neighbors = 976
Ave neighs/atom = 122
Neighbor list builds = 0
Dangerous builds = 0
variable  natoms equal "count(all)"
variable xlength equal "lx"
variable  volume equal "vol"
variable  etotal equal "etotal"
variable    ecoh equal "pe/v_natoms"
print "${xlength}, ${volume}, ${etotal}, ${ecoh}" append lattice_cohesive_energy.txt screen no

next i
jump SELF loop

change_box all x scale 1.0025 y scale 1.0025 z scale 1.0025 remap
Changing box ...
  orthogonal box = (-0.12176422 -0.11637328 -0.11637328) to (4.2017642 4.1963733 4.1963733)
  orthogonal box = (-0.12176422 -0.12176422 -0.11637328) to (4.2017642 4.2017642 4.1963733)
  orthogonal box = (-0.12176422 -0.12176422 -0.12176422) to (4.2017642 4.2017642 4.2017642)

run 1
WARNING: No fixes with time integration, atoms won't move (src/verlet.cpp:60)
Per MPI rank memory allocation (min/avg/max) = 8.615 | 8.617 | 8.629 Mbytes
   Step         PotEng         TotEng           Lx             Ly             Lz           Volume         Press           Pxx            Pyy            Pzz      
        50  -38.115491     -38.115491      4.3235284      4.3235284      4.3235284      80.819276     -298092.57     -298092.57     -298092.57     -298092.57    
        51  -38.115491     -38.115491      4.3235284      4.3235284      4.3235284      80.819276     -298092.57     -298092.57     -298092.57     -298092.57    
Loop time of 0.00028475 on 8 procs for 1 steps with 8 atoms

Performance: 303.424 ns/day, 0.079 hours/ns, 3511.853 timesteps/s, 28.095 katom-step/s
0.0% CPU use with 8 MPI tasks x 1 OpenMP threads

MPI task timing breakdown:
Section |  min time  |  avg time  |  max time  |%varavg| %total
---------------------------------------------------------------
Pair    | 0.000198   | 0.00021213 | 0.000236   |   0.0 | 74.50
Neigh   | 0          | 0          | 0          |   0.0 |  0.00
Comm    | 1.5e-05    | 2.6875e-05 | 6.2e-05    |   0.0 |  9.44
Output  | 1.4e-05    | 3.675e-05  | 6.2e-05    |   0.0 | 12.91
Modify  | 0          | 5e-07      | 2e-06      |   0.0 |  0.18
Other   |            | 8.5e-06    |            |       |  2.99

Nlocal:              1 ave           8 max           0 min
Histogram: 7 0 0 0 0 0 0 0 0 1
Nghost:            511 ave         512 max         504 min
Histogram: 1 0 0 0 0 0 0 0 0 7
Neighs:             61 ave         488 max           0 min
Histogram: 7 0 0 0 0 0 0 0 0 1
FullNghs:          122 ave         976 max           0 min
Histogram: 7 0 0 0 0 0 0 0 0 1

Total # of neighbors = 976
Ave neighs/atom = 122
Neighbor list builds = 0
Dangerous builds = 0
variable  natoms equal "count(all)"
variable xlength equal "lx"
variable  volume equal "vol"
variable  etotal equal "etotal"
variable    ecoh equal "pe/v_natoms"
print "${xlength}, ${volume}, ${etotal}, ${ecoh}" append lattice_cohesive_energy.txt screen no

next i
jump SELF loop

change_box all x scale 1.0025 y scale 1.0025 z scale 1.0025 remap
Changing box ...
  orthogonal box = (-0.12716863 -0.12176422 -0.12176422) to (4.2071686 4.2017642 4.2017642)
  orthogonal box = (-0.12716863 -0.12716863 -0.12176422) to (4.2071686 4.2071686 4.2017642)
  orthogonal box = (-0.12716863 -0.12716863 -0.12716863) to (4.2071686 4.2071686 4.2071686)

run 1
WARNING: No fixes with time integration, atoms won't move (src/verlet.cpp:60)
Per MPI rank memory allocation (min/avg/max) = 8.615 | 8.617 | 8.629 Mbytes
   Step         PotEng         TotEng           Lx             Ly             Lz           Volume         Press           Pxx            Pyy            Pzz      
        51  -38.000965     -38.000965      4.3343373      4.3343373      4.3343373      81.426938     -305760.95     -305760.95     -305760.95     -305760.95    
        52  -38.000965     -38.000965      4.3343373      4.3343373      4.3343373      81.426938     -305760.95     -305760.95     -305760.95     -305760.95    
Loop time of 0.000283875 on 8 procs for 1 steps with 8 atoms

Performance: 304.359 ns/day, 0.079 hours/ns, 3522.677 timesteps/s, 28.181 katom-step/s
0.0% CPU use with 8 MPI tasks x 1 OpenMP threads

MPI task timing breakdown:
Section |  min time  |  avg time  |  max time  |%varavg| %total
---------------------------------------------------------------
Pair    | 0.000198   | 0.00021175 | 0.000237   |   0.0 | 74.59
Neigh   | 0          | 0          | 0          |   0.0 |  0.00
Comm    | 1.6e-05    | 2.75e-05   | 6.3e-05    |   0.0 |  9.69
Output  | 1.4e-05    | 3.6375e-05 | 6.1e-05    |   0.0 | 12.81
Modify  | 0          | 2.5e-07    | 1e-06      |   0.0 |  0.09
Other   |            | 8e-06      |            |       |  2.82

Nlocal:              1 ave           8 max           0 min
Histogram: 7 0 0 0 0 0 0 0 0 1
Nghost:            511 ave         512 max         504 min
Histogram: 1 0 0 0 0 0 0 0 0 7
Neighs:             61 ave         488 max           0 min
Histogram: 7 0 0 0 0 0 0 0 0 1
FullNghs:          122 ave         976 max           0 min
Histogram: 7 0 0 0 0 0 0 0 0 1

Total # of neighbors = 976
Ave neighs/atom = 122
Neighbor list builds = 0
Dangerous builds = 0
variable  natoms equal "count(all)"
variable xlength equal "lx"
variable  volume equal "vol"
variable  etotal equal "etotal"
variable    ecoh equal "pe/v_natoms"
print "${xlength}, ${volume}, ${etotal}, ${ecoh}" append lattice_cohesive_energy.txt screen no

next i
jump SELF loop

print "-------------------------------------------------------------"
-------------------------------------------------------------
print "Show results of 1st step (Running Minimization)"
Show results of 1st step (Running Minimization)
print "The number of atoms = ${natoms};"
The number of atoms = 8;
print "The lattice constant, x (Angstoms) = ${x0};"
The lattice constant, x (Angstoms) = 4.33433725289619;
print "The lattice constant, y (Angstoms) = ${y0};"
The lattice constant, y (Angstoms) = 4.33433725289619;
print "The lattice constant, z (Angstoms) = ${z0};"
The lattice constant, z (Angstoms) = 4.33433725289619;
print "The volume (Angstoms^3) = ${v0};"
The volume (Angstoms^3) = 81.4269376088649;
print "The total energy (eV) = ${etot0};"
The total energy (eV) = -38.0009651840498;
print "The cohesive energy (eV/atom) = ${ecoh0};"
The cohesive energy (eV/atom) = -4.75012064800623;
print "-------------------------------------------------------------"
-------------------------------------------------------------
print "Simulations completed !"
Simulations completed !
Total wall time: 0:00:00
