LAMMPS data file via write_data, version 22 Dec 2022, timestep = 1000

5347 atoms
1 atom types

-0.6241627529562432 30.624162752956202 xlo xhi
-1.352352631405111 66.35235263140498 ylo yhi
-0.6241627529562432 30.624162752956202 zlo zhi

Masses

1 63.546

Atoms # atomic

175 1 3.7123500279406 -0.5293914488258094 3.785467089735217 0 0 0
2 1 0.8668615848610641 1.010848061301775 0.6013555564525033 0 0 0
4185 1 1.9209242690438222 -1.346537760901855 0.12760470270699287 0 1 0
4 1 -0.49268113650210926 0.7799266411859698 2.8165765236621616 0 0 0
5 1 4.687035789835661 0.006205045201732595 -0.19710927896307495 0 0 0
8 1 3.1941901201773457 0.7966503480283782 1.7143155194606536 0 0 0
5339 1 0.15921323200644488 -0.884372772528334 29.705680712488537 0 1 0
172 1 1.6944717621302505 1.4070019817629875 3.564231796952571 0 0 0
1360 1 28.8998386580231 14.707483592399441 26.972585978993386 0 0 0
6 1 6.3639324887864435 1.924235531998474 -0.4585910380695688 0 0 0
7 1 5.593445325480185 -0.3161607172052543 2.06041494399675 0 0 0
9 1 7.2789503243647475 -0.35254642882137643 -0.07144921070417376 0 0 0
12 1 7.419467384562386 1.4590562729512242 1.7756666948267732 0 0 0
176 1 5.316313010932435 1.469467986466125 3.8491961419845913 0 0 0
179 1 7.38483326488544 -0.14645432979963746 3.741107655313301 0 0 0
10 1 9.347483004415448 1.2994325389982042 -0.421153267037774 0 0 0
11 1 9.073220710900301 -0.33211642343279846 1.6973983718150736 0 0 0
13 1 11.123926019929668 -0.2111029619448379 -0.36622811003106465 0 0 0
14 1 12.81870924567129 1.6666519686467902 -0.36504634583945395 0 0 0
15 1 12.927872024147204 -0.14743382530751736 1.4717348164369932 0 0 0
16 1 11.084686993598913 1.455940528700359 1.5799393400441284 0 0 0
180 1 9.362930916538868 1.4413043691910343 3.4335084826054976 0 0 0
183 1 11.179342184805087 -0.3539492193682674 3.213132366362617 0 0 0
184 1 13.030867807945212 1.6164501167007645 3.2966138267824383 0 0 0
17 1 14.964691842655986 -0.3228963099666513 -0.37112119513406966 0 0 0
18 1 16.773649753292084 1.3895401782484327 -0.5269927310956599 0 0 0
19 1 15.003377104345036 -0.3324922906298968 2.712754269784505 0 0 0
20 1 14.815164805978684 1.675898377246821 1.199034218918055 0 0 0
187 1 13.252425204015008 -0.4143596672467512 4.754650293225946 0 0 0
188 1 15.132722627600893 1.3468668758267226 4.590430073482882 0 0 0
1444 1 27.11892603755126 14.828347384578905 28.632792080521213 0 0 0
22 1 18.880760162154033 1.060997378274522 0.7656109932727981 0 0 0
23 1 19.17254004939239 -1.1692495197672448 2.2114244016676787 0 0 0
24 1 16.943542050633283 1.1633524297236812 2.48398213084935 0 0 0
191 1 17.043409781616475 -0.4915310307045957 4.481280502789087 0 0 0
192 1 19.037270646990002 0.9034324271557419 4.006734908560632 0 0 0
25 1 21.150808192862343 0.4621596294910002 -0.09424865677183636 0 0 0
28 1 20.758611498808925 1.109475572153677 2.2380249242364645 0 0 0
195 1 21.05996486720175 -0.6207897829302285 3.9808534736049888 0 0 0
26 1 22.781680095045857 2.4744802835132513 -0.4437098180098644 0 0 0
27 1 22.9068203037644 -0.14187263788101623 1.673619172610688 0 0 0
29 1 23.52803740022331 -0.21653112590614354 30.42277691908756 0 0 -1
32 1 24.501748993216445 1.7797793642845692 1.0108000216900268 0 0 0
196 1 22.719655805419684 1.2984607847104845 3.867253271885054 0 0 0
199 1 24.634888081174324 -0.28726273281978343 3.7662911987380614 0 0 0
30 1 26.857059431422343 1.4868425392714482 -0.1475922709049468 0 0 0
31 1 25.451834128721885 -0.3984234447489423 1.1731639529271758 0 0 0
33 1 28.658789815102587 -0.6246498359521989 0.09001400320290975 0 0 0
34 1 28.616209329039577 1.3125163693701736 1.5136400274073467 0 0 0
200 1 26.538490998569202 1.159039616198927 2.8454183178724106 0 0 0
1358 1 25.49533400031445 15.045080585644108 26.70318815016742 0 0 0
35 1 30.565475064800935 3.0657725619845717 0.8975917053946729 -1 0 0
37 1 1.5313420352615275 3.3202856640018084 1.8449170947336908 0 0 0
39 1 3.130376103166528 2.3084723800664806 -0.23418398159118198 0 0 0
205 1 -0.4794433637404303 3.228779763413101 3.889171628670268 0 0 0
209 1 3.42549449391465 3.254525602228015 3.5080179448994526 0 0 0
36 1 1.3884048961265143 4.220453015140462 -0.28546489230150546 0 0 0
38 1 30.549366042214672 5.178926290041724 2.235473746818375 -1 0 0
42 1 3.541721607389997 4.450179729727978 1.2421336732660666 0 0 0
69 1 1.3097682163071669 7.570620804763793 -0.4785160827814394 0 0 0
71 1 1.541320165730565 5.94529353658035 1.5495112539265223 0 0 0
73 1 3.380139618240668 6.230308118283331 -0.5669277969034213 0 0 0
206 1 1.2789846209155906 5.34682331163249 3.865729851534492 0 0 0
239 1 -0.5858149705285314 7.099752203580051 4.0860880090614655 0 0 0
243 1 3.4448430590505374 6.33658626759486 3.0067746896616048 0 0 0
41 1 5.02588909356359 2.3764718440729626 1.4922026897382783 0 0 0
43 1 7.989520534769598 3.8923127340631405 30.533538581299773 0 0 -1
213 1 7.34080303778413 3.1740041095583065 3.528736600664404 0 0 0
40 1 5.3394127424419064 4.375180796087923 -0.3594134698577784 0 0 0
46 1 7.186015844433539 4.655413465071188 1.458383925778512 0 0 0
75 1 5.280164267777945 6.472635396486263 1.2798089062933227 0 0 0
77 1 7.03647031015948 6.482417883972287 -0.5292276306178564 0 0 0
210 1 5.360574823528195 4.751421013639896 3.188902065613615 0 0 0
247 1 7.207800234057175 6.775616229366056 3.1378476593897116 0 0 0
45 1 9.263599127907899 3.2048045024866063 1.3239979173295604 0 0 0
47 1 10.991682148572108 3.421281140480521 -0.35598184648459696 0 0 0
49 1 12.810154523406462 3.3636068968943214 1.3746229670259078 0 0 0
217 1 11.024375143372016 3.568733370284275 3.2570309886227613 0 0 0
44 1 9.605519231464008 5.658277472457981 30.44090438568862 0 0 -1
48 1 12.883270865762228 5.246860103316103 -0.49383604073485543 0 0 0
50 1 10.966142458526036 5.250181284152718 1.3934604141648634 0 0 0
79 1 8.842189521513111 6.793051664543334 1.2989007093142098 0 0 0
81 1 11.493215309884663 7.30714520897561 30.391082216064028 0 0 -1
83 1 12.992776593072785 7.107544270926031 1.2332926139914981 0 0 0
214 1 9.047483445303698 5.081971633723483 3.1315343264606956 0 0 0
218 1 12.859458202276983 5.42627086238109 3.071356192912153 0 0 0
251 1 10.85031357919836 7.053988489005949 3.0535668271954086 0 0 0
51 1 14.627428878121776 3.5181835126064724 -0.4071878435943922 0 0 0
53 1 16.44622794131758 3.36192370705312 1.2371371159477116 0 0 0
221 1 14.806840923163149 3.4986673954303305 3.0246295351254058 0 0 0
52 1 16.570310051452573 5.172052001985939 -0.5677699657862578 0 0 0
54 1 14.694884204073261 5.3585334987029585 1.3291715486561895 0 0 0
85 1 14.953602817971676 7.0302034517865994 -0.6013334391532906 0 0 0
87 1 16.492775403138353 7.230981223853799 1.2175841916903662 0 0 0
222 1 16.692266566577842 5.258890684882511 2.8770156746121307 0 0 0
255 1 14.78314187045248 7.166229443585278 3.0209552711407404 0 0 0
55 1 18.281031037067542 3.4828760370418683 -0.5247663217117391 0 0 0
57 1 18.79293532286485 2.979805630018988 2.129715495035953 0 0 0
225 1 17.020406517857374 2.923745438896792 4.154091873481046 0 0 0
59 1 20.537078761450154 2.924108711770625 0.3887841441716773 0 0 0
229 1 20.635670239122618 3.041371095745668 3.793524544344228 0 0 0
56 1 19.99241751549053 5.3052382008340375 -0.5071523543618598 0 0 0
58 1 18.347143767023667 5.3185248318255285 1.286745864900523 0 0 0
89 1 18.174286141939355 7.128460799505577 -0.4522287863826712 0 0 0
91 1 20.122360397475873 7.219991371337079 1.211448878391442 0 0 0
226 1 19.017700084822174 4.8724716363945335 3.791803495619501 0 0 0
259 1 18.25489331587933 7.452005083381367 2.9661340354349823 0 0 0
62 1 20.789975334213203 4.918347977077591 1.9653809995420026 0 0 0
93 1 21.7273329402228 7.450004068073397 30.53868945857701 0 0 -1
263 1 20.717946456618293 6.8335693660619 3.727361595082897 0 0 0
61 1 22.488654831762332 2.8902449387782685 1.9280462808208583 0 0 0
63 1 24.74760479525557 3.947431546349007 30.524137372079142 0 0 -1
233 1 24.654700358630294 2.8854163486925914 3.075753429596104 0 0 0
60 1 22.611811608906443 5.183904394777614 -0.11225756289253286 0 0 0
66 1 24.526711332127427 5.1298618275472965 1.4697096546277222 0 0 0
95 1 22.592703614323035 6.80618530601309 1.8410036954932099 0 0 0
97 1 24.352445780521982 7.218590821347162 -0.3866762320678725 0 0 0
230 1 22.72384683473752 4.848187874419053 3.4218725731749826 0 0 0
267 1 24.948631936372678 7.060327940567571 2.8900159683354185 0 0 0
65 1 26.485040723202104 3.467951310668819 1.299460468067733 0 0 0
67 1 28.54394103321406 3.4434239348661 -0.5405625415236011 0 0 0
237 1 28.669630300286876 3.3251263431653033 2.5893603903271 0 0 0
64 1 26.68151651872246 5.370870589929362 -0.49933984567194484 0 0 0
68 1 28.36253747996269 5.324706980695438 1.1466434514197652 0 0 0
99 1 26.63341493739049 7.252884732766271 1.1569160858952794 0 0 0
101 1 30.41750835759076 5.680839517360012 -0.29962268393353697 0 0 0
234 1 26.648817304426814 5.138980215410007 3.118893446430352 0 0 0
271 1 28.542786379381923 7.131365728459771 2.7198195339818856 0 0 0
70 1 2.9064300013475144 9.575924253465798 30.597520738484256 0 0 -1
72 1 -0.36930520691957147 7.553897951413093 1.2759617895377835 0 0 0
76 1 3.2237652928475 8.1184095404981 1.234680971918983 0 0 0
103 1 -0.5256182643367722 9.426591008053288 -0.3617898703466135 0 0 0
105 1 1.3957054452542432 9.89386955855962 1.303685564784214 0 0 0
107 1 4.622035369912595 11.419160791968267 30.362845829021907 0 0 -1
240 1 1.550900849802935 7.968013401705143 3.1311847229665375 0 0 0
273 1 -0.3416785350813232 9.542078565095615 3.174437267545676 0 0 0
277 1 3.378119052310808 9.975616475130401 2.995592237978491 0 0 0
74 1 5.1115097427587655 8.246168322362864 -0.4004225399986865 0 0 0
80 1 7.061253313026563 8.53438490215413 1.2472960510008602 0 0 0
109 1 5.019625976778996 10.189469888500641 1.1717630326677293 0 0 0
111 1 6.918185031340038 10.09356225412597 30.58791808250254 0 0 -1
244 1 5.280951181859642 8.282655111004447 2.9611072147686985 0 0 0
281 1 7.062692749914041 10.53723309553045 2.8877260564896248 0 0 0
78 1 9.145675864534791 8.566449734767254 -0.506129006200851 0 0 0
82 1 13.402643338576018 8.94038516011133 30.33870023019533 0 0 -1
84 1 11.084815313882336 8.87529650882746 1.0840685143458573 0 0 0
113 1 8.970025104193665 10.361315204092165 1.259735513370106 0 0 0
115 1 11.208856405078002 10.38787111615386 30.466812371564032 0 0 -1
117 1 12.816830366399085 10.594883691703583 1.1092799022790445 0 0 0
248 1 8.9547318216861 8.7456706327452 2.994989426128164 0 0 0
252 1 12.683384489425732 9.041844429253226 3.020030244081695 0 0 0
285 1 10.836228528149636 10.726479249299778 2.845334876550877 0 0 0
86 1 16.37658112231742 9.07480742294594 30.601764635070897 0 0 -1
88 1 14.648253435568842 8.846996496647682 1.2374151752312537 0 0 0
119 1 14.87749555710151 10.774087931119407 -0.6042737162831102 0 0 0
121 1 16.336778134849517 10.951398677270818 1.273791282395443 0 0 0
256 1 16.476591274735824 9.103692505225082 3.0162669380207867 0 0 0
289 1 14.462605410142004 10.89267351106998 2.97303431771312 0 0 0
90 1 19.77175692661755 9.276492382799235 -0.5424826605488846 0 0 0
92 1 18.25768690030504 9.323984697449532 1.268604477433152 0 0 0
123 1 18.085967222430853 11.167912928121554 -0.6143828053310258 0 0 0
125 1 20.193439220966646 11.11888108509287 1.086932998380806 0 0 0
260 1 19.952462213233026 9.04418206957199 2.933760465635574 0 0 0
293 1 18.32483668578216 11.193933399238558 2.9112056098720105 0 0 0
96 1 21.794795395195685 9.079964692578033 1.0989280158321069 0 0 0
127 1 21.78029651264172 11.225250154647597 30.568543410848363 0 0 -1
297 1 21.740180281242466 10.962915962308784 3.0751893896994167 0 0 0
94 1 23.335622453084788 9.431115023333408 30.475206271747332 0 0 -1
100 1 25.03149898417304 9.180085724353134 1.135267407464154 0 0 0
129 1 23.450053446274964 11.15085186921273 1.1599999860340517 0 0 0
131 1 25.49123307671192 11.297938839638354 -0.3851446870696904 0 0 0
264 1 23.352517193523006 8.949938606421354 3.0499510979777353 0 0 0
301 1 25.075183717302657 10.912528022663363 2.998054009330647 0 0 0
98 1 27.052380748142284 9.287895187176124 -0.5376385654889897 0 0 0
102 1 29.05684782743606 9.275554092698114 1.3639060398434286 0 0 0
133 1 27.166622299134588 10.810606337357253 1.5878398131042957 0 0 0
135 1 28.91516025437752 11.113066928907546 -0.4648331195513039 0 0 0
268 1 26.778866766842498 8.919560458271024 2.9902332140092667 0 0 0
305 1 28.988280831937786 11.175197903255102 3.2306545009689516 0 0 0
104 1 1.3066351489503232 11.523352591600867 30.59835014483559 0 0 -1
106 1 -0.5612499823375621 11.227644936424717 1.41701609850956 0 0 0
110 1 3.0527248506431834 11.904513600727194 1.2341581587802557 0 0 0
137 1 -0.4952372092855858 13.077877015613295 -0.5475477003318026 0 0 0
139 1 1.2328709235058355 13.429899681617474 1.1533314119261289 0 0 0
141 1 3.059507115402377 13.519503922558778 -0.6207193821088887 0 0 0
274 1 1.4699059960853962 11.651827100845702 3.2802346826770385 0 0 0
307 1 -0.32659660996344847 13.320002905550615 3.2501263240675904 0 0 0
311 1 3.5062314152757548 14.162711639711842 2.1830644842757763 0 0 0
108 1 6.440950006846159 12.934794702569283 29.98215898879898 0 0 -1
114 1 7.236865795726008 12.293833898632283 1.0593794274354287 0 0 0
143 1 5.345308888001587 13.942936166606868 0.6209973894562726 0 0 0
145 1 8.258661964655177 14.49332218398034 30.35587274889621 0 0 -1
278 1 5.287933279000851 12.397107403864657 2.638162219445341 0 0 0
315 1 7.260067265791784 14.284068537978882 2.4705484837290888 0 0 0
112 1 8.893761772598808 11.64433420472625 30.457980605402874 0 0 -1
116 1 12.816351538036043 12.359619228972099 30.539064848221606 0 0 -1
118 1 10.737256387219876 12.28072043782782 1.02389239248463 0 0 0
147 1 9.55765949097369 14.359305565609294 1.1489871135706342 0 0 0
149 1 10.607742869941461 13.360003154544923 30.073274951950417 0 0 -1
151 1 12.511428191958807 14.336422129799043 0.633421845407403 0 0 0
282 1 8.878532882976865 12.404748312933965 2.9750110791689313 0 0 0
286 1 12.537247597390138 12.57480929638179 2.684269634644088 0 0 0
319 1 11.106490846288082 14.619252218571345 2.847503782229143 0 0 0
120 1 16.427715306506165 13.037025950592776 -0.6085818300438888 0 0 0
122 1 14.58384810034491 12.737381060992876 1.0803209395892688 0 0 0
153 1 14.603924325272805 14.82350155638014 -0.4538597907728942 0 0 0
155 1 16.6652904249353 14.902138428223815 1.2252043162346034 0 0 0
290 1 16.51078454924418 12.874422093456506 2.8247346062775507 0 0 0
323 1 14.513675456958232 14.532930903068232 2.716991915865827 0 0 0
124 1 19.89785251553578 13.286501444165937 30.424689530670662 0 0 -1
126 1 18.381068366341346 13.01695635787133 1.1740785540300256 0 0 0
157 1 18.231514490912353 15.073214158213617 30.407784941856775 0 0 -1
159 1 20.06453066074546 14.956789206849155 1.0824971157253087 0 0 0
294 1 20.156537449590807 12.922980075665683 2.938412294624995 0 0 0
327 1 18.287529189559685 14.827443530145434 3.051889354588392 0 0 0
130 1 21.729160563759265 13.18342399203721 1.0534649178817896 0 0 0
161 1 22.15984995851945 15.187292001029007 30.361949241699172 0 0 -1
331 1 21.96435818326985 14.799749394666108 3.1775717023823775 0 0 0
128 1 23.67324888487368 12.999203872432847 -0.5315635263621772 0 0 0
134 1 25.34842448580511 13.122043343188773 1.3596202544453069 0 0 0
163 1 23.770391338035502 14.791233401836593 1.3456736145797308 0 0 0
165 1 25.6615064241634 15.157028205217603 -0.4656261383675827 0 0 0
298 1 23.48122428474357 12.92649462278923 3.1871807958423672 0 0 0
335 1 25.63435792945822 14.862055413917346 3.222744589948386 0 0 0
132 1 27.25234330430758 13.031695851056385 -0.28544136242108414 0 0 0
136 1 29.131813544032113 13.089079175230852 1.4501193588165777 0 0 0
167 1 27.430566396148144 14.907641179385447 1.4806658025866466 0 0 0
169 1 28.83037999884347 14.871654227029538 -0.5402274113343756 0 0 0
302 1 27.223585099149226 12.991036199480286 3.264915871139787 0 0 0
339 1 29.010268843560958 14.760826718331032 3.3929110084918044 0 0 0
173 1 1.592722073611645 -0.6031137729746897 5.265880384236914 0 0 0
174 1 -0.26913669824718556 1.3433216210243697 5.522506261284544 0 0 0
178 1 3.4057951827174238 1.3227632489705772 5.44426517384714 0 0 0
1186 1 27.313861948969574 15.270017706885621 21.233224880355614 0 0 0
342 1 1.6955588069446685 1.3579368690814873 7.078513417522569 0 0 0
345 1 3.496852713713759 -0.6997729830289375 6.938854200898816 0 0 0
177 1 5.524052527367204 -0.36536280966735646 5.5599921354828306 0 0 0
182 1 7.076758047104994 1.7107008521205853 5.594933361783944 0 0 0
346 1 5.035195560886466 1.436367684043033 7.2149403537909125 0 0 0
349 1 7.1531677410090655 -0.00642300927249817 7.317277823670625 0 0 0
181 1 8.927240271529788 0.026783939756225283 5.659008205757648 0 0 0
185 1 11.003703462647056 -1.0927720594346395 5.5648792641152856 0 0 0
186 1 11.256298402688389 1.6606507993748676 5.045429144889056 0 0 0
350 1 9.139345739983781 1.9610523344152133 6.998890336324355 0 0 0
353 1 9.19693400496953 -0.8013946840079251 7.956591697782239 0 0 0
354 1 11.187684932576248 1.0048346242165742 7.478590382056703 0 0 0
189 1 15.071721508040227 -0.3430255218054461 6.413647992458691 0 0 0
190 1 13.351722940802924 1.4186176818455958 6.4347018205003055 0 0 0
357 1 12.74653251042478 -0.8970143952010865 7.334009802695153 0 0 0
358 1 15.35089248541136 1.5582874154616193 7.942440859759024 0 0 0
193 1 19.010147307765386 -0.43741881975758523 6.22260313293491 0 0 0
194 1 17.132847653267177 1.1993811437755832 6.102522100985363 0 0 0
361 1 17.02704608370464 -0.3494474379419872 8.129773669694522 0 0 0
362 1 19.051645133144532 1.3252929828312432 7.867688707128179 0 0 0
198 1 20.91073954331337 1.1678984465838536 5.738753765088184 0 0 0
365 1 21.319769607033408 -0.3485969295151421 7.77122258603951 0 0 0
197 1 22.861521845724617 -0.40148792667655 5.797003529499021 0 0 0
202 1 24.858833451209797 1.7020936305053391 5.201694248497553 0 0 0
366 1 23.01774783187497 1.5798511509031408 7.183584639781367 0 0 0
369 1 25.22167410121866 0.007388364107642209 7.22405358352924 0 0 0
201 1 26.82738778593813 0.08888490942596006 5.25070026649515 0 0 0
204 1 28.657082782685755 1.2209551099858844 4.115209639501316 0 0 0
370 1 26.804106423051522 2.0927667922880313 6.705407471544029 0 0 0
373 1 28.933087690755485 0.56727559045242 6.599662824417109 0 0 0
207 1 1.6488254563844413 3.2237869179253558 5.407697722855015 0 0 0
375 1 -0.14930914677498425 3.2078012289627527 7.243484322819429 0 0 0
379 1 3.417802418809438 3.285753038811303 7.067538105534683 0 0 0
208 1 -0.49498950992096535 5.167733893781724 5.679141941081316 0 0 0
212 1 3.324266324879373 5.241178579059343 5.278427518683791 0 0 0
241 1 1.4038088877372545 7.081905699892646 5.56154520074703 0 0 0
376 1 1.5419392549946678 5.084644220242998 7.116128095376302 0 0 0
409 1 -0.3911588973250507 6.900812120035422 7.353618959389598 0 0 0
413 1 3.2899569298778806 6.996606937822433 7.05722633042049 0 0 0
211 1 5.216234107102277 3.5852643465309146 5.368715966573977 0 0 0
383 1 7.377721523995435 3.732572952834979 6.942984230027723 0 0 0
216 1 7.181135792291881 5.286526876175376 5.102862983190207 0 0 0
245 1 5.342301795704665 6.765099589169846 4.81270795630471 0 0 0
380 1 5.369506014704168 5.47672059514713 7.030460963214237 0 0 0
417 1 7.088124502704201 7.226990459312926 6.722305852306487 0 0 0
215 1 9.274788670370203 3.5683034075917464 5.122237475052103 0 0 0
219 1 12.894842318032367 3.6993022422186685 5.0813234848022235 0 0 0
387 1 10.986479284658124 3.7297301717566365 6.783665610147425 0 0 0
220 1 10.926630610660276 5.495285306321548 4.918214002034045 0 0 0
249 1 9.068978181507878 7.123762666509341 4.925438731311698 0 0 0
253 1 12.774983221158081 7.330751122927889 4.7101374110962135 0 0 0
384 1 9.066038002044692 5.517382088922311 6.746391250292475 0 0 0
388 1 12.722215948490016 5.711057581415975 6.681324812112107 0 0 0
421 1 10.808574110484118 7.452950125996887 6.621942447891926 0 0 0
223 1 15.216890168825014 3.21496521516091 5.985452625132046 0 0 0
391 1 13.439507915218792 3.4159161960734883 7.737590208807413 0 0 0
224 1 14.691835282114148 5.453353112464045 4.779898835423404 0 0 0
257 1 16.430294577623002 7.320495714526389 4.750940342291894 0 0 0
392 1 15.32155516373099 5.211864074984203 7.343615160300741 0 0 0
425 1 14.475835333453519 7.431001191696497 6.564867910491164 0 0 0
227 1 19.096430002505045 3.008907531788161 5.7156366651180415 0 0 0
395 1 17.355736484132784 3.2946741155048596 7.593558724744916 0 0 0
399 1 21.0902366059494 3.2286121169032747 7.336064917701822 0 0 0
228 1 17.074772992082032 4.900843081590032 5.7066804457557225 0 0 0
261 1 18.91953947440153 6.994380558704124 5.302991996478176 0 0 0
396 1 19.251776955797943 5.198350993158987 7.0600175492485855 0 0 0
429 1 17.38568922197662 6.989601537254284 7.216458396950588 0 0 0
232 1 20.941916281784778 5.028204978811477 5.399863406171007 0 0 0
433 1 21.17205534026938 7.191162857380631 6.655693670117552 0 0 0
231 1 22.578570088669657 3.095208704236997 5.40928708949103 0 0 0
403 1 24.691764305258864 3.587713175516696 6.766951977865894 0 0 0
236 1 24.82134025733653 5.025711107353921 4.784659437537988 0 0 0
265 1 23.042382851998916 6.955608198356847 4.68596804133554 0 0 0
400 1 22.942769428457424 5.17959302456485 6.668619906271036 0 0 0
437 1 24.894599973771072 6.863054693843305 6.465726561932546 0 0 0
235 1 26.878793619935358 3.0875831257355166 4.4030234002171245 0 0 0
407 1 28.90511978643859 3.1405773627275035 5.652980534581966 0 0 0
238 1 29.00030952096011 5.152725086328858 4.1484361075191725 0 0 0
269 1 26.80441358808951 6.9547770663362165 4.583409606459431 0 0 0
404 1 26.87297756034647 4.837090445248237 6.138846219071803 0 0 0
441 1 28.728787349938848 6.904288577657944 6.007960394728897 0 0 0
242 1 -0.593225657968091 8.831713459466021 5.711103053789801 0 0 0
246 1 3.609821424243469 8.47583796729303 4.912099804191214 0 0 0
275 1 1.5529200645849968 9.992577847804455 5.015939630247417 0 0 0
410 1 1.3548718459583289 8.864130771564172 7.2733127478060915 0 0 0
443 1 -0.569973930461105 10.6027856873265 7.506072692422757 0 0 0
447 1 3.234189960789299 10.671653874187673 6.473476860240805 0 0 0
250 1 7.07820519255525 8.808982065244493 4.696602124640943 0 0 0
279 1 5.323816086610696 10.56107933318452 4.569529773516683 0 0 0
414 1 5.15267935786668 8.971935753418911 6.733210956932852 0 0 0
451 1 6.899242237023469 10.952705960809563 6.535745738386635 0 0 0
254 1 10.84042468561477 8.916849906912526 4.723726224516325 0 0 0
283 1 8.940616921156535 10.719004848518244 4.7471005920962375 0 0 0
287 1 12.551390419342125 11.070749684238692 4.675914306970185 0 0 0
418 1 8.770948597234682 9.075727031888869 6.630769204464171 0 0 0
422 1 12.680274685712511 9.215314093685965 6.432916911893152 0 0 0
455 1 10.762820316927769 10.846731226035882 6.471674596440197 0 0 0
258 1 14.502444824175187 9.231590991766025 4.768534825536969 0 0 0
291 1 16.38168160831151 11.135785239797418 4.609243603902092 0 0 0
426 1 16.318419730230133 9.173979703927138 6.487521777118025 0 0 0
459 1 14.44391465780382 10.972966676866257 6.518806067449099 0 0 0
262 1 18.19911807768169 9.403292201491057 4.801636648064014 0 0 0
295 1 19.97335753382331 11.026563353064907 4.891308234320581 0 0 0
430 1 19.422994499261236 8.961399902227294 6.876442893893729 0 0 0
463 1 17.99747698487686 11.108953046901842 6.605791669663515 0 0 0
266 1 21.572761256828358 9.020121559975586 4.9024723972840825 0 0 0
467 1 21.593607639276037 10.606954900359378 6.781548982369604 0 0 0
270 1 25.04728343261408 8.750789506395634 4.849591785851289 0 0 0
299 1 23.3785158056898 10.75113774052205 5.0080212900336125 0 0 0
434 1 23.266027610741354 8.681354282587412 6.596931223458251 0 0 0
471 1 25.10132670919554 10.527030515616937 6.7461202905514455 0 0 0
272 1 28.675486184675577 8.937198598816332 4.399256961158586 0 0 0
303 1 26.699953286153388 10.809457108728843 4.805642103356355 0 0 0
438 1 26.850290285511605 8.788572709154206 6.390723895278929 0 0 0
475 1 28.707032658666762 10.677183017312409 6.157402607251524 0 0 0
276 1 -0.28402987432746885 11.455880362730724 4.998807662623234 0 0 0
280 1 3.5069786222577584 12.348849341013963 4.353853600033719 0 0 0
309 1 1.849759725971857 14.169005073573015 4.0734276696671925 0 0 0
444 1 1.6962802980009495 12.40620034157744 6.1658873341898826 0 0 0
477 1 -0.1949134785165314 14.320655399914422 5.693933141896489 0 0 0
481 1 3.3227699115541576 14.49093778332738 6.0024099198137195 0 0 0
284 1 6.871331862663054 12.4991249089419 4.520481031300691 0 0 0
313 1 5.329590616775852 14.330451636929117 4.249258266039664 0 0 0
448 1 5.059107784419169 12.656292285298244 6.273938390173547 0 0 0
485 1 6.950447435640841 14.481747736977809 6.37662392220922 0 0 0
288 1 10.78849953162969 12.632932060746667 4.73191743849888 0 0 0
317 1 9.080522710046901 14.35078450523214 4.514449301448744 0 0 0
321 1 12.775232017103068 14.559267882466582 4.607693250557435 0 0 0
452 1 8.695743104815966 12.629896662961006 6.434218571264136 0 0 0
456 1 12.764466252137336 12.748704128947317 6.679075946995438 0 0 0
489 1 10.814706925292716 14.427005005143416 6.371713789114345 0 0 0
292 1 14.347575297133078 12.75625836888584 4.592769158818764 0 0 0
325 1 16.25432236772798 14.670906781634237 4.613654983692966 0 0 0
460 1 16.246286315827625 12.874438709746313 6.4689758253115865 0 0 0
493 1 14.474079508072183 14.617769410689148 6.5152581704385 0 0 0
296 1 18.19105092853404 12.870470050570948 4.8972120585350964 0 0 0
329 1 20.028021021833084 14.544027772251086 4.970862722466634 0 0 0
464 1 19.95734808527466 12.643781620930739 6.7883173184416465 0 0 0
497 1 18.01418494825318 14.538310369410866 6.743259680341611 0 0 0
300 1 21.720864631971004 12.694549838603777 4.988678801420179 0 0 0
501 1 21.90465644767935 14.466359863409085 6.537786549695328 0 0 0
304 1 25.17656022962514 12.775496983998075 4.91841302892001 0 0 0
333 1 23.702501578996888 14.652872463239216 4.869564432272698 0 0 0
468 1 23.448720914178423 12.499462150226538 6.764028896404912 0 0 0
505 1 25.253075510906505 14.254488212444242 7.100464071462093 0 0 0
306 1 28.999960687145204 12.807513990084537 5.051826360955522 0 0 0
337 1 27.164148052006993 14.686876452515655 5.224255003927835 0 0 0
472 1 27.02265145995524 12.495425119555316 6.727321944220635 0 0 0
509 1 28.86561031406977 14.219295085921996 7.047209868772571 0 0 0
343 1 1.3748150408844475 -0.9929844923785462 8.361365045287366 0 0 0
344 1 -0.3859923759825392 0.7408354410031333 8.379637278081276 0 0 0
348 1 3.166222534150861 1.2254683257329666 8.810516040468604 0 0 0
1373 1 21.009960732842828 -1.1466360389617574 29.165835079301054 0 0 0
512 1 1.12983451829486 0.6225608947085273 10.215654578743559 0 0 0
1051 1 26.061851719686274 -0.7538921917498353 23.26427839059202 0 0 0
514 1 30.566428636262998 0.4857941023138963 11.842658218730286 -1 0 0
515 1 2.9325140815027977 -0.9420436246394823 10.248238017638487 0 0 0
518 1 3.5426522597256023 1.0050730075074439 11.661001185495454 0 0 0
347 1 5.0452139716653805 -0.3993593517033318 8.864161072466343 0 0 0
352 1 7.454413835503413 1.9717643957122553 8.851485622301887 0 0 0
516 1 5.588106129152499 1.5017397363934926 10.237593477585788 0 0 0
517 1 3.416155462549151 -0.8244468271676343 13.160540791841747 0 0 0
519 1 5.400015899277843 -0.8041783692849583 11.467923684491918 0 0 0
522 1 6.012668841109346 1.3599492887976203 12.638804868077058 0 0 0
351 1 7.391973159202079 -0.6615560658114342 9.894107916412167 0 0 0
355 1 11.172431468823653 -0.7086030099626208 9.479011911226594 0 0 0
356 1 9.700757610741894 1.277967723903556 9.450272139799827 0 0 0
520 1 7.922845997572381 1.4562354919475462 11.228122869596667 0 0 0
521 1 7.603601394720561 -0.4255059966653424 12.869742460387648 0 0 0
523 1 9.596049803930162 -0.4231776113034027 11.266645369121285 0 0 0
524 1 11.610964287318431 1.328516129597455 11.003994613412242 0 0 0
525 1 11.399381680761266 -0.4329271966644527 12.870294371508965 0 0 0
526 1 9.843428492084103 1.4491670335821971 12.856358399080733 0 0 0
359 1 14.614005194504108 -0.7947170223981634 9.036912501906475 0 0 0
360 1 13.094102765062297 1.2530447349844835 9.029849476758592 0 0 0
527 1 13.190212170769561 -0.5572849657823017 11.046970255659692 0 0 0
528 1 15.095551356157035 1.4303806061944107 10.650162103498435 0 0 0
529 1 15.17893071334064 -0.39116173235148044 12.80261866823316 0 0 0
530 1 13.447231453458418 1.3322888670523776 12.74333444424204 0 0 0
363 1 19.29514675464018 -0.22262361475080672 9.77944200240105 0 0 0
364 1 17.22098752754833 1.6776913991030509 9.536788804043407 0 0 0
531 1 16.779762606170678 -0.4709477091808346 10.934121388398726 0 0 0
532 1 19.394808579669366 1.7477971766509373 10.95716745816171 0 0 0
533 1 18.911903209990818 -0.07529178481447252 12.578307802719863 0 0 0
534 1 17.136881522748254 1.529211745271767 12.392005316948692 0 0 0
368 1 21.302479277866446 1.496323163194746 9.227514582996386 0 0 0
535 1 21.48650483881412 -0.05165865375461176 11.343240153073111 0 0 0
538 1 21.013899496783864 1.7818971303977333 12.717109169970346 0 0 0
367 1 23.558069929608223 0.0003305005540754635 9.379608315400308 0 0 0
372 1 25.21581948555702 1.8514040260633902 8.671976507819762 0 0 0
536 1 23.259924643564872 1.7829646286754746 10.895812884641536 0 0 0
537 1 23.922453156267615 -0.20786711153645832 12.110591690257184 0 0 0
539 1 25.84853558096072 0.024943436615999515 10.293019773441802 0 0 0
542 1 25.574263993635533 1.6301426906988188 12.172209598695662 0 0 0
371 1 27.244093251044482 0.23175566785040247 8.399947550954659 0 0 0
374 1 28.785191995377645 2.358297762603359 8.131378730822068 0 0 0
540 1 27.052340263442595 2.1994312658445216 10.089131443562017 0 0 0
541 1 28.1597389593518 -0.05343132751596191 12.387255818933243 0 0 0
543 1 28.93239361222949 0.5872939566025159 10.056501709512641 0 0 0
544 1 29.01359087690974 2.3728110264819002 11.68466611558293 0 0 0
377 1 1.6367948484610588 3.242044308099265 8.847910105611078 0 0 0
545 1 30.62241474453559 2.5279019084881 9.941137221123855 -1 0 0
547 1 1.663104121836494 2.6590487679730073 11.795525797707251 0 0 0
549 1 3.5369727080409685 3.1787556237150323 10.249499492196783 0 0 0
378 1 -0.2276629390510625 5.016635764884011 9.187145642713988 0 0 0