ITEM: TIMESTEP
0
ITEM: NUMBER OF ATOMS
18000
ITEM: BOX BOUNDS pp pp pp
-3.4540249973325743e-01 2.7686402499733340e+01
-3.3258547461095667e-01 2.7673585474610654e+01
-4.0094363912237725e+00 3.3210143639122657e+02
ITEM: ATOMS id type x y z c_peratom fx fy fz 
362 3 5.49715 5.28257 1.21315 -28.9385 0.575075 -2.67441 0.324545 
1801 2 5.11654 2.42108 -1.44364 -25.3607 1.43519 0.419357 -1.20745 
3061 3 2.44424 5.57147 -1.47638 -27.6632 0.0243107 -2.04403 0.190407 
4502 2 3.03605 2.86165 1.20887 -24.5402 -2.95954 -1.75889 0.270052 
14042 1 4.09105 3.99658 -2.83373 -8.03054 -0.618256 -0.729717 0.181595 
6961 1 2.85773 2.27683 -1.12742 -6.7742 -0.832172 1.82954 1.63236 
10801 1 1.20946 0.759972 -2.34512 -8.16384 -4.54839 0.547988 -1.73302 
1501 3 0.155487 2.46605 -1.09012 -27.2327 1.19496 0.655155 -1.0353 
13443 1 4.43 0.676055 -0.123752 -7.45977 0.713571 -1.89935 -0.56607 
9000 1 0.870124 4.1491 -0.499655 -7.32223 1.45136 1.10306 1.56537 
6662 1 1.60042 1.1106 1.28819 -6.29209 0.749693 1.75462 -4.54562 
7203 1 1.25473 6.62611 2.39689 -6.88082 0.560821 -0.235681 1.05794 
12122 1 4.77994 5.93104 -1.21301 -7.21689 -0.689918 -1.76492 0.412112 
3001 2 2.89196 -0.184647 -1.64398 -24.4203 1.85107 -0.15106 2.91411 
17041 1 6.43289 0.99867 -2.41002 -6.76913 -0.521578 -0.286715 0.936061 
7560 1 4.94291 3.34573 0.518752 -7.52872 0.125367 2.05673 -0.737539 
16141 1 1.35337 3.82524 -3.01511 -7.96293 0.891859 -0.17702 -1.40399 
6002 1 3.36479 5.5001 1.3221 -6.85265 -1.06312 -3.03315 0.289337 
14881 1 4.1314 1.50143 2.60592 -7.28307 -0.936295 -1.24691 1.01859 
15303 1 1.04727 3.61175 2.49853 -7.85707 1.25972 0.106707 -0.0891569 
8042 1 3.88716 0.980065 -3.21132 -8.30536 0.189657 0.4603 -0.731821 
16862 1 6.93602 3.45209 2.38497 -6.94348 -0.808346 -0.454483 2.48068 
16742 1 7.25956 3.63198 -2.99248 -6.08501 -0.609521 -0.057901 -0.0516274 
662 2 11.2154 5.13304 1.56799 -24.4894 0.311636 -3.04217 -2.98256 
2101 2 11.3646 2.2624 -1.13345 -24.3557 -2.17334 -2.70016 0.400955 
3361 2 8.46419 4.83021 -1.49352 -26.3322 0.338808 0.811641 -1.22997 
4802 2 8.70983 2.64531 1.36126 -25.3509 -1.93273 -1.82622 -0.522259 
17700 1 12.083 0.362173 0.141523 -7.39139 2.24338 0.507569 0.0690498 
12662 1 10.2183 3.83335 -0.137086 -7.91931 -0.502429 -0.478371 -0.0411112 
8220 1 9.83536 6.35624 -2.39473 -7.43636 1.44728 0.326141 -1.06474 
8039 1 9.69332 0.959859 -2.34141 -7.52518 0.770807 0.199237 0.17054 
12661 1 9.61815 6.64634 0.251633 -6.39459 -1.08104 -1.46726 3.96618 
12362 1 12.872 3.30861 0.51351 -7.73562 -0.687206 0.926941 -3.42803 
11160 1 12.4701 -0.0163082 -2.78313 -7.88045 4.32345 4.0681 6.4606 
8821 1 7.00596 6.28724 -3.01004 -7.82006 -2.63298 2.36085 1.9939 
12361 1 9.68917 1.01625 0.552307 -5.72037 -0.148779 0.332375 -1.96668 
16802 1 6.96585 0.323205 2.55065 -6.50138 -0.213633 2.41435 -0.932925 
13801 1 12.0032 3.10522 2.99005 -7.22439 0.310574 0.208933 1.21237 
5102 2 13.5236 1.62693 1.54585 -23.755 -1.4711 1.35076 0.273424 
13803 1 7.38543 5.70706 0.263038 -6.83906 -2.2528 1.93048 1.31928 
9301 1 7.51651 3.22292 -0.44674 -6.26029 -0.399257 -2.77177 0.379973 
16081 1 13.0406 5.86057 -2.7585 -7.17188 -0.564586 -0.698188 -1.95521 
16860 1 12.2289 5.99364 -0.141385 -7.0075 1.33222 1.51477 -0.0139176 
10859 1 10.0685 3.7136 -3.16344 -7.16588 0.536212 -0.595952 1.03197 
9362 1 13.0228 2.90965 -2.32196 -8.4917 1.09599 0.565773 -0.131105 
10202 1 9.33199 4.29552 2.46227 -8.31286 2.32536 3.79519 2.64579 
661 3 11.161 5.43275 -4.00345 -28.0114 -1.59946 0.838161 0.808649 
13320 1 20.0934 5.29711 -3.90232 -8.60018 0.274312 0.80887 -0.0666151 
13259 1 18.2341 3.78781 -2.26914 -8.01092 1.41945 -1.39961 -2.17969 
3661 3 14.2148 4.44428 -1.06754 -27.4508 -2.26546 1.31243 -0.362295 
9602 1 14.9953 0.602309 -2.45033 -6.83219 0.724906 1.68065 -0.0755237 
15241 1 15.6928 2.97419 0.75185 -7.0418 -0.0437887 1.883 -1.35625 
962 2 17.0008 4.81555 1.20282 -24.6079 -1.40334 1.27535 2.62166 
2401 2 16.8246 1.9175 -1.50717 -24.5032 0.600481 -0.540606 0.080316 
3961 3 19.3969 5.05209 -1.27546 -26.7026 1.98017 -1.52406 -2.0642 
5402 2 20.3165 2.67307 1.25488 -22.9248 -3.51458 -6.59451 1.22512 
9900 1 18.3244 3.36306 0.250726 -7.47864 0.515238 -0.395011 -0.278998 
10501 1 18.0376 0.483233 -0.241589 -6.82565 -0.927771 1.00829 -1.06831 
11460 1 15.0743 6.00039 -0.117687 -7.83836 1.9739 -1.05684 -1.71996 
12420 1 15.9288 4.29304 -2.38302 -7.36476 -2.95688 -3.90351 2.73373 
7441 1 18.0848 0.350575 2.60882 -6.43203 -1.77123 1.23588 2.27037 
11159 1 18.6067 0.800141 -3.01193 -7.42943 -2.09373 0.300788 2.91859 
11101 1 14.669 0.599499 0.042234 -7.3566 2.35883 -1.16496 2.05625 
14461 1 20.4469 4.59064 0.884077 -8.57855 2.04194 5.59198 -2.70758 
9601 1 15.7031 6.54949 -3.02908 -6.78159 -0.819595 2.67329 0.729733 
8161 1 18.2833 6.18597 -0.173638 -9.33132 -1.44381 0.602392 -0.157457 
8402 1 14.0353 5.38498 2.31623 -6.37406 -1.95576 -1.49252 1.52199 
961 3 17.0327 4.81556 -3.83634 -27.7629 0.644168 2.20293 -1.23094 
11523 1 18.5481 6.29555 2.57187 -6.73679 1.14494 0.500222 1.28872 
62 2 27.6728 5.25818 1.97123 -24.9331 -0.466577 0.117843 -0.248138 
13499 1 26.9239 1.17775 -0.116326 -7.63375 2.98924 0.885667 -0.396718 
14463 1 21.0284 3.48805 -2.05276 -8.68151 -0.170657 1.25361 -0.433686 
6962 1 23.6696 3.80581 0.0770078 -8.99483 -2.76124 -0.85027 0.585254 
1262 2 22.3512 5.6121 1.41918 -23.8911 2.48603 1.2938 0.874656 
2701 2 22.6146 2.14546 -1.49888 -23.1411 -2.0262 0.0365056 2.80611 
4261 2 24.9107 5.05448 -0.995347 -23.9032 3.87016 2.69176 -2.61293 
5702 2 25.0591 2.55997 1.6268 -24.2329 -1.86805 1.02631 -1.61198 
11761 1 24.4213 0.971209 -0.0257182 -7.73989 -4.68409 1.16236 1.34197 
13802 1 23.8551 3.87245 -2.86417 -8.37445 -1.57878 -0.420781 3.08958 
14401 1 23.8747 1.18723 -2.77884 -8.1322 1.0728 -2.71462 -1.55273 
15903 1 26.3894 3.94279 0.740454 -7.91908 -0.305857 0.854087 -2.15736 
10560 1 26.4644 3.97116 -2.57036 -7.10041 0.710368 -2.51911 1.8644 
10320 1 21.4564 6.38595 -1.52712 -7.99553 -3.97325 -3.70068 1.50267 
12000 1 26.3592 0.867049 -2.9771 -8.43221 2.63703 0.581807 -1.83976 
6182 1 20.8086 1.00339 -0.375608 -7.20259 0.738615 2.52569 -0.316854 
4201 2 25.6442 -0.193008 -1.18283 -24.1006 0.604691 -4.13667 -2.04411 
12783 1 25.9858 1.06175 2.53771 -6.69759 2.7062 -2.50712 3.01514 
8160 1 22.0719 1.63414 1.76818 -7.81754 1.79901 -1.93645 0.478305 
16021 1 23.5088 3.38812 2.91862 -7.43275 0.722884 1.88333 0.893948 
14581 1 21.2144 0.890146 -3.04054 -7.533 -0.0623321 1.69938 0.475674 
1261 2 22.2312 5.0682 -3.64725 -23.3947 -1.6839 -1.54327 -1.93746 
6361 1 1.98257 7.16466 -0.406453 -7.53074 -0.215692 1.29666 -0.0708627 
13380 1 0.727755 6.68089 -2.78646 -7.88988 1.30817 -0.0873207 -0.309663 
15600 1 3.42468 6.68272 -3.15025 -9.14277 2.08308 -0.0242241 -0.920201 
7321 1 1.16972 12.2511 -3.0621 -7.78922 1.11347 0.637165 2.82924 
422 2 5.44231 10.8077 1.34833 -25.0267 -0.448358 1.32862 -2.58564 
1861 2 5.34679 7.85734 -1.69164 -22.9322 1.7406 -0.264027 2.00942 
3121 2 2.58637 11.1849 -1.20087 -25.5725 -1.09255 1.19736 -1.50705 
4562 2 2.89922 8.22119 1.56461 -25.5992 -2.25829 -0.304243 -3.3005 
11880 1 3.28592 10.2625 0.554174 -6.42835 -1.61502 -3.60068 1.70576 
6663 1 4.18943 12.2555 -0.208185 -6.79551 1.12734 2.357 1.95242 
122 2 -0.0140972 11.0379 1.84747 -25.5552 -1.3166 3.14285 -2.40969 
4622 2 2.89941 13.6347 1.5634 -24.8673 1.33653 -1.26154 -2.9566 
9481 1 5.20737 7.14715 1.02445 -7.23295 1.75034 4.41739 1.04861 
10020 1 1.40263 9.47411 -1.99764 -7.81869 -0.978354 -0.200466 -3.57198 
1561 2 -0.232467 8.00211 -1.14453 -25.847 -0.813208 0.037093 0.531396 
1921 3 5.46569 13.4967 -1.41203 -28.899 -1.07578 1.1304 0.679853 
16681 1 0.998276 12.5065 -0.13575 -5.90537 -0.360394 -3.64793 0.128294 
6301 1 6.18324 9.38403 -0.31546 -8.23321 1.51247 0.457802 2.14737 
13562 1 6.61684 9.17507 -2.9767 -8.46052 0.427992 -0.470198 -1.21511 
13081 1 -0.13863 9.90857 0.0445619 -6.30923 0.397279 -0.784981 0.222902 
10739 1 4.42366 12.2274 -2.703 -6.72683 -5.69442 2.19789 1.57456 
14161 1 4.00723 9.43855 -1.94989 -7.51944 -1.32614 -0.167087 -2.3796 
421 2 5.45333 10.9773 -3.81262 -23.6659 2.86258 -2.78873 -3.85296 
4561 3 2.60994 8.25912 -3.6236 -26.1222 -3.65821 2.11867 -1.08525 
17823 1 1.76817 11.8443 2.90074 -6.97133 2.95759 1.94335 0.880513 
14162 1 4.91285 12.1941 2.93677 -7.20842 -2.67572 3.85934 0.374666 
11762 1 4.2232 9.85522 2.7465 -6.42682 -1.79827 -1.93683 1.61106 
14102 1 0.962037 9.48324 2.71708 -6.78389 0.980752 -4.23803 1.43546 
14282 1 6.78587 12.1075 -2.54369 -7.78789 1.39262 0.763426 0.0821414 
16680 1 9.26263 12.0141 -2.18389 -6.06305 -0.636172 1.0534 0.0300025 
10921 1 6.92111 12.3521 0.0943612 -7.63059 -2.86494 1.80168 -3.71018 
11520 1 9.47597 11.9439 0.425118 -8.05522 1.66266 0.113973 1.14999 
722 2 11.0122 10.7218 1.55429 -24.2802 0.663868 0.610464 1.56662 
2161 2 10.6499 7.85239 -0.980923 -24.4983 1.69248 1.63697 -1.79541 
3421 2 7.86479 10.7353 -0.901122 -24.7927 3.57541 -1.27528 -2.71744 
4862 2 7.59302 7.63247 1.71485 -23.0748 0.526311 -1.40386 -1.00068 
15602 1 12.3015 12.0608 0.25831 -7.94792 -0.631676 -1.46243 -4.49287 
12779 1 12.5159 8.76271 -3.0275 -7.01917 0.969185 -0.00123799 2.39674 
9603 1 9.76176 9.56596 -2.17194 -6.56627 -0.0562096 -2.02557 1.59055 
17463 1 11.7037 8.82783 0.808638 -7.64284 1.50286 0.514017 -2.30095 
13921 1 12.4224 12.1223 2.67311 -5.54659 -3.75458 -0.303524 3.07949 
6900 1 12.0723 11.466 -2.68689 -7.09474 1.94298 1.5211 3.48624 
4922 3 8.10279 13.3632 1.35544 -28.0109 1.45819 2.8875 0.9843 
2221 2 10.9064 13.1136 -1.29531 -25.03 1.53645 0.869901 -0.954543 
9421 1 11.7772 6.80602 2.64365 -7.74091 -0.481793 0.732586 2.83898 
13923 1 7.1514 11.8855 2.24455 -7.34334 4.30519 -1.83179 5.39957 
4921 2 8.06844 13.4476 -3.9536 -25.0009 0.716992 -2.17337 0.0941816 
16863 1 8.87372 9.2365 0.631144 -7.67865 -1.24972 0.414948 1.05266 
11401 1 18.2275 6.89321 -2.77907 -6.84537 1.31729 -2.19852 0.572159 
16801 1 15.3841 11.868 0.00355107 -7.52928 -2.6279 -2.00392 -1.69934 
16140 1 14.5485 9.22147 2.31203 -6.06667 -2.22968 -3.17588 2.23556 
3721 2 13.9621 10.2809 -1.40104 -22.7965 -0.74665 1.3708 -1.33446 
13261 1 19.952 8.83678 -1.62501 -7.39984 1.53303 0.503049 2.41863 
5162 2 13.7259 7.34524 1.3319 -25.9908 0.157192 -1.05723 1.05405 
11161 1 17.8855 11.9323 1.01866 -6.65911 1.05229 -1.32148 1.26124 
8461 1 17.7591 8.99724 0.0560285 -7.98774 0.235631 0.584275 1.99899 
9962 1 20.0115 10.0356 1.56967 -7.0056 -2.15749 -1.64352 -1.651 
1022 2 16.1915 10.2578 1.64741 -25.6803 1.64085 3.16902 -1.1573 
2461 2 16.5157 7.53499 -1.16846 -24.8592 0.937571 -1.85582 -0.494743 
4021 2 19.2142 10.9418 -0.557521 -25.1244 -0.0103675 -0.353127 -0.741278 
5462 2 19.516 7.8053 0.709572 -22.8734 -1.3777 0.815715 1.93545 
15722 1 14.6252 8.65811 -0.15694 -7.86006 -0.23825 0.387937 -1.67101 
14402 1 16.228 9.40762 -2.00614 -7.41625 -2.29301 3.92989 -3.99288 
2521 2 16.1002 13.0866 -1.70295 -22.7801 0.562036 4.82421 3.62696 
7024 1 17.8987 12.2053 -1.8123 -7.78481 2.00266 -1.48277 -2.02138 
5522 3 19.3215 13.4863 1.76817 -28.9759 -0.936164 0.684347 -3.20399 
7021 1 20.5901 11.8375 -2.44786 -5.945 0.21948 -3.5647 2.05485 
9721 1 14.8115 11.9661 -2.87867 -9.42866 1.13735 -3.6843 -0.568551 
5222 2 13.7157 13.4544 1.07526 -26.0659 0.907686 0.162206 3.41062 
16082 1 16.163 6.89311 2.09407 -6.06655 0.661292 1.03084 -0.254111 
15720 1 14.7797 11.6675 2.63956 -4.81042 2.55632 1.69166 0.243693 
5761 3 25.0376 7.63813 -3.6425 -27.8224 -0.927624 2.13145 1.84085 
15901 1 26.8447 6.76615 0.592119 -6.83941 -0.197612 0.15129 -1.51451 
7561 1 26.7466 7.22382 2.93235 -7.23549 -1.28765 -1.55249 1.6394 
13742 1 23.343 6.69556 -3.04123 -7.75526 2.15585 0.712457 0.539199 
121 2 27.6722 10.831 -3.48604 -23.8904 1.09466 2.23375 -3.43748 
15120 1 23.7314 6.85937 0.189876 -7.64254 1.44721 -1.78997 -1.21206 
11641 1 21.6446 7.99658 1.05549 -8.29075 -1.00793 -0.905604 -2.00323 
16621 1 25.2719 11.7274 1.4805 -6.1053 -0.342547 -1.64514 -1.17031 
17821 1 26.0429 12.2534 -2.39249 -7.61847 0.534766 -0.977879 -0.203416 
8342 1 23.5604 9.44825 -2.81406 -6.73746 2.21688 0.523376 0.364878 
1322 2 22.1424 10.1617 1.36822 -24.5849 -0.591063 2.25178 3.14453 
2761 2 22.2312 8.28393 -1.51877 -24.1961 0.969803 1.32932 -2.05808 
4321 2 24.4925 11.016 -1.04057 -24.3107 2.33307 0.570264 -0.953555 
5762 3 25.2801 8.12549 1.74728 -28.5302 0.975789 -1.57063 -2.00298 
17521 1 23.2795 12.6535 -2.11288 -7.69605 1.57723 -0.730197 -0.163571 
15119 1 25.3845 9.26051 -0.117384 -6.65948 -1.70853 -0.300179 -0.223787 
14879 1 22.3942 10.4319 -0.824538 -8.30578 -0.369314 -1.21438 3.07616 
13862 1 23.9735 9.35331 2.26791 -7.36433 -2.17228 1.21802 1.23677 
13079 1 20.6903 12.1908 0.487997 -7.47092 -0.27217 1.42753 0.0289772 
2821 3 21.78 13.3538 -1.01305 -29.1049 1.51329 -0.293408 1.09653 
7382 1 23.2716 13.208 0.637875 -6.80049 -0.909438 0.0213326 -2.22777 
7380 1 26.0855 6.68396 -1.89259 -6.58059 -1.19359 1.47234 1.32018 
7081 1 26.452 9.37147 -2.87876 -7.80711 -1.52112 -3.67559 0.409495 
5821 2 24.4225 13.5027 -3.83085 -24.928 2.67657 1.00729 0.997814 
13502 1 2.16405 14.4982 -0.562321 -5.56319 2.48225 1.36465 1.41436 
1621 2 -0.0996338 14.0276 -1.59904 -25.7427 1.28012 -1.89531 1.21645 
17822 1 4.18101 14.9047 -2.49864 -6.98869 0.512464 0.327907 -1.65208 
8941 1 4.0351 17.3107 -0.275123 -7.47159 2.85977 -0.360211 1.58468 
16622 1 1.78423 17.5711 0.65262 -6.67446 -2.81261 -2.93672 0.655166 
15421 1 1.36544 15.1904 -3.00073 -8.08475 -0.771639 0.683854 -3.50823 
17881 1 4.13188 17.4777 -3.22574 -8.75798 -1.96732 2.13836 1.34912 
7740 1 5.00513 14.6251 0.523228 -7.4417 0.50635 0.103751 -0.322321 
482 3 5.58255 16.2906 1.4885 -27.5437 -0.659994 0.489291 -0.262964 
1981 2 5.01387 18.8212 -1.4784 -24.4018 1.94647 1.65433 -0.654817 
3181 2 2.76003 16.3392 -1.64743 -25.4071 -2.37391 -2.2754 1.57565 
4682 3 2.66306 18.9174 1.45861 -27.7648 3.32189 1.4837 1.82372 
10740 1 3.85779 19.9798 -0.0276214 -7.68634 -0.0434726 1.7713 1.0546 
10621 1 0.0917234 16.0453 -0.848361 -6.49259 -2.23827 1.08988 0.175151 
13441 1 1.78749 18.3028 -2.04958 -7.99084 0.383109 -1.07801 -1.28867 
1681 2 0.0970357 19.2146 -1.13197 -24.6706 -1.47625 1.13518 1.41151 
182 2 -0.00973491 16.2562 1.58079 -24.6079 3.4454 0.0916638 -2.54671 
10382 1 4.4498 17.848 2.64315 -7.67713 -0.369676 0.122123 -0.43165 
13383 1 0.989308 14.2285 2.17709 -6.88437 0.172833 2.85955 1.72159 
12482 1 1.0416 19.9683 1.14941 -7.4923 -1.21997 1.31716 -0.773779 
12240 1 4.06784 20.6645 -2.83079 -7.07584 1.2127 -1.63544 -0.684097 
13981 1 4.50922 20.6336 2.83676 -7.28975 -0.311733 -0.425798 -1.12753 
13622 1 3.96281 15.2818 2.91087 -7.87156 -1.09129 -1.26273 -1.39074 
16562 1 10.0174 14.1255 -3.28476 -7.38092 0.684276 2.49768 2.20844 
17222 1 6.8515 15.0102 -2.61213 -8.11666 1.71642 -0.463628 0.581921 
6482 1 7.27014 20.2057 2.63597 -7.16118 -0.206033 1.00301 0.853721 
6181 1 6.75236 17.0727 -0.292241 -7.83303 0.196666 0.0335984 2.3459 
11221 1 8.8592 14.8198 0.280392 -7.20533 0.289046 1.02202 -2.24882 
782 2 11.2683 16.4714 1.39326 -24.2068 0.754539 -1.08639 -0.770115 
2281 2 10.99 19.1488 -1.43494 -24.0953 5.12039 0.598709 -4.06233 
3481 3 8.07502 16.6511 -1.72949 -26.9823 -1.76991 -0.609563 0.477826 
4982 2 8.43972 18.9722 1.19468 -23.7119 0.481278 1.15852 0.229962 
9661 1 9.76162 14.0986 2.78899 -7.40343 -1.75808 -0.281668 1.37029 
17342 1 12.5062 17.6634 -0.369169 -7.34999 -0.879799 -0.266305 1.50641 
11222 1 12.198 14.7068 2.40103 -6.58535 1.19282 0.578575 0.925919 
6300 1 9.5372 17.9269 -0.797949 -8.78013 -3.48106 -2.46771 3.08068 
9540 1 11.766 17.4224 -3.22799 -6.05293 -0.0768362 -1.35171 1.51066 
9722 1 10.8395 18.7442 1.89991 -7.65941 1.08558 -1.89374 -3.57874 
17040 1 6.71494 18.0833 -2.71926 -7.20226 -0.858351 0.0746051 0.274127 
15780 1 13.0028 14.2396 -2.25584 -6.34057 0.739033 -1.02029 -0.726002 
17221 1 12.1697 15.1108 -0.262635 -6.61287 -1.61643 -0.394095 2.68045 
15841 1 12.5937 20.0648 -0.0353931 -8.82684 0.0586512 4.48886 1.18648 
6841 1 8.9224 17.2307 -3.41182 -7.70852 1.81527 -2.48171 -0.309192 
12541 1 9.79468 19.9869 -3.30924 -7.57017 0.899702 0.426647 4.09351 
7859 1 6.84352 20.0393 0.0427236 -8.10462 -0.187927 0.576967 -1.62274 
12901 1 12.7397 19.9519 -2.81474 -7.26632 -1.461 1.31366 0.774021 
9482 1 6.89501 14.9783 2.51624 -7.25374 -1.73966 -0.495049 -4.56162 
12601 1 8.28527 17.4362 2.57025 -7.10146 -0.901965 -1.69197 0.0426375 
11701 1 20.5361 15.4024 -3.2161 -6.13923 -0.448669 2.85119 -3.49336 
5521 3 18.8946 13.9872 -3.31605 -29.1057 4.66204 -4.85779 -1.20028 
11521 1 20.2524 13.9719 -1.62024 -5.50979 -2.87822 1.18602 3.66824 
5282 2 13.7692 18.9208 1.43822 -22.8853 1.63058 -1.51751 0.110302 
13200 1 15.4763 20.194 -3.20679 -6.93835 0.904942 1.64306 2.40673 
10021 1 18.08 15.3333 -2.45371 -7.02499 -3.40525 1.22037 -0.588551 
17340 1 18.2004 14.6556 0.320664 -5.24054 -2.00291 -0.294225 -0.155615 
3781 2 13.8904 16.3188 -1.54244 -25.5792 -1.60324 -1.82612 0.982895 
15961 1 15.0041 14.8798 2.53664 -7.44902 -1.35914 -0.125836 2.7789 
11340 1 15.3107 14.5446 -0.337375 -7.47971 -1.5252 0.891686 0.860539 
17400 1 17.6718 17.275 -0.499993 -7.34811 0.175543 1.05363 2.96117 
1082 2 16.4798 15.9028 1.48598 -24.8614 2.76737 -3.40096 -3.94757 
2581 2 16.8274 18.6528 -1.7808 -24.2668 -1.52814 3.17028 -0.575825 
4081 3 19.6829 16.1485 -1.08944 -30.1688 -2.23761 -1.96765 0.770697 
5582 2 18.8977 18.7416 1.88723 -21.4554 2.79501 -1.80483 0.110295 
6781 1 15.3987 15.2769 -3.01269 -7.73262 -1.34683 -3.9992 1.33443 
8520 1 17.323 18.0993 -3.72359 -7.20697 2.06196 -0.418483 -3.50652 
12782 1 15.0412 17.7163 -2.73788 -6.72185 -2.03847 0.19914 0.7309 
11581 1 20.3918 15.4402 0.723076 -6.58427 1.09739 -1.13116 2.32125 
10022 1 18.0704 16.9707 2.41972 -8.42039 -1.5067 -1.06439 1.73759 
10081 1 19.6946 17.7005 -2.42541 -7.23461 2.36129 1.13376 -0.298548 
12839 1 20.5984 17.9204 0.0943861 -8.27202 -0.822888 1.19922 2.23514 
11400 1 18.3919 20.5054 -2.22122 -7.34298 -1.69402 -0.586948 1.0636 
9841 1 18.9231 20.4538 0.853013 -8.78223 0.389204 0.6882 -2.46483 
15782 1 15.5626 20.3879 -0.268572 -7.58521 0.57753 -1.98621 0.726248 
9662 1 14.8691 17.0725 0.671442 -7.88766 -0.388826 2.25727 -0.125858 
13322 1 17.6974 14.3026 2.82897 -7.44225 -0.0785997 -0.451497 2.57872 
17641 1 20.8325 20.0633 -2.69219 -7.92838 2.33867 2.72135 2.07098 
1381 3 21.8126 16.6313 -3.81791 -27.7095 2.42026 -1.97911 -0.396711 
8641 1 26.6773 17.6098 0.552968 -7.86041 -0.536867 0.381975 -2.00133 
14882 1 23.1232 17.9825 -3.10514 -7.76028 -1.07767 -1.52526 1.54631 
5822 3 24.9037 13.7385 1.49762 -29.2306 1.93192 -0.0441063 1.03908 
9182 1 23.1001 15.0719 -3.37697 -6.32406 0.95098 1.10777 0.501267 
17582 1 26.1246 18.1648 -2.19829 -7.78786 0.44324 -0.983052 -0.12805 
13379 1 25.9101 15.0925 -2.67269 -7.77172 0.852068 0.996217 0.652172 
1382 2 22.1223 16.534 1.41831 -24.7381 -0.964703 -2.62017 -1.82176 
2881 2 21.9138 18.8295 -1.29631 -23.8629 3.16759 0.542567 -0.17385 
4381 2 25.3469 16.4915 -0.884744 -23.7324 -0.74129 -0.376365 -1.01855 
5882 3 25.2028 19.0544 1.12286 -27.0701 -0.687394 0.132627 2.20812 
12121 1 26.5185 13.8205 0.0849955 -6.72838 -1.77704 1.92755 -0.585099 
6242 1 22.4287 16.0393 -0.61548 -6.59357 -0.37557 0.153776 -4.08872 
17701 1 26.3955 20.2532 0.136881 -8.46666 -0.763445 2.15512 -1.31958 
17522 1 24.2836 15.8827 1.01706 -7.55127 3.24744 -0.624183 0.586837 
14763 1 23.147 17.7027 2.70747 -7.75509 2.47304 3.99079 2.90197 
15542 1 23.8086 18.4907 -0.138556 -8.16289 0.360993 -0.276233 -0.454961 
8581 1 23.4699 20.4036 -2.69988 -7.30134 1.89201 0.802618 3.11353 
15122 1 26.6188 15.2749 2.67572 -7.18132 -2.90931 0.854411 1.85607 
17883 1 25.9649 18.1751 2.78545 -7.78866 0.721777 1.15049 2.88935 
302 2 5.49957 27.2477 1.11738 -24.6902 1.58299 2.9422 1.29594 
2 2 0.121873 27.6736 1.76345 -25.4249 -1.6665 -1.31372 -3.88012 
241 2 -0.142066 22.0508 -3.67398 -25.9497 1.37563 1.49593 -1.80074 
6543 1 1.48213 20.7519 -2.78889 -6.60068 -0.131639 -0.293698 -1.82561 
11582 1 0.395395 21.51 -0.91264 -6.60335 -1.03514 0.684377 1.70345 
10981 1 1.2206 25.7495 2.02671 -5.98131 0.134831 -0.527715 0.57491 
6121 1 1.6142 26.3056 -0.760494 -6.71953 -0.588497 0.680284 1.60726 
7860 1 3.42894 25.9025 -2.40319 -6.7997 1.53921 -0.865617 -1.97503 
13682 1 4.58916 25.7518 -0.103686 -8.06936 1.23692 0.196625 -0.430471 
542 2 5.59126 21.7168 1.31214 -24.0807 -1.00832 -1.28133 0.996308 
2041 2 5.55431 24.523 -2.01226 -24.3332 -0.514019 1.62931 2.29456 
3241 2 2.57753 22.3462 -1.51834 -24.6524 -1.64128 -0.89176 -1.92186 
4742 3 3.1247 24.9387 0.802129 -27.8505 -4.39712 -0.357203 1.39357 
9484 1 4.20931 23.3908 -3.27808 -8.34227 0.844656 -1.20989 0.000169276 
14222 1 4.14704 23.1834 -0.252112 -8.02219 -1.39181 -0.944134 -0.866569 
6241 1 1.45763 23.8328 -2.95265 -6.71523 0.78981 -1.08279 0.568812 
242 2 -0.140908 21.8113 1.42175 -24.5859 -0.231251 1.83887 -1.30754 
17401 1 1.25287 23.747 0.102107 -7.09412 3.35162 -1.56956 -0.21291 
1741 3 -0.213876 25.0108 -0.659755 -29.3972 2.47399 -2.90108 -2.35908 
12002 1 3.5369 26.4666 2.65445 -7.53074 2.07149 -0.421163 0.444193 
6484 1 3.82986 23.4868 2.42108 -8.39255 -0.9307 0.308996 -1.69576 
12842 1 6.16847 26.0175 2.66898 -6.72906 0.590045 -4.51413 0.256818 
3301 3 8.37034 27.4558 -1.89361 -28.3 -0.535171 0.232058 -0.357824 
13621 1 7.07837 20.7508 -2.99919 -6.8292 -1.57042 -0.196709 -0.842551 
9240 1 7.27338 26.8887 -0.402328 -6.8546 -1.37747 -0.368769 0.689182 
17642 1 9.83377 25.5308 -2.55728 -7.52464 -0.140106 1.5026 0.704206 
14281 1 9.98108 26.2824 0.252278 -6.72543 -0.0501766 -3.09427 -1.90836 
602 3 11.2369 26.8071 1.48341 -27.7144 0.753335 2.63498 -0.96294 
7920 1 12.9063 25.6346 0.218931 -8.30824 -2.77595 -0.750847 -1.10976 
14341 1 7.41838 23.4929 -2.37631 -7.30638 0.911754 -0.456603 -2.04953 
9599 1 13.6578 22.1545 -3.90113 -6.89737 -0.835812 0.863306 0.534303 
7680 1 10.8132 22.689 -2.30781 -7.56073 1.22752 -1.12741 -0.57324 
6302 1 9.47516 23.4397 -0.234107 -6.8994 -1.34064 0.0557464 2.6557 
842 2 11.3701 20.9691 1.69321 -22.859 -0.511741 1.26422 -0.462941 
2341 2 11.24 24.4388 -0.918134 -23.961 -1.32776 1.24182 -1.87779 
3541 2 8.28239 21.4745 -1.53693 -23.879 -0.25202 4.32884 0.620464 
5042 2 8.20878 24.0487 1.58361 -23.1077 -0.282046 1.73033 -2.14248 
11041 1 12.7832 24.9618 -2.8674 -6.93516 -1.55917 0.180169 2.35464 
15541 1 6.70153 26.0156 -3.16277 -7.00316 1.43127 -0.534449 1.35211 
6783 1 10.2619 25.9529 2.93082 -7.90863 -2.59844 -0.382565 1.98135 
12181 1 6.70683 23.0557 0.14333 -7.66178 1.77321 0.602899 0.885498 
7802 1 9.68604 20.6763 -0.230034 -8.88773 1.73036 -2.59972 2.59041 
12902 1 13.0245 25.4547 2.85767 -8.09681 0.59085 0.327682 -1.33177 
12961 1 11.9556 23.1697 1.4373 -8.47636 -0.0259882 -1.67492 -1.60535 
3601 2 13.9718 27.0089 -1.17888 -24.8345 0.642833 -0.880126 -2.60643 
902 2 16.9129 27.0665 1.06685 -24.1184 2.74412 1.94569 -1.32987 
12900 1 15.1259 23.009 -0.27097 -7.62595 -1.67475 -0.812415 0.869661 
5342 2 13.9829 23.771 1.65158 -23.4452 1.54027 1.41022 0.373648 
6603 1 15.5738 23.5004 -2.93286 -7.28826 1.50412 -1.08312 0.0698901 
3901 3 19.7628 27.6438 -1.69571 -28.7899 0.405705 -0.0291666 2.35974 
3841 2 14.0368 21.5256 -1.69334 -23.7825 2.25412 -1.55751 -1.49827 
9842 1 18.0116 22.6017 -0.254377 -8.28585 1.02974 3.15779 -0.880037 
6602 1 18.4282 24.3528 -2.89569 -6.95707 -0.0395616 0.0321244 1.93065 
1142 2 17.1593 21.5736 1.38781 -22.9297 -4.61335 0.252474 1.17676 
2641 2 16.801 24.4298 -1.18522 -24.5645 0.925088 -0.0524361 -2.75597 
4141 2 19.9238 21.4959 -0.957133 -23.7124 1.12166 0.413398 0.153051 
5642 2 19.6151 24.5954 1.74707 -23.779 -0.382597 0.044816 -2.411 
7983 1 18.6191 25.7755 -0.038832 -7.41334 -2.33474 -2.77095 -0.0295846 
13201 1 14.9538 21.9283 2.47905 -7.7476 1.23366 -0.286209 -1.61908 
7200 1 20.3903 22.3583 2.34628 -6.89786 -2.36987 -1.19845 0.706739 
6843 1 20.1053 26.8356 1.79057 -6.68144 1.27102 -1.726 2.66901 
8640 1 16.6932 26.9477 -1.93017 -6.30479 2.23221 -2.05567 0.941451 
17104 1 15.4278 25.4656 0.0980184 -8.01058 1.34659 2.70653 1.94236 
17103 1 16.8601 25.8502 2.87447 -8.01485 -1.1413 -0.145531 -0.943666 
11760 1 15.1057 26.1622 -3.71044 -6.37657 -0.428747 -1.08955 -1.81679 
14642 1 17.7176 23.2001 2.79492 -8.45255 0.566257 0.419638 -1.20127 
901 3 16.6616 27.2928 -3.99578 -27.4323 -0.0232851 0.766245 1.27532 
5941 2 25.4464 24.7417 -3.569 -24.98 0.559039 0.848757 -2.3307 
1202 2 22.2519 27.3503 1.46505 -24.0122 -0.318087 0.677257 -0.11028 
9243 1 24.7991 20.947 2.33097 -7.76695 -0.942192 -0.821347 1.01644 
6001 1 26.8391 23.6674 -2.22085 -7.40985 -1.68576 -3.66674 0.943306 
15059 1 20.871 26.3066 -3.05666 -7.88577 -0.794643 -1.31856 -0.284347 
8341 1 21.6197 26.5336 -0.471231 -6.89534 1.52042 -1.56671 0.100788 
14942 1 21.5301 23.8043 0.985284 -6.64052 -0.0293406 2.51131 -3.82486 
7201 1 21.9889 20.726 0.196507 -7.48049 -1.48094 -1.21496 -1.8185 
11881 1 23.2087 24.1746 2.82249 -6.5422 1.09874 0.171609 -1.7635 
16200 1 24.0242 26.1041 -2.46672 -7.32354 -0.814245 0.984325 -2.00024 
13743 1 24.0749 23.1125 -2.9112 -8.19253 0.822995 0.0234863 2.50723 
15240 1 26.8184 26.0576 -2.44598 -7.13113 0.818348 3.65135 0.335551 
16502 1 24.3138 25.2745 -0.102802 -7.37373 4.61888 2.88968 4.02973 
1442 2 22.5531 21.8919 1.97519 -25.8784 1.36398 3.42597 -1.07985 
2941 2 22.7182 24.4321 -0.860835 -23.7476 -3.07672 0.399735 -1.22527 
4441 3 24.9378 21.8623 -1.21079 -25.6013 0.859138 -1.25377 -2.16841 
5942 2 25.2534 24.8588 1.93817 -24.6175 -2.244 2.41648 -1.01255 
8521 1 21.6086 22.9605 -1.7755 -7.89437 -2.79677 -1.83296 -2.04821 
16443 1 24.0283 22.5782 0.323083 -7.86272 0.642486 0.560365 -1.4367 
1201 2 22.6374 27.5047 -3.98337 -25.4538 0.030179 -0.612703 -0.768287 
16444 1 26.8711 26.3929 2.94857 -8.14487 -2.09823 -2.02665 3.44514 
13202 1 26.8089 23.8864 0.891113 -7.40518 -0.437062 -3.44331 -0.54156 
11700 1 26.3123 20.6896 -3.22561 -6.65044 -1.43261 0.357068 4.7667 
17042 1 27.1047 26.3782 0.265874 -7.15127 -3.36592 4.07038 0.165166 
11100 1 2.52282 -0.111365 7.50382 -8.07326 -1.09068 -1.30218 0.98831 
13262 1 4.28772 4.17377 3.40438 -8.1111 2.08064 -2.47084 -0.157439 
363 2 5.46978 5.3124 7.52082 -23.5298 -2.37899 2.14821 -2.86093 
1802 2 5.49238 2.43029 3.93831 -24.0512 4.20767 0.0811803 -0.473022 
3062 2 2.66251 5.27628 3.67029 -23.7744 -2.99779 6.87047 -1.60431 
4503 3 3.0427 1.66255 6.86932 -25.278 1.70001 2.82893 4.41809 
3002 2 2.95225 -0.23443 4.38555 -23.9152 -0.914967 -1.02713 -1.77749 
11223 1 4.31316 1.21099 5.3781 -9.03793 -0.364685 0.825566 0.868431 
11702 1 1.05133 3.40363 8.73785 -8.58035 1.63779 -0.122813 0.372424 
1502 2 0.0952809 2.28263 4.43596 -24.339 -2.89175 3.6962 -3.18509 
8703 1 0.946008 0.42472 3.43943 -6.87683 0.751295 0.690665 5.59466 
6304 1 3.24477 1.47334 9.21865 -7.04714 1.03102 -1.21208 -0.433479 
7743 1 6.13683 0.651115 8.14406 -8.92005 0.0526221 4.70404 2.20544 
6363 1 6.25231 3.59444 8.59063 -9.52214 2.07044 -0.579605 -0.616647 
7446 1 1.58473 1.56271 5.66957 -8.43339 1.36064 0.134581 1.82198 
63 2 0.806619 4.79467 7.08353 -24.1434 -2.18479 1.23764 -3.54863 
17942 1 1.34565 4.39332 4.94947 -7.4104 -1.36669 -4.89374 2.28729 
8702 1 1.16755 6.25856 8.49995 -6.92761 0.323423 -0.630754 2.02706 
15302 1 6.41757 6.07196 3.35797 -7.34451 0.410051 1.69964 -3.14168 
6064 1 3.45895 4.0639 7.31839 -7.81801 0.432327 -0.44275 -0.240443 
1803 3 5.70225 2.00061 9.859 -27.0347 -2.26753 -0.119383 3.34243 
3063 2 2.38214 5.00736 9.93417 -24.5357 1.67568 0.641641 1.25897 
8041 1 12.0966 -0.112479 3.04321 -8.21954 -0.821683 3.42536 -1.83922 
6660 1 9.57944 1.23062 3.14217 -7.04018 -0.506273 -0.789034 -0.0126694 
3663 2 13.6115 5.35118 9.39495 -23.7799 -2.34945 1.95383 -0.117917 
3363 2 7.91207 5.07226 9.58969 -24.3136 1.18897 1.45325 1.6017 
10863 1 7.02126 0.804454 5.38514 -8.32361 0.465362 -0.221383 0.484035 
12542 1 10.1502 0.63989 6.07033 -7.36756 -3.64283 -4.11781 1.45023 
10803 1 9.27954 2.91985 5.09562 -7.54563 -1.35593 3.02572 1.5287 
10262 1 6.77099 3.88707 5.50536 -8.00129 -0.629493 -2.03461 1.04211 
9660 1 12.2111 1.14261 7.73721 -7.09883 -1.10881 1.63083 4.34789 
663 3 10.9049 4.98312 6.99365 -27.5878 -0.916218 1.4228 2.39695 
2102 2 11.0551 1.72682 4.6683 -24.5785 3.71347 3.69996 -3.49145 
3362 3 8.41602 4.81607 4.22962 -27.594 -3.59702 0.900832 1.65152 
4803 2 7.85043 2.15365 6.86825 -23.429 2.30254 1.11246 0.337932 
17523 1 11.9487 3.63612 5.90628 -8.27992 0.606126 -0.692474 -0.603877 
9303 1 13 0.816087 5.47254 -7.39727 0.360315 -0.621606 -2.41968 
15962 1 9.1658 4.0929 8.13175 -7.7602 -0.687142 -1.96153 -1.70682 
11402 1 9.23228 1.33133 8.61197 -7.71524 -2.05172 -0.809997 -0.294008 
3662 2 13.4365 5.1065 4.51696 -23.5817 2.41903 -3.17212 -2.3183 
16922 1 11.9587 6.29878 5.32427 -9.13717 -1.16243 1.33381 1.50449 
8343 1 11.7141 4.2948 8.95919 -7.58413 -0.620508 -2.4672 -1.50575 
10861 1 9.36926 5.92282 5.96917 -7.87078 1.63359 -0.55315 -1.0839 
2103 2 10.6938 2.37516 9.75157 -24.7482 -0.436896 0.736632 1.93602 
14703 1 17.7194 3.72193 3.24952 -8.17505 -1.29197 -1.10287 -0.688899 
14522 1 14.9474 1.05413 3.00817 -8.30436 -2.2019 -2.68388 -1.52538 
12120 1 20.5523 2.82928 3.78321 -7.07363 -1.04563 0.403031 -2.15756 
8642 1 18.1862 0.734735 8.56263 -8.42791 -0.0849137 0.110121 -0.503152 
6063 1 17.8937 5.92782 8.55207 -7.95231 0.602245 2.03491 -0.0635489 
7804 1 15.0862 0.906934 8.435 -7.93349 -0.403754 0.587904 -0.222658 
12602 1 15.8909 0.381198 5.32637 -6.8522 0.749559 0.549169 0.57441 
14403 1 17.9069 5.45379 5.85592 -8.07266 -1.85603 1.60564 1.0528 
5103 2 13.8748 2.21484 6.94115 -24.4701 2.29878 1.18826 -1.49709 
15902 1 14.932 3.5795 5.04279 -7.10888 -1.11241 -0.672746 -0.945885 
963 3 16.439 4.568 7.71817 -26.3657 0.421789 2.96766 -0.26977 
2402 2 16.5776 1.88862 3.93863 -24.1767 3.18837 1.36297 2.30624 
3962 2 19.2313 4.70815 4.42621 -24.682 4.89525 0.0747826 -0.673194 
5403 3 19.6019 2.01403 7.59471 -27.4545 1.35961 0.497586 -2.30973 
7202 1 16.3205 2.86418 7.04908 -7.3883 0.262095 -0.955455 1.83548 
16321 1 18.3451 3.56671 8.97753 -7.8576 -1.28925 -5.21435 -5.19918 
9903 1 18.5232 1.2563 5.76415 -7.04275 0.239881 -1.12702 0.193804 