LAMMPS (11 May 2018)
# Sample LAMMPS input script for thermal conductivity of UO2
units       metal
atom_style full
boundary p p p

# Reading the input structure file
atom_modify map array
read_data U75.5x5x60.lmpstr
  orthogonal box = (0 0 0) to (27.341 27.341 328.092)
  1 by 1 by 24 MPI processor grid
  reading atoms ...
  18000 atoms
  0 = max # of 1-2 neighbors
  0 = max # of 1-3 neighbors
  0 = max # of 1-4 neighbors
  1 = max # of special neighbors

# Setting the variables to elements as they are assigned in the input structure file

variable O equal 1
variable U equal 2
variable Zr equal 3

# setting charges as these were previously unset

set type $O charge -1.1104
set type 1 charge -1.1104
  12000 settings made for charge
set type ${U} charge 2.2208
set type 2 charge 2.2208
  4500 settings made for charge
set type ${Zr} charge 2.2208
set type 3 charge 2.2208
  1500 settings made for charge

pair_style      hybrid/overlay  coul/wolf 0.275 10.96 eam/alloy
pair_coeff      * * coul/wolf
pair_coeff   *    *  eam/alloy  UZrO.eam.alloy O U Zr

compute   peratom all pe/atom pair bond
compute   pe all reduce sum c_peratom
compute   ke all ke/atom


variable    T equal 3000
variable THERMO_DAMP equal 0.100
variable BARO_DAMP equal 0.500
variable  etol equal 1.0e-8
variable  ftol equal 1.0e-10
variable  equilsteps equal 10000
variable  half_equilsteps equal v_equilsteps*0.5
variable  TCsteps equal 2500000
variable  zunits equal 20
variable  nslabs equal 20
variable  thickness equal 1.0/v_nslabs
variable  swapsteps equal 50
variable  dimension string z
variable  temp atom c_ke/0.0001292355
variable  dt equal 0.002
variable  currenttime equal ${dt}*step
variable  currenttime equal 0.002*step
variable  initialsteps equal 5000
variable  rampsteps equal 10000


timestep     ${dt}
timestep     0.002
thermo ${swapsteps}
thermo 50

velocity all create 300 164336

fix thermostat_fix1 all npt temp 300 300 ${THERMO_DAMP} aniso 0.0 0.0 ${BARO_DAMP}
fix thermostat_fix1 all npt temp 300 300 0.1 aniso 0.0 0.0 ${BARO_DAMP}
fix thermostat_fix1 all npt temp 300 300 0.1 aniso 0.0 0.0 0.5

run ${initialsteps}
run 5000
Neighbor list info ...
  update every 1 steps, delay 10 steps, check yes
  max neighbors/atom: 2000, page size: 100000
  master list distance cutoff = 12.96
  ghost atom cutoff = 12.96
  binsize = 6.48, bins = 5 5 51
  2 neighbor lists, perpetual/occasional/extra = 2 0 0
  (1) pair coul/wolf, perpetual
      attributes: half, newton on
      pair build: half/bin/newton
      stencil: half/bin/3d/newton
      bin: standard
  (2) pair eam/alloy, perpetual, copy from (1)
      attributes: half, newton on
      pair build: copy
      stencil: none
      bin: none
Per MPI rank memory allocation (min/avg/max) = 8.877 | 8.877 | 8.877 Mbytes
Step Temp E_pair E_mol TotEng Press Volume 
       0          300   -249959.91            0   -249261.95   -91372.437     245258.7 
      50    186.02331   -249968.02            0   -249535.23    1905.6071     234479.8 
     100    203.28053   -249943.29            0   -249470.34    602.01294    234674.46 
     150    224.08361   -249919.19            0   -249397.85   -214.10989     234796.2 
     200    235.71057   -249869.47            0   -249321.08   -624.97946    234969.86 
     250    259.00382   -249845.27            0   -249242.68    264.90795    234998.44 
     300    271.07658    -249797.8            0   -249167.13    291.38751    235089.47 
     350    285.90781   -249762.99            0   -249097.81   -521.20891    235271.41 
     400    297.64182   -249732.39            0   -249039.91    846.48703    235249.93 
     450    303.48828   -249710.62            0   -249004.54   -452.75742    235406.24 
     500     308.4644    -249709.1            0   -248991.44    310.04357    235344.06 
     550    306.05914   -249724.64            0   -249012.57   -206.82354    235352.55 
     600    298.49065    -249736.7            0   -249042.25   -7.1735484    235309.47 
     650    293.58789   -249739.55            0    -249056.5   -188.33573    235318.69 
     700    297.47099   -249735.77            0   -249043.69   -26.769871     235321.9 
     750     298.4121   -249714.71            0   -249020.44   -125.62293    235374.19 
     800    302.42978   -249710.66            0   -249007.04   -42.096301    235371.93 
     850     306.0727   -249723.95            0   -249011.86   -215.76284    235361.43 
     900    297.11311   -249723.14            0   -249031.89    117.99352    235342.31 
     950    295.23938   -249732.14            0   -249045.25     115.1225    235325.24 
    1000    298.40045   -249738.11            0   -249043.87   -254.65598    235325.74 
    1050    301.70708   -249731.09            0   -249029.16    348.42951    235288.38 
    1100    301.44873    -249715.1            0   -249013.77    82.709388    235352.81 
    1150    302.73488   -249715.37            0   -249011.04   -121.43091     235392.3 
    1200     299.7045   -249721.27            0   -249023.99    226.12956     235347.4 
    1250    295.86243   -249727.75            0   -249039.41    357.19695     235289.6 
    1300    296.89577   -249734.44            0   -249043.69   -103.63603    235325.55 
    1350    299.46293    -249729.9            0   -249033.18      254.426    235314.23 
    1400    300.21056   -249716.96            0    -249018.5     -204.175    235379.11 
    1450    301.49054    -249715.7            0   -249014.27    609.36583    235300.61 
    1500    298.01123   -249714.84            0    -249021.5   -163.85278    235391.16 
    1550    299.10611   -249730.44            0   -249034.55     394.2307     235285.8 
    1600    295.59395   -249729.18            0   -249041.47   -377.18978    235360.28 
    1650    299.31671   -249733.21            0   -249036.83   -262.14895    235342.12 
    1700    301.32451   -249726.29            0   -249025.24   -39.030901    235334.66 
    1750    301.37635   -249720.18            0   -249019.02    426.80807    235322.94 
    1800    302.38112   -249724.66            0   -249021.16   -233.14145     235386.8 
    1850     297.2496   -249720.75            0   -249029.18     219.0579    235324.99 
    1900     300.4965   -249734.59            0   -249035.47    14.710765    235307.59 
    1950    298.33665   -249731.38            0   -249037.29   -25.151013    235309.14 
    2000    299.82917   -249727.84            0   -249030.27    36.175691    235325.97 
    2050    301.46561   -249721.97            0   -249020.59   -124.81672    235358.94 
    2100    301.64253   -249720.83            0   -249019.04     470.9278    235296.28 
    2150    300.39795   -249723.47            0   -249024.57   -303.96601    235380.94 
    2200    299.20953   -249730.12            0   -249033.99    93.720854    235303.05 
    2250     299.6109    -249733.8            0   -249036.74   -217.03474    235327.22 
    2300    299.68825   -249731.38            0   -249034.14   -337.29152    235351.18 
    2350     302.6848   -249729.96            0   -249025.75    682.86095    235258.59 
    2400    300.87976   -249719.68            0   -249019.67   -349.37011    235385.75 
    2450    300.53346   -249719.07            0   -249019.86    58.538912    235332.28 
    2500    300.47941   -249726.54            0   -249027.46    220.32977    235313.32 
    2550    298.27837   -249729.45            0   -249035.49   -85.733283    235345.42 
    2600    297.20064    -249728.1            0   -249036.65    133.19383    235313.78 
    2650    299.78655   -249726.77            0    -249029.3   -46.415516    235337.08 
    2700    304.16886   -249727.64            0   -249019.98    811.75951    235262.39 
    2750    300.95297   -249719.51            0   -249019.33   -1004.5245    235446.93 
    2800    299.71177   -249724.01            0   -249026.71    439.94407    235309.52 
    2850    298.24432   -249727.73            0   -249033.85   -197.15655    235342.82 
    2900      297.406   -249729.13            0    -249037.2    14.115496    235322.58 
    2950    299.26039   -249728.71            0   -249032.47    517.27267    235279.94 
    3000    300.52782   -249725.24            0   -249026.04    469.23926    235300.22 
    3050    300.42642   -249720.57            0   -249021.62    139.13386    235344.15 
    3100    299.96594    -249720.5            0   -249022.62     509.5225    235315.12 
    3150    298.91717   -249724.07            0   -249028.63   -572.04275    235403.26 
    3200    296.37644   -249723.81            0   -249034.27    585.48906    235266.81 
    3250    297.96345   -249728.96            0   -249035.73   -769.95385    235396.45 
    3300    299.27897   -249725.51            0   -249029.22    554.27993    235261.47 
    3350    301.90776   -249723.76            0   -249021.36   -914.68915    235427.89 
    3400    302.68218   -249725.41            0    -249021.2    953.58712    235243.21 
    3450    298.20931   -249723.27            0   -249029.47   -317.43721    235385.08 
    3500    297.26667    -249727.3            0    -249035.7    471.30952    235290.88 
    3550    301.36781   -249736.15            0      -249035    467.77204    235268.08 
    3600    298.64039   -249724.84            0   -249030.04   -373.06133    235360.36 
    3650    300.35097   -249722.13            0   -249023.35   -385.84418    235382.33 
    3700    303.25075   -249726.67            0   -249021.14    566.43333    235271.91 
    3750     301.2031   -249725.06            0    -249024.3    109.27405    235329.26 
    3800    298.97904   -249726.17            0   -249030.58   -280.53364    235348.05 
    3850    295.15913   -249720.68            0   -249033.98    722.79654    235256.51 
    3900    299.04394   -249727.34            0    -249031.6   -897.02228    235432.31 
    3950    298.22287   -249720.48            0   -249026.65    982.38936    235228.69 
    4000    302.70559   -249726.08            0   -249021.82   -772.83102    235407.62 
    4050    299.42256   -249720.12            0    -249023.5    249.37827    235318.58 
    4100    299.18511   -249725.08            0   -249029.01    407.87565    235296.98 
    4150     299.8348   -249731.87            0   -249034.29   -397.29574    235379.66 
    4200    298.32076   -249728.85            0   -249034.79    562.26568    235259.39 
    4250    301.13433   -249730.45            0   -249029.84    -137.0773    235347.27 
    4300    303.38596    -249730.4            0   -249024.55   -360.98767    235355.25 
    4350    302.72272   -249726.75            0   -249022.44    551.91791    235276.26 
    4400    299.12269   -249722.16            0   -249026.24   -450.57449    235380.63 
    4450    299.01375   -249726.56            0   -249030.89    142.79712     235299.6 
    4500    297.23065   -249725.38            0   -249033.86    124.17968    235310.98 
    4550    301.26529   -249733.03            0   -249032.12   -220.71812    235333.88 
    4600    299.53012   -249724.24            0   -249027.36    181.13947    235306.52 
    4650      301.403   -249724.46            0   -249023.23    -557.3949     235396.7 
    4700    298.59385   -249717.49            0   -249022.79    54.879559    235348.58 
    4750    300.23551   -249727.04            0   -249028.52   -96.376646    235328.56 
    4800    297.26799   -249726.17            0   -249034.56    652.39318    235256.41 
    4850    298.84482   -249728.94            0   -249033.66   -450.07049    235384.17 
    4900    300.61038   -249727.59            0    -249028.2    790.02564    235253.66 
    4950     300.4316   -249722.13            0   -249023.16   -410.63193    235376.62 
    5000      298.377   -249716.88            0   -249022.69    240.17734    235330.65 
Loop time of 110.934 on 24 procs for 5000 steps with 18000 atoms

Performance: 7.788 ns/day, 3.082 hours/ns, 45.072 timesteps/s
99.7% CPU use with 24 MPI tasks x no OpenMP threads

MPI task timing breakdown:
Section |  min time  |  avg time  |  max time  |%varavg| %total
---------------------------------------------------------------
Pair    | 105.95     | 108.31     | 109.58     |   7.7 | 97.63
Bond    | 0.00096406 | 0.0015574  | 0.0020529  |   0.6 |  0.00
Neigh   | 0.01625    | 0.016859   | 0.01741    |   0.2 |  0.02
Comm    | 0.75967    | 1.3918     | 3.3861     |  54.3 |  1.25
Output  | 0.0044947  | 0.0046387  | 0.0070067  |   0.7 |  0.00
Modify  | 0.34967    | 1.0338     | 2.0646     |  53.3 |  0.93
Other   |            | 0.176      |            |       |  0.16

Nlocal:    750 ave 771 max 731 min
Histogram: 2 3 1 1 4 7 1 2 1 2
Nghost:    7777 ave 7796 max 7756 min
Histogram: 2 1 1 1 7 2 4 0 4 2
Neighs:    261261 ave 271051 max 248924 min
Histogram: 1 0 1 4 4 3 5 3 1 2

Total # of neighbors = 6270261
Ave neighs/atom = 348.348
Ave special neighs/atom = 0
Neighbor list builds = 3
Dangerous builds = 2

unfix thermostat_fix1

fix thermostat_ramp all npt temp 300 $T ${THERMO_DAMP} aniso 0.0 0.0 ${BARO_DAMP}
fix thermostat_ramp all npt temp 300 3000 ${THERMO_DAMP} aniso 0.0 0.0 ${BARO_DAMP}
fix thermostat_ramp all npt temp 300 3000 0.1 aniso 0.0 0.0 ${BARO_DAMP}
fix thermostat_ramp all npt temp 300 3000 0.1 aniso 0.0 0.0 0.5

run ${rampsteps}
run 10000
Per MPI rank memory allocation (min/avg/max) = 8.877 | 8.877 | 8.877 Mbytes
Step Temp E_pair E_mol TotEng Press Volume 
    5000      298.377   -249716.88            0   -249022.69    240.17734    235330.65 
    5050    301.31711   -249716.18            0   -249015.15    708.92396     235288.1 
    5100     305.7418    -249705.2            0   -248993.88   -550.10013    235449.34 
    5150    314.76274   -249692.42            0   -248960.11    397.90604     235388.6 
    5200    324.19157   -249670.97            0   -248916.72    154.44705     235461.3 
    5250    335.36878   -249646.01            0   -248865.76   -614.66445    235622.75 
    5300    344.82156   -249610.95            0   -248808.71    620.11139    235588.73 
    5350    359.08207   -249581.52            0    -248746.1   -708.37971    235826.57 
    5400    370.83507   -249541.76            0   -248678.99    623.30181    235755.82 
    5450    388.82887   -249513.32            0   -248608.68   -592.49334    235979.85 
    5500    401.20077    -249468.6            0   -248535.18    476.26995    236000.77 
    5550      418.877   -249435.23            0   -248460.69    49.738952    236158.37 
    5600    434.36323   -249394.68            0   -248384.11   -410.77555    236325.67 
    5650    451.98864   -249358.75            0   -248307.17    837.84352     236301.5 
    5700    466.90933   -249316.12            0   -248229.83   -1075.0001    236604.19 
    5750    483.12474   -249277.42            0   -248153.41    752.86415    236534.09 
    5800    501.93849    -249245.6            0   -248077.81   -721.88362    236756.49 
    5850     518.5227   -249209.68            0   -248003.31   -270.43408    236847.66 
    5900    527.98478   -249158.73            0   -247930.35    45.905674     236924.3 
    5950    544.50712   -249125.03            0    -247858.2    -97.05963    237049.35 
    6000     560.0151   -249089.62            0   -247786.72   -258.62766    237172.95 
    6050    569.40715   -249041.99            0   -247717.24     859.3142    237228.25 
    6100    587.77177   -249016.29            0   -247648.81   -621.78622    237423.88 
    6150    602.78686   -248983.87            0   -247581.46    204.92985     237411.1 
    6200    622.39089   -248960.31            0   -247512.28   -1191.5882    237667.44 
    6250     631.0986   -248913.56            0   -247445.27    1182.8512    237547.55 
    6300    640.29167   -248867.48            0    -247377.8    -359.6027    237859.58 
    6350    657.59182   -248840.78            0   -247310.85   -1160.8818    238013.56 
    6400     674.8755   -248815.34            0   -247245.21    730.16158     237893.7 
    6450    681.76621   -248765.05            0   -247178.88   -1070.3306     238238.5 
    6500    697.66646   -248734.83            0   -247111.67   -481.30856     238219.6 
    6550    712.97521   -248703.59            0   -247044.82   -168.43948    238293.41 
    6600    717.44803   -248649.05            0   -246979.87   -1164.9648    238532.17 
    6650    742.66756   -248640.76            0   -246912.91    290.04983    238438.83 
    6700    752.14125   -248596.57            0   -246846.67    958.88966    238517.01 
    6750     761.4485    -248553.7            0   -246782.15   -1011.7292    238811.22 
    6800     782.7041   -248536.89            0   -246715.89    1698.0927    238615.17 
    6850    795.41397   -248499.64            0   -246649.07   -1390.5316    239076.57 
    6900    805.09913      -248458            0    -246584.9    1768.6708    238826.93 
    6950    819.37398   -248422.78            0   -246516.47   -1635.4204    239310.87 
    7000    830.15026   -248381.17            0   -246449.78    1368.6482    239125.39 
    7050    850.60047   -248357.11            0   -246378.14    49.242621    239358.74 
    7100    862.69888   -248318.59            0   -246311.48    492.54305    239363.23 
    7150    871.18083   -248272.83            0   -246245.98    877.21398    239491.57 
    7200    883.53436   -248236.06            0   -246180.47    -293.7854    239728.35 
    7250    907.66321   -248221.58            0   -246109.86    1850.4835    239548.68 
    7300    911.01202   -248165.39            0   -246045.87   -1010.2075    240023.32 
    7350    927.26828   -248137.59            0   -245980.25    1122.1826    239852.05 
    7400    940.28146   -248100.08            0   -245912.46    -586.7458    240168.09 
    7450    963.44266    -248086.1            0    -245844.6    29.511053     240211.7 
    7500    968.71516   -248029.98            0   -245776.21    774.38293    240254.33 
    7550    976.62609   -247982.06            0   -245709.89   -569.06047    240534.13 
    7600    995.14855   -247953.51            0   -245638.25   -695.44265    240672.67 
    7650    1007.5476   -247916.44            0   -245572.32    438.96974     240673.1 
    7700    1032.0315   -247904.32            0   -245503.24    103.54025    240732.61 
    7750    1033.8695   -247841.64            0   -245436.29    482.74342    240826.85 
    7800     1047.978    -247811.4            0   -245373.22    971.80173    240875.96 
    7850    1061.9974   -247779.12            0   -245308.32   -150.75583    241087.16 
    7900    1087.9332   -247768.38            0   -245237.24   -1532.6946    241363.33 
    7950     1091.971   -247711.76            0   -245171.23    360.00706    241193.14 
    8000    1109.4797   -247685.06            0    -245103.8    183.66044    241387.79 
    8050    1118.9997   -247643.19            0   -245039.78    739.39965    241447.03 
    8100    1134.4335    -247614.4            0   -244975.08   -365.59045    241709.04 
    8150    1144.6779    -247569.7            0   -244906.54   -893.65413    241863.15 
    8200    1155.0316   -247522.93            0   -244835.69    54.582981    241995.12 
    8250    1164.8026   -247479.04            0   -244769.07   -753.23342    242174.73 
    8300    1185.8797   -247459.23            0   -244700.22   -95.653669    242134.04 
    8350    1201.0562   -247425.01            0   -244630.69    432.58666    242242.24 
    8400    1205.1198   -247368.84            0   -244565.07   -332.35722    242474.26 
    8450    1230.8593   -247354.81            0   -244491.15   -249.93508    242477.89 
    8500     1236.468   -247304.36            0   -244427.65    64.584409    242587.49 
    8550    1254.1222   -247282.15            0   -244364.36   -2624.6451    242976.85 
    8600    1259.5099   -247225.04            0   -244294.72    1547.0594    242687.86 
    8650    1282.4691   -247207.74            0   -244224.01   -865.71211    243059.91 
    8700     1294.879   -247170.77            0   -244158.17    728.44407    243041.46 
    8750    1298.0111    -247110.9            0   -244091.01    1120.7467     242977.8 
    8800    1315.3961   -247086.38            0   -244026.04    838.01353    243152.28 
    8850    1330.3994   -247054.12            0   -243958.88   -354.28536    243514.96 
    8900    1337.2191   -247000.87            0   -243889.76   -1565.9891    243711.92 
    8950    1358.7205   -246981.84            0   -243820.71    802.56644    243537.54 
    9000    1364.1831   -246924.93            0   -243751.09    -1339.926     243997.4 
    9050    1384.6577   -246902.85            0   -243681.37   -1251.4727    244066.91 
    9100    1391.2066   -246848.74            0   -243612.03   -39.342773     243976.1 
    9150    1408.9489   -246826.72            0   -243548.73   -1286.4863    244195.97 
    9200    1415.9753   -246775.64            0   -243481.29    2795.2874    243935.97 
    9250     1433.038   -246748.05            0   -243414.01   -1669.7766    244616.21 
    9300    1450.3104   -246716.49            0   -243342.27   -393.53755    244575.89 
    9350    1456.4527   -246672.41            0    -243283.9    999.14406    244507.02 
    9400     1466.065   -246622.96            0   -243212.08   -708.43943    244877.12 
    9450    1484.3069   -246596.91            0   -243143.59   -973.77136     245056.3 
    9500    1487.7831    -246534.5            0   -243073.09   -454.28802    245150.75 
    9550    1503.8389   -246500.76            0   -243001.99    552.13759     245099.7 
    9600    1524.8157   -246476.94            0   -242929.37    1998.3435    245075.36 
    9650    1546.2555   -246456.44            0      -242859   -814.44376    245459.46 
    9700    1568.5499    -246434.7            0   -242785.38    150.18422    245430.16 
    9750    1562.8987   -246350.54            0   -242714.37   -643.02245    245765.04 
    9800    1588.7696   -246336.71            0   -242640.35    941.08733    245677.92 
    9850    1585.5803   -246258.89            0   -242569.95    -524.4162    246031.75 
    9900    1610.1277   -246244.05            0      -242498   -143.16071       246056 
    9950    1625.1051    -246210.9            0      -242430     399.0529    246151.55 
   10000    1624.7805   -246140.03            0    -242359.9    664.92902    246251.81 
   10050    1653.4551   -246135.08            0   -242288.23   -399.69809    246498.71 
   10100    1661.8229    -246081.5            0   -242215.18   -1337.4197    246888.92 
   10150    1663.7622   -246014.63            0   -242143.79    1198.4881    246686.89 
   10200    1695.2369   -246009.66            0   -242065.61   -234.36692    246940.53 
   10250    1702.0596    -245952.2            0   -241992.27    612.21517    247001.14 
   10300    1712.8449   -245900.64            0   -241915.62    1198.6726    247074.42 
   10350    1732.9146   -245876.82            0    -241845.1    -1193.709    247423.67 
   10400    1729.9388   -245798.48            0   -241773.68    -1118.794    247659.85 
   10450    1761.3147   -245801.61            0   -241703.81    1164.1303    247353.21 
   10500    1761.7841   -245732.56            0   -241633.68   -137.39094    247846.51 
   10550    1779.5002   -245703.45            0   -241563.35   -1552.6342    248085.78 
   10600    1798.5034   -245672.61            0    -241488.3   -29.364528    247965.29 
   10650    1803.9281   -245618.09            0   -241421.15   -655.64047    248230.13 
   10700    1812.9026   -245568.37            0   -241350.56   -444.83435    248394.95 
   10750    1841.5662   -245557.16            0   -241272.65    862.90707     248257.1 
   10800    1853.2315   -245510.42            0   -241198.78   -1149.8915    248793.09 
   10850    1867.0406   -245463.45            0   -241119.68    265.44276    248710.34 
   10900    1887.9806   -245434.45            0   -241041.97   -1143.8017    249012.98 
   10950    1899.6278    -245397.8            0   -240978.22    -1181.813    249088.59 
   11000    1893.9056   -245305.59            0   -240899.32    2055.4596    249075.87 
   11050    1925.7443   -245300.75            0    -240820.4   -928.18992    249333.63 
   11100    1939.0493   -245254.28            0   -240742.97    -48.32627    249337.06 
   11150     1929.337    -245175.2            0   -240686.49   -145.85891    249739.35 
   11200    1951.4682   -245142.49            0    -240602.3   -2081.8303    250067.07 
   11250    1980.1455   -245140.01            0    -240533.1    1776.1152    249615.91 
   11300    1985.1903   -245073.39            0   -240454.74   -993.84759    250168.83 
   11350    1998.5494   -245030.95            0   -240381.22    2429.2931    249876.87 
   11400    2000.0203   -244952.97            0   -240299.82   -803.50638    250500.24 
   11450    2014.7414   -244907.44            0   -240220.03    893.32557    250624.99 
   11500    2046.1588   -244898.44            0   -240137.95    -2424.812    251035.45 
   11550    2058.5095   -244858.74            0   -240069.51     950.3945    250627.39 
   11600    2055.9648   -244770.28            0   -239986.97   -506.51057    251069.48 
   11650    2086.0763   -244767.97            0   -239914.61     1910.543     250894.7 
   11700    2099.9086   -244726.12            0   -239840.57   -1154.1713       251259 
   11750    2111.3645   -244686.27            0   -239774.07   -137.13473    251356.92 
   11800    2121.1597    -244629.3            0   -239694.31    254.06484    251581.33 
   11850     2118.759   -244542.35            0   -239612.94    3523.7657    251366.71 
   11900    2163.3799    -244565.7            0   -239532.48   -2761.4567    252196.85 
   11950    2159.2642   -244491.12            0   -239467.48    268.27615    252062.81 
   12000    2157.4723   -244408.87            0   -239389.39    599.79266    252254.16 
   12050    2186.2964   -244392.26            0   -239305.72   -439.71842     252621.9 
   12100    2178.1667   -244293.79            0   -239226.17    1515.6404    252420.41 
   12150    2226.7891    -244324.6            0   -239143.86   -179.65061    252860.22 
   12200    2230.3649   -244259.97            0   -239070.91    2250.5899    252584.33 
   12250    2237.0319    -244184.1            0   -238979.53    -436.7702    253109.99 
   12300    2256.5916   -244161.73            0   -238911.65   -1017.4185    253260.42 
   12350    2265.4783    -244120.1            0   -238849.34   -967.65757    253392.78 
   12400    2277.0656   -244065.28            0   -238767.56    2769.2503    253332.28 
   12450    2289.9161   -244019.73            0   -238692.12   -2271.9824    254053.53 
   12500    2295.5841   -243953.28            0   -238612.48    1901.0669    253860.87 
   12550    2301.0232   -243875.02            0   -238521.57   -949.30826    254478.36 
   12600    2333.1204   -243854.21            0   -238426.08    202.30624    254430.55 
   12650    2355.4746   -243814.72            0   -238334.58    1292.8181    254378.21 
   12700    2364.8895   -243760.21            0   -238258.17   -773.43379    254665.42 
   12750     2371.289   -243687.28            0   -238170.34   -153.00376     254915.6 
   12800    2382.7659   -243627.13            0    -238083.5   -2129.0462    255419.99 
   12850    2409.1406   -243608.19            0    -238003.2    1106.5346    255098.98 
   12900    2416.3357   -243546.89            0   -237925.16     41.51129    255394.05 
   12950    2420.0544   -243484.07            0   -237853.68   -623.45676    255652.38 
   13000    2416.9674   -243383.77            0   -237760.57    1057.9251    255809.93 
   13050    2441.7526   -243356.63            0   -237675.76    799.46707    255865.74 
   13100    2468.9645    -243338.1            0   -237593.92   -841.62159     256153.1 
   13150    2502.4532   -243341.66            0   -237519.57     1689.185    256107.07 
   13200    2477.8608   -243192.97            0   -237428.09   -3174.7897     256930.8 
   13250    2500.1792   -243172.87            0   -237356.07    134.38145    256790.82 
   13300    2528.8899   -243140.46            0   -237256.86   -1812.0605    257074.08 
   13350    2518.4095   -243035.29            0   -237176.07     965.1877    256778.22 
   13400      2539.07   -242991.81            0   -237084.53    1446.8355    256942.85 
   13450    2564.0342   -242946.43            0   -236981.07   -211.42668    257251.68 
   13500    2588.3324   -242929.97            0   -236908.08    450.57304    257426.42 
   13550    2571.1924   -242795.13            0   -236813.11    936.63778    257765.21 
   13600    2597.5264   -242750.92            0   -236707.64    58.730289    258129.99 
   13650    2618.2789   -242694.71            0   -236603.14   -1414.8055    258443.45 
   13700    2613.8374   -242586.57            0   -236505.34   -719.92152    258757.31 
   13750    2644.9009   -242549.61            0    -236396.1   -1278.0221    259035.05 
   13800     2645.055   -242437.56            0    -236283.7   -1979.6699    259148.04 
   13850    2679.6636   -242407.08            0    -236172.7    1313.7183     258965.3 
   13900    2687.8587   -242316.45            0      -236063   -1280.8164    259537.39 
   13950    2679.1672   -242204.62            0   -235971.39   -662.49991    259728.14 
   14000    2716.2925   -242188.13            0   -235868.53    1417.9339    259591.66 
   14050    2725.9858   -242109.46            0   -235767.31   -876.19774    260108.32 
   14100    2740.7491   -242043.53            0   -235667.03   -1868.2259     260332.3 
   14150    2743.7094   -241945.21            0   -235561.82      681.594    260293.04 
   14200    2752.7615   -241853.98            0   -235449.53   -80.422713     260722.2 
   14250    2767.3723   -241775.11            0   -235336.67      202.594    260846.06 
   14300    2760.3131   -241637.87            0   -235215.85   -763.36629    261282.49 
   14350    2822.7993   -241661.88            0   -235094.49    688.43593    261083.07 
   14400    2801.3782   -241505.32            0   -234987.77    89.363983    261377.47 
   14450    2831.1343   -241473.66            0   -234886.87   -1140.3274    261387.85 
   14500    2848.8839   -241403.69            0   -234775.61   -486.53076     261899.8 
   14550    2838.1814   -241258.77            0   -234655.59    874.63054    262169.87 
   14600    2888.6635   -241254.82            0   -234534.19    3909.3479     261649.3 
   14650    2899.3537   -241175.26            0   -234429.76   -198.03863     262443.1 
   14700    2901.0068   -241069.86            0   -234320.51    880.48762    262620.51 
   14750    2926.0137   -241014.56            0   -234207.03   -1429.7904     263198.6 
   14800    2930.0877   -240911.72            0   -234094.72   -2094.6223    263287.86 
   14850    2934.8356   -240817.75            0   -233989.69     868.4752       263120 
   14900    2954.0135   -240752.35            0   -233879.68   -3015.3665    263888.35 
   14950     2977.361   -240688.88            0   -233761.89    624.58622    263183.94 
   15000     2961.328   -240542.76            0   -233653.07    399.16377    263600.76 
Loop time of 222.406 on 24 procs for 10000 steps with 18000 atoms

Performance: 7.770 ns/day, 3.089 hours/ns, 44.963 timesteps/s
99.6% CPU use with 24 MPI tasks x no OpenMP threads

MPI task timing breakdown:
Section |  min time  |  avg time  |  max time  |%varavg| %total
---------------------------------------------------------------
Pair    | 211.56     | 212.98     | 214.07     |   5.2 | 95.76
Bond    | 0.0023883  | 0.0030371  | 0.0040931  |   0.7 |  0.00
Neigh   | 3.3813     | 3.428      | 3.5105     |   1.6 |  1.54
Comm    | 2.3769     | 3.1497     | 4.5899     |  36.6 |  1.42
Output  | 0.0091071  | 0.0093106  | 0.012065   |   0.6 |  0.00
Modify  | 1.866      | 2.5401     | 3.4403     |  24.4 |  1.14
Other   |            | 0.2946     |            |       |  0.13

Nlocal:    750 ave 766 max 738 min
Histogram: 4 0 5 5 2 2 1 1 3 1
Nghost:    7315.71 ave 7405 max 7156 min
Histogram: 1 1 2 2 1 1 2 5 8 1
Neighs:    233999 ave 244999 max 224923 min
Histogram: 2 2 3 1 5 6 1 3 0 1

Total # of neighbors = 5615979
Ave neighs/atom = 311.999
Ave special neighs/atom = 0
Neighbor list builds = 634
Dangerous builds = 266

unfix thermostat_ramp

fix thermostat_eq all npt temp $T $T ${THERMO_DAMP} aniso 0.0 0.0 ${BARO_DAMP}
fix thermostat_eq all npt temp 3000 $T ${THERMO_DAMP} aniso 0.0 0.0 ${BARO_DAMP}
fix thermostat_eq all npt temp 3000 3000 ${THERMO_DAMP} aniso 0.0 0.0 ${BARO_DAMP}
fix thermostat_eq all npt temp 3000 3000 0.1 aniso 0.0 0.0 ${BARO_DAMP}
fix thermostat_eq all npt temp 3000 3000 0.1 aniso 0.0 0.0 0.5

variable AVE_START equal 20000
variable V equal vol
variable LX equal lx
variable LY equal ly
variable LZ equal lz
fix avg_V_fix all ave/time 1 1000 1000 v_V start ${AVE_START}
fix avg_V_fix all ave/time 1 1000 1000 v_V start 20000
fix avg_LX_fix all ave/time 1 1000 1000 v_LX start ${AVE_START}
fix avg_LX_fix all ave/time 1 1000 1000 v_LX start 20000
fix avg_LY_fix all ave/time 1 1000 1000 v_LY start ${AVE_START}
fix avg_LY_fix all ave/time 1 1000 1000 v_LY start 20000
fix avg_LZ_fix all ave/time 1 1000 1000 v_LZ start ${AVE_START}
fix avg_LZ_fix all ave/time 1 1000 1000 v_LZ start 20000

variable AVG_V equal f_avg_V_fix
variable AVG_LX equal f_avg_LX_fix
variable AVG_LY equal f_avg_LY_fix
variable AVG_LZ equal f_avg_LZ_fix

variable VOL equal ${AVG_V}
variable VOL equal 0
variable LP equal (${VOL}/(4*4*${zunits}))^(1/3)
variable LP equal (0/(4*4*${zunits}))^(1/3)
variable LP equal (0/(4*4*20))^(1/3)

print "OUTPUT:${AVG_V}:${AVG_LX}:${AVG_LY}:${AVG_LZ}:${LP}"
OUTPUT:0:0:0:0:0

unfix avg_V_fix
unfix avg_LX_fix
unfix avg_LY_fix
unfix avg_LZ_fix

run ${equilsteps}
run 10000
Per MPI rank memory allocation (min/avg/max) = 8.877 | 8.877 | 8.877 Mbytes
Step Temp E_pair E_mol TotEng Press Volume 
   15000     2961.328   -240542.76            0   -233653.07    399.16377    263600.76 
   15050    2983.7835   -240521.58            0   -233579.65   -1055.2054    263938.68 
   15100    2970.8537   -240412.18            0   -233500.33     1180.181    263901.82 
   15150    2991.1521   -240391.78            0    -233432.7   -2265.6862    264440.64 
   15200    3026.4028      -240397            0   -233355.91   -1012.4903    264316.04 
   15250     2998.184   -240318.48            0   -233343.05   -127.25573     264260.6 
   15300    2992.8983   -240341.62            0   -233378.49     1089.687    264038.72 
   15350    2963.8199   -240377.92            0   -233482.43    221.60789    263885.33 
   15400    2981.7391   -240412.18            0   -233475.01    1043.7267    263620.05 
   15450    3009.1347   -240414.64            0   -233413.73   -1466.3922    263919.98 
   15500    2995.2908   -240342.92            0   -233374.22    77.808788     263942.8 
   15550    3027.8165    -240363.8            0   -233319.42   -1673.1374    263992.56 
   15600    3013.6484   -240295.12            0   -233283.71    2610.9285    263647.65 
   15650    2989.7178   -240276.58            0   -233320.84    614.35879    264157.63 
   15700    2970.3004   -240354.31            0   -233443.75    173.04817    263928.74 
   15750    2975.4138   -240378.41            0   -233455.95    1293.4167    263565.39 
   15800    3016.5721   -240430.58            0   -233412.36   -1953.4927    264183.75 
   15850    3039.3678   -240432.48            0   -233361.23    1236.8212    263882.73 
   15900    3022.2737   -240402.46            0   -233370.98   -2539.3986    264404.25 
   15950    2973.8289   -240303.92            0   -233385.15    247.36601     264260.6 
   16000    2990.9546   -240341.75            0   -233383.13    1467.7099    263717.41 
   16050    3024.3576   -240389.31            0   -233352.98    -243.1113    263979.76 
   16100    2991.1265   -240269.13            0   -233310.11    1117.5941    263997.19 
   16150    3018.8085   -240271.31            0   -233247.89    520.43487    264022.24 
   16200    2992.1705    -240254.9            0   -233293.46   -2087.6295    264503.45 
   16250    2973.1805   -240314.03            0   -233396.76   -471.64824     263863.2 
   16300    2965.8253   -240311.21            0   -233411.06    1449.0414    263659.04 
   16350    3015.2437   -240383.88            0   -233368.76   -1834.6873    264516.04 
   16400    2982.2676   -240286.95            0   -233348.55    1573.6071    264069.94 
   16450     2978.483   -240252.53            0   -233322.93    445.41513    263924.37 
   16500    3024.9592   -240285.02            0   -233247.29    481.11153    264310.18 
   16550    3002.7107   -240186.22            0   -233200.26   -1146.2217    264534.54 
   16600    3019.7138   -240192.52            0      -233167    1740.5368    264235.65 
   16650      3013.68   -240175.12            0   -233163.64   -1367.8237    265010.95 
   16700    2993.2592   -240220.76            0   -233256.78   -1147.5328    264633.11 
   16750    3010.2182    -240299.4            0   -233295.97    1236.9232    263598.97 
   16800    2992.5859   -240288.26            0   -233325.85    929.08581    264023.18 
   16850    2995.5434   -240276.93            0   -233307.64   -1065.7085    264263.77 
   16900    3017.6794   -240228.07            0   -233207.28    3042.7124    263923.76 
   16950    3016.4101   -240217.25            0   -233199.41   -93.895791    264721.93 
   17000    2991.9801   -240251.38            0   -233290.38    1508.5591     264125.9 
   17050    3014.4474   -240329.02            0   -233315.75    583.78574    264112.36 
   17100    2993.0888   -240288.68            0    -233325.1   -678.19701    264326.42 
   17150    3012.5309   -240302.94            0   -233294.12   -1430.1288    264472.67 
   17200    3003.3071   -240202.16            0    -233214.8    1204.3177    264302.87 
   17250    3037.9299    -240196.3            0   -233128.39   -841.18821    264566.54 
   17300    3039.8574   -240234.85            0   -233162.46   -2091.4419    264724.59 
   17350    3013.9649   -240251.18            0   -233239.03   -1273.8299    264298.97 
   17400    2983.3479   -240222.15            0   -233281.23    675.31883    264190.89 
   17450    2995.9237   -240248.22            0   -233278.05    615.25733    264114.39 
   17500     3006.543    -240276.4            0   -233281.51    1501.9283     263929.8 
   17550    2988.0333   -240291.85            0   -233340.04   -2055.7688    264551.64 
   17600    2955.5009    -240266.8            0   -233390.67    289.57144    263760.91 
   17650    2976.7054   -240284.16            0   -233358.69    2393.3264    263774.12 
   17700    3029.2403   -240315.97            0   -233268.29   -1199.6433    264598.73 
   17750    3012.3691   -240227.82            0   -233219.38    962.90355    264309.46 
   17800    3008.1993   -240231.72            0   -233232.98   -548.60643    264624.07 
   17850    3011.8433    -240270.7            0   -233263.49    -2225.562    264669.71 
   17900    2996.3999   -240259.64            0   -233288.35    1821.0827    264136.62 
   17950    3003.0079   -240259.44            0   -233272.78   -760.86112    264540.03 
   18000    2995.6843   -240177.28            0   -233207.66    2281.3533    264336.82 
   18050    3004.1794   -240101.12            0   -233111.74   -1392.2306    264607.97 
   18100    3030.2929   -240173.31            0   -233123.18    1336.7563    264429.68 
   18150    3005.4397   -240171.53            0   -233179.22   -2073.4958     264806.1 
   18200    2994.2652    -240152.8            0   -233186.48    1154.1221    264359.61 
   18250    2991.9536   -240201.88            0   -233240.94    1705.0009    264200.22 
   18300    2989.3931   -240265.69            0   -233310.71    208.72934    264058.35 
   18350    3002.9895   -240304.46            0   -233317.85    460.27651    263932.98 
   18400    2991.9978   -240276.54            0    -233315.5   -308.32696     264103.8 
   18450    3033.1657   -240261.91            0   -233205.08   -311.58238    264548.41 
   18500    2992.0272   -240134.28            0   -233173.17   -1061.5487    264905.35 
   18550    2992.5518   -240155.48            0   -233193.15    1202.1901     264462.7 
   18600    2998.3501   -240273.28            0   -233297.46   -1223.5848    264575.86 
   18650    2990.4587   -240293.56            0    -233336.1    920.34162    264137.77 
   18700    2984.3046   -240283.56            0   -233340.42   -448.57442    264055.58 
   18750    2991.3507   -240283.84            0   -233324.31   -1243.5961    264042.24 
   18800    3025.7087   -240302.42            0   -233262.95    2988.6749    263729.82 
   18850    2999.8967   -240176.72            0    -233197.3   -844.21276     264591.5 
   18900    3033.9482   -240199.18            0   -233140.54    1825.6697    263998.55 
   18950    3032.1049   -240274.36            0   -233220.01   -2493.2195    264442.18 
   19000    2982.3907   -240242.87            0   -233304.18    1111.3075    263823.86 
   19050     3017.985    -240344.7            0   -233323.19    2866.5888    263518.39 
   19100    2985.4098   -240301.51            0   -233355.79   -2109.9925    264633.04 
   19150    3016.7091   -240305.15            0   -233286.61    669.94003     263823.7 
   19200    3022.7997   -240275.29            0   -233242.58    487.58708    263856.32 
   19250    3000.4482    -240265.8            0    -233285.1   -2651.4248    264594.51 
   19300     2985.723   -240324.67            0   -233378.23    2420.5321    263619.47 
   19350    2975.9586   -240402.44            0   -233478.71    592.05539    263544.79 
   19400    2977.9412   -240359.13            0   -233430.79    411.17984    263631.67 
   19450    2978.0482    -240269.6            0   -233341.01   -698.89923    264042.95 
   19500    3006.2305   -240299.02            0   -233304.87    2372.1638    263975.79 
   19550    3003.3315   -240271.43            0   -233284.02   -60.467273    264307.75 
   19600    3026.8663   -240268.02            0   -233225.85    374.30388    264366.45 
   19650    3025.0058   -240181.99            0   -233144.15   -426.25087    264815.29 
   19700    3020.9615   -240183.96            0   -233155.53    446.10784    264646.45 
   19750    2996.8432   -240254.34            0   -233282.02   -1463.9616    264560.48 
   19800    3011.4706   -240328.03            0   -233321.68    215.51452    263857.63 
   19850     2999.146   -240356.91            0   -233379.23    554.98292    263962.02 
   19900    3008.5612   -240359.37            0    -233359.8   -1596.2807       264145 
   19950    3024.4653   -240315.68            0    -233279.1   -271.16963    264094.28 
   20000    3003.1276   -240236.06            0   -233249.13   -796.20781    264399.78 
   20050    2980.8686   -240233.52            0   -233298.37   -7.6854175    264461.88 
   20100    2975.7861    -240297.7            0   -233374.38   -243.26754    264164.79 
   20150    2996.1517      -240335            0    -233364.3    1660.8011    263669.61 
   20200    3019.9886   -240326.53            0   -233300.37   -2451.3242    264422.59 
   20250    3022.0821   -240275.43            0   -233244.39   -1107.1816    264164.56 
   20300    3009.3451   -240247.99            0   -233246.59    2803.8601    263678.14 
   20350    2972.7907   -240283.62            0   -233367.26   -1640.7309    264515.63 
   20400    3005.2353   -240367.38            0   -233375.54    1692.3171    263852.11 
   20450    2996.5952   -240332.15            0   -233360.41   -393.82976    264157.51 
   20500      3012.24   -240281.26            0   -233273.12   -469.83585    264237.59 
   20550    2994.8777   -240180.04            0    -233212.3    1450.0684    264292.42 
   20600    3030.5757   -240266.33            0   -233215.54    -571.6801    264577.58 
   20650    3009.6716   -240304.84            0   -233302.68    1861.9954    264021.71 
   20700    3003.0736   -240314.86            0   -233328.05   -1015.8922    264096.63 
   20750    3024.5379   -240357.56            0   -233320.81   -2764.5265    263961.66 
   20800    2982.4333   -240292.67            0   -233353.88    2395.1399    263677.38 
   20850    2984.2342   -240312.29            0   -233369.31   -1697.8743    264470.43 
   20900    3008.7848   -240292.07            0   -233291.97    474.50248    264004.38 
   20950    3021.7419   -240261.09            0   -233230.85    52.947741    264352.95 
   21000    3012.1051   -240245.45            0   -233237.63     156.9606    264307.48 
   21050    2990.0363   -240291.02            0   -233334.54    1003.6821    264040.21 
   21100    3015.3729   -240382.54            0   -233367.11   -184.75933    264060.94 
   21150    2995.9161   -240337.36            0    -233367.2   -738.74302    264135.73 
   21200    2990.5395   -240257.55            0    -233299.9   -955.59487    264208.21 
   21250    3009.2514   -240268.32            0   -233267.14    1871.8705    264074.28 
   21300    2997.6235   -240280.51            0   -233306.38   -3229.3468    264899.85 
   21350    3019.6961   -240333.93            0   -233308.45    514.97781    264103.39 
   21400    3009.1992   -240345.16            0    -233344.1    1086.1861    263928.19 
   21450    2972.9416   -240376.09            0   -233459.38   -1058.6155    264036.29 
   21500    2994.9388   -240417.98            0   -233450.09    2857.4943    263431.89 
   21550    2982.8761   -240354.65            0   -233414.83   -1422.3575    264374.77 
   21600    3011.0642   -240359.36            0   -233353.96   -1768.3421     264073.9 
   21650    3009.1283   -240336.19            0   -233335.29    206.60675    264010.72 
   21700    3000.6118   -240322.42            0   -233341.34   -2182.0441    264380.23 
   21750    2993.0977   -240290.28            0   -233326.68    4326.9407    263470.93 
   21800    3020.1328   -240302.14            0   -233275.64   -4693.6101    264829.01 
   21850    3028.2682   -240219.09            0   -233173.66     53.87912     264506.8 
   21900    3025.0197   -240262.65            0   -233224.78   -92.629445    264168.19 
   21950    2991.0746   -240282.12            0   -233323.22   -188.02072    264155.31 
   22000    3002.7183      -240355            0   -233369.02    651.62162    263697.76 
   22050     2990.713   -240323.16            0    -233365.1    720.69896    264082.62 
   22100    3014.6514   -240281.01            0   -233267.27   -1908.0151    264478.47 
   22150    2996.4906   -240212.98            0   -233241.49   -1300.2146    264377.84 
   22200    3022.4073   -240261.31            0   -233229.52   -1198.1553    264185.99 
   22250    2994.3995   -240238.55            0   -233271.92     2065.776    263909.37 
   22300    2996.1163   -240340.97            0   -233370.35   -327.07336    264102.47 
   22350    2981.3103   -240321.81            0   -233385.63   -799.84663    263953.94 
   22400    3008.6588   -240352.72            0   -233352.91    689.68282    263939.42 
   22450    3016.8156   -240337.62            0   -233318.84   -2407.6388    264162.36 
   22500    3006.1584   -240298.53            0   -233304.54   -980.95286    264134.07 
   22550     3012.773   -240271.68            0    -233262.3   -2017.6645    264498.85 
   22600    3028.0219   -240219.71            0   -233174.86    101.14234    264281.02 
   22650    3006.8979   -240206.66            0   -233210.96    1699.6855    264350.05 
   22700    3004.3437   -240267.22            0   -233277.46   -2295.2797    264680.26 
   22750    3021.2428   -240353.99            0   -233324.91    1227.5982    263794.99 
   22800    2996.2462    -240330.4            0   -233359.47    923.94584    263981.44 
   22850    2986.0331   -240315.52            0   -233368.36    1075.2037    264114.11 
   22900    2997.7704   -240325.86            0   -233351.39    -1528.649    264259.17 
   22950    3012.4311   -240267.38            0    -233258.8    696.48756    264248.14 
   23000    3014.6259   -240202.07            0   -233188.38   -1145.3108    264688.83 
   23050    3022.3919   -240231.65            0    -233199.9    899.11559     264274.9 
   23100    2992.3435   -240221.82            0   -233259.97    538.28363    264104.95 
   23150    3008.7796   -240295.38            0    -233295.3    -208.5152    263911.95 
   23200    3009.9349   -240319.61            0   -233316.83   -214.02632    264040.39 
   23250    2979.9748   -240235.12            0   -233302.05   -913.09796    264409.06 
   23300    3044.5155   -240283.67            0   -233200.45     548.1607    264143.27 
   23350    2994.7823   -240157.74            0   -233190.22    194.49042    264125.07 
   23400    2986.8318   -240219.68            0   -233270.66   -485.30552    264380.56 
   23450    2980.1244    -240298.2            0   -233364.78    826.76285    264046.39 
   23500    2978.2324   -240269.04            0   -233340.02    892.40851    263997.32 
   23550    3025.3043   -240311.15            0   -233272.61   -3247.7195    264326.12 
   23600    3013.0172    -240243.5            0   -233233.56    1433.8227    263958.63 
   23650    3016.8328   -240239.71            0   -233220.89    535.82536     264398.5 
   23700    2993.4941   -240233.37            0   -233268.85   -1632.1167    264425.53 
   23750    2957.2456   -240248.96            0   -233368.77    2026.7715    264017.55 
   23800    3008.4554   -240369.82            0   -233370.49   -722.81186    264026.56 
   23850    2983.1399   -240283.53            0    -233343.1    1829.4572    264054.75 
   23900    3007.5388   -240249.64            0   -233252.44   -691.42876    264274.42 
   23950    3012.8095   -240223.88            0   -233214.42    2086.5083    263987.53 
   24000    3024.2114   -240277.67            0   -233241.68   -2496.5257    264875.86 
   24050     2998.274      -240280            0   -233304.35    1560.3437    263984.36 
   24100    3007.9141   -240321.92            0   -233323.85    811.24434    263912.05 
   24150    2997.7979   -240301.07            0   -233326.53    35.393412    264212.23 
   24200     3014.027    -240302.2            0   -233289.91    577.23272    263885.93 
   24250    3009.2382    -240303.2            0   -233302.05   -697.25232    264249.91 
   24300    2988.5563   -240287.53            0    -233334.5   -3843.7176    264560.14 
   24350    2985.9353    -240243.2            0   -233296.26     2757.403    263620.49 
   24400    3015.4945   -240227.84            0   -233212.14   -1580.5339    264684.85 
   24450     3018.181   -240204.81            0   -233182.85   -2545.5846    264928.54 
   24500    3005.5551   -240193.97            0   -233201.39    2734.9408    264025.74 
   24550    2994.4209    -240306.1            0   -233339.42   -1413.6889    264330.27 
   24600    3008.6427   -240355.64            0   -233355.87    141.26471    264037.72 
   24650    3001.0456   -240336.98            0   -233354.89    2028.4364     264011.5 
   24700     3015.842      -240370            0   -233353.48   -1480.9374    264472.37 
   24750    2983.8898   -240284.13            0   -233341.95    1465.9348    263824.41 
   24800    3027.5845   -240316.22            0   -233272.39    -246.9026    264091.57 
   24850    2998.4688   -240246.18            0   -233270.08   -1538.6016    264537.29 
   24900    2993.5194    -240222.2            0   -233257.62    118.17404    264247.74 
   24950    3027.4214   -240292.75            0   -233249.29   -1659.4535    264357.03 
   25000    2997.9534   -240260.53            0   -233285.64    2028.0172    263868.39 
Loop time of 215.083 on 24 procs for 10000 steps with 18000 atoms

Performance: 8.034 ns/day, 2.987 hours/ns, 46.494 timesteps/s
99.6% CPU use with 24 MPI tasks x no OpenMP threads

MPI task timing breakdown:
Section |  min time  |  avg time  |  max time  |%varavg| %total
---------------------------------------------------------------
Pair    | 201.8      | 203.67     | 205.65     |   7.6 | 94.69
Bond    | 0.0021412  | 0.0028979  | 0.0041264  |   0.8 |  0.00
Neigh   | 5.2486     | 5.3372     | 5.5483     |   2.7 |  2.48
Comm    | 1.8849     | 3.1354     | 5.2294     |  51.0 |  1.46
Output  | 0.009077   | 0.0092603  | 0.011705   |   0.5 |  0.00
Modify  | 1.4056     | 2.6876     | 3.897      |  53.0 |  1.25
Other   |            | 0.2388     |            |       |  0.11

Nlocal:    750 ave 767 max 734 min
Histogram: 1 1 2 5 5 2 4 2 1 1
Nghost:    7302.17 ave 7361 max 7252 min
Histogram: 2 2 2 4 5 2 2 3 1 1
Neighs:    233724 ave 240788 max 226995 min
Histogram: 4 0 4 0 6 2 0 3 2 3

Total # of neighbors = 5609373
Ave neighs/atom = 311.632
Ave special neighs/atom = 0
Neighbor list builds = 997
Dangerous builds = 970

unfix thermostat_eq

fix thermostat_nvt all nvt temp ${T} ${T} ${THERMO_DAMP}
fix thermostat_nvt all nvt temp 3000 ${T} ${THERMO_DAMP}
fix thermostat_nvt all nvt temp 3000 3000 ${THERMO_DAMP}
fix thermostat_nvt all nvt temp 3000 3000 0.1

run ${equilsteps}
run 10000
Per MPI rank memory allocation (min/avg/max) = 8.877 | 8.877 | 8.877 Mbytes
Step Temp E_pair E_mol TotEng Press 
   25000    2997.9534   -240260.53            0   -233285.64    2028.0172 
   25050    3005.3641   -240304.11            0   -233311.97   -79.247696 
   25100    2997.1677    -240373.4            0   -233400.33    -987.7518 
   25150    2978.5206   -240385.36            0   -233455.67    400.23333 
   25200    2999.5848   -240389.74            0   -233411.05   -451.11455 
   25250    2983.8922   -240307.79            0   -233365.61   -372.92001 
   25300    3007.4509   -240337.37            0   -233340.37    2824.1393 
   25350    3016.0347   -240320.05            0   -233303.09    2035.4523 
   25400    3016.0262   -240289.64            0    -233272.7    2721.6559 
   25450    3013.2637   -240332.58            0   -233322.07    292.55631 
   25500    2950.9159   -240274.74            0   -233409.28    2594.4528 
   25550    2987.2255   -240337.31            0   -233387.37   -1143.2812 
   25600    3000.9773   -240333.51            0   -233351.58    1380.6433 
   25650    3037.7914   -240353.88            0    -233286.3    1958.2379 
   25700    3009.7445   -240230.07            0   -233227.74    3437.0406 
   25750    3028.3037   -240284.39            0   -233238.88      1040.17 
   25800    2973.1742   -240272.86            0   -233355.61    1714.3017 
   25850    3000.3511   -240350.62            0   -233370.14    1700.6719 
   25900    3006.6634   -240333.39            0   -233338.22    3236.5566 
   25950    3007.0018   -240280.67            0   -233284.72    582.85331 
   26000    3011.4325   -240218.97            0   -233212.71    1564.3352 
   26050    3043.1765   -240222.91            0    -233142.8    746.78036 
   26100    3020.5629   -240273.44            0   -233245.94    1778.6188 
   26150    3013.9883   -240318.52            0   -233306.32    2057.0086 
   26200    2996.6952   -240323.54            0   -233351.57    1458.4726 
   26250    2979.1898   -240311.11            0   -233379.87     1254.588 
   26300    2970.8859   -240250.45            0   -233338.52     2474.216 
   26350    3017.0592   -240262.53            0   -233243.18    1461.6527 
   26400    3030.3825   -240286.33            0   -233235.98    2734.6237 
   26450     3016.953   -240305.11            0   -233286.01    -28.78943 
   26500    2996.9828   -240304.56            0   -233331.92    2004.8019 
   26550      2995.93   -240336.67            0   -233366.48    745.56013 
   26600    2991.2892   -240338.78            0   -233379.39    284.02498 
   26650    3020.1554   -240343.73            0   -233317.18    114.25242 
   26700    3045.4015   -240294.33            0   -233209.04    2054.9571 
   26750    3043.4314   -240336.25            0   -233255.54    3241.0842 
   26800    3005.5888   -240326.46            0   -233333.79    1462.4889 
   26850    3004.5633   -240355.05            0   -233364.77    629.40489 
   26900    2972.4427   -240317.16            0   -233401.62    619.22888 
   26950    3000.9333   -240397.97            0   -233416.14     1776.814 
   27000    2984.6069   -240389.52            0   -233445.67   -92.196538 
   27050    2997.4108   -240360.95            0   -233387.32    858.27469 
   27100    3012.1462   -240322.22            0    -233314.3    800.47636 
   27150    3017.9973   -240350.13            0    -233328.6    706.92285 
   27200    3005.4827   -240385.37            0   -233392.95    16.030627 
   27250    3003.8863    -240426.4            0   -233437.69    -990.5992 
   27300    3000.5889   -240446.45            0   -233465.42   -591.87935 
   27350    2975.0067      -240389            0   -233467.49    741.01338 
   27400     2994.628   -240345.15            0   -233377.99    338.15452 
   27450    3018.6433   -240351.68            0   -233328.64     1033.234 
   27500    3023.6806   -240384.49            0   -233349.74    1136.9273 
   27550    2978.9613   -240358.78            0   -233428.07    1354.1625 
   27600    2965.4727   -240351.82            0   -233452.49    180.02061 
   27650    2998.7775   -240354.36            0   -233377.54    1217.4145 
   27700    3011.1688   -240309.01            0   -233303.37   -305.93959 
   27750    3018.9667    -240300.7            0   -233276.92    1290.7017 
   27800     3000.915   -240265.29            0    -233283.5    1519.3102 
   27850    2976.1009   -240290.78            0   -233366.72    2076.1141 
   27900    3000.4958   -240390.01            0    -233409.2   -218.61328 
   27950    2962.8716   -240321.45            0   -233428.17   -1338.8203 
   28000     2999.287   -240291.64            0   -233313.63    423.75907 
   28050    3008.1919   -240269.96            0   -233271.24    875.59875 
   28100     2984.994    -240214.1            0   -233269.35    3896.7586 
   28150    3001.7543   -240285.07            0   -233301.33    1482.0858 
   28200    2992.4223   -240370.87            0   -233408.84    1054.9158 
   28250    2973.8623   -240345.08            0   -233426.23    968.79752 
   28300    3006.7646    -240372.8            0    -233377.4    987.95481 
   28350    3033.5876   -240391.63            0   -233333.83    908.60749 
   28400    3039.0717   -240426.08            0   -233355.52    559.89004 
   28450    2975.5587   -240418.06            0   -233495.27    748.09551 
   28500    2961.7558    -240389.5            0   -233498.82    2240.8878 
   28550    2995.5655   -240363.82            0   -233394.47   -1200.8714 
   28600    3009.7199   -240345.65            0   -233343.37    1578.4529 
   28650    3007.3635   -240314.98            0   -233318.18    2351.5941 
   28700    2994.3685   -240286.73            0   -233320.17   -581.61908 
   28750    2997.8147   -240321.85            0   -233347.27    930.48291 
   28800    2969.5952   -240306.98            0   -233398.05    1970.2532 
   28850    2971.6282   -240336.48            0   -233422.83   -1244.7783 
   28900    3005.0374   -240353.08            0    -233361.7    854.32019 
   28950    2986.1981   -240216.35            0    -233268.8    1145.5486 
   29000    3022.9741   -240263.32            0   -233230.21    738.49493 
   29050    3016.2766   -240279.05            0   -233261.53    1078.4349 
   29100    3003.9208   -240289.66            0   -233300.88    1008.7292 
   29150    2982.9264   -240282.11            0   -233342.17    615.99075 
   29200    2980.5281   -240376.96            0    -233442.6   -2651.1879 
   29250    2961.6711   -240351.75            0   -233461.27   -1931.5224 
   29300    2999.2965   -240329.94            0   -233351.92    103.32525 
   29350    2995.9191   -240277.23            0   -233307.06    1304.4482 
   29400    2994.5885   -240266.78            0   -233299.71    316.04751 
   29450     3007.178   -240278.57            0   -233282.21    2560.6104 
   29500    3019.5076    -240311.2            0   -233286.16    753.72602 
   29550    2982.3449   -240282.19            0   -233343.61   -8.3380745 
   29600    2981.5795   -240304.73            0   -233367.93    -203.6245 
   29650     2973.485   -240299.64            0   -233381.67   -507.67757 
   29700    2986.0716   -240299.08            0   -233351.83    2059.4836 
   29750    3013.9073    -240283.8            0   -233271.78    1627.8075 
   29800    2995.3432   -240251.53            0   -233282.71   -651.96185 
   29850    2985.2675   -240279.04            0   -233333.65     2082.117 
   29900    2985.7745   -240344.01            0   -233397.45   -209.03001 
   29950    2995.2079    -240342.9            0   -233374.39    1296.4148 
   30000     3003.541   -240260.93            0   -233273.04    713.17734 
   30050    3004.2515   -240230.56            0   -233241.01    571.74039 
   30100    2983.9698   -240253.77            0    -233311.4    461.84857 
   30150    2988.3309   -240289.84            0   -233337.32     457.1817 
   30200    3010.0307   -240322.84            0   -233319.84   -143.01531 
   30250    3002.1995   -240330.57            0   -233345.79    264.29158 
   30300    2992.6189   -240312.95            0   -233350.46    1845.5353 
   30350    3011.7641   -240225.41            0   -233218.38    1820.2913 
   30400    3019.9492   -240223.76            0   -233197.68    2749.8588 
   30450    3004.8605   -240262.17            0    -233271.2    3124.0667 
   30500    3017.6564   -240350.15            0   -233329.41    1397.0834 
   30550    2991.2671   -240316.64            0    -233357.3   -213.67499 
   30600    2965.6967   -240266.83            0   -233366.98    2547.8378 
   30650    3007.0382   -240296.84            0    -233300.8    1276.1688 
   30700    3017.5964   -240249.07            0   -233228.47    928.01879 
   30750    3002.0526      -240207            0   -233222.56    1297.4191 
   30800    2992.3162   -240251.61            0   -233289.83    732.61069 
   30850    2988.9079   -240332.94            0   -233379.09    577.86648 
   30900    2980.4296   -240306.51            0   -233372.39   -1275.6216 
   30950    2996.4538   -240283.36            0   -233311.95     1075.029 
   31000     3009.563   -240277.04            0   -233275.13    2626.7334 
   31050    3026.3318   -240341.09            0   -233300.17    491.83949 
   31100    2986.7677   -240301.96            0   -233353.08    2115.5855 
   31150    2998.7557   -240322.89            0   -233346.12    559.02042 
   31200    2992.4423   -240300.73            0   -233338.66   -931.19056 
   31250    3018.1638   -240287.41            0    -233265.5    755.58872 
   31300     3016.544   -240226.95            0    -233208.8     1760.417 
   31350    3019.4366   -240288.21            0   -233263.32     1728.975 
   31400    2984.0499   -240259.28            0   -233316.73    2075.8209 
   31450    3000.3687   -240291.54            0   -233311.02    829.11959 
   31500    3001.0163    -240265.4            0   -233283.37    1336.0852 
   31550    3006.6304   -240241.08            0      -233246    2865.8524 
   31600    3012.9505   -240231.89            0    -233222.1    2058.0259 
   31650     3013.169      -240293            0    -233282.7    1620.8655 
   31700    2993.3921   -240329.39            0    -233365.1    1337.1491 
   31750     2966.267   -240276.63            0   -233375.46    1786.4497 
   31800    3015.8762    -240310.2            0    -233293.6    2489.1077 
   31850    3021.5519   -240296.02            0   -233266.22    1195.8668 
   31900    2981.7397   -240241.26            0   -233304.08    1624.4856 
   31950    3006.4554   -240291.72            0   -233297.05   -515.78821 
   32000    2977.1869    -240219.6            0   -233293.02    2440.3333 
   32050    2994.9273   -240266.83            0   -233298.97     1788.467 
   32100    2984.7289   -240345.93            0    -233401.8   -303.97457 
   32150    2987.7118   -240380.53            0   -233429.46    1397.9452 
   32200    3003.6084    -240370.8            0   -233382.74    549.38223 
   32250    3024.4434    -240361.8            0   -233325.27    2046.6198 
   32300    3007.9389   -240278.09            0   -233279.96    2294.6382 
   32350    3008.7822   -240275.08            0   -233274.99    1737.2905 
   32400    3024.5553   -240353.84            0   -233317.05     2552.705 
   32450    2984.8828   -240347.41            0   -233402.93    -288.6822 
   32500    2977.4261   -240345.05            0   -233417.91    881.39561 
   32550    3000.2197    -240332.9            0   -233352.73    1750.8607 
   32600    3018.5086   -240291.15            0   -233268.43     1023.524 
   32650    3007.8746   -240288.35            0   -233290.37     2813.065 
   32700    3006.4736   -240357.21            0   -233362.49    1072.8579 
   32750    3016.5758   -240425.12            0   -233406.89    1158.0401 
   32800     2977.413   -240347.39            0   -233420.28    50.635013 
   32850    3006.7556   -240374.53            0   -233379.15    167.54232 
   32900    3012.5048   -240260.12            0   -233251.36    2796.5064 
   32950    3016.0716   -240260.07            0   -233243.01    2578.7486 
   33000    2996.2703   -240276.96            0   -233305.98    1622.1484 
   33050    2995.5477   -240299.38            0   -233330.08    1931.3581 
   33100    3004.5279   -240364.43            0   -233374.23    11.728761 
   33150     2969.349   -240391.92            0   -233483.57    502.67114 
   33200    2961.6345   -240391.45            0   -233501.05   -179.45134 
   33250    2989.1831   -240403.75            0   -233449.26      927.804 
   33300    2975.0398   -240305.52            0   -233383.93    259.46689 
   33350    3004.1681    -240313.4            0   -233324.04    530.52951 
   33400    3018.8898   -240330.77            0   -233307.16    343.50055 
   33450    2981.9089   -240313.95            0   -233376.38    2215.0689 
   33500    2992.7723   -240425.83            0   -233462.99   -1214.9695 
   33550    2959.3273   -240403.81            0   -233518.77   -1532.1782 
   33600    2998.4057   -240441.09            0   -233465.14    99.307123 
   33650    3000.1574   -240336.46            0   -233356.43    791.04644 
   33700    3002.4131   -240289.96            0   -233304.69     1078.701 
   33750    3025.4792   -240334.66            0   -233295.72    893.88715 
   33800    2996.7628   -240346.83            0    -233374.7    2933.4879 
   33850    2970.9238   -240329.24            0   -233417.23    1747.4853 
   33900     2991.214   -240346.29            0   -233387.07   -179.97214 
   33950    3009.6826   -240340.99            0   -233338.81    1229.4362 
   34000    3055.8565    -240310.7            0   -233201.09    1511.3878 
   34050    3032.1101   -240230.16            0   -233175.79    3445.9417 
   34100    3029.9002   -240311.09            0   -233261.86    97.306865 
   34150     2975.434   -240251.13            0   -233328.63    604.11844 
   34200    3006.7568   -240335.85            0   -233340.47    1312.8358 
   34250    2972.4701   -240275.21            0    -233359.6    3416.6555 
   34300    3010.0503   -240282.62            0   -233279.58    2008.0231 
   34350    3034.9166   -240283.83            0   -233222.93    2208.6376 
   34400    3013.6461   -240282.85            0   -233271.45    2429.9751 
   34450    2981.3792   -240271.53            0   -233335.19    1704.5735 
   34500    2994.8984   -240320.39            0    -233352.6    -1270.532 
   34550    3030.0365   -240387.39            0   -233337.85   -179.80611 
   34600    3006.8468   -240343.26            0   -233347.67    891.08136 
   34650    3009.4355   -240423.85            0   -233422.24   -937.70582 
   34700    2969.3496   -240411.27            0   -233502.92    1116.8217 
   34750    2981.3737    -240392.8            0   -233456.47   -16.954736 
   34800    3028.1955   -240420.98            0   -233375.72   -315.41363 
   34850    3028.1277   -240408.94            0   -233363.84    1213.4736 
   34900    2995.4105   -240342.84            0   -233373.85       1772.6 
   34950    3022.8005   -240368.95            0   -233336.25    1277.0217 
   35000    3024.4937   -240296.65            0   -233260.01    1030.2569 
Loop time of 214.382 on 24 procs for 10000 steps with 18000 atoms

Performance: 8.060 ns/day, 2.978 hours/ns, 46.646 timesteps/s
99.6% CPU use with 24 MPI tasks x no OpenMP threads

MPI task timing breakdown:
Section |  min time  |  avg time  |  max time  |%varavg| %total
---------------------------------------------------------------
Pair    | 201.2      | 203.38     | 205.9      |   9.3 | 94.87
Bond    | 0.0022081  | 0.0029585  | 0.0047605  |   1.1 |  0.00
Neigh   | 5.2024     | 5.2986     | 5.5076     |   2.7 |  2.47
Comm    | 1.8125     | 3.1096     | 5.5747     |  57.5 |  1.45
Output  | 0.0090422  | 0.0093097  | 0.01169    |   0.5 |  0.00
Modify  | 0.76316    | 2.3461     | 3.886      |  75.8 |  1.09
Other   |            | 0.2371     |            |       |  0.11

Nlocal:    750 ave 764 max 729 min
Histogram: 1 0 0 1 5 2 9 3 1 2
Nghost:    7275.62 ave 7357 max 7203 min
Histogram: 3 2 0 4 3 4 4 0 3 1
Neighs:    233698 ave 241610 max 224855 min
Histogram: 1 0 2 3 6 4 2 4 0 2

Total # of neighbors = 5608764
Ave neighs/atom = 311.598
Ave special neighs/atom = 0
Neighbor list builds = 989
Dangerous builds = 882

unfix thermostat_nvt

dump atoms all custom 1000000 lattice.out id type x y z c_peratom fx fy fz

reset_timestep 0

fix nve_fix all nve


thermo_modify line one format float %15.15g

variable tempsteps equal step

compute 1 all chunk/atom bin/1d ${dimension} lower ${thickness} units reduced
compute 1 all chunk/atom bin/1d z lower ${thickness} units reduced
compute 1 all chunk/atom bin/1d z lower 0.05 units reduced
fix 3 all ave/chunk 50 10 1050 1 v_temp file tmp_profile.out
fix flux all thermal/conductivity ${swapsteps} ${dimension} 20
fix flux all thermal/conductivity 50 ${dimension} 20
fix flux all thermal/conductivity 50 z 20

thermo_style custom step v_currenttime temp pe c_pe temp f_flux etotal press
WARNING: New thermo_style command, previous thermo_modify settings will be lost (../output.cpp:705)
thermo_style multi
thermo_modify line one format float %15.15g
thermo ${swapsteps}
thermo 50

variable fluxstep equal step-${tempsteps}
variable fluxstep equal step-0
variable fluxtime equal dt*v_fluxstep
variable fflux equal f_flux
variable eetotal equal etotal

fix fluxlog all print ${swapsteps} "${fluxstep} ${fluxtime} ${eetotal} ${fflux} " file flux_log.out
fix fluxlog all print 50 "${fluxstep} ${fluxtime} ${eetotal} ${fflux} " file flux_log.out

run         ${TCsteps}
run         2500000
Per MPI rank memory allocation (min/avg/max) = 10.55 | 10.55 | 10.55 Mbytes
TotEng KinEng Temp PotEng E_bond E_angle E_dihed E_impro E_vdwl E_coul E_long Press 
-233260.007246942 7036.64585566135 3024.49365973056 -240296.653102604               0               0               0               0 -17105.9647362683 -223190.688366335               0 1030.25689803851 
50 0.1 -233260.097218445 0.532834948291145 
-233260.097218445 6987.41505604182 3003.33325968102 -240247.512274487               0               0               0               0 -16970.7095211471 -223276.80275334               0 3424.67578819658 
100 0.2 -233260.339213283 1.14468506122552 
-233260.339213283 7036.08498384257 3024.25258560311 -240296.424197126               0               0               0               0 -17024.5701573097 -223271.854039816               0 2734.68610788986 
150 0.3 -233260.347383653 1.68899865688763 
-233260.347383653 7035.26931034843 3023.90199252766 -240295.616694001               0               0               0               0 -17046.5395581735 -223249.077135828               0 2285.66218076241 
200 0.4 -233260.262777083 3.35321477714773 
-233260.262777083 6978.47672124416 2999.49138139432 -240238.739498327               0               0               0               0 -17041.9540617046 -223196.785436622               0 1867.85532467675 
250 0.5 -233260.230520684 5.64846417930119 
-233260.230520684 6983.38534722247 3001.60120878281 -240243.615867906               0               0               0               0 -17017.3926033919 -223226.223264514               0 2315.61054383392 
300 0.6 -233260.350910486 7.59999157004026 
-233260.350910486 7040.19279963285 3026.01820846774 -240300.543710119               0               0               0               0 -17088.9348617067 -223211.608848412               0 1250.39470589144 
350 0.7 -233260.669771615 8.69065299959453 
-233260.669771615 7010.27283910219 3013.15800024061 -240270.942610717               0               0               0               0 -17008.3425149551 -223262.600095762               0 2706.62748054158 
400 0.8 -233260.72509995 10.5400845030644 
-233260.72509995 7020.12887654967 3017.39432581127 -240280.8539765               0               0               0               0 -17059.0489815515 -223221.804994948               0 1479.39009657598 
450 0.9 -233260.003380085 12.5660555325411 
-233260.003380085 7031.32816709062 3022.20800891105 -240291.331547176               0               0               0               0 -17020.5326661735 -223270.798881002               0 2177.16408919257 
500 1 -233260.482359322 14.2684199891052 
-233260.482359322 6999.34197602217 3008.4596927289 -240259.824335344               0               0               0               0 -17085.8499036538 -223173.97443169               0 1826.26916148772 
550 1.1 -233260.078143625 16.5111605119388 
-233260.078143625 7017.28446671964 3016.17174055217 -240277.362610345               0               0               0               0 -17050.2329907752 -223227.12961957               0 2284.05285488228 
600 1.2 -233260.040316076 17.466809167096 
-233260.040316076 7045.23221315914 3028.18425100728 -240305.272529235               0               0               0               0 -16982.0239532676 -223323.248575967               0 3396.72924590566 
650 1.3 -233260.192851924 17.9264466925409 
-233260.192851924 7040.57713848449 3026.18340513158 -240300.769990409               0               0               0               0 -17029.135659572 -223271.634330837               0 2575.53625382606 
700 1.4 -233260.026478847 19.8901783487635 
-233260.026478847 7013.83853445082 3014.69060870147 -240273.865013298               0               0               0               0 -17038.6289193589 -223235.236093939               0 1947.16223990114 
750 1.5 -233259.802155626 20.4059914303574 
-233259.802155626 7010.91005362446 3013.43188801641 -240270.71220925               0               0               0               0 -17018.8931784037 -223251.819030846               0 2468.45557015598 
800 1.6 -233260.535882543 20.9944202153269 
-233260.535882543 6997.27695840337 3007.57210611116 -240257.812840946               0               0               0               0 -17100.7422488293 -223157.070592117               0 1146.21508304373 
850 1.7 -233260.359184498 22.0985115093764 
-233260.359184498 7044.89490939514 3028.03927098178 -240305.254093893               0               0               0               0 -17111.9494629827 -223193.30463091               0 1141.48293646586 
900 1.8 -233260.725762662 23.2512979109923 
-233260.725762662 7050.16275237453 3030.30349715124 -240310.888515037               0               0               0               0 -17035.7947491609 -223275.093765876               0 3114.95320967939 
950 1.9 -233260.281523206 23.7288335047937 
-233260.281523206 6978.7874819717 2999.62495268232 -240239.069005178               0               0               0               0 -16997.513387891 -223241.555617287               0 2994.29024720619 
1000 2 -233259.934587703 26.1518512555024 
-233259.934587703 7019.39785907368 3017.08011961606 -240279.332446777               0               0               0               0 -17072.9334873911 -223206.398959386               0 1482.43228836312 
1050 2.1 -233259.462627067 28.1005440791887 
-233259.462627067 6985.9539267602 3002.70523656618 -240245.416553827               0               0               0               0 -17042.5798345474 -223202.836719279               0 2033.53107431094 
1100 2.2 -233259.704896544 30.1843380292567 
-233259.704896544 6990.1528177637 3004.51000541181 -240249.857714308               0               0               0               0 -17025.321486168 -223224.53622814               0 1342.00342394352 
1150 2.3 -233259.863252395 32.2490662829326 
-233259.863252395 7065.50885408546 3036.89956412382 -240325.372106481               0               0               0               0 -17194.6063628353 -223130.765743646               0 -182.859042735997 
1200 2.4 -233259.918436459 32.6929063497398 
-233259.918436459 6983.10742928863 3001.48175399625 -240243.025865748               0               0               0               0 -17068.9787107873 -223174.047154961               0 1733.55149900463 
1250 2.5 -233260.093432003 35.4131704415867 
-233260.093432003 7013.96795665959 3014.74623700193 -240274.061388662               0               0               0               0 -17105.2417434073 -223168.819645255               0 920.975876592609 
1300 2.6 -233259.817984268 37.3588458317474 
-233259.817984268 7037.3568026029 3024.79923920141 -240297.174786871               0               0               0               0 -17143.200192703 -223153.974594168               0 -95.7532132801806 
1350 2.7 -233259.805978191 39.2818846369655 
-233259.805978191 7011.98152795238 3013.89242949851 -240271.787506144               0               0               0               0 -17043.2902094458 -223228.497296698               0 2464.47727773143 
1400 2.8 -233259.539815869 39.6877272400325 
-233259.539815869 7049.11800590598 3029.85444384729 -240308.657821775               0               0               0               0 -17158.5854833434 -223150.072338431               0 233.895530066752 
1450 2.9 -233259.927017451 40.3810366092683 
-233259.927017451 7008.75338860497 3012.50490947984 -240268.680406056               0               0               0               0 -17066.1432165207 -223202.537189535               0 1899.16075127604 
1500 3 -233259.535126751 42.4275827662734 
-233259.535126751 7005.79193039921 3011.23201444568 -240265.327057151               0               0               0               0 -17141.4585008637 -223123.868556287               0 -77.9571687712568 
1550 3.1 -233259.882055534 44.6177329176698 
-233259.882055534 7052.38280919457 3031.25772277438 -240312.264864729               0               0               0               0 -17132.5272816131 -223179.737583116               0 396.65344329554 
1600 3.2 -233260.145961408 46.7919253464599 
-233260.145961408 7050.56986559053 3030.47848270058 -240310.715826999               0               0               0               0 -17018.9749333166 -223291.740893682               0 3082.80389240266 
1650 3.3 -233260.166274245 47.2040446372858 
-233260.166274245 7020.39715612245 3017.50963783401 -240280.563430368               0               0               0               0 -17129.1751046283 -223151.388325739               0 531.74881119693 
1700 3.4 -233260.069746102 47.583575744328 
-233260.069746102 7016.62555931517 3015.88852873392 -240276.695305417               0               0               0               0 -17070.97562993 -223205.719675487               0 1244.31589270771 
1750 3.5 -233259.321453044 49.487453747316 
-233259.321453044 7055.10991517213 3032.42988844929 -240314.431368216               0               0               0               0 -17157.4414791338 -223156.989889082               0 678.51464492645 
1800 3.6 -233259.532226595 51.5524114745531 
-233259.532226595 7046.42655378447 3028.69760292565 -240305.95878038               0               0               0               0 -17120.406798378 -223185.551982002               0 1222.8755819002 
1850 3.7 -233259.462298793 54.5979733895304 
-233259.462298793 7045.67277997428 3028.37361559467 -240305.135078767               0               0               0               0 -17003.8911992357 -223301.243879532               0 3185.68449076614 
[...]
622100 1244.2 -212879.566857892 16122.3754677259 
-212879.566857892 16142.1157023903 6938.20999350664 -229021.682560283               0               0               0               0 -9786.61967551531 -219235.062884767               0 167131.488975054 
622150 1244.3 -212787.437760865 16125.4621439128 
-212787.437760865 16351.4723846912 7028.19575820612 -229138.910145556               0               0               0               0 -9665.51866214729 -219473.391483409               0 170827.992554926 
622200 1244.4 -212689.748419035 16128.9739422632 
-212689.748419035 16407.2383315887 7052.16509761588 -229096.986750624               0               0               0               0 -9653.91524041165 -219443.071510212               0 171747.999341792 
622250 1244.5 -212591.34988483 16130.1869209578 
-212591.34988483 16501.4506481297 7092.65946949301 -229092.80053296               0               0               0               0 -9709.85989495659 -219382.940638003               0 170772.241256543 
622300 1244.6 -212503.89551403 16130.9437294987 
-212503.89551403 16399.2548250904 7048.73362397317 -228903.15033912               0               0               0               0 -9592.78488288419 -219310.365456236               0 171559.983569902 
622350 1244.7 -212409.724934549 16134.8527069285 
-212409.724934549 16571.6760139473 7122.84376155831 -228981.400948496               0               0               0               0 -9977.08891373953 -219004.312034756               0 165549.375843093 
622400 1244.8 -212317.663350462 16135.4061233345 
-212317.663350462 16487.170319458 7086.52149347253 -228804.83366992               0               0               0               0 -9534.65968442819 -219270.173985492               0 172750.018930817 
622450 1244.9 -212191.768449046 16138.0669972742 
-212191.768449046 16610.4049678549 7139.49025449603 -228802.173416901               0               0               0               0 -9580.85261534358 -219221.320801558               0 173713.928694308 
622500 1245 -212090.957302938 16138.5574672514 
-212090.957302938 16734.1992497965 7192.6995574116 -228825.156552735               0               0               0               0 -9423.84221259994 -219401.314340135               0 177190.336332938 
622550 1245.1 -212020.645657438 16142.0453423555 
-212020.645657438 16879.1850364399 7255.01740052161 -228899.830693877               0               0               0               0 -9474.33559324688 -219425.495100631               0 175620.41228945 
622600 1245.2 -211942.544642702 16144.5510748926 
-211942.544642702 16903.7338046649 7265.56896093459 -228846.278447367               0               0               0               0 -9359.87234102258 -219486.406106344               0 178912.049754755 
622650 1245.3 -211844.37159201 16146.0053226029 
-211844.37159201 16839.2731444015 7237.86245668983 -228683.644736412               0               0               0               0 -9347.64778509499 -219335.996951317               0 177589.997744585 
622700 1245.4 -211744.028509601 16148.3099196951 
-211744.028509601 16805.2008731888 7223.21750078764 -228549.22938279               0               0               0               0 -9215.86633748515 -219333.363045305               0 180821.183772192 
622750 1245.5 -211619.013991658 16150.7894337766 
-211619.013991658 16989.8416754666 7302.57987702087 -228608.855667125               0               0               0               0 -9036.46566831036 -219572.389998814               0 185458.588201139 
622800 1245.6 -211490.17529154 16153.7165703289 
-211490.17529154 17054.9102713649 7330.54768437947 -228545.085562905               0               0               0               0 -9112.38227422817 -219432.703288677               0 182705.828936075 
622850 1245.7 -211370.962565432 16156.1494123809 
-211370.962565432 17232.2472167434 7406.77071420581 -228603.209782175               0               0               0               0 -9365.81107665831 -219237.398705517               0 180248.137565421 
622900 1245.8 -211285.303150841 16156.610867355 
-211285.303150841 17266.1782867879 7421.35497897093 -228551.481437629               0               0               0               0 -9226.41940125056 -219325.062036379               0 183227.405060943 
622950 1245.9 -211130.868213874 16159.5681049655 
-211130.868213874 17267.1532078528 7421.77401989468 -228398.021421727               0               0               0               0 -9125.75991833338 -219272.261503394               0 183950.103118662 
623000 1246 -211012.869386889 16162.1310258701 
-211012.869386889 17335.2468020543 7451.04203311507 -228348.116188943               0               0               0               0 -9268.28076889464 -219079.835420048               0 181543.611040943 
623050 1246.1 -210859.104550098 16164.8575645139 
-210859.104550098 17514.7742257236 7528.20657511044 -228373.878775821               0               0               0               0 -9109.01386679875 -219264.864909023               0 184534.096854676 
623100 1246.2 -210719.930842341 16165.3937407756 
-210719.930842341 17383.6901093733 7471.86395293995 -228103.620951714               0               0               0               0 -9191.68790789695 -218911.933043817               0 182768.24767099 
623150 1246.3 -210576.859107638 16166.0314194715 
-210576.859107638 17419.7993806547 7487.38445294641 -227996.658488292               0               0               0               0 -8987.01340789964 -219009.645080393               0 186677.557233815 
623200 1246.4 -210431.083469237 16168.8137094438 
-210431.083469237 17633.2533475594 7579.13131399215 -228064.336816797               0               0               0               0 -8970.19437828825 -219094.142438509               0 187858.217753806 
623250 1246.5 -210305.070401587 16169.2560178652 
-210305.070401587 17797.1508320456 7649.57778989025 -228102.221233633               0               0               0               0 -9068.93713952929 -219033.284094104               0 185843.281361895 
623300 1246.6 -210217.896751622 16169.9878696877 
-210217.896751622 17861.7811426938 7677.35721332461 -228079.677894316               0               0               0               0 -9054.34336743723 -219025.334526879               0 187518.079706551 
623350 1246.7 -210047.482730177 16173.4431612857 
-210047.482730177 17973.525738083 7725.38731561998 -228021.00846826               0               0               0               0 -8999.72909469185 -219021.279373569               0 189666.236119566 
623400 1246.8 -209943.090472089 16174.1100282561 
-209943.090472089 18046.589886762 7756.79177435874 -227989.680358851               0               0               0               0 -8815.69695540688 -219173.983403444               0 192070.941527345 
623450 1246.9 -209750.89938693 16177.0335482044 
-209750.89938693 18131.0826028628 7793.10846406888 -227881.981989793               0               0               0               0 -9081.83907690452 -218800.142912888               0 190309.014579111 
623500 1247 -209627.320433275 16179.7141622284 
-209627.320433275 17969.8246808174 7723.79652585115 -227597.145114093               0               0               0               0 -8826.61862949699 -218770.526484596               0 192074.262749255 
623550 1247.1 -209500.888990239 16182.0145829626 
-209500.888990239 18245.2073385224 7842.16159911379 -227746.096328762               0               0               0               0 -8731.26158015835 -219014.834748603               0 193563.835784674 
623600 1247.2 -209322.566087514 16185.0455876458 
-209322.566087514 18407.6106511002 7911.96584950328 -227730.176738614               0               0               0               0 -8942.23004077138 -218787.946697842               0 191264.211304968 
623650 1247.3 -209205.060524028 16187.6954879953 
-209205.060524028 18278.5176867087 7856.47906498595 -227483.578210737               0               0               0               0 -8603.99397265507 -218879.584238082               0 196382.726895644 
623700 1247.4 -208982.167088425 16188.3143674933 
-208982.167088425 18447.8877801384 7929.27777963405 -227430.054868563               0               0               0               0 -8628.9494151203 -218801.105453443               0 197135.461784529 
623750 1247.5 -208782.572855261 16190.9242215354 
-208782.572855261 18576.4320910032 7984.52874169462 -227359.004946265               0               0               0               0 -8616.71017855149 -218742.294767713               0 199061.446904811 
623800 1247.6 -208615.284928171 16193.7560140015 
-208615.284928171 18598.333144047 7993.94226021341 -227213.618072218               0               0               0               0 -8198.86416001072 -219014.753912207               0 205542.364638913 
623850 1247.7 -208404.399975947 16196.1151698807 
-208404.399975947 18699.3191680026 8037.34810945469 -227103.71914395               0               0               0               0 -8350.9130997785 -218752.806044171               0 202593.926574813 
623900 1247.8 -208167.207795775 16196.9782187907 
-208167.207795775 19040.4717737894 8183.98244552445 -227207.679569564               0               0               0               0 -8400.2968983937 -218807.382671171               0 203456.939096391 
623950 1247.9 -207953.015918852 16197.8211685472 
-207953.015918852 19016.3580524721 8173.61787713026 -226969.373971324               0               0               0               0 -8400.38256741556 -218568.991403908               0 202440.955187716 
624000 1248 -207797.489385714 16200.6992008157 
-207797.489385714 19167.1408605451 8238.4273980821 -226964.63024626               0               0               0               0 -8464.86903925741 -218499.761207002               0 203775.068181712 
624050 1248.1 -207586.617101636 16203.3264897604 
-207586.617101636 19391.0402401298 8334.66391017351 -226977.657341766               0               0               0               0 -8333.22009874786 -218644.437243018               0 206290.037771527 
624100 1248.2 -207290.788080418 16206.0228848513 
-207290.788080418 19514.7987409142 8387.85783361918 -226805.586821333               0               0               0               0 -8289.6165345921 -218515.970286741               0 207485.237595972 
624150 1248.3 -207049.829554693 16206.5299650076 
-207049.829554693 19645.1639522789 8443.89145578941 -226694.993506972               0               0               0               0 -8108.7396086675 -218586.253898305               0 211748.45179958 
624200 1248.4 -206785.975378045 16207.4529456116 
-206785.975378045 19935.2839821874 8568.5909516882 -226721.259360232               0               0               0               0 -8186.69083781918 -218534.568522413               0 210966.842959393 
624250 1248.5 -206531.543949219 16208.4036337364 
-206531.543949219 20007.2669912776 8599.5307146189 -226538.810940496               0               0               0               0 -8111.68969654626 -218427.12124395               0 212316.975997278 
624300 1248.6 -206310.261759963 16210.8978352945 
-206310.261759963 20152.5192397374 8661.96308844298 -226462.7809997               0               0               0               0 -7956.2981496535 -218506.482850047               0 215842.35647634 
624350 1248.7 -205996.212688399 16213.8467548365 
-205996.212688399 20310.4264626226 8729.83482793912 -226306.639151021               0               0               0               0 -7836.81486993761 -218469.824281084               0 217791.430346706 
624400 1248.8 -205814.443977162 16216.9328588807 
-205814.443977162 20526.4548030363 8822.68820713507 -226340.898780198               0               0               0               0 -7974.26387474644 -218366.634905452               0 217824.072233471 
624450 1248.9 -205514.489590431 16219.4865925442 
-205514.489590431 20622.2322997314 8863.85532531057 -226136.721890162               0               0               0               0 -7746.44617217391 -218390.275717988               0 221084.019674943 
624500 1249 -205187.265973783 16221.9980508815 
-205187.265973783 20760.8466259819 8923.43458501642 -225948.112599765               0               0               0               0 -7819.15507143264 -218128.957528332               0 220839.712838497 
624550 1249.1 -204710.159053195 16222.5894110704 
-204710.159053195 21200.2766299032 9112.31054780001 -225910.435683098               0               0               0               0 -7548.04026134846 -218362.39542175               0 227993.193289754 
624600 1249.2 -204331.892542322 16225.4683729856 
-204331.892542322 21355.9508405698 9179.22249317891 -225687.843382892               0               0               0               0 -7421.86210794669 -218265.981274945               0 229113.664375034 
624650 1249.3 -203873.32583428 16227.1202851518 
-203873.32583428 21660.6461696328 9310.18674941746 -225533.972003912               0               0               0               0 -7282.75615347396 -218251.215850438               0 233815.488057251 
624700 1249.4 -203529.667732462 16230.3369598447 
-203529.667732462 21884.373231982 9406.34919605258 -225414.040964444               0               0               0               0 -7343.28705998077 -218070.753904463               0 234811.804206068 
624750 1249.5 -203039.731383019 16234.1204585757 
-203039.731383019 22316.1659878123 9591.94251410701 -225355.897370831               0               0               0               0 -7271.44184405594 -218084.455526775               0 237679.409071347 
624800 1249.6 -202649.529787753 16236.3584142854 
-202649.529787753 22382.7340794491 9620.55483526481 -225032.263867202               0               0               0               0 -7063.29423605271 -217968.969631149               0 242074.936955328 
624850 1249.7 -202143.444543485 16238.8082434498 
-202143.444543485 22856.2376235587 9824.07629938217 -224999.682167044               0               0               0               0 -7018.23974180743 -217981.442425236               0 244427.48038824 
624900 1249.8 -201504.368274777 16240.1956214627 
-201504.368274777 23071.4622007759 9916.5842047911 -224575.830475553               0               0               0               0 -6538.36169577689 -218037.468779776               0 251920.437044574 
624950 1249.9 -200946.233959409 16240.89764964 
-200946.233959409 23548.8995854792 10121.7965136913 -224495.133544888               0               0               0               0 -6632.06145822204 -217863.072086666               0 253035.697820989 
625000 1250 -200246.966539795 16241.3647600339 
-200246.966539795 24061.499396523 10342.122349364 -224308.465936318               0               0               0               0 -6813.10196472445 -217495.363971594               0 252294.516468604 
625050 1250.1 -199305.180139777 16243.7973323178 
-199305.180139777 24664.0493682015 10601.1105955248 -223969.229507979               0               0               0               0 -6447.79912862664 -217521.430379352               0  261958.9185724 
625100 1250.2 -198575.098958088 16244.6856101139 
-198575.098958088 25132.1716164094 10802.3190690967 -223707.270574497               0               0               0               0 -5973.86243476274 -217733.408139734               0  272396.2509134 
625150 1250.3 -197783.350304392 16246.287594235 
-197783.350304392 25574.5705284764 10992.4711290503 -223357.920832868               0               0               0               0 -5724.39254482597 -217633.528288042               0 277923.825264136 
625200 1250.4 -197003.968908784 16249.6138941465 
-197003.968908784 26099.0571598316 11217.9061621167 -223103.026068616               0               0               0               0 -5684.74462354727 -217418.281445068               0 280417.242627666 
625250 1250.5 -195976.674013574 16251.7385145436 
-195976.674013574 26934.7198953444 11577.0910205103 -222911.393908918               0               0               0               0 -5689.691866138 -217221.70204278               0 283848.962422725 
625300 1250.6 -194648.127573906 16252.9433194784 
-194648.127573906 27825.2658160483 11959.8657893585 -222473.393389955               0               0               0               0 -5215.86678597797 -217257.526603977               0 297841.485347039 
625350 1250.7 -193052.504653412 16256.5623354196 
-193052.504653412 28790.1968567582 12374.6127973178 -221842.701510171               0               0               0               0 -5085.9566933603 -216756.74481681               0 303561.615286005 
625400 1250.8 -191652.004041319 16256.9186955438 
-191652.004041319 29895.6362545684 12849.7531580058 -221547.640295887               0               0               0               0 -5028.70651097834 -216518.933784909               0 308672.244283386 
625450 1250.9 -190148.654458196 16257.2518653583 
-190148.654458196 31004.6763672599 13326.441179263 -221153.330825456               0               0               0               0 -4389.7579536214 -216763.572871835               0 327166.819827336 
625500 1251 -188376.458136349 16260.3991950386 
-188376.458136349 32318.9784737076 13891.3549847124 -220695.436610057               0               0               0               0 -4345.29082742859 -216350.145782628               0 333334.533222585 
625550 1251.1 -186372.740927027 16261.7597561415 
-186372.740927027 33887.3752152214 14565.4838378554 -220260.116142248               0               0               0               0 -3760.29057157518 -216499.825570673               0  348601.6465325 
625600 1251.2 -184050.46766168 16264.4468720044 
-184050.46766168 35438.283518847 15232.0958043174 -219488.751180527               0               0               0               0 -3280.09508732349 -216208.656093203               0 364476.225991161 
625650 1251.3 -181307.114978597 16265.2185302063 
-181307.114978597 37444.6720763231 16094.4824577768 -218751.78705492               0               0               0               0 -3210.60247636295 -215541.184578557               0 373614.839496507 
625700 1251.4 -177860.567284726 16267.3865813781 
-177860.567284726 40058.7943868593 17218.0854521801 -217919.361671586               0               0               0               0 -2396.03602993983 -215523.325641646               0 398826.178892698 
625750 1251.5 -174242.672410119 16268.1309904711 
-174242.672410119 43129.0354053101 18537.7375541369 -217371.70781543               0               0               0               0 -1945.77243007168 -215425.935385358               0 418870.227506826 
625800 1251.6 -170202.5578219 16268.7546131043 
-170202.5578219 45985.2531460915 19765.3980936897 -216187.810967992               0               0               0               0 -741.698868161099 -215446.112099831               0 448879.366725001 
625850 1251.7 -164943.006779456 16270.2367681722 
-164943.006779456 50498.448422513 21705.2613152672 -215441.455201969               0               0               0               0 -359.128355575509 -215082.326846394               0 479269.432529298 
625900 1251.8 -159977.949643625 16270.9886170657 
-159977.949643625 53870.9917038074 23154.8490848769 -213848.941347432               0               0               0               0 661.571211637034 -214510.512559069               0 507052.661105422 
625950 1251.9 52171553273.3813 16272.6721971367 
52171553273.3813 52171765377.7194 22424487012.5032 -212104.338003323               0               0               0               0 2086.39141439298 -214190.729417716               0 211187356778.277 
626000 1252 -145969.070502729 16275.2147470887 
ERROR: Lost atoms: original 18000 current 17997 (../thermo.cpp:441)
Last command: run         ${TCsteps}
