# LAMMPS data file written by OVITO Basic 3.8.4

960 atoms
1 atom types

0.0 51.1301422119 xlo xhi
0.0 49.2000007629 ylo yhi
0.0 24.0 zlo zhi

Masses

1 12.0107  # C

Atoms  # full

1 1 1 0.0 0.710140869 1.230000037 12.0
2 1 1 0.0 4.970986514 1.230000037 12.0
3 1 1 0.0 9.231830301 1.230000037 12.0
4 1 1 0.0 13.492676756 1.230000037 12.0
5 1 1 0.0 17.753520924 1.230000037 12.0
6 1 1 0.0 22.014366616 1.230000037 12.0
7 1 1 0.0 26.275212309 1.230000037 12.0
8 1 1 0.0 30.536056477 1.230000037 12.0
9 1 1 0.0 34.796906741 1.230000037 12.0
10 1 1 0.0 39.057747862 1.230000037 12.0
11 1 1 0.0 43.31859203 1.230000037 12.0
12 1 1 0.0 47.579442294 1.230000037 12.0
13 1 1 0.0 0.710140869 3.690000204 12.0
14 1 1 0.0 4.970986514 3.690000204 12.0
15 1 1 0.0 9.231830301 3.690000204 12.0
16 1 1 0.0 13.492676756 3.690000204 12.0
17 1 1 0.0 17.753520924 3.690000204 12.0
18 1 1 0.0 22.014366616 3.690000204 12.0
19 1 1 0.0 26.275212309 3.690000204 12.0
20 1 1 0.0 30.536056477 3.690000204 12.0
21 1 1 0.0 34.796906741 3.690000204 12.0
22 1 1 0.0 39.057747862 3.690000204 12.0
23 1 1 0.0 43.31859203 3.690000204 12.0
24 1 1 0.0 47.579442294 3.690000204 12.0
25 1 1 0.0 0.710140869 6.150000095 12.0
26 1 1 0.0 4.970986514 6.150000095 12.0
27 1 1 0.0 9.231830301 6.150000095 12.0
28 1 1 0.0 13.492676756 6.150000095 12.0
29 1 1 0.0 17.753520924 6.150000095 12.0
30 1 1 0.0 22.014366616 6.150000095 12.0
31 1 1 0.0 26.275212309 6.150000095 12.0
32 1 1 0.0 30.536056477 6.150000095 12.0
33 1 1 0.0 34.796906741 6.150000095 12.0
34 1 1 0.0 39.057747862 6.150000095 12.0
35 1 1 0.0 43.31859203 6.150000095 12.0
36 1 1 0.0 47.579442294 6.150000095 12.0
37 1 1 0.0 0.710140869 8.609999987 12.0
38 1 1 0.0 4.970986514 8.609999987 12.0
39 1 1 0.0 9.231830301 8.609999987 12.0
40 1 1 0.0 13.492676756 8.609999987 12.0
41 1 1 0.0 17.753520924 8.609999987 12.0
42 1 1 0.0 22.014366616 8.609999987 12.0
43 1 1 0.0 26.275212309 8.609999987 12.0
44 1 1 0.0 30.536056477 8.609999987 12.0
45 1 1 0.0 34.796906741 8.609999987 12.0
46 1 1 0.0 39.057747862 8.609999987 12.0
47 1 1 0.0 43.31859203 8.609999987 12.0
48 1 1 0.0 47.579442294 8.609999987 12.0
49 1 1 0.0 0.710140869 11.069999878 12.0
50 1 1 0.0 4.970986514 11.069999878 12.0
51 1 1 0.0 9.231830301 11.069999878 12.0
52 1 1 0.0 13.492676756 11.069999878 12.0
53 1 1 0.0 17.753520924 11.069999878 12.0
54 1 1 0.0 22.014366616 11.069999878 12.0
55 1 1 0.0 26.275212309 11.069999878 12.0
56 1 1 0.0 30.536056477 11.069999878 12.0
57 1 1 0.0 34.796906741 11.069999878 12.0
58 1 1 0.0 39.057747862 11.069999878 12.0
59 1 1 0.0 43.31859203 11.069999878 12.0
60 1 1 0.0 47.579442294 11.069999878 12.0
61 1 1 0.0 0.710140869 13.530000503 12.0
62 1 1 0.0 4.970986514 13.530000503 12.0
63 1 1 0.0 9.231830301 13.530000503 12.0
64 1 1 0.0 13.492676756 13.530000503 12.0
65 1 1 0.0 17.753520924 13.530000503 12.0
66 1 1 0.0 22.014366616 13.530000503 12.0
67 1 1 0.0 26.275212309 13.530000503 12.0
68 1 1 0.0 30.536056477 13.530000503 12.0
69 1 1 0.0 34.796906741 13.530000503 12.0
70 1 1 0.0 39.057747862 13.530000503 12.0
71 1 1 0.0 43.31859203 13.530000503 12.0
72 1 1 0.0 47.579442294 13.530000503 12.0
73 1 1 0.0 0.710140869 15.989999661 12.0
74 1 1 0.0 4.970986514 15.989999661 12.0
75 1 1 0.0 9.231830301 15.989999661 12.0
76 1 1 0.0 13.492676756 15.989999661 12.0
77 1 1 0.0 17.753520924 15.989999661 12.0
78 1 1 0.0 22.014366616 15.989999661 12.0
79 1 1 0.0 26.275212309 15.989999661 12.0
80 1 1 0.0 30.536056477 15.989999661 12.0
81 1 1 0.0 34.796906741 15.989999661 12.0
82 1 1 0.0 39.057747862 15.989999661 12.0
83 1 1 0.0 43.31859203 15.989999661 12.0
84 1 1 0.0 47.579442294 15.989999661 12.0
85 1 1 0.0 0.710140869 18.450000286 12.0
86 1 1 0.0 4.970986514 18.450000286 12.0
87 1 1 0.0 9.231830301 18.450000286 12.0
88 1 1 0.0 13.492676756 18.450000286 12.0
89 1 1 0.0 17.753520924 18.450000286 12.0
90 1 1 0.0 22.014366616 18.450000286 12.0
91 1 1 0.0 26.275212309 18.450000286 12.0
92 1 1 0.0 30.536056477 18.450000286 12.0
93 1 1 0.0 34.796906741 18.450000286 12.0
94 1 1 0.0 39.057747862 18.450000286 12.0
95 1 1 0.0 43.31859203 18.450000286 12.0
96 1 1 0.0 47.579442294 18.450000286 12.0
97 1 1 0.0 0.710140869 20.910002377 12.0
98 1 1 0.0 4.970986514 20.910002377 12.0
99 1 1 0.0 9.231830301 20.910002377 12.0
100 1 1 0.0 13.492676756 20.910002377 12.0
101 1 1 0.0 17.753520924 20.910002377 12.0
102 1 1 0.0 22.014366616 20.910002377 12.0
103 1 1 0.0 26.275212309 20.910002377 12.0
104 1 1 0.0 30.536056477 20.910002377 12.0
105 1 1 0.0 34.796906741 20.910002377 12.0
106 1 1 0.0 39.057747862 20.910002377 12.0
107 1 1 0.0 43.31859203 20.910002377 12.0
108 1 1 0.0 47.579442294 20.910002377 12.0
109 1 1 0.0 0.710140869 23.370001535 12.0
110 1 1 0.0 4.970986514 23.370001535 12.0
111 1 1 0.0 9.231830301 23.370001535 12.0
112 1 1 0.0 13.492676756 23.370001535 12.0
113 1 1 0.0 17.753520924 23.370001535 12.0
114 1 1 0.0 22.014366616 23.370001535 12.0
115 1 1 0.0 26.275212309 23.370001535 12.0
116 1 1 0.0 30.536056477 23.370001535 12.0
117 1 1 0.0 34.796906741 23.370001535 12.0
118 1 1 0.0 39.057747862 23.370001535 12.0
119 1 1 0.0 43.31859203 23.370001535 12.0
120 1 1 0.0 47.579442294 23.370001535 12.0
121 1 1 0.0 0.710140869 25.829999228 12.0
122 1 1 0.0 4.970986514 25.829999228 12.0
123 1 1 0.0 9.231830301 25.829999228 12.0
124 1 1 0.0 13.492676756 25.829999228 12.0
125 1 1 0.0 17.753520924 25.829999228 12.0
126 1 1 0.0 22.014366616 25.829999228 12.0
127 1 1 0.0 26.275212309 25.829999228 12.0
128 1 1 0.0 30.536056477 25.829999228 12.0
129 1 1 0.0 34.796906741 25.829999228 12.0
130 1 1 0.0 39.057747862 25.829999228 12.0
131 1 1 0.0 43.31859203 25.829999228 12.0
132 1 1 0.0 47.579442294 25.829999228 12.0
133 1 1 0.0 0.710140869 28.289999852 12.0
134 1 1 0.0 4.970986514 28.289999852 12.0
135 1 1 0.0 9.231830301 28.289999852 12.0
136 1 1 0.0 13.492676756 28.289999852 12.0
137 1 1 0.0 17.753520924 28.289999852 12.0
138 1 1 0.0 22.014366616 28.289999852 12.0
139 1 1 0.0 26.275212309 28.289999852 12.0
140 1 1 0.0 30.536056477 28.289999852 12.0
141 1 1 0.0 34.796906741 28.289999852 12.0
142 1 1 0.0 39.057747862 28.289999852 12.0
143 1 1 0.0 43.31859203 28.289999852 12.0
144 1 1 0.0 47.579442294 28.289999852 12.0
145 1 1 0.0 0.710140869 30.750000477 12.0
146 1 1 0.0 4.970986514 30.750000477 12.0
147 1 1 0.0 9.231830301 30.750000477 12.0
148 1 1 0.0 13.492676756 30.750000477 12.0
149 1 1 0.0 17.753520924 30.750000477 12.0
150 1 1 0.0 22.014366616 30.750000477 12.0
151 1 1 0.0 26.275212309 30.750000477 12.0
152 1 1 0.0 30.536056477 30.750000477 12.0
153 1 1 0.0 34.796906741 30.750000477 12.0
154 1 1 0.0 39.057747862 30.750000477 12.0
155 1 1 0.0 43.31859203 30.750000477 12.0
156 1 1 0.0 47.579442294 30.750000477 12.0
157 1 1 0.0 0.710140869 33.210004034 12.0
158 1 1 0.0 4.970986514 33.210004034 12.0
159 1 1 0.0 9.231830301 33.210004034 12.0
160 1 1 0.0 13.492676756 33.210004034 12.0
161 1 1 0.0 17.753520924 33.210004034 12.0
162 1 1 0.0 22.014366616 33.210004034 12.0
163 1 1 0.0 26.275212309 33.210004034 12.0
164 1 1 0.0 30.536056477 33.210004034 12.0
165 1 1 0.0 34.796906741 33.210004034 12.0
166 1 1 0.0 39.057747862 33.210004034 12.0
167 1 1 0.0 43.31859203 33.210004034 12.0
168 1 1 0.0 47.579442294 33.210004034 12.0
169 1 1 0.0 0.710140869 35.670001726 12.0
170 1 1 0.0 4.970986514 35.670001726 12.0
171 1 1 0.0 9.231830301 35.670001726 12.0
172 1 1 0.0 13.492676756 35.670001726 12.0
173 1 1 0.0 17.753520924 35.670001726 12.0
174 1 1 0.0 22.014366616 35.670001726 12.0
175 1 1 0.0 26.275212309 35.670001726 12.0
176 1 1 0.0 30.536056477 35.670001726 12.0
177 1 1 0.0 34.796906741 35.670001726 12.0
178 1 1 0.0 39.057747862 35.670001726 12.0
179 1 1 0.0 43.31859203 35.670001726 12.0
180 1 1 0.0 47.579442294 35.670001726 12.0
181 1 1 0.0 0.710140869 38.130002351 12.0
182 1 1 0.0 4.970986514 38.130002351 12.0
183 1 1 0.0 9.231830301 38.130002351 12.0
184 1 1 0.0 13.492676756 38.130002351 12.0
185 1 1 0.0 17.753520924 38.130002351 12.0
186 1 1 0.0 22.014366616 38.130002351 12.0
187 1 1 0.0 26.275212309 38.130002351 12.0
188 1 1 0.0 30.536056477 38.130002351 12.0
189 1 1 0.0 34.796906741 38.130002351 12.0
190 1 1 0.0 39.057747862 38.130002351 12.0
191 1 1 0.0 43.31859203 38.130002351 12.0
192 1 1 0.0 47.579442294 38.130002351 12.0
193 1 1 0.0 0.710140869 40.590000043 12.0
194 1 1 0.0 4.970986514 40.590000043 12.0
195 1 1 0.0 9.231830301 40.590000043 12.0
196 1 1 0.0 13.492676756 40.590000043 12.0
197 1 1 0.0 17.753520924 40.590000043 12.0
198 1 1 0.0 22.014366616 40.590000043 12.0
199 1 1 0.0 26.275212309 40.590000043 12.0
200 1 1 0.0 30.536056477 40.590000043 12.0
201 1 1 0.0 34.796906741 40.590000043 12.0
202 1 1 0.0 39.057747862 40.590000043 12.0
203 1 1 0.0 43.31859203 40.590000043 12.0
204 1 1 0.0 47.579442294 40.590000043 12.0
205 1 1 0.0 0.710140869 43.050000668 12.0
206 1 1 0.0 4.970986514 43.050000668 12.0
207 1 1 0.0 9.231830301 43.050000668 12.0
208 1 1 0.0 13.492676756 43.050000668 12.0
209 1 1 0.0 17.753520924 43.050000668 12.0
210 1 1 0.0 22.014366616 43.050000668 12.0
211 1 1 0.0 26.275212309 43.050000668 12.0
212 1 1 0.0 30.536056477 43.050000668 12.0
213 1 1 0.0 34.796906741 43.050000668 12.0
214 1 1 0.0 39.057747862 43.050000668 12.0
215 1 1 0.0 43.31859203 43.050000668 12.0
216 1 1 0.0 47.579442294 43.050000668 12.0
217 1 1 0.0 0.710140869 45.510001292 12.0
218 1 1 0.0 4.970986514 45.510001292 12.0
219 1 1 0.0 9.231830301 45.510001292 12.0
220 1 1 0.0 13.492676756 45.510001292 12.0
221 1 1 0.0 17.753520924 45.510001292 12.0
222 1 1 0.0 22.014366616 45.510001292 12.0
223 1 1 0.0 26.275212309 45.510001292 12.0
224 1 1 0.0 30.536056477 45.510001292 12.0
225 1 1 0.0 34.796906741 45.510001292 12.0
226 1 1 0.0 39.057747862 45.510001292 12.0
227 1 1 0.0 43.31859203 45.510001292 12.0
228 1 1 0.0 47.579442294 45.510001292 12.0
229 1 1 0.0 0.710140869 47.970001917 12.0
230 1 1 0.0 4.970986514 47.970001917 12.0
231 1 1 0.0 9.231830301 47.970001917 12.0
232 1 1 0.0 13.492676756 47.970001917 12.0
233 1 1 0.0 17.753520924 47.970001917 12.0
234 1 1 0.0 22.014366616 47.970001917 12.0
235 1 1 0.0 26.275212309 47.970001917 12.0
236 1 1 0.0 30.536056477 47.970001917 12.0
237 1 1 0.0 34.796906741 47.970001917 12.0
238 1 1 0.0 39.057747862 47.970001917 12.0
239 1 1 0.0 43.31859203 47.970001917 12.0
240 1 1 0.0 47.579442294 47.970001917 12.0
241 1 1 0.0 3.550704109 47.970001917 12.0
242 1 1 0.0 7.81154942 47.970001917 12.0
243 1 1 0.0 12.07239435 47.970001917 12.0
244 1 1 0.0 16.333240043 47.970001917 12.0
245 1 1 0.0 20.594084211 47.970001917 12.0
246 1 1 0.0 24.854928379 47.970001917 12.0
247 1 1 0.0 29.115774072 47.970001917 12.0
248 1 1 0.0 33.376621288 47.970001917 12.0
249 1 1 0.0 37.637465456 47.970001917 12.0
250 1 1 0.0 41.898306577 47.970001917 12.0
251 1 1 0.0 46.159156841 47.970001917 12.0
252 1 1 0.0 50.420001009 47.970001917 12.0
253 1 1 0.0 3.550704109 1.230001229 12.0
254 1 1 0.0 7.81154942 1.230001229 12.0
255 1 1 0.0 12.07239435 1.230001229 12.0
256 1 1 0.0 16.333240043 1.230001229 12.0
257 1 1 0.0 20.594084211 1.230001229 12.0
258 1 1 0.0 24.854928379 1.230001229 12.0
259 1 1 0.0 29.115774072 1.230001229 12.0
260 1 1 0.0 33.376621288 1.230001229 12.0
261 1 1 0.0 37.637465456 1.230001229 12.0
262 1 1 0.0 41.898306577 1.230001229 12.0
263 1 1 0.0 46.159156841 1.230001229 12.0
264 1 1 0.0 50.420001009 1.230001229 12.0
265 1 1 0.0 3.550704109 3.690001304 12.0
266 1 1 0.0 7.81154942 3.690001304 12.0
267 1 1 0.0 12.07239435 3.690001304 12.0
268 1 1 0.0 16.333240043 3.690001304 12.0
269 1 1 0.0 20.594084211 3.690001304 12.0
270 1 1 0.0 24.854928379 3.690001304 12.0
271 1 1 0.0 29.115774072 3.690001304 12.0
272 1 1 0.0 33.376621288 3.690001304 12.0
273 1 1 0.0 37.637465456 3.690001304 12.0
274 1 1 0.0 41.898306577 3.690001304 12.0
275 1 1 0.0 46.159156841 3.690001304 12.0
276 1 1 0.0 50.420001009 3.690001304 12.0
277 1 1 0.0 3.550704109 6.150001562 12.0
278 1 1 0.0 7.81154942 6.150001562 12.0
279 1 1 0.0 12.07239435 6.150001562 12.0
280 1 1 0.0 16.333240043 6.150001562 12.0
281 1 1 0.0 20.594084211 6.150001562 12.0
282 1 1 0.0 24.854928379 6.150001562 12.0
283 1 1 0.0 29.115774072 6.150001562 12.0
284 1 1 0.0 33.376621288 6.150001562 12.0
285 1 1 0.0 37.637465456 6.150001562 12.0
286 1 1 0.0 41.898306577 6.150001562 12.0
287 1 1 0.0 46.159156841 6.150001562 12.0
288 1 1 0.0 50.420001009 6.150001562 12.0
289 1 1 0.0 3.550704109 8.610001453 12.0
290 1 1 0.0 7.81154942 8.610001453 12.0
291 1 1 0.0 12.07239435 8.610001453 12.0
292 1 1 0.0 16.333240043 8.610001453 12.0
293 1 1 0.0 20.594084211 8.610001453 12.0
294 1 1 0.0 24.854928379 8.610001453 12.0
295 1 1 0.0 29.115774072 8.610001453 12.0
296 1 1 0.0 33.376621288 8.610001453 12.0
297 1 1 0.0 37.637465456 8.610001453 12.0
298 1 1 0.0 41.898306577 8.610001453 12.0
299 1 1 0.0 46.159156841 8.610001453 12.0
300 1 1 0.0 50.420001009 8.610001453 12.0
301 1 1 0.0 3.550704109 11.070001345 12.0
302 1 1 0.0 7.81154942 11.070001345 12.0
303 1 1 0.0 12.07239435 11.070001345 12.0
304 1 1 0.0 16.333240043 11.070001345 12.0
305 1 1 0.0 20.594084211 11.070001345 12.0
306 1 1 0.0 24.854928379 11.070001345 12.0
307 1 1 0.0 29.115774072 11.070001345 12.0
308 1 1 0.0 33.376621288 11.070001345 12.0
309 1 1 0.0 37.637465456 11.070001345 12.0
310 1 1 0.0 41.898306577 11.070001345 12.0
311 1 1 0.0 46.159156841 11.070001345 12.0
312 1 1 0.0 50.420001009 11.070001345 12.0
313 1 1 0.0 3.550704109 13.530001969 12.0
314 1 1 0.0 7.81154942 13.530001969 12.0
315 1 1 0.0 12.07239435 13.530001969 12.0
316 1 1 0.0 16.333240043 13.530001969 12.0
317 1 1 0.0 20.594084211 13.530001969 12.0
318 1 1 0.0 24.854928379 13.530001969 12.0
319 1 1 0.0 29.115774072 13.530001969 12.0
320 1 1 0.0 33.376621288 13.530001969 12.0
321 1 1 0.0 37.637465456 13.530001969 12.0
322 1 1 0.0 41.898306577 13.530001969 12.0
323 1 1 0.0 46.159156841 13.530001969 12.0
324 1 1 0.0 50.420001009 13.530001969 12.0
325 1 1 0.0 3.550704109 15.990001128 12.0
326 1 1 0.0 7.81154942 15.990001128 12.0
327 1 1 0.0 12.07239435 15.990001128 12.0
328 1 1 0.0 16.333240043 15.990001128 12.0
329 1 1 0.0 20.594084211 15.990001128 12.0
330 1 1 0.0 24.854928379 15.990001128 12.0
331 1 1 0.0 29.115774072 15.990001128 12.0
332 1 1 0.0 33.376621288 15.990001128 12.0
333 1 1 0.0 37.637465456 15.990001128 12.0
334 1 1 0.0 41.898306577 15.990001128 12.0
335 1 1 0.0 46.159156841 15.990001128 12.0
336 1 1 0.0 50.420001009 15.990001128 12.0
337 1 1 0.0 3.550704109 18.450003219 12.0
338 1 1 0.0 7.81154942 18.450003219 12.0
339 1 1 0.0 12.07239435 18.450003219 12.0
340 1 1 0.0 16.333240043 18.450003219 12.0
341 1 1 0.0 20.594084211 18.450003219 12.0
342 1 1 0.0 24.854928379 18.450003219 12.0
343 1 1 0.0 29.115774072 18.450003219 12.0
344 1 1 0.0 33.376621288 18.450003219 12.0
345 1 1 0.0 37.637465456 18.450003219 12.0
346 1 1 0.0 41.898306577 18.450003219 12.0
347 1 1 0.0 46.159156841 18.450003219 12.0
348 1 1 0.0 50.420001009 18.450003219 12.0
349 1 1 0.0 3.550704109 20.910002377 12.0
350 1 1 0.0 7.81154942 20.910002377 12.0
351 1 1 0.0 12.07239435 20.910002377 12.0
352 1 1 0.0 16.333240043 20.910002377 12.0
353 1 1 0.0 20.594084211 20.910002377 12.0
354 1 1 0.0 24.854928379 20.910002377 12.0
355 1 1 0.0 29.115774072 20.910002377 12.0
356 1 1 0.0 33.376621288 20.910002377 12.0
357 1 1 0.0 37.637465456 20.910002377 12.0
358 1 1 0.0 41.898306577 20.910002377 12.0
359 1 1 0.0 46.159156841 20.910002377 12.0
360 1 1 0.0 50.420001009 20.910002377 12.0
361 1 1 0.0 3.550704109 23.370001535 12.0
362 1 1 0.0 7.81154942 23.370001535 12.0
363 1 1 0.0 12.07239435 23.370001535 12.0
364 1 1 0.0 16.333240043 23.370001535 12.0
365 1 1 0.0 20.594084211 23.370001535 12.0
366 1 1 0.0 24.854928379 23.370001535 12.0
367 1 1 0.0 29.115774072 23.370001535 12.0
368 1 1 0.0 33.376621288 23.370001535 12.0
369 1 1 0.0 37.637465456 23.370001535 12.0
370 1 1 0.0 41.898306577 23.370001535 12.0
371 1 1 0.0 46.159156841 23.370001535 12.0
372 1 1 0.0 50.420001009 23.370001535 12.0
373 1 1 0.0 3.550704109 25.83000216 12.0
374 1 1 0.0 7.81154942 25.83000216 12.0
375 1 1 0.0 12.07239435 25.83000216 12.0
376 1 1 0.0 16.333240043 25.83000216 12.0
377 1 1 0.0 20.594084211 25.83000216 12.0
378 1 1 0.0 24.854928379 25.83000216 12.0
379 1 1 0.0 29.115774072 25.83000216 12.0
380 1 1 0.0 33.376621288 25.83000216 12.0
381 1 1 0.0 37.637465456 25.83000216 12.0
382 1 1 0.0 41.898306577 25.83000216 12.0
383 1 1 0.0 46.159156841 25.83000216 12.0
384 1 1 0.0 50.420001009 25.83000216 12.0
385 1 1 0.0 3.550704109 28.290002785 12.0
386 1 1 0.0 7.81154942 28.290002785 12.0
387 1 1 0.0 12.07239435 28.290002785 12.0
388 1 1 0.0 16.333240043 28.290002785 12.0
389 1 1 0.0 20.594084211 28.290002785 12.0
390 1 1 0.0 24.854928379 28.290002785 12.0
391 1 1 0.0 29.115774072 28.290002785 12.0
392 1 1 0.0 33.376621288 28.290002785 12.0
393 1 1 0.0 37.637465456 28.290002785 12.0
394 1 1 0.0 41.898306577 28.290002785 12.0
395 1 1 0.0 46.159156841 28.290002785 12.0
396 1 1 0.0 50.420001009 28.290002785 12.0
397 1 1 0.0 3.550704109 30.750000477 12.0
398 1 1 0.0 7.81154942 30.750000477 12.0
399 1 1 0.0 12.07239435 30.750000477 12.0
400 1 1 0.0 16.333240043 30.750000477 12.0
401 1 1 0.0 20.594084211 30.750000477 12.0
402 1 1 0.0 24.854928379 30.750000477 12.0
403 1 1 0.0 29.115774072 30.750000477 12.0
404 1 1 0.0 33.376621288 30.750000477 12.0
405 1 1 0.0 37.637465456 30.750000477 12.0
406 1 1 0.0 41.898306577 30.750000477 12.0
407 1 1 0.0 46.159156841 30.750000477 12.0
408 1 1 0.0 50.420001009 30.750000477 12.0
409 1 1 0.0 3.550704109 33.210004034 12.0
410 1 1 0.0 7.81154942 33.210004034 12.0
411 1 1 0.0 12.07239435 33.210004034 12.0
412 1 1 0.0 16.333240043 33.210004034 12.0
413 1 1 0.0 20.594084211 33.210004034 12.0
414 1 1 0.0 24.854928379 33.210004034 12.0
415 1 1 0.0 29.115774072 33.210004034 12.0
416 1 1 0.0 33.376621288 33.210004034 12.0
417 1 1 0.0 37.637465456 33.210004034 12.0
418 1 1 0.0 41.898306577 33.210004034 12.0
419 1 1 0.0 46.159156841 33.210004034 12.0
420 1 1 0.0 50.420001009 33.210004034 12.0
421 1 1 0.0 3.550704109 35.670001726 12.0
422 1 1 0.0 7.81154942 35.670001726 12.0
423 1 1 0.0 12.07239435 35.670001726 12.0
424 1 1 0.0 16.333240043 35.670001726 12.0
425 1 1 0.0 20.594084211 35.670001726 12.0
426 1 1 0.0 24.854928379 35.670001726 12.0
427 1 1 0.0 29.115774072 35.670001726 12.0
428 1 1 0.0 33.376621288 35.670001726 12.0
429 1 1 0.0 37.637465456 35.670001726 12.0
430 1 1 0.0 41.898306577 35.670001726 12.0
431 1 1 0.0 46.159156841 35.670001726 12.0
432 1 1 0.0 50.420001009 35.670001726 12.0
433 1 1 0.0 3.550704109 38.130002351 12.0
434 1 1 0.0 7.81154942 38.130002351 12.0
435 1 1 0.0 12.07239435 38.130002351 12.0
436 1 1 0.0 16.333240043 38.130002351 12.0
437 1 1 0.0 20.594084211 38.130002351 12.0
438 1 1 0.0 24.854928379 38.130002351 12.0
439 1 1 0.0 29.115774072 38.130002351 12.0
440 1 1 0.0 33.376621288 38.130002351 12.0
441 1 1 0.0 37.637465456 38.130002351 12.0
442 1 1 0.0 41.898306577 38.130002351 12.0
443 1 1 0.0 46.159156841 38.130002351 12.0
444 1 1 0.0 50.420001009 38.130002351 12.0
445 1 1 0.0 3.550704109 40.590002975 12.0
446 1 1 0.0 7.81154942 40.590002975 12.0
447 1 1 0.0 12.07239435 40.590002975 12.0
448 1 1 0.0 16.333240043 40.590002975 12.0
449 1 1 0.0 20.594084211 40.590002975 12.0
450 1 1 0.0 24.854928379 40.590002975 12.0
451 1 1 0.0 29.115774072 40.590002975 12.0
452 1 1 0.0 33.376621288 40.590002975 12.0
453 1 1 0.0 37.637465456 40.590002975 12.0
454 1 1 0.0 41.898306577 40.590002975 12.0
455 1 1 0.0 46.159156841 40.590002975 12.0
456 1 1 0.0 50.420001009 40.590002975 12.0
457 1 1 0.0 3.550704109 43.050000668 12.0
458 1 1 0.0 7.81154942 43.050000668 12.0
459 1 1 0.0 12.07239435 43.050000668 12.0
460 1 1 0.0 16.333240043 43.050000668 12.0
461 1 1 0.0 20.594084211 43.050000668 12.0
462 1 1 0.0 24.854928379 43.050000668 12.0
463 1 1 0.0 29.115774072 43.050000668 12.0
464 1 1 0.0 33.376621288 43.050000668 12.0
465 1 1 0.0 37.637465456 43.050000668 12.0
466 1 1 0.0 41.898306577 43.050000668 12.0
467 1 1 0.0 46.159156841 43.050000668 12.0
468 1 1 0.0 50.420001009 43.050000668 12.0
469 1 1 0.0 3.550704109 45.510001292 12.0
470 1 1 0.0 7.81154942 45.510001292 12.0
471 1 1 0.0 12.07239435 45.510001292 12.0
472 1 1 0.0 16.333240043 45.510001292 12.0
473 1 1 0.0 20.594084211 45.510001292 12.0
474 1 1 0.0 24.854928379 45.510001292 12.0
475 1 1 0.0 29.115774072 45.510001292 12.0
476 1 1 0.0 33.376621288 45.510001292 12.0
477 1 1 0.0 37.637465456 45.510001292 12.0
478 1 1 0.0 41.898306577 45.510001292 12.0
479 1 1 0.0 46.159156841 45.510001292 12.0
480 1 1 0.0 50.420001009 45.510001292 12.0
481 1 1 0.0 2.840563287 0.0 12.0
482 1 1 0.0 7.101408217 0.0 12.0
483 1 1 0.0 11.36225391 0.0 12.0
484 1 1 0.0 15.62309884 0.0 12.0
485 1 1 0.0 19.883946056 0.0 12.0
486 1 1 0.0 24.144788701 0.0 12.0
487 1 1 0.0 28.405635917 0.0 12.0
488 1 1 0.0 32.666480085 0.0 12.0
489 1 1 0.0 36.927321206 0.0 12.0
490 1 1 0.0 41.18817147 0.0 12.0
491 1 1 0.0 45.449015638 0.0 12.0
492 1 1 0.0 49.709856759 0.0 12.0
493 1 1 0.0 2.840563287 2.460000075 12.0
494 1 1 0.0 7.101408217 2.460000075 12.0
495 1 1 0.0 11.36225391 2.460000075 12.0
496 1 1 0.0 15.62309884 2.460000075 12.0
497 1 1 0.0 19.883946056 2.460000075 12.0
498 1 1 0.0 24.144788701 2.460000075 12.0
499 1 1 0.0 28.405635917 2.460000075 12.0
500 1 1 0.0 32.666480085 2.460000075 12.0
501 1 1 0.0 36.927321206 2.460000075 12.0
502 1 1 0.0 41.18817147 2.460000075 12.0
503 1 1 0.0 45.449015638 2.460000075 12.0
504 1 1 0.0 49.709856759 2.460000075 12.0
505 1 1 0.0 2.840563287 4.92000015 12.0
506 1 1 0.0 7.101408217 4.92000015 12.0
507 1 1 0.0 11.36225391 4.92000015 12.0
508 1 1 0.0 15.62309884 4.92000015 12.0
509 1 1 0.0 19.883946056 4.92000015 12.0
510 1 1 0.0 24.144788701 4.92000015 12.0
511 1 1 0.0 28.405635917 4.92000015 12.0
512 1 1 0.0 32.666480085 4.92000015 12.0
513 1 1 0.0 36.927321206 4.92000015 12.0
514 1 1 0.0 41.18817147 4.92000015 12.0
515 1 1 0.0 45.449015638 4.92000015 12.0
516 1 1 0.0 49.709856759 4.92000015 12.0
517 1 1 0.0 2.840563287 7.380000408 12.0
518 1 1 0.0 7.101408217 7.380000408 12.0
519 1 1 0.0 11.36225391 7.380000408 12.0
520 1 1 0.0 15.62309884 7.380000408 12.0
521 1 1 0.0 19.883946056 7.380000408 12.0
522 1 1 0.0 24.144788701 7.380000408 12.0
523 1 1 0.0 28.405635917 7.380000408 12.0
524 1 1 0.0 32.666480085 7.380000408 12.0
525 1 1 0.0 36.927321206 7.380000408 12.0
526 1 1 0.0 41.18817147 7.380000408 12.0
527 1 1 0.0 45.449015638 7.380000408 12.0
528 1 1 0.0 49.709856759 7.380000408 12.0
529 1 1 0.0 2.840563287 9.840000299 12.0
530 1 1 0.0 7.101408217 9.840000299 12.0
531 1 1 0.0 11.36225391 9.840000299 12.0
532 1 1 0.0 15.62309884 9.840000299 12.0
533 1 1 0.0 19.883946056 9.840000299 12.0
534 1 1 0.0 24.144788701 9.840000299 12.0
535 1 1 0.0 28.405635917 9.840000299 12.0
536 1 1 0.0 32.666480085 9.840000299 12.0
537 1 1 0.0 36.927321206 9.840000299 12.0
538 1 1 0.0 41.18817147 9.840000299 12.0
539 1 1 0.0 45.449015638 9.840000299 12.0
540 1 1 0.0 49.709856759 9.840000299 12.0
541 1 1 0.0 2.840563287 12.300000191 12.0
542 1 1 0.0 7.101408217 12.300000191 12.0
543 1 1 0.0 11.36225391 12.300000191 12.0
544 1 1 0.0 15.62309884 12.300000191 12.0
545 1 1 0.0 19.883946056 12.300000191 12.0
546 1 1 0.0 24.144788701 12.300000191 12.0
547 1 1 0.0 28.405635917 12.300000191 12.0
548 1 1 0.0 32.666480085 12.300000191 12.0
549 1 1 0.0 36.927321206 12.300000191 12.0
550 1 1 0.0 41.18817147 12.300000191 12.0
551 1 1 0.0 45.449015638 12.300000191 12.0
552 1 1 0.0 49.709856759 12.300000191 12.0
553 1 1 0.0 2.840563287 14.760000815 12.0
554 1 1 0.0 7.101408217 14.760000815 12.0
555 1 1 0.0 11.36225391 14.760000815 12.0
556 1 1 0.0 15.62309884 14.760000815 12.0
557 1 1 0.0 19.883946056 14.760000815 12.0
558 1 1 0.0 24.144788701 14.760000815 12.0
559 1 1 0.0 28.405635917 14.760000815 12.0
560 1 1 0.0 32.666480085 14.760000815 12.0
561 1 1 0.0 36.927321206 14.760000815 12.0
562 1 1 0.0 41.18817147 14.760000815 12.0
563 1 1 0.0 45.449015638 14.760000815 12.0
564 1 1 0.0 49.709856759 14.760000815 12.0
565 1 1 0.0 2.840563287 17.219999974 12.0
566 1 1 0.0 7.101408217 17.219999974 12.0
567 1 1 0.0 11.36225391 17.219999974 12.0
568 1 1 0.0 15.62309884 17.219999974 12.0
569 1 1 0.0 19.883946056 17.219999974 12.0
570 1 1 0.0 24.144788701 17.219999974 12.0
571 1 1 0.0 28.405635917 17.219999974 12.0
572 1 1 0.0 32.666480085 17.219999974 12.0
573 1 1 0.0 36.927321206 17.219999974 12.0
574 1 1 0.0 41.18817147 17.219999974 12.0
575 1 1 0.0 45.449015638 17.219999974 12.0
576 1 1 0.0 49.709856759 17.219999974 12.0
577 1 1 0.0 2.840563287 19.680000598 12.0
578 1 1 0.0 7.101408217 19.680000598 12.0
579 1 1 0.0 11.36225391 19.680000598 12.0
580 1 1 0.0 15.62309884 19.680000598 12.0
581 1 1 0.0 19.883946056 19.680000598 12.0
582 1 1 0.0 24.144788701 19.680000598 12.0
583 1 1 0.0 28.405635917 19.680000598 12.0
584 1 1 0.0 32.666480085 19.680000598 12.0
585 1 1 0.0 36.927321206 19.680000598 12.0
586 1 1 0.0 41.18817147 19.680000598 12.0
587 1 1 0.0 45.449015638 19.680000598 12.0
588 1 1 0.0 49.709856759 19.680000598 12.0
589 1 1 0.0 2.840563287 22.139999757 12.0
590 1 1 0.0 7.101408217 22.139999757 12.0
591 1 1 0.0 11.36225391 22.139999757 12.0
592 1 1 0.0 15.62309884 22.139999757 12.0
593 1 1 0.0 19.883946056 22.139999757 12.0
594 1 1 0.0 24.144788701 22.139999757 12.0
595 1 1 0.0 28.405635917 22.139999757 12.0
596 1 1 0.0 32.666480085 22.139999757 12.0
597 1 1 0.0 36.927321206 22.139999757 12.0
598 1 1 0.0 41.18817147 22.139999757 12.0
599 1 1 0.0 45.449015638 22.139999757 12.0
600 1 1 0.0 49.709856759 22.139999757 12.0
601 1 1 0.0 2.840563287 24.600000381 12.0
602 1 1 0.0 7.101408217 24.600000381 12.0
603 1 1 0.0 11.36225391 24.600000381 12.0
604 1 1 0.0 15.62309884 24.600000381 12.0
605 1 1 0.0 19.883946056 24.600000381 12.0
606 1 1 0.0 24.144788701 24.600000381 12.0
607 1 1 0.0 28.405635917 24.600000381 12.0
608 1 1 0.0 32.666480085 24.600000381 12.0
609 1 1 0.0 36.927321206 24.600000381 12.0
610 1 1 0.0 41.18817147 24.600000381 12.0
611 1 1 0.0 45.449015638 24.600000381 12.0
612 1 1 0.0 49.709856759 24.600000381 12.0
613 1 1 0.0 2.840563287 27.060001006 12.0
614 1 1 0.0 7.101408217 27.060001006 12.0
615 1 1 0.0 11.36225391 27.060001006 12.0
616 1 1 0.0 15.62309884 27.060001006 12.0
617 1 1 0.0 19.883946056 27.060001006 12.0
618 1 1 0.0 24.144788701 27.060001006 12.0
619 1 1 0.0 28.405635917 27.060001006 12.0
620 1 1 0.0 32.666480085 27.060001006 12.0
621 1 1 0.0 36.927321206 27.060001006 12.0
622 1 1 0.0 41.18817147 27.060001006 12.0
623 1 1 0.0 45.449015638 27.060001006 12.0
624 1 1 0.0 49.709856759 27.060001006 12.0
625 1 1 0.0 2.840563287 29.520001631 12.0
626 1 1 0.0 7.101408217 29.520001631 12.0
627 1 1 0.0 11.36225391 29.520001631 12.0
628 1 1 0.0 15.62309884 29.520001631 12.0
629 1 1 0.0 19.883946056 29.520001631 12.0
630 1 1 0.0 24.144788701 29.520001631 12.0
631 1 1 0.0 28.405635917 29.520001631 12.0
632 1 1 0.0 32.666480085 29.520001631 12.0
633 1 1 0.0 36.927321206 29.520001631 12.0
634 1 1 0.0 41.18817147 29.520001631 12.0
635 1 1 0.0 45.449015638 29.520001631 12.0
636 1 1 0.0 49.709856759 29.520001631 12.0
637 1 1 0.0 2.840563287 31.979999323 12.0
638 1 1 0.0 7.101408217 31.979999323 12.0
639 1 1 0.0 11.36225391 31.979999323 12.0
640 1 1 0.0 15.62309884 31.979999323 12.0
641 1 1 0.0 19.883946056 31.979999323 12.0
642 1 1 0.0 24.144788701 31.979999323 12.0
643 1 1 0.0 28.405635917 31.979999323 12.0
644 1 1 0.0 32.666480085 31.979999323 12.0
645 1 1 0.0 36.927321206 31.979999323 12.0
646 1 1 0.0 41.18817147 31.979999323 12.0
647 1 1 0.0 45.449015638 31.979999323 12.0
648 1 1 0.0 49.709856759 31.979999323 12.0
649 1 1 0.0 2.840563287 34.439999948 12.0
650 1 1 0.0 7.101408217 34.439999948 12.0
651 1 1 0.0 11.36225391 34.439999948 12.0
652 1 1 0.0 15.62309884 34.439999948 12.0
653 1 1 0.0 19.883946056 34.439999948 12.0
654 1 1 0.0 24.144788701 34.439999948 12.0
655 1 1 0.0 28.405635917 34.439999948 12.0
656 1 1 0.0 32.666480085 34.439999948 12.0
657 1 1 0.0 36.927321206 34.439999948 12.0
658 1 1 0.0 41.18817147 34.439999948 12.0
659 1 1 0.0 45.449015638 34.439999948 12.0
660 1 1 0.0 49.709856759 34.439999948 12.0
661 1 1 0.0 2.840563287 36.900000572 12.0
662 1 1 0.0 7.101408217 36.900000572 12.0
663 1 1 0.0 11.36225391 36.900000572 12.0
664 1 1 0.0 15.62309884 36.900000572 12.0
665 1 1 0.0 19.883946056 36.900000572 12.0
666 1 1 0.0 24.144788701 36.900000572 12.0
667 1 1 0.0 28.405635917 36.900000572 12.0
668 1 1 0.0 32.666480085 36.900000572 12.0
669 1 1 0.0 36.927321206 36.900000572 12.0
670 1 1 0.0 41.18817147 36.900000572 12.0
671 1 1 0.0 45.449015638 36.900000572 12.0
672 1 1 0.0 49.709856759 36.900000572 12.0
673 1 1 0.0 2.840563287 39.360001197 12.0
674 1 1 0.0 7.101408217 39.360001197 12.0
675 1 1 0.0 11.36225391 39.360001197 12.0
676 1 1 0.0 15.62309884 39.360001197 12.0
677 1 1 0.0 19.883946056 39.360001197 12.0
678 1 1 0.0 24.144788701 39.360001197 12.0
679 1 1 0.0 28.405635917 39.360001197 12.0
680 1 1 0.0 32.666480085 39.360001197 12.0
681 1 1 0.0 36.927321206 39.360001197 12.0
682 1 1 0.0 41.18817147 39.360001197 12.0
683 1 1 0.0 45.449015638 39.360001197 12.0
684 1 1 0.0 49.709856759 39.360001197 12.0
685 1 1 0.0 2.840563287 41.820004754 12.0
686 1 1 0.0 7.101408217 41.820004754 12.0
687 1 1 0.0 11.36225391 41.820004754 12.0
688 1 1 0.0 15.62309884 41.820004754 12.0
689 1 1 0.0 19.883946056 41.820004754 12.0
690 1 1 0.0 24.144788701 41.820004754 12.0
691 1 1 0.0 28.405635917 41.820004754 12.0
692 1 1 0.0 32.666480085 41.820004754 12.0
693 1 1 0.0 36.927321206 41.820004754 12.0
694 1 1 0.0 41.18817147 41.820004754 12.0
695 1 1 0.0 45.449015638 41.820004754 12.0
696 1 1 0.0 49.709856759 41.820004754 12.0
697 1 1 0.0 2.840563287 44.279999514 12.0
698 1 1 0.0 7.101408217 44.279999514 12.0
699 1 1 0.0 11.36225391 44.279999514 12.0
700 1 1 0.0 15.62309884 44.279999514 12.0
701 1 1 0.0 19.883946056 44.279999514 12.0
702 1 1 0.0 24.144788701 44.279999514 12.0
703 1 1 0.0 28.405635917 44.279999514 12.0
704 1 1 0.0 32.666480085 44.279999514 12.0
705 1 1 0.0 36.927321206 44.279999514 12.0
706 1 1 0.0 41.18817147 44.279999514 12.0
707 1 1 0.0 45.449015638 44.279999514 12.0
708 1 1 0.0 49.709856759 44.279999514 12.0