LAMMPS data file via write_data, version 22 Dec 2022, timestep = 22

2 atoms
2 atom types

0.028889292191577362 3.031110707808426 xlo xhi
0.028889292191577362 3.031110707808426 ylo yhi
0.028889292191577362 3.031110707808426 zlo zhi

Masses

1 47.867
2 51.996

Atoms # atomic

2 2 1.5300000000000011 1.5300000000000011 1.5300000000000011 0 0 0
1 1 0.028889292191577542 0.028889292191577542 3.0311107078084256 0 0 -1

Velocities

2 0 0 0
1 0 0 0
