LAMMPS (22 Dec 2022)
  using 1 OpenMP thread(s) per MPI task
Loaded 1 plugins from C:\Program Files\LAMMPS 64-bit 23Jun2022\plugins
Loaded 0 plugins from C:\Program Files\LAMMPS 64-bit 23Jun2022-MPI\plugins
Loaded 1 plugins from C:\Program Files\LAMMPS 64-bit 22Dec2022-MSMPI\plugins
Loaded 1 plugins from C:\Program Files\LAMMPS 64-bit 28Mar2023-MPI\plugins
# Compute elastic constant tensor for a crystal
#
# Written by Aidan Thompson (Sandia, athomps@sandia.gov)
#
#  This script uses the following three include files.
#
#   init.mod      (must be modified for different crystal structures)
# 	       	  Define units, deformation parameters and initial
#		  configuration of the atoms and simulation cell.
#
#
#   potential.mod    (must be modified for different pair styles)
# 		     Define pair style and other attributes
#		     not stored in restart file
#
#
#   displace.mod    (displace.mod should not need to be modified)
# 		    Perform positive and negative box displacements
# 		    in direction ${dir} and size ${up}.
# 		    It uses the resultant changes
#		    in stress to compute one
# 		    row of the elastic stiffness tensor
#
#		    Inputs variables:
#		    	   dir = the Voigt deformation component
#		    		    (1,2,3,4,5,6)
#		    Global constants:
#       	    	   up = the deformation magnitude (strain units)
#       		   cfac = conversion from LAMMPS pressure units to
#               	   output units for elastic constants
#
#
#  To run this on a different system, it should only be necessary to
#  modify the files init.mod and potential.mod. In order to calculate
#  the elastic constants correctly, care must be taken to specify
#  the correct units in init.mod (units, cfac and cunits). It is also
#  important to verify that the minimization of energy w.r.t atom
#  positions in the deformed cell is fully converged.
#  One indication of this is that the elastic constants are insensitive
#  to the choice of the variable ${up} in init.mod. Another is to check
#  the final max and two-norm forces reported in the log file. If you know
#  that minimization is not required, you can set maxiter = 0.0 in
#  init.mod.
#

include init.mod
# NOTE: This script can be modified for different atomic structures,
# units, etc. See in.elastic for more info.
#

# Define the finite deformation size. Try several values of this
# variable to verify that results do not depend on it.
variable up equal 1.0e-6

# Define the amount of random jiggle for atoms
# This prevents atoms from staying on saddle points
variable atomjiggle equal 1.0e-5

# Uncomment one of these blocks, depending on what units
# you are using in LAMMPS and for output

# metal units, elastic constants in eV/A^3
#units		metal
#variable cfac equal 6.2414e-7
#variable cunits string eV/A^3

# metal units, elastic constants in GPa
units		metal
variable cfac equal 1.0e-4
variable cunits string GPa

# real units, elastic constants in GPa
#units		real
#variable cfac equal 1.01325e-4
#variable cunits string GPa

# Define minimization parameters
variable etol equal 0.0
variable ftol equal 1.0e-10
variable maxiter equal 1000
variable maxeval equal 100000
variable dmax equal 1.0e-2

# generate the box and atom positions using a diamond lattice

dimension    3
boundary     p p p
read_data    data.in
Reading data file ...
  orthogonal box = (0 0 0) to (3.02 3.02 3.02)
  1 by 2 by 2 MPI processor grid
  reading atoms ...
  2 atoms
  read_data CPU = 0.001 seconds
#replicate    2 3 4
replicate    2 3 4
Replication is creating a 2x3x4 = 24 times larger system...
  orthogonal box = (0 0 0) to (6.04 9.06 12.08)
  1 by 2 by 2 MPI processor grid
  48 atoms
  replicate CPU = 0.000 seconds
change_box   all triclinic
Changing box ...
  triclinic box = (0 0 0) to (6.04 9.06 12.08) with tilt (0 0 0)

# Need to set mass to something, just to satisfy LAMMPS
mass 1 1.0e-20

include potential.mod
# NOTE: This script can be modified for different pair styles
# See in.elastic for more info.

# Choose potential
#-----------------------
#pair_style	sw
#pair_coeff * * Si.sw Si
#-----------------------
#pair_style morse	2.83994742	# D0[eV] a[1/A] r0[A] rc[A], 1NN for BCC
#pair_coeff 1 1	2.1173	1.0202	2.4595	2.6497	#	Fe-Fe
#-----------------------
#pair_style smatb # R0(A)   p       q     A(eV)   xi(eV)  Rcs(A)   Rc(A), 4NN: Rcs=4NN, Rc=(4NN+5NN)/2
#pair_coeff 1 1	2.4802	7.0149	2.3779	0.3144	3.0551	4.033	4.176	#	Co	Co
#-----------------------
#pair_style eam/alloy
#pair_coeff * * AlCrFeCoNi_Zhou04.eam.alloy Fe
#-----------------------
pair_style meam
pair_coeff * * ./../../library.meam Ti Cr N ./../../TiCrN.meam Ti Cr
#-----------------------

# Setup neighbor style
neighbor 1.0 nsq
neigh_modify once no every 1 delay 0 check yes

# Setup minimization style
min_style	     cg
min_modify	     dmax ${dmax} line quadratic
min_modify	     dmax 0.01 line quadratic

# Setup output
thermo		1
thermo_style custom step temp pe press pxx pyy pzz pxy pxz pyz lx ly lz vol
thermo_modify norm no

# Compute initial state
fix 3 all box/relax  aniso 0.0
minimize ${etol} ${ftol} ${maxiter} ${maxeval}
minimize 0 ${ftol} ${maxiter} ${maxeval}
minimize 0 1e-10 ${maxiter} ${maxeval}
minimize 0 1e-10 1000 ${maxeval}
minimize 0 1e-10 1000 100000
Neighbor list info ...
  update: every = 1 steps, delay = 0 steps, check = yes
  max neighbors/atom: 2000, page size: 100000
  master list distance cutoff = 6
  ghost atom cutoff = 6
  2 neighbor lists, perpetual/occasional/extra = 2 0 0
  (1) pair meam, perpetual
      attributes: full, newton on
      pair build: full/nsq
      stencil: none
      bin: none
  (2) pair meam, perpetual, half/full from (1)
      attributes: half, newton on
      pair build: halffull/newton
      stencil: none
      bin: none
Per MPI rank memory allocation (min/avg/max) = 9.781 | 9.781 | 9.781 Mbytes
   Step          Temp          PotEng         Press           Pxx            Pyy            Pzz            Pxy            Pxz            Pyz             Lx             Ly             Lz           Volume    
         0   0             -220.96528     -21468.139     -21468.139     -21468.139     -21468.139      6.532255e-12   4.9065858e-11 -2.5970849e-11  6.04           9.06           12.08          661.04659    
         1   0             -220.96791     -21117.728     -21117.728     -21117.728     -21117.728     -2.1488462e-11  6.5104318e-12  1.1170353e-11  6.039396       9.059094       12.078792      660.8483     
         2   0             -220.97051     -20766.847     -20766.847     -20766.847     -20766.847      4.3336734e-12 -1.6062201e-11 -3.5422665e-12  6.038792       9.058188       12.077584      660.65004    
         3   0             -220.97305     -20415.495     -20415.495     -20415.495     -20415.495     -2.3835466e-12 -2.1377808e-11 -4.4607238e-12  6.038188       9.057282       12.076376      660.45183    
         4   0             -220.97556     -20063.671     -20063.671     -20063.671     -20063.671     -8.1664166e-12  2.598941e-11   2.6519806e-12  6.037584       9.056376       12.075168      660.25365    
         5   0             -220.97802     -19711.374     -19711.374     -19711.374     -19711.374      2.8713452e-12  2.3496022e-11  8.3120337e-12  6.03698        9.05547        12.07396       660.05552    
         6   0             -220.98043     -19358.603     -19358.603     -19358.603     -19358.603     -2.7039221e-11 -1.7269285e-12  7.084619e-12   6.036376       9.054564       12.072752      659.85742    
         7   0             -220.9828      -19005.358     -19005.358     -19005.358     -19005.358     -1.8722108e-11 -9.581011e-12   5.477271e-12   6.035772       9.053658       12.071544      659.65937    
         8   0             -220.98513     -18651.638     -18651.638     -18651.638     -18651.638     -5.8553474e-13 -1.9631376e-11  1.6866631e-11  6.035168       9.052752       12.070336      659.46135    
         9   0             -220.98741     -18297.441     -18297.441     -18297.441     -18297.441      4.8474146e-11  2.2175193e-12  1.8499001e-11  6.034564       9.051846       12.069128      659.26337    
        10   0             -220.98965     -17942.768     -17942.768     -17942.768     -17942.768     -1.4775475e-11 -1.3047653e-11  1.6109254e-12  6.03396        9.05094        12.06792       659.06543    
        11   0             -220.99185     -17587.618     -17587.618     -17587.618     -17587.618     -7.9321891e-13  5.2307527e-13 -1.8020787e-11  6.033356       9.050034       12.066712      658.86754    
        12   0             -220.994       -17231.993     -17231.993     -17231.993     -17231.993      7.8217763e-12 -4.7850447e-12 -1.4009125e-11  6.032752       9.049128       12.065504      658.66968    
        13   0             -220.9961      -16875.895     -16875.895     -16875.895     -16875.895      2.7983378e-11 -2.0623238e-11 -3.8958757e-11  6.032148       9.048222       12.064296      658.47186    
        14   0             -220.99816     -16519.325     -16519.325     -16519.325     -16519.325     -2.6900378e-11 -1.6989939e-11  3.06866e-11    6.031544       9.047316       12.063088      658.27408    
        15   0             -221.00018     -16162.28      -16162.28      -16162.28      -16162.28      -6.0815091e-12 -8.1258613e-12  1.647134e-11   6.03094        9.04641        12.06188       658.07634    
        16   0             -221.00215     -15804.761     -15804.761     -15804.761     -15804.761     -1.2106887e-11  1.8461894e-11  2.6277571e-12  6.030336       9.045504       12.060672      657.87864    
        17   0             -221.00408     -15446.766     -15446.766     -15446.766     -15446.766      6.5990009e-12 -1.0911427e-11  3.1517206e-11  6.029732       9.044598       12.059464      657.68098    
        18   0             -221.00596     -15088.295     -15088.295     -15088.295     -15088.295     -1.0899842e-11  3.8061976e-11  1.4152765e-11  6.029128       9.043692       12.058256      657.48336    
        19   0             -221.0078      -14729.347     -14729.347     -14729.347     -14729.347     -2.1836877e-11  3.0614343e-12 -8.8121948e-12  6.028524       9.042786       12.057048      657.28578    
        20   0             -221.00959     -14369.922     -14369.922     -14369.922     -14369.922     -1.649922e-11  -4.9488328e-12  1.7883474e-11  6.02792        9.04188        12.05584       657.08824    
        21   0             -221.01134     -14010.017     -14010.017     -14010.017     -14010.017     -1.8677889e-11  5.3734251e-12 -2.7501782e-12  6.027316       9.040974       12.054632      656.89074    
        22   0             -221.01305     -13649.632     -13649.632     -13649.632     -13649.632     -1.5270193e-11 -8.2868739e-12 -3.4950462e-11  6.026712       9.040068       12.053424      656.69328    
        23   0             -221.01471     -13288.766     -13288.766     -13288.766     -13288.766     -7.2521829e-12 -3.2175271e-13  9.1445508e-12  6.026108       9.039162       12.052216      656.49585    
        24   0             -221.01632     -12927.418     -12927.418     -12927.418     -12927.418      1.328999e-11  -1.5499593e-12  1.529632e-11   6.025504       9.038256       12.051008      656.29847    
        25   0             -221.01789     -12565.589     -12565.589     -12565.589     -12565.589      1.3426336e-11  1.7037736e-11  2.9280168e-11  6.0249         9.03735        12.0498        656.10113    
        26   0             -221.01942     -12203.276     -12203.276     -12203.276     -12203.276     -1.9250537e-11 -1.8831048e-11  2.6526184e-11  6.024296       9.036444       12.048592      655.90382    
        27   0             -221.0209      -11840.479     -11840.479     -11840.479     -11840.479     -4.4998025e-11  1.3835066e-11  1.8684121e-11  6.023692       9.035538       12.047384      655.70656    
        28   0             -221.02233     -11477.197     -11477.197     -11477.197     -11477.197     -2.1226372e-11  5.2236304e-12 -2.9739078e-11  6.023088       9.034632       12.046176      655.50933    
        29   0             -221.02372     -11113.429     -11113.429     -11113.429     -11113.429     -7.2141554e-12 -7.6002941e-12 -1.6625643e-11  6.022484       9.033726       12.044968      655.31215    
        30   0             -221.02507     -10749.176     -10749.176     -10749.176     -10749.176     -2.5988346e-11  8.7141194e-12  2.8119369e-11  6.02188        9.03282        12.04376       655.115      
        31   0             -221.02637     -10384.435     -10384.435     -10384.435     -10384.435      1.3845927e-11 -2.9935686e-11 -2.1575422e-11  6.021276       9.031914       12.042552      654.9179     
        32   0             -221.02762     -10019.206     -10019.206     -10019.206     -10019.206      2.5149515e-12  1.0502293e-11  1.2565396e-12  6.020672       9.031008       12.041344      654.72083    
        33   0             -221.02883     -9653.4919     -9653.4919     -9653.4919     -9653.4919      1.2552697e-11 -1.6594712e-11 -6.6582673e-12  6.020068       9.030102       12.040136      654.5238     
        34   0             -221.03        -9287.2954     -9287.2954     -9287.2954     -9287.2954      4.4408483e-12 -9.6845789e-13 -2.6003944e-11  6.019464       9.029196       12.038928      654.32682    
        35   0             -221.03112     -8920.6154     -8920.6154     -8920.6154     -8920.6154      6.0493806e-12  1.5822908e-11  2.0012325e-11  6.01886        9.02829        12.03772       654.12987    
        36   0             -221.03219     -8553.4511     -8553.4511     -8553.4511     -8553.4511     -5.797518e-12   1.0200433e-12  8.4578594e-12  6.018256       9.027384       12.036512      653.93296    
        37   0             -221.03322     -8185.8018     -8185.8018     -8185.8018     -8185.8018      2.4241728e-11  1.2159177e-12 -3.9402536e-11  6.017652       9.026478       12.035304      653.73609    
        38   0             -221.0342      -7817.6667     -7817.6667     -7817.6667     -7817.6667      7.29616e-12    1.4348748e-11 -4.3326925e-11  6.017048       9.025572       12.034096      653.53926    
        39   0             -221.03514     -7449.0446     -7449.0446     -7449.0446     -7449.0446     -5.6729447e-11 -1.8539027e-11 -2.4043732e-11  6.016444       9.024666       12.032888      653.34247    
        40   0             -221.03603     -7079.9344     -7079.9344     -7079.9344     -7079.9344     -1.5633614e-11  1.4612712e-11  3.6808374e-11  6.01584        9.02376        12.03168       653.14572    
        41   0             -221.03688     -6710.3354     -6710.3354     -6710.3354     -6710.3354     -1.3309965e-11  2.4603063e-11  1.2829348e-11  6.015236       9.022854       12.030472      652.94901    
        42   0             -221.03768     -6340.2467     -6340.2467     -6340.2467     -6340.2467      1.0100347e-11 -9.9634107e-12  7.119155e-12   6.014632       9.021948       12.029264      652.75234    
        43   0             -221.03843     -5969.6676     -5969.6676     -5969.6676     -5969.6676     -5.1438759e-11 -2.8885561e-11  8.893107e-12   6.014028       9.021042       12.028056      652.55571    
        44   0             -221.03914     -5598.5971     -5598.5971     -5598.5971     -5598.5971     -1.0745634e-11 -4.502427e-11   2.5051354e-11  6.013424       9.020136       12.026848      652.35911    
        45   0             -221.03981     -5227.0346     -5227.0346     -5227.0346     -5227.0346      3.8246202e-12  3.0547997e-11 -2.6039099e-11  6.01282        9.01923        12.02564       652.16256    
        46   0             -221.04043     -4854.9791     -4854.9791     -4854.9791     -4854.9791      4.6490799e-11  2.3216314e-11  2.4043337e-12  6.012216       9.018324       12.024432      651.96605    
        47   0             -221.041       -4482.4299     -4482.4299     -4482.4299     -4482.4299     -8.0915001e-12  2.4400256e-11  1.4873837e-11  6.011612       9.017418       12.023224      651.76957    
        48   0             -221.04153     -4109.3861     -4109.3861     -4109.3861     -4109.3861      3.3455616e-11 -3.4909454e-11  5.101626e-11   6.011008       9.016512       12.022016      651.57314    
        49   0             -221.04201     -3735.847      -3735.847      -3735.847      -3735.847       2.2333889e-11 -8.6275903e-12 -3.5841622e-12  6.010404       9.015606       12.020808      651.37674    
        50   0             -221.04244     -3361.8117     -3361.8117     -3361.8117     -3361.8117      3.9325132e-11 -4.2894871e-11 -4.8050791e-11  6.0098         9.0147         12.0196        651.18039    
        51   0             -221.04283     -2987.2794     -2987.2794     -2987.2794     -2987.2794     -2.7914133e-11 -5.6185744e-12  4.4607041e-11  6.009196       9.013794       12.018392      650.98407    
        52   0             -221.04317     -2612.2492     -2612.2492     -2612.2492     -2612.2492      2.1742669e-12  2.9980462e-11  4.4210505e-11  6.008592       9.012888       12.017184      650.7878     
        53   0             -221.04347     -2236.7205     -2236.7205     -2236.7205     -2236.7205     -2.7614528e-13 -2.0317676e-11  2.0847405e-12  6.007988       9.011982       12.015976      650.59156    
        54   0             -221.04372     -1860.6959     -1860.6959     -1860.6959     -1860.6959     -9.0378753e-12  4.7262676e-12 -1.5033462e-11  6.007384       9.011076       12.014768      650.39536    
        55   0             -221.04393     -1484.1783     -1484.1783     -1484.1783     -1484.1783     -8.1334805e-11  1.4131785e-11  2.6442596e-11  6.00678        9.01017        12.01356       650.1992     
        56   0             -221.04409     -1107.1667     -1107.1667     -1107.1667     -1107.1667     -5.3331402e-12  4.4717121e-11 -1.3853841e-12  6.006176       9.009264       12.012352      650.00308    
        57   0             -221.0442      -729.66014     -729.66014     -729.66014     -729.66014     -3.2165306e-11 -1.0461951e-11 -9.9230278e-12  6.005572       9.008358       12.011144      649.80701    
        58   0             -221.04426     -351.65742     -351.65742     -351.65742     -351.65742      1.1737083e-11 -2.849453e-12  -4.2570656e-11  6.004968       9.007452       12.009936      649.61097    
        59   0             -221.04428     -0.011371975   -0.011371975   -0.011371975   -0.011371975    3.4133164e-12  4.1084713e-13 -2.0422526e-11  6.0044068      9.0066102      12.008814      649.42886    
        60   0             -221.04428     -2.4017338e-07 -2.4005552e-07 -2.4042049e-07 -2.4004415e-07 -1.5284756e-11  3.0163027e-11  2.5660827e-11  6.0044068      9.0066102      12.008814      649.42885    
        61   0             -221.04428      2.4338128e-10  2.6184658e-10  2.3411439e-10  2.3418287e-10 -4.1995855e-12  9.9459245e-12 -6.2483002e-13  6.0044068      9.0066102      12.008814      649.42885    
Loop time of 0.0132655 on 4 procs for 61 steps with 48 atoms

29.4% CPU use with 4 MPI tasks x 1 OpenMP threads

Minimization stats:
  Stopping criterion = force tolerance
  Energy initial, next-to-last, final = 
     -220.965279017715  -221.044283568009  -221.044283568009
  Force two-norm initial, final = 15.341815 4.3144024e-13
  Force max component initial, final = 8.8576008 1.0676649e-13
  Final line search alpha, max atom move = 1 1.0676649e-13
  Iterations, force evaluations = 61 64

MPI task timing breakdown:
Section |  min time  |  avg time  |  max time  |%varavg| %total
---------------------------------------------------------------
Pair    | 0.009221   | 0.0096695  | 0.010134   |   0.4 | 72.89
Neigh   | 0          | 0          | 0          |   0.0 |  0.00
Comm    | 0.000498   | 0.0009605  | 0.001408   |   0.0 |  7.24
Output  | 0.000567   | 0.000598   | 0.000675   |   0.0 |  4.51
Modify  | 0          | 0          | 0          |   0.0 |  0.00
Other   |            | 0.002038   |            |       | 15.36

Nlocal:             12 ave          12 max          12 min
Histogram: 4 0 0 0 0 0 0 0 0 0
Nghost:            293 ave         293 max         293 min
Histogram: 4 0 0 0 0 0 0 0 0 0
Neighs:            348 ave         348 max         348 min
Histogram: 4 0 0 0 0 0 0 0 0 0
FullNghs:          696 ave         696 max         696 min
Histogram: 4 0 0 0 0 0 0 0 0 0

Total # of neighbors = 2784
Ave neighs/atom = 58
Neighbor list builds = 0
Dangerous builds = 0

variable tmp equal pxx
variable pxx0 equal ${tmp}
variable pxx0 equal 2.61846575614043e-10
variable tmp equal pyy
variable pyy0 equal ${tmp}
variable pyy0 equal 2.34114393834836e-10
variable tmp equal pzz
variable pzz0 equal ${tmp}
variable pzz0 equal 2.34182868357748e-10
variable tmp equal pyz
variable pyz0 equal ${tmp}
variable pyz0 equal -6.24830021568552e-13
variable tmp equal pxz
variable pxz0 equal ${tmp}
variable pxz0 equal 9.94592445291312e-12
variable tmp equal pxy
variable pxy0 equal ${tmp}
variable pxy0 equal -4.19958547334239e-12

variable tmp equal lx
variable lx0 equal ${tmp}
variable lx0 equal 6.00440680813061
variable tmp equal ly
variable ly0 equal ${tmp}
variable ly0 equal 9.00661021219591
variable tmp equal lz
variable lz0 equal ${tmp}
variable lz0 equal 12.0088136162612

# These formulas define the derivatives w.r.t. strain components
# Constants uses $, variables use v_
variable d1 equal -(v_pxx1-${pxx0})/(v_delta/v_len0)*${cfac}
variable d1 equal -(v_pxx1-2.61846575614043e-10)/(v_delta/v_len0)*${cfac}
variable d1 equal -(v_pxx1-2.61846575614043e-10)/(v_delta/v_len0)*0.0001
variable d2 equal -(v_pyy1-${pyy0})/(v_delta/v_len0)*${cfac}
variable d2 equal -(v_pyy1-2.34114393834836e-10)/(v_delta/v_len0)*${cfac}
variable d2 equal -(v_pyy1-2.34114393834836e-10)/(v_delta/v_len0)*0.0001
variable d3 equal -(v_pzz1-${pzz0})/(v_delta/v_len0)*${cfac}
variable d3 equal -(v_pzz1-2.34182868357748e-10)/(v_delta/v_len0)*${cfac}
variable d3 equal -(v_pzz1-2.34182868357748e-10)/(v_delta/v_len0)*0.0001
variable d4 equal -(v_pyz1-${pyz0})/(v_delta/v_len0)*${cfac}
variable d4 equal -(v_pyz1--6.24830021568552e-13)/(v_delta/v_len0)*${cfac}
variable d4 equal -(v_pyz1--6.24830021568552e-13)/(v_delta/v_len0)*0.0001
variable d5 equal -(v_pxz1-${pxz0})/(v_delta/v_len0)*${cfac}
variable d5 equal -(v_pxz1-9.94592445291312e-12)/(v_delta/v_len0)*${cfac}
variable d5 equal -(v_pxz1-9.94592445291312e-12)/(v_delta/v_len0)*0.0001
variable d6 equal -(v_pxy1-${pxy0})/(v_delta/v_len0)*${cfac}
variable d6 equal -(v_pxy1--4.19958547334239e-12)/(v_delta/v_len0)*${cfac}
variable d6 equal -(v_pxy1--4.19958547334239e-12)/(v_delta/v_len0)*0.0001

displace_atoms all random ${atomjiggle} ${atomjiggle} ${atomjiggle} 87287 units box
displace_atoms all random 1e-05 ${atomjiggle} ${atomjiggle} 87287 units box
displace_atoms all random 1e-05 1e-05 ${atomjiggle} 87287 units box
displace_atoms all random 1e-05 1e-05 1e-05 87287 units box
Displacing atoms ...

# Write restart
unfix 3
write_restart restart.equil
System init for write_restart ...

# uxx Perturbation

variable dir equal 1
include displace.mod
# NOTE: This script should not need to be
# modified. See in.elastic for more info.
#
# Find which reference length to use

if "${dir} == 1" then    "variable len0 equal ${lx0}"
variable len0 equal ${lx0}
variable len0 equal 6.00440680813061
if "${dir} == 2" then    "variable len0 equal ${ly0}"
if "${dir} == 3" then    "variable len0 equal ${lz0}"
if "${dir} == 4" then    "variable len0 equal ${lz0}"
if "${dir} == 5" then    "variable len0 equal ${lz0}"
if "${dir} == 6" then    "variable len0 equal ${ly0}"

# Reset box and simulation parameters

clear
  using 1 OpenMP thread(s) per MPI task
Loaded 1 plugins from C:\Program Files\LAMMPS 64-bit 23Jun2022\plugins
Loaded 0 plugins from C:\Program Files\LAMMPS 64-bit 23Jun2022-MPI\plugins
Loaded 1 plugins from C:\Program Files\LAMMPS 64-bit 22Dec2022-MSMPI\plugins
Loaded 1 plugins from C:\Program Files\LAMMPS 64-bit 28Mar2023-MPI\plugins
box tilt large

The 'box' command has been removed and will be ignored

read_restart restart.equil
Reading restart file ...
  restart file = 22 Dec 2022, LAMMPS = 22 Dec 2022
  restoring atom style atomic from restart
  triclinic box = (0.017796596 0.026694894 0.035593192) to (6.0222034 9.0333051 12.044407) with tilt (0 0 0)
  1 by 2 by 2 MPI processor grid
  pair style meam stores no restart info
  48 atoms
  read_restart CPU = 0.000 seconds
include potential.mod
# NOTE: This script can be modified for different pair styles
# See in.elastic for more info.

# Choose potential
#-----------------------
#pair_style	sw
#pair_coeff * * Si.sw Si
#-----------------------
#pair_style morse	2.83994742	# D0[eV] a[1/A] r0[A] rc[A], 1NN for BCC
#pair_coeff 1 1	2.1173	1.0202	2.4595	2.6497	#	Fe-Fe
#-----------------------
#pair_style smatb # R0(A)   p       q     A(eV)   xi(eV)  Rcs(A)   Rc(A), 4NN: Rcs=4NN, Rc=(4NN+5NN)/2
#pair_coeff 1 1	2.4802	7.0149	2.3779	0.3144	3.0551	4.033	4.176	#	Co	Co
#-----------------------
#pair_style eam/alloy
#pair_coeff * * AlCrFeCoNi_Zhou04.eam.alloy Fe
#-----------------------
pair_style meam
pair_coeff * * ./../../library.meam Ti Cr N ./../../TiCrN.meam Ti Cr
#-----------------------

# Setup neighbor style
neighbor 1.0 nsq
neigh_modify once no every 1 delay 0 check yes

# Setup minimization style
min_style	     cg
min_modify	     dmax ${dmax} line quadratic
min_modify	     dmax 0.01 line quadratic

# Setup output
thermo		1
thermo_style custom step temp pe press pxx pyy pzz pxy pxz pyz lx ly lz vol
thermo_modify norm no

# Negative deformation

variable delta equal -${up}*${len0}
variable delta equal -1e-06*${len0}
variable delta equal -1e-06*6.00440680813061
variable deltaxy equal -${up}*xy
variable deltaxy equal -1e-06*xy
variable deltaxz equal -${up}*xz
variable deltaxz equal -1e-06*xz
variable deltayz equal -${up}*yz
variable deltayz equal -1e-06*yz
if "${dir} == 1" then    "change_box all x delta 0 ${delta} xy delta ${deltaxy} xz delta ${deltaxz} remap units box"
change_box all x delta 0 ${delta} xy delta ${deltaxy} xz delta ${deltaxz} remap units box
change_box all x delta 0 -6.00440680813061e-06 xy delta ${deltaxy} xz delta ${deltaxz} remap units box
change_box all x delta 0 -6.00440680813061e-06 xy delta -0 xz delta ${deltaxz} remap units box
change_box all x delta 0 -6.00440680813061e-06 xy delta -0 xz delta -0 remap units box
Changing box ...
  triclinic box = (0.017796596 0.026694894 0.035593192) to (6.0221974 9.0333051 12.044407) with tilt (0 0 0)
  triclinic box = (0.017796596 0.026694894 0.035593192) to (6.0221974 9.0333051 12.044407) with tilt (0 0 0)
  triclinic box = (0.017796596 0.026694894 0.035593192) to (6.0221974 9.0333051 12.044407) with tilt (0 0 0)
if "${dir} == 2" then    "change_box all y delta 0 ${delta} yz delta ${deltayz} remap units box"
if "${dir} == 3" then    "change_box all z delta 0 ${delta} remap units box"
if "${dir} == 4" then    "change_box all yz delta ${delta} remap units box"
if "${dir} == 5" then    "change_box all xz delta ${delta} remap units box"
if "${dir} == 6" then    "change_box all xy delta ${delta} remap units box"

# Relax atoms positions

minimize ${etol} ${ftol} ${maxiter} ${maxeval}
minimize 0 ${ftol} ${maxiter} ${maxeval}
minimize 0 1e-10 ${maxiter} ${maxeval}
minimize 0 1e-10 1000 ${maxeval}
minimize 0 1e-10 1000 100000
Neighbor list info ...
  update: every = 1 steps, delay = 0 steps, check = yes
  max neighbors/atom: 2000, page size: 100000
  master list distance cutoff = 6
  ghost atom cutoff = 6
  2 neighbor lists, perpetual/occasional/extra = 2 0 0
  (1) pair meam, perpetual
      attributes: full, newton on
      pair build: full/nsq
      stencil: none
      bin: none
  (2) pair meam, perpetual, half/full from (1)
      attributes: half, newton on
      pair build: halffull/newton
      stencil: none
      bin: none
Per MPI rank memory allocation (min/avg/max) = 9.77 | 9.771 | 9.773 Mbytes
   Step          Temp          PotEng         Press           Pxx            Pyy            Pzz            Pxy            Pxz            Pyz             Lx             Ly             Lz           Volume    
        61   0             -221.04428      1.254916       3.4926552      0.13605493     0.1360378     -7.1355824e-06  1.3358263e-06  5.0672437e-06  6.0044008      9.0066102      12.008814      649.42821    
        62   0             -221.04428      1.2548873      3.4926054      0.13607254     0.13598395    -1.8857201e-05  1.6946044e-06 -2.4402637e-06  6.0044008      9.0066102      12.008814      649.42821    
        63   0             -221.04428      1.2531021      3.4909219      0.13634586     0.13203843    -0.0010249203   6.2504362e-05  0.00014935465  6.0044008      9.0066102      12.008814      649.42821    
        64   0             -221.04446     -1.6914006      0.74283553     0.50277501    -6.3198123     -1.6774795      0.1343956      0.22910233     6.0044008      9.0066102      12.008814      649.42821    
        65   0             -221.05274     -140.79776     -128.9706       18.832877     -312.25555     -80.652393      6.5589211      11.026612      6.0044008      9.0066102      12.008814      649.42821    
        66   0             -221.07346     -488.21175     -452.30282      64.206854     -1076.5393     -277.91241      22.800275      38.037323      6.0044008      9.0066102      12.008814      649.42821    
        67   0             -221.10666     -1043.6586     -967.65168      135.67955     -2299.0037     -593.3296       49.181396      81.380396      6.0044008      9.0066102      12.008814      649.42821    
        68   0             -221.15245     -1807.0749     -1673.0337      231.93775     -3980.1287     -1027.0452      86.176363      141.23089      6.0044008      9.0066102      12.008814      649.42821    
        69   0             -221.21119     -2780.5865     -2568.1213      351.75798     -6125.3963     -1580.6451      134.47708      217.89554      6.0044008      9.0066102      12.008814      649.42821    
        70   0             -221.28449     -3979.5557     -3665.2633      496.13272     -8769.5364     -2263.8819      195.49514      312.09324      6.0044008      9.0066102      12.008814      649.42821    
        71   0             -221.38135     -5501.6761     -5056.4929      680.22996     -12128.765     -3136.684       274.6967       427.20483      6.0044008      9.0066102      12.008814      649.42821    
        72   0             -221.52127     -7478.0986     -6873.3229      932.32046     -16493.293     -4290.9154      378.5209       555.63428      6.0044008      9.0066102      12.008814      649.42821    
        73   0             -221.70596     -9842.2951     -9011.0528      1210.7725     -21726.605     -5705.4533      506.99331      688.62957      6.0044008      9.0066102      12.008814      649.42821    
        74   0             -221.9236      -12595.089     -11363.17       1427.2122     -27849.31      -7371.7644      671.66672      858.22477      6.0044008      9.0066102      12.008814      649.42821    
        75   0             -222.17928     -15850.586     -13950.422      1526.2711     -35127.607     -9352.195       891.51675      1089.3614      6.0044008      9.0066102      12.008814      649.42821    
        76   0             -222.47786     -19650.211     -16732.46       1449.4126     -43667.585     -11671.937      1184.1678      1396.7687      6.0044008      9.0066102      12.008814      649.42821    
        77   0             -222.82532     -24036.01      -19662.141      1134.6613     -53580.549     -14357.702      1572.5067      1799.296       6.0044008      9.0066102      12.008814      649.42821    
        78   0             -223.2173      -28915.048     -22608.934      537.36538     -64673.575     -17353.318      2072.0347      2308.2563      6.0044008      9.0066102      12.008814      649.42821    
        79   0             -223.64818     -34181.23      -25469.289     -355.90198     -76718.498     -20593.896      2696.6479      2934.4124      6.0044008      9.0066102      12.008814      649.42821    
        80   0             -224.11873     -39809.715     -28215.484     -1546.134      -89667.525     -24064.574      3469.6895      3699.0707      6.0044008      9.0066102      12.008814      649.42821    
        81   0             -224.6302      -45781.582     -30839.017     -3022.8589     -103482.87     -27755.213      4418.5315      4628.177       6.0044008      9.0066102      12.008814      649.42821    
        82   0             -225.18433     -52082.519     -33345.639     -4769.1459     -118132.77     -31659.329      5575.0763      5752.5563      6.0044008      9.0066102      12.008814      649.42821    
        83   0             -225.78332     -58701.789     -35751.076     -6765.5054     -133588.79     -35772.124      6976.2524      7107.9286      6.0044008      9.0066102      12.008814      649.42821    
        84   0             -226.42988     -65631.982     -38078.258     -8993.4348     -149824.25     -40086.604      8663.4899      8733.9703      6.0044008      9.0066102      12.008814      649.42821    
        85   0             -227.12743     -72869.501     -40356.643     -11439.264     -166812.6      -44587.822      10680.667      10671.762      6.0044008      9.0066102      12.008814      649.42821    
        86   0             -227.88028     -80414.822     -42623.406     -14096.413     -184524.65     -49249.704      13074.855      12965.083      6.0044008      9.0066102      12.008814      649.42821    
        87   0             -228.68733     -88209.927     -44905.674     -16943.613     -202780.49     -53998.534      15874.438      15639.894      6.0044008      9.0066102      12.008814      649.42821    
        88   0             -229.54567     -96179.759     -47232.025     -19957.633     -221349.62     -58749.205      19095.605      18711.236      6.0044008      9.0066102      12.008814      649.42821    
        89   0             -230.45685     -104291.16     -49646.411     -23136.003     -240091.07     -63451.468      22765.535      22205.132      6.0044008      9.0066102      12.008814      649.42821    
        90   0             -231.42121     -112497.85     -52188.657     -26477.142     -258827.76     -68066.527      26904.101      26141.109      6.0044008      9.0066102      12.008814      649.42821    
        91   0             -232.43407     -120714.5      -54883.514     -29965.325     -277294.65     -72561.746      31506.818      30515.572      6.0044008      9.0066102      12.008814      649.42821    
        92   0             -233.49752     -128917.07     -57769.005     -33611.751     -295370.45     -76966.929      36594.147      35348.655      6.0044008      9.0066102      12.008814      649.42821    
        93   0             -234.61423     -137087.22     -60880.272     -37432.976     -312948.4      -81338.467      42187.506      40661.033      6.0044008      9.0066102      12.008814      649.42821    
        94   0             -235.72888     -144816.08     -64083.044     -41252.734     -329112.46     -85536.034      48002.706      46182.921      6.0044008      9.0066102      12.008814      649.42821    
        95   0             -236.81921     -151991.75     -67316.364     -45006.956     -343651.94     -89561.938      53889.233      51771.196      6.0044008      9.0066102      12.008814      649.42821    
        96   0             -237.89341     -158716.89     -70598.612     -48731.432     -356820.64     -93512.736      59851.095      57428.978      6.0044008      9.0066102      12.008814      649.42821    
        97   0             -238.95839     -165074.04     -73943.695     -52455.4       -368823.03     -97459.002      65892.129      63159.15       6.0044008      9.0066102      12.008814      649.42821    
        98   0             -240.01977     -171128.84     -77362.327     -56202.062     -379822.14     -101450.82      72014.281      68962.848      6.0044008      9.0066102      12.008814      649.42821    
        99   0             -241.08212     -176934.44     -80862.242     -59989.71      -389951.37     -105522.81      78217.395      74839.763      6.0044008      9.0066102      12.008814      649.42821    
       100   0             -242.14733     -182525.27     -84442.329     -63825.573     -399307.92     -109690.55      84488.645      80778.22       6.0044008      9.0066102      12.008814      649.42821    
       101   0             -243.2175      -187934.51     -88101.383     -67715.48      -407986.68     -113963.3       90818.913      86770.845      6.0044008      9.0066102      12.008814      649.42821    
       102   0             -244.29473     -193192.88     -91836.994     -71662.753     -416078.91     -118345.16      97201.652      92813.644      6.0044008      9.0066102      12.008814      649.42821    
       103   0             -245.38071     -198326.14     -95643.359     -75665.971     -423669.1      -122834.2       103630.05      98903.357      6.0044008      9.0066102      12.008814      649.42821    
       104   0             -246.47687     -203355.66     -99511.42      -79718.713     -430836.84     -127423.71      110097.5       105038.24      6.0044008      9.0066102      12.008814      649.42821    
       105   0             -247.58472     -208298.99     -103429.62     -83809.936     -437657.42     -132103.1       116598.41      111219.31      6.0044008      9.0066102      12.008814      649.42821    
       106   0             -248.70618     -213170.44     -107385.11     -87926.736     -444199.47     -136858.52      123131.97      117449.53      6.0044008      9.0066102      12.008814      649.42821    
       107   0             -249.84407     -217981.97     -111364.49     -92056.28      -450525.14     -141675.44      129703.7       123732.73      6.0044008      9.0066102      12.008814      649.42821    
       108   0             -251.00256     -222744.02     -115352.94     -96188.029     -456691.1      -146540.37      136324.08      130074.2       6.0044008      9.0066102      12.008814      649.42821    
       109   0             -252.18751     -227466.32     -119338.68     -100314.94     -462745.34     -151443.8       143004.1       136480.96      6.0044008      9.0066102      12.008814      649.42821    
       110   0             -253.40657     -232158.24     -123315.5      -104434.48     -468724.73     -156381.4       149751.9       142959.02      6.0044008      9.0066102      12.008814      649.42821    
       111   0             -254.66895     -236829.15     -127283.17     -108549.03     -474655.26     -161352.78      156570.34      149511.11      6.0044008      9.0066102      12.008814      649.42821    
       112   0             -255.98327     -241482.53     -131241.71     -112659.12     -480546.75     -166352.47      163446.14      156127.09      6.0044008      9.0066102      12.008814      649.42821    
       113   0             -257.35774     -246120.39     -135193.87     -116767.71     -486399.6      -171373.49      170356.15      162787.51      6.0044008      9.0066102      12.008814      649.42821    
       114   0             -258.8036      -250757.08     -139154.56     -120891.1      -492225.58     -176420.87      177290.56      169484.43      6.0044008      9.0066102      12.008814      649.42821    
       115   0             -260.33235     -255409.81     -143140.95     -125048.32     -498040.16     -181500.75      184242.65      176211.81      6.0044008      9.0066102      12.008814      649.42821    
       116   0             -261.95576     -260098.39     -147170.75     -129259.05     -503865.38     -186620.26      191211.97      182969.27      6.0044008      9.0066102      12.008814      649.42821    
       117   0             -263.68601     -264844.59     -151261.14     -133542.09     -509730.53     -191787.83      198206.1       189764.49      6.0044008      9.0066102      12.008814      649.42821    
       118   0             -265.53601     -269670.83     -155427.97     -137914.25     -515670.27     -197013.1       205239.95      196613.21      6.0044008      9.0066102      12.008814      649.42821    
       119   0             -267.51971     -274599.11     -159685.55     -142390.15     -521721.64     -202306.84      212333.48      203537.37      6.0044008      9.0066102      12.008814      649.42821    
       120   0             -269.65237     -279649.62     -164046.55     -146982.2      -527920.1      -207680.23      219508.2       210561.25      6.0044008      9.0066102      12.008814      649.42821    
       121   0             -271.95083     -284840.25     -168522.39     -151701.39     -534296.96     -213144.36      226784.28      217708.31      6.0044008      9.0066102      12.008814      649.42821    
       122   0             -274.4336      -290186.1      -173123.36     -156557.66     -540877.27     -218709.63      234178.46      224998.4       6.0044008      9.0066102      12.008814      649.42821    
       123   0             -277.12097     -295699.61     -177858.37     -161559.87     -547680.59     -224385.1       241703.3       232446.8       6.0044008      9.0066102      12.008814      649.42821    
       124   0             -280.03509     -301390.64     -182735.18     -166716.04     -554720.7      -230178.56      249367.45      240064.24      6.0044008      9.0066102      12.008814      649.42821    
       125   0             -283.20006     -307266.71     -187760.24     -172033.18     -562006.71     -236096.56      257176.39      247857.76      6.0044008      9.0066102      12.008814      649.42821    
       126   0             -286.64206     -313333.06     -192938.45     -177516.97     -569543.77     -242144.25      265133.06      255831.39      6.0044008      9.0066102      12.008814      649.42821    
       127   0             -290.38948     -319592.42     -198272.78     -183171.25     -577333.24     -248325.24      273237.8       263986.3       6.0044008      9.0066102      12.008814      649.42821    
       128   0             -294.47317     -326044.96     -203764.24     -188997.99     -585372.64     -254641.27      281488.72      272321.09      6.0044008      9.0066102      12.008814      649.42821    
       129   0             -298.92662     -332688.13     -209411.76     -194997.06     -593655.55     -261092.05      289881.53      280831.82      6.0044008      9.0066102      12.008814      649.42821    
       130   0             -303.78624     -339516.22     -215211.54     -201165.77     -602171.35     -267675.07      298409.06      289511.23      6.0044008      9.0066102      12.008814      649.42821    
       131   0             -309.09165     -346520.17     -221157.39     -207499.22     -610903.91     -274385.7       307060.98      298348.47      6.0044008      9.0066102      12.008814      649.42821    
       132   0             -314.88641     -353688.99     -227321.95     -214072.18     -619672.83     -281298.26      315793.17      307298.93      6.0044008      9.0066102      12.008814      649.42821    
       133   0             -321.22156     -361011.32     -233620.08     -220799.52     -628614.35     -288328.29      324620.88      316376.77      6.0044008      9.0066102      12.008814      649.42821    
       134   0             -328.15007     -368466.38     -240034.42     -227664.89     -637699.82     -295460.14      333522.3       325558.93      6.0044008      9.0066102      12.008814      649.42821    
       135   0             -335.72972     -376027.12     -246542.43     -234646.59     -646892.36     -302672.96      342469.3       334815.74      6.0044008      9.0066102      12.008814      649.42821    
       136   0             -344.02379     -383658.9      -253115.12     -241715.85     -656145.74     -309939.28      351426.1       344109.92      6.0044008      9.0066102      12.008814      649.42821    
       137   0             -353.10168     -391318.22     -259715.96     -248835.77     -665402.92     -317223.81      360348.07      353395.2       6.0044008      9.0066102      12.008814      649.42821    
       138   0             -363.03953     -398950.05     -266298.6      -255958.97     -674592.57     -324481.3       369178.99      362613.41      6.0044008      9.0066102      12.008814      649.42821    
       139   0             -373.92077     -406486.2      -272805.45     -263026.02     -683627.13     -331654.9       377849.43      371692.79      6.0044008      9.0066102      12.008814      649.42821    
       140   0             -385.8368      -413842.28     -279165.07     -269962.68     -692399.09     -338673.55      386273.65      380544.85      6.0044008      9.0066102      12.008814      649.42821    
       141   0             -398.8885      -420918.43     -284955.23     -276808.9      -700991.18     -345332.86      394206.54      389228.32      6.0044008      9.0066102      12.008814      649.42821    
       142   0             -413.18266     -427595.39     -290322.14     -283354.66     -709109.37     -351613.84      401627.76      397494.04      6.0044008      9.0066102      12.008814      649.42821    
       143   0             -428.83677     -433730.6      -295354.66     -289115.09     -716722.05     -357315.28      408583.7       405019.48      6.0044008      9.0066102      12.008814      649.42821    
       144   0             -445.97831     -439165.88     -299936.37     -293894.08     -723667.18     -362275.68      414935.1       411601.61      6.0044008      9.0066102      12.008814      649.42821    
       145   0             -464.74093     -443711.35     -303762.03     -297899.24     -729472.78     -366453.56      420301.48      417184.64      6.0044008      9.0066102      12.008814      649.42821    
       146   0             -485.27428     -447149.91     -306647.42     -300945.74     -733856.57     -369663.47      424454.53      421538.93      6.0044008      9.0066102      12.008814      649.42821    
       147   0             -507.74149     -449234.35     -308384.14     -302820.99     -736497.93     -371693.91      427135.47      424402.09      6.0044008      9.0066102      12.008814      649.42821    
       148   0             -532.31926     -449682.41     -308707.31     -303254.66     -737085.24     -372274.64      428050.51      425476.76      6.0044008      9.0066102      12.008814      649.42821    
       149   0             -559.19438     -448173.49     -307398.24     -302022.8      -735099.43     -371180.79      426850.55      424409.8       6.0044008      9.0066102      12.008814      649.42821    
       150   0             -588.57386     -444344.1      -304142.17     -298803.3      -730086.82     -368089.64      423162.76      420824.15      6.0044008      9.0066102      12.008814      649.42821    
       151   0             -620.68193     -437778.7      -298619.48     -293300.63     -721416.01     -362697.69      416536.17      414286.56      6.0044008      9.0066102      12.008814      649.42821    
       152   0             -655.76323     -427990.14     -290451.83     -285038.04     -708480.54     -354598.22      406508.61      404268.23      6.0044008      9.0066102      12.008814      649.42821    
       153   0             -694.08376     -414435.53     -279094.86     -273526.98     -690684.74     -343272.91      392503.49      390226.76      6.0044008      9.0066102      12.008814      649.42821    
       154   0             -735.92008     -396507.3      -264031.24     -258241.73     -667248.95     -328200.33      373887.03      371523.28      6.0044008      9.0066102      12.008814      649.42821    
       155   0             -781.55839     -373532.26     -244688.42     -238599.32     -637309.03     -308802.82      349957.14      347449.46      6.0044008      9.0066102      12.008814      649.42821    
       156   0             -831.28543     -344783.54     -220447.7      -213969.2      -599933.7      -284455.85      319956.1       317240.55      6.0044008      9.0066102      12.008814      649.42821    
       157   0             -885.3709      -309517.44     -190674.62     -183703.84     -554173.85     -254518.5       283109.28      280114.21      6.0044008      9.0066102      12.008814      649.42821    
       158   0             -944.03682     -267055.39     -154786.64     -147206.56     -499172.96     -218401.17      238711.63      235357.19      6.0044008      9.0066102      12.008814      649.42821    
       159   0             -973.39749     -158605.16     -62615.03      -53396.021     -359804.41     -125447.96      125375.78      121023.31      6.0044008      9.0066102      12.008814      649.42821    
       160   0             -974.22298     -214874.03     -110496.94     -102132.69     -431992.47     -173754.64      184168.21      180338.08      6.0044008      9.0066102      12.008814      649.42821    
       161   0             -974.22315     -216156.02     -111587.95     -103243.16     -433636.94     -174855.36      185507.88      181689.63      6.0044008      9.0066102      12.008814      649.42821    
       162   0             -974.22342     -217625.54     -112839.72     -104517.06     -435519.83     -176118.43      187045         183240.25      6.0044008      9.0066102      12.008814      649.42821    
       163   0             -1099.1489     -884198.78     -1155196.6     -1039786.4     -457613.27     -1163116.9      220696.4       214927.99      6.0044008      9.0066102      12.008814      649.42821    
       164   0             -1134.2013     -817327.67     -997523.32     -862866.11     -591593.58     -994958.41     -149373.65     -127798.08      6.0044008      9.0066102      12.008814      649.42821    
       165   0             -1206.5485     -195643        -68803.371     -68481.696     -449643.94     -136005.44      213727.54      208017.83      6.0044008      9.0066102      12.008814      649.42821    
       166   0             -1206.7674     -225678.46     -113673.24     -106861.75     -456500.4      -177504.57      196187.21      191795.49      6.0044008      9.0066102      12.008814      649.42821    
       167   0             -1206.7754     -230635.71     -121078.91     -113196.32     -457631.9      -184353.93      193292.49      189118.27      6.0044008      9.0066102      12.008814      649.42821    
       168   0             -1206.7764     -232560        -123953.63     -115655.3      -458071.07     -187012.72      192168.96      188079.16      6.0044008      9.0066102      12.008814      649.42821    
       169   0             -1206.7765     -232633.53     -124063.48     -115749.26     -458087.86     -187114.32      192126.04      188039.46      6.0044008      9.0066102      12.008814      649.42821    
       170   0             -1206.7765     -232658.06     -124100.12     -115780.6      -458093.46     -187148.2       192111.72      188026.23      6.0044008      9.0066102      12.008814      649.42821    
       171   0             -1206.7765     -232667.99     -124114.96     -115793.3      -458095.73     -187161.93      192105.92      188020.86      6.0044008      9.0066102      12.008814      649.42821    
       172   0             -1206.7765     -232672.33     -124121.43     -115798.83     -458096.71     -187167.91      192103.39      188018.52      6.0044008      9.0066102      12.008814      649.42821    
       173   0             -1206.7765     -232674.27     -124124.34     -115801.32     -458097.16     -187170.6       192102.26      188017.47      6.0044008      9.0066102      12.008814      649.42821    
       174   0             -1206.7765     -232675.16     -124125.66     -115802.45     -458097.36     -187171.83      192101.74      188016.99      6.0044008      9.0066102      12.008814      649.42821    
       175   0             -1206.7765     -232675.56     -124126.27     -115802.97     -458097.45     -187172.39      192101.5       188016.77      6.0044008      9.0066102      12.008814      649.42821    
       176   0             -1206.7765     -232675.75     -124126.55     -115803.21     -458097.5      -187172.65      192101.39      188016.67      6.0044008      9.0066102      12.008814      649.42821    
       177   0             -1206.7765     -232675.84     -124126.68     -115803.32     -458097.52     -187172.77      192101.34      188016.63      6.0044008      9.0066102      12.008814      649.42821    
       178   0             -1206.7765     -232675.88     -124126.74     -115803.37     -458097.52     -187172.82      192101.32      188016.61      6.0044008      9.0066102      12.008814      649.42821    
       179   0             -1206.7765     -232675.9      -124126.76     -115803.39     -458097.53     -187172.85      192101.31      188016.6       6.0044008      9.0066102      12.008814      649.42821    
       180   0             -1206.7765     -232675.9      -124126.78     -115803.4      -458097.53     -187172.86      192101.31      188016.59      6.0044008      9.0066102      12.008814      649.42821    
       181   0             -1206.7765     -232675.91     -124126.78     -115803.41     -458097.53     -187172.87      192101.3       188016.59      6.0044008      9.0066102      12.008814      649.42821    
       182   0             -1206.7765     -232675.91     -124126.79     -115803.41     -458097.53     -187172.87      192101.3       188016.59      6.0044008      9.0066102      12.008814      649.42821    
       183   0             -1206.7765     -232675.91     -124126.79     -115803.41     -458097.53     -187172.87      192101.3       188016.59      6.0044008      9.0066102      12.008814      649.42821    
       184   0             -1206.7765     -232675.91     -124126.79     -115803.41     -458097.53     -187172.87      192101.3       188016.59      6.0044008      9.0066102      12.008814      649.42821    
       185   0             -1206.7765     -232675.91     -124126.79     -115803.41     -458097.53     -187172.87      192101.3       188016.59      6.0044008      9.0066102      12.008814      649.42821    
       186   0             -1206.7765     -232675.91     -124126.79     -115803.41     -458097.53     -187172.87      192101.3       188016.59      6.0044008      9.0066102      12.008814      649.42821    
       187   0             -1206.7765     -232675.91     -124126.79     -115803.41     -458097.53     -187172.87      192101.3       188016.59      6.0044008      9.0066102      12.008814      649.42821    
       188   0             -1206.7765     -232675.91     -124126.79     -115803.41     -458097.53     -187172.87      192101.3       188016.59      6.0044008      9.0066102      12.008814      649.42821    
       189   0             -1206.7765     -232675.91     -124126.79     -115803.41     -458097.53     -187172.87      192101.3       188016.59      6.0044008      9.0066102      12.008814      649.42821    
       190   0             -1206.7765     -232675.91     -124126.79     -115803.41     -458097.53     -187172.87      192101.3       188016.59      6.0044008      9.0066102      12.008814      649.42821    
       191   0             -1206.7765     -232675.91     -124126.79     -115803.41     -458097.53     -187172.87      192101.3       188016.59      6.0044008      9.0066102      12.008814      649.42821    
       192   0             -1206.7765     -232675.91     -124126.79     -115803.41     -458097.53     -187172.87      192101.3       188016.59      6.0044008      9.0066102      12.008814      649.42821    
       193   0             -1206.7765     -232675.91     -124126.79     -115803.41     -458097.53     -187172.87      192101.3       188016.59      6.0044008      9.0066102      12.008814      649.42821    
       194   0             -1206.7765     -233139.51     -124819.36     -116395.83     -458203.35     -187813.42      191830.73      187766.34      6.0044008      9.0066102      12.008814      649.42821    
       195   0             -1206.7766     -235139.35     -127807.48     -118953.18     -458657.39     -190577.78      190673.13      186695.62      6.0044008      9.0066102      12.008814      649.42821    
       196   0             -1206.7767     -236031.92     -129143        -120098.07     -458854.71     -191814.3       190167.51      186227.68      6.0044008      9.0066102      12.008814      649.42821    
       197   0             -1207.6843     -217840.02     -110981.26     -101958.33     -440580.47     -174474.88      194718.06      190739.07      6.0044008      9.0066102      12.008814      649.42821    
       198   0             -1207.6913     -232102.38     -129536.6      -121274.13     -445496.41     -193406.09      204273.45      200487.22      6.0044008      9.0066102      12.008814      649.42821    
       199   0             -1207.6968     -223178.2      -117972.89     -109216.97     -442344.75     -181598.11      198236.83      194323.15      6.0044008      9.0066102      12.008814      649.42821    
       200   0             -1207.6978     -224998.21     -120331.19     -111675.89     -442987.55     -184006.22      199468         195580.32      6.0044008      9.0066102      12.008814      649.42821    
       201   0             -1207.6979     -225589.51     -121097.36     -112474.75     -443196.41     -184788.58      199868.02      195988.78      6.0044008      9.0066102      12.008814      649.42821    
       202   0             -1207.6979     -225810.79     -121384.07     -112773.69     -443274.61     -185081.34      200017.77      196141.69      6.0044008      9.0066102      12.008814      649.42821    
       203   0             -1207.6982     -224938.73     -120253.85     -111595.25     -442967.07     -183927.28      199428.64      195540.11      6.0044008      9.0066102      12.008814      649.42821    
       204   0             -1207.7006     -231412.8      -128616.89     -120294.58     -445326.93     -192457.33      203878.81      200078.79      6.0044008      9.0066102      12.008814      649.42821    
       205   0             -1207.7047     -223146.08     -117932.39     -109180.43     -442325.42     -181560.02      198216.11      194303.36      6.0044008      9.0066102      12.008814      649.42821    
       206   0             -1207.7057     -225026.53     -120362.79     -111708.55     -443008.23     -184038.82      199504.27      195617.16      6.0044008      9.0066102      12.008814      649.42821    
       207   0             -1207.7058     -225618.44     -121127.81     -112504.33     -443223.18     -184819.07      199909.78      196030.74      6.0044008      9.0066102      12.008814      649.42821    
       208   0             -1207.7058     -225837.53     -121410.95     -112798.84     -443302.78     -185107.85      200059.92      196183.87      6.0044008      9.0066102      12.008814      649.42821    
       209   0             -1207.7061     -224947.05     -120259.82     -111601.44     -442979.9      -183933.82      199450.73      195562.55      6.0044008      9.0066102      12.008814      649.42821    
       210   0             -1207.7086     -231417.37     -128596.11     -120252.84     -445403.15     -192426.75      203953.33      200149.41      6.0044008      9.0066102      12.008814      649.42821    
       211   0             -1207.7088     -233054.6      -130692.42     -122417.42     -446053.95     -194557.16      205125.77      201340.87      6.0044008      9.0066102      12.008814      649.42821    
       212   0             -1208.4719     -193924.58     -108697.09     -106640.48     -366436.16     -176132.54      169046.83      173599.13      6.0044008      9.0066102      12.008814      649.42821    
       213   0             -1208.6996     -234871.59     -142368.38     -58072.677     -504173.7      -156716.46      237729.31      121658.97      6.0044008      9.0066102      12.008814      649.42821    
       214   0             -1208.7129     -229403.88     -125243.65     -116527.33     -446440.66     -188919.51      205446.9       201706.54      6.0044008      9.0066102      12.008814      649.42821    
       215   0             -1208.713      -229751.8      -125392.88     -116619.42     -447243.09     -189036.74      205792.95      201978.38      6.0044008      9.0066102      12.008814      649.42821    
       216   0             -1208.7382     -245023.37     -134316.93     -122508.06     -478245.14     -196309.92      222487.06      215535.83      6.0044008      9.0066102      12.008814      649.42821    
       217   0             -1208.7694     -224003.85     -122146.67     -114552.93     -435311.95     -186470.81      199628.46      197055.12      6.0044008      9.0066102      12.008814      649.42821    
       218   0             -1208.7745     -228027.15     -124476.26     -116075.71     -443529.49     -188354.21      204003.84      200592.55      6.0044008      9.0066102      12.008814      649.42821    
       219   0             -1208.7751     -229460.38     -125306.18     -116618.21     -446456.74     -189025.18      205562.51      201852.73      6.0044008      9.0066102      12.008814      649.42821    
       220   0             -1208.7751     -229897.73     -125559.46     -116783.79     -447349.94     -189229.96      206038.16      202237.31      6.0044008      9.0066102      12.008814      649.42821    
       221   0             -1208.7752     -231159.3      -126291.4      -117262.71     -449923.79     -189822.12      207411.06      203347.8       6.0044008      9.0066102      12.008814      649.42821    
       222   0             -1208.7755     -233625.53     -127741.87     -118216.22     -454918.5      -190998.83      210104.92      205531.78      6.0044008      9.0066102      12.008814      649.42821    
       223   0             -1208.8253     -240235.03     -133138.49     -122091.01     -465475.58     -195594.42      217848.86      212128.49      6.0044008      9.0066102      12.008814      649.42821    
       224   0             -1208.8937     -250775.07     -146530.23     -132646.5      -473148.48     -207530.46      229612.28      222799.02      6.0044008      9.0066102      12.008814      649.42821    
       225   0             -1208.9285     -253272.49     -151684.73     -137093.9      -471038.85     -212343.58      231322.32      224616.41      6.0044008      9.0066102      12.008814      649.42821    
       226   0             -1209.0116     -234242.07     -130353.03     -120622.44     -451750.74     -193599.76      211043.31      206797.99      6.0044008      9.0066102      12.008814      649.42821    
       227   0             -1209.0118     -227501.06     -122745.11     -114736.58     -445021.49     -186908.02      203888.24      200504.62      6.0044008      9.0066102      12.008814      649.42821    
       228   0             -1209.0134     -229958.58     -125518.67     -116882.37     -447474.72     -189347.59      206496.74      202798.99      6.0044008      9.0066102      12.008814      649.42821    
       229   0             -1209.0136     -230636.82     -126284.12     -117474.58     -448151.76     -190020.87      207216.65      203432.22      6.0044008      9.0066102      12.008814      649.42821    
       230   0             -1209.0136     -230827.64     -126499.47     -117641.2      -448342.25     -190210.3       207419.21      203610.4       6.0044008      9.0066102      12.008814      649.42821    
       231   0             -1209.0194     -225978.07     -121028.15     -113380.48     -443525.58     -185383.29      202303.16      199097.96      6.0044008      9.0066102      12.008814      649.42821    
       232   0             -1209.0593     -230075.17     -125636.79     -116974.65     -447614.08     -189457.92      206709.87      202998.19      6.0044008      9.0066102      12.008814      649.42821    
       233   0             -1209.0594     -230810.17     -126462.05     -117637.91     -448330.55     -190197.77      207478.83      203687.55      6.0044008      9.0066102      12.008814      649.42821    
       234   0             -1209.0595     -230999.45     -126674.57     -117808.72     -448515.05     -190388.29      207676.87      203865.1       6.0044008      9.0066102      12.008814      649.42821    
       235   0             -1209.0737     -221696.74     -116247.88     -109278.48     -439563.88     -180960.99      198067.58      195179.95      6.0044008      9.0066102      12.008814      649.42821    
       236   0             -1209.1745     -222242.95     -116929.01     -109302.47     -440497.37     -181300.56      199068.51      195845.06      6.0044008      9.0066102      12.008814      649.42821    
       237   0             -1209.1864     -228014.92     -123324.78     -114909.79     -445810.19     -187289.16      204897.71      201303.13      6.0044008      9.0066102      12.008814      649.42821    
       238   0             -1209.1883     -230621.08     -126212.59     -117441.62     -448209.04     -189993.14      207529.72      203767.58      6.0044008      9.0066102      12.008814      649.42821    
       239   0             -1209.1884     -231306.14     -126971.67     -118107.14     -448839.6      -190703.91      208221.58      204415.4       6.0044008      9.0066102      12.008814      649.42821    
       240   0             -1209.1884     -231495.95     -127182        -118291.54     -449014.32     -190900.84      208413.3       204594.92      6.0044008      9.0066102      12.008814      649.42821    
       241   0             -1209.2015     -219690.69     -114114.61     -106705.17     -438252.3      -178600.4       196618.05      193496.02      6.0044008      9.0066102      12.008814      649.42821    
       242   0             -1209.9585     -154460.94     -53848.873      2122.3124     -411656.24     -96882.624      159014.81      139862.09      6.0044008      9.0066102      12.008814      649.42821    
       243   0             -1211.9958     -215888.04     -115612.8      -81441.071     -450610.25     -169226.2       209804.3       199567.31      6.0044008      9.0066102      12.008814      649.42821    
       244   0             -1212.1029     -235310.34     -132304.31     -116006.99     -457619.73     -193246.35      220620.32      215132.28      6.0044008      9.0066102      12.008814      649.42821    
       245   0             -1212.1109     -240501.99     -136766.08     -125246.41     -459493.47     -199667.01      223511.57      219292.91      6.0044008      9.0066102      12.008814      649.42821    
       246   0             -1212.1116     -242081.31     -138123.41     -128057.02     -460063.51     -201620.21      224391.16      220558.63      6.0044008      9.0066102      12.008814      649.42821    
       247   0             -1212.1117     -242570.59     -138543.92     -128927.7      -460240.14     -202225.3       224663.7       220950.78      6.0044008      9.0066102      12.008814      649.42821    
       248   0             -1212.1117     -242788.13     -138730.94     -129314.66     -460318.79     -202494.31      224785.02      221125.27      6.0044008      9.0066102      12.008814      649.42821    
       249   0             -1212.1118     -241463.7      -137592.32     -126957.8      -459840.97     -200856.07      224047.83      220064.37      6.0044008      9.0066102      12.008814      649.42821    
       250   0             -1212.1119     -241239.38     -137399.31     -126558.83     -459760        -200578.55      223922.96      219884.75      6.0044008      9.0066102      12.008814      649.42821    
       251   0             -1212.1123     -242483.27     -138469.2      -128770.68     -460209.93     -202116.86      224616.9       220882.41      6.0044008      9.0066102      12.008814      649.42821    
       252   0             -1212.1124     -242814.16     -138753.88     -129358.93     -460329.67     -202526.08      224801.55      221147.82      6.0044008      9.0066102      12.008814      649.42821    
       253   0             -1212.1128     -241876.74     -137947.32     -127691.57     -459991.34     -201366.31      224279.77      220397.19      6.0044008      9.0066102      12.008814      649.42821    
       254   0             -1212.1131     -249167.29     -144282.81     -140525.05     -462694.02     -210382.16      228425.45      226292.3       6.0044008      9.0066102      12.008814      649.42821    
       255   0             -1212.1193     -240761.97     -136976.51     -125720.27     -459589.13     -199981.68      223662.83      219512.69      6.0044008      9.0066102      12.008814      649.42821    
       256   0             -1212.1199     -242096.8      -138136.84     -128071.31     -460082.26     -201633.35      224419.23      220589.4       6.0044008      9.0066102      12.008814      649.42821    
       257   0             -1212.12       -242596.8      -138571.49     -128951.92     -460267        -202252.02      224702.61      220992.74      6.0044008      9.0066102      12.008814      649.42821    
       258   0             -1212.12       -242668.76     -138634.04     -129078.6      -460293.62     -202341.04      224743.43      221050.82      6.0044008      9.0066102      12.008814      649.42821    
       259   0             -1212.1502     -264044.34     -159724.03     -161709.11     -470699.88     -228570.58      239680.19      239618.67      6.0044008      9.0066102      12.008814      649.42821    
       260   0             -1212.2132     -235639.98     -131734.22     -118071.2      -457114.5      -193621.5       220180.8       215271.1       6.0044008      9.0066102      12.008814      649.42821    
       261   0             -1212.221      -240511.69     -136534.87     -125555.55     -459444.65     -199615.69      223525.28      219447.08      6.0044008      9.0066102      12.008814      649.42821    
       262   0             -1212.222      -242395.8      -138391.52     -128450.03     -460345.86     -201933.91      224818.79      221062.15      6.0044008      9.0066102      12.008814      649.42821    
       263   0             -1212.2221     -242935.29     -138923.15     -129278.78     -460603.93     -202597.68      225189.2       221524.62      6.0044008      9.0066102      12.008814      649.42821    
       264   0             -1212.2221     -243087.4      -139073.06     -129512.41     -460676.74     -202784.83      225293.7       221655.08      6.0044008      9.0066102      12.008814      649.42821    
       265   0             -1212.2225     -241699.8      -137705.21     -127380.81     -460013.4      -201077.21      224342.04      220466.9       6.0044008      9.0066102      12.008814      649.42821    
       266   0             -1212.2392     -242904.89     -138895.32     -129201.38     -460617.99     -202548.02      225210.91      221537.95      6.0044008      9.0066102      12.008814      649.42821    
       267   0             -1212.2393     -243165.38     -139154.89     -129594.51     -460746.73     -202867.46      225393.74      221762.96      6.0044008      9.0066102      12.008814      649.42821    
       268   0             -1212.2398     -242308.49     -138300.86     -128300.64     -460323.98     -201816.22      224793.64      221024.19      6.0044008      9.0066102      12.008814      649.42821    
       269   0             -1212.2404     -243217.31     -139206.94     -129670.45     -460774.54     -202930.27      225433.23      221810.5       6.0044008      9.0066102      12.008814      649.42821    
       270   0             -1212.2421     -241490.37     -137483.35     -127067.56     -459920.2      -200812.03      224222.45      220322.16      6.0044008      9.0066102      12.008814      649.42821    
       271   0             -1212.2497     -240186.83     -136168.73     -125126.87     -459264.89     -199214.18      223305.2       219206.24      6.0044008      9.0066102      12.008814      649.42821    
       272   0             -1212.2545     -253052.19     -149190.65     -144003.65     -465962.26     -214891.43      232668.11      230476.48      6.0044008      9.0066102      12.008814      649.42821    
       273   0             -1212.2568     -234077.08     -129940.1      -116234.28     -456056.86     -191770.34      218859.66      213891.77      6.0044008      9.0066102      12.008814      649.42821    
       274   0             -1212.2693     -240687.39     -136646.41     -125908.08     -459507.69     -199824.94      223670.2       219669.43      6.0044008      9.0066102      12.008814      649.42821    
       275   0             -1212.2702     -242537.47     -138523.37     -128615.51     -460473.53     -202079.23      225016.6       221286.49      6.0044008      9.0066102      12.008814      649.42821    
       276   0             -1212.2703     -243100.56     -139094.65     -129439.52     -460767.52     -202765.34      225426.42      221778.69      6.0044008      9.0066102      12.008814      649.42821    
       277   0             -1212.2704     -243532.45     -139532.84     -130071.4      -460993.13     -203291.54      225740.91      222156.33      6.0044008      9.0066102      12.008814      649.42821    
       278   0             -1212.2712     -241882.08     -137857.82     -127656.35     -460132.08     -201280.19      224541.46      220715.93      6.0044008      9.0066102      12.008814      649.42821    
       279   0             -1212.2875     -247805.92     -143916.41     -136163.11     -463338.25     -208458.41      228973.8       225966.31      6.0044008      9.0066102      12.008814      649.42821    
       280   0             -1212.2999     -246873.17     -142980.77     -134751.64     -462887.11     -207307.85      228337.86      225181.73      6.0044008      9.0066102      12.008814      649.42821    
       281   0             -1212.3008     -240736.65     -136660.69     -126031.84     -459517.43     -199884.18      223723.18      219761.28      6.0044008      9.0066102      12.008814      649.42821    
       282   0             -1212.3019     -242634.23     -138615.04     -128728.17     -460559.48     -202179.76      225150.24      221437.48      6.0044008      9.0066102      12.008814      649.42821    
       283   0             -1212.302      -243210.16     -139208.21     -129546.5      -460875.77     -202876.47      225583.39      221946.25      6.0044008      9.0066102      12.008814      649.42821    
       284   0             -1212.302      -243605.67     -139615.56     -130108.37     -461093.07     -203354.89      225880.97      222295.74      6.0044008      9.0066102      12.008814      649.42821    
       285   0             -1212.3027     -241347.83     -137289.14     -126901.26     -459853.09     -200623.32      224184.27      220303.52      6.0044008      9.0066102      12.008814      649.42821    
       286   0             -1212.3058     -235980.39     -131724.57     -119366.71     -456849.89     -194147.79      220111.47      215563.81      6.0044008      9.0066102      12.008814      649.42821    
       287   0             -1212.3164     -236029.52     -131744.58     -119513.2      -456830.78     -194222.17      220119.84      215611.26      6.0044008      9.0066102      12.008814      649.42821    
       288   0             -1212.324      -240589.72     -136484.3      -125863.63     -459421.24     -199708.49      223623.78      219667.12      6.0044008      9.0066102      12.008814      649.42821    
       289   0             -1212.3252     -242713.39     -138691.57     -128820.96     -460627.63     -202263.43      225255.58      221555.94      6.0044008      9.0066102      12.008814      649.42821    
       290   0             -1212.3253     -243291.96     -139292.93     -129626.63     -460956.33     -202959.5       225700.18      222070.56      6.0044008      9.0066102      12.008814      649.42821    
       291   0             -1212.3253     -243666.45     -139682.17     -130148.02     -461169.16     -203410         225988.07      222403.75      6.0044008      9.0066102      12.008814      649.42821    
       292   0             -1212.3257     -240760.11     -136659.94     -126103.13     -459517.25     -199913.56      223755.76      219821.19      6.0044008      9.0066102      12.008814      649.42821    
       293   0             -1212.3257     -240396.38     -136281.28     -125597.97     -459309.88     -199476.18      223476.07      219498.12      6.0044008      9.0066102      12.008814      649.42821    
       294   0             -1212.3273     -242271.74     -138231.68     -128205.27     -460378.29     -201731.25      224920         221167.6       6.0044008      9.0066102      12.008814      649.42821    
       295   0             -1212.3275     -242665.31     -138641.06     -128752.31     -460602.57     -202204.49      225223.01      221517.88      6.0044008      9.0066102      12.008814      649.42821    
       296   0             -1212.3276     -243296.27     -139297.37     -129629.31     -460962.13     -202963.17      225708.8       222079.44      6.0044008      9.0066102      12.008814      649.42821    
       297   0             -1212.3276     -243648.86     -139664.14     -130119.31     -461163.13     -203387.09      225980.38      222393.33      6.0044008      9.0066102      12.008814      649.42821    
       298   0             -1212.3277     -240369.31     -136251.1      -125563.91     -459292.92     -199443.96      223456.05      219476.95      6.0044008      9.0066102      12.008814      649.42821    
       299   0             -1212.3291     -242734.26     -138712.42     -128846.82     -460643.54     -202286.57      225279.29      221582.62      6.0044008      9.0066102      12.008814      649.42821    
       300   0             -1212.3292     -243306.35     -139307.83     -129640.95     -460970.28     -202974.2       225720.38      222092.03      6.0044008      9.0066102      12.008814      649.42821    
       301   0             -1212.3292     -243680.62     -139697.36     -130160.39     -461184.12     -203424.03      226009.05      222425.38      6.0044008      9.0066102      12.008814      649.42821    
       302   0             -1212.3296     -240732.31     -136627.43     -126070.11     -459499.4      -199880.39      223736.95      219802.71      6.0044008      9.0066102      12.008814      649.42821    
       303   0             -1212.3296     -240452.57     -136335.83     -125682.8      -459339.08     -199544.32      223521.14      219553.98      6.0044008      9.0066102      12.008814      649.42821    
       304   0             -1212.33       -240819.42     -136717.84     -126191.33     -459549.1      -199985.07      223804.44      219880.85      6.0044008      9.0066102      12.008814      649.42821    
       305   0             -1212.3311     -242723.66     -138700.96     -128830.57     -460639.45     -202272.86      225274.9       221577.21      6.0044008      9.0066102      12.008814      649.42821    
       306   0             -1212.3311     -243311.95     -139313.63     -129645.91     -460976.33     -202979.65      225729.21      222101.31      6.0044008      9.0066102      12.008814      649.42821    
       307   0             -1212.3312     -243677.8      -139694.63     -130152.86     -461185.89     -203419.14      226011.84      222427.32      6.0044008      9.0066102      12.008814      649.42821    
[...]
      1023   0             -1215.5436     -254331.3      -150840.81     -140257.53     -471895.54     -214513.05      241949.8       238620.34      6.0044068      9.0066102      12.008814      649.42885    
      1024   0             -1215.5436     -254331.3      -150840.81     -140257.53     -471895.54     -214513.05      241949.8       238620.34      6.0044068      9.0066102      12.008814      649.42885    
      1025   0             -1215.5436     -254331.3      -150840.81     -140257.53     -471895.54     -214513.05      241949.8       238620.34      6.0044068      9.0066102      12.008814      649.42885    
      1026   0             -1215.5436     -254331.3      -150840.81     -140257.53     -471895.54     -214513.05      241949.8       238620.34      6.0044068      9.0066102      12.008814      649.42885    
      1027   0             -1215.5436     -254331.3      -150840.81     -140257.53     -471895.54     -214513.05      241949.8       238620.34      6.0044068      9.0066102      12.008814      649.42885    
      1028   0             -1215.5436     -254331.3      -150840.81     -140257.53     -471895.54     -214513.05      241949.8       238620.34      6.0044068      9.0066102      12.008814      649.42885    
      1029   0             -1215.5436     -254331.3      -150840.81     -140257.53     -471895.54     -214513.05      241949.8       238620.34      6.0044068      9.0066102      12.008814      649.42885    
      1030   0             -1215.5436     -254331.3      -150840.81     -140257.53     -471895.54     -214513.05      241949.8       238620.34      6.0044068      9.0066102      12.008814      649.42885    
      1031   0             -1215.5436     -254331.3      -150840.81     -140257.53     -471895.54     -214513.05      241949.8       238620.34      6.0044068      9.0066102      12.008814      649.42885    
      1032   0             -1215.5436     -254331.3      -150840.81     -140257.53     -471895.54     -214513.05      241949.8       238620.34      6.0044068      9.0066102      12.008814      649.42885    
      1033   0             -1215.5436     -254331.3      -150840.81     -140257.53     -471895.54     -214513.05      241949.8       238620.34      6.0044068      9.0066102      12.008814      649.42885    
      1034   0             -1215.5436     -254331.3      -150840.81     -140257.53     -471895.54     -214513.05      241949.8       238620.34      6.0044068      9.0066102      12.008814      649.42885    
      1035   0             -1215.5436     -254331.3      -150840.81     -140257.53     -471895.54     -214513.05      241949.8       238620.34      6.0044068      9.0066102      12.008814      649.42885    
      1036   0             -1215.5436     -254331.3      -150840.81     -140257.53     -471895.54     -214513.05      241949.8       238620.34      6.0044068      9.0066102      12.008814      649.42885    
      1037   0             -1215.5436     -254331.3      -150840.81     -140257.53     -471895.54     -214513.05      241949.8       238620.34      6.0044068      9.0066102      12.008814      649.42885    
      1038   0             -1215.5436     -254331.3      -150840.81     -140257.53     -471895.54     -214513.05      241949.8       238620.34      6.0044068      9.0066102      12.008814      649.42885    
      1039   0             -1215.5436     -254331.3      -150840.81     -140257.53     -471895.54     -214513.05      241949.8       238620.34      6.0044068      9.0066102      12.008814      649.42885    
      1040   0             -1215.5436     -254331.3      -150840.81     -140257.53     -471895.54     -214513.05      241949.8       238620.34      6.0044068      9.0066102      12.008814      649.42885    
      1041   0             -1215.5436     -254331.3      -150840.81     -140257.53     -471895.54     -214513.05      241949.8       238620.34      6.0044068      9.0066102      12.008814      649.42885    
      1042   0             -1215.5436     -254331.3      -150840.81     -140257.53     -471895.54     -214513.05      241949.8       238620.34      6.0044068      9.0066102      12.008814      649.42885    
      1043   0             -1215.5436     -254331.3      -150840.81     -140257.53     -471895.54     -214513.05      241949.8       238620.34      6.0044068      9.0066102      12.008814      649.42885    
      1044   0             -1215.5436     -254331.3      -150840.81     -140257.53     -471895.54     -214513.05      241949.8       238620.34      6.0044068      9.0066102      12.008814      649.42885    
      1045   0             -1215.5436     -254331.3      -150840.81     -140257.53     -471895.54     -214513.05      241949.8       238620.34      6.0044068      9.0066102      12.008814      649.42885    
      1046   0             -1215.5436     -254331.3      -150840.81     -140257.53     -471895.54     -214513.05      241949.8       238620.34      6.0044068      9.0066102      12.008814      649.42885    
      1047   0             -1215.5436     -254331.3      -150840.81     -140257.53     -471895.54     -214513.05      241949.8       238620.34      6.0044068      9.0066102      12.008814      649.42885    
      1048   0             -1215.5436     -254331.3      -150840.81     -140257.53     -471895.54     -214513.05      241949.8       238620.34      6.0044068      9.0066102      12.008814      649.42885    
      1049   0             -1215.5436     -254331.3      -150840.81     -140257.53     -471895.54     -214513.05      241949.8       238620.34      6.0044068      9.0066102      12.008814      649.42885    
      1050   0             -1215.5436     -254331.3      -150840.81     -140257.53     -471895.54     -214513.05      241949.8       238620.34      6.0044068      9.0066102      12.008814      649.42885    
      1051   0             -1215.5436     -254331.3      -150840.81     -140257.53     -471895.54     -214513.05      241949.8       238620.34      6.0044068      9.0066102      12.008814      649.42885    
      1052   0             -1215.5436     -254331.3      -150840.81     -140257.53     -471895.54     -214513.05      241949.8       238620.34      6.0044068      9.0066102      12.008814      649.42885    
      1053   0             -1215.5436     -254331.3      -150840.81     -140257.53     -471895.54     -214513.05      241949.8       238620.34      6.0044068      9.0066102      12.008814      649.42885    
      1054   0             -1215.5436     -254331.3      -150840.81     -140257.53     -471895.54     -214513.05      241949.8       238620.34      6.0044068      9.0066102      12.008814      649.42885    
      1055   0             -1215.5436     -254331.3      -150840.81     -140257.53     -471895.54     -214513.05      241949.8       238620.34      6.0044068      9.0066102      12.008814      649.42885    
      1056   0             -1215.5436     -254331.3      -150840.81     -140257.53     -471895.54     -214513.05      241949.8       238620.34      6.0044068      9.0066102      12.008814      649.42885    
      1057   0             -1215.5436     -254331.3      -150840.81     -140257.53     -471895.54     -214513.05      241949.8       238620.34      6.0044068      9.0066102      12.008814      649.42885    
      1058   0             -1215.5436     -254331.3      -150840.81     -140257.53     -471895.54     -214513.05      241949.8       238620.34      6.0044068      9.0066102      12.008814      649.42885    
      1059   0             -1215.5436     -254331.3      -150840.81     -140257.53     -471895.54     -214513.05      241949.8       238620.34      6.0044068      9.0066102      12.008814      649.42885    
      1060   0             -1215.5436     -254331.3      -150840.81     -140257.53     -471895.54     -214513.05      241949.8       238620.34      6.0044068      9.0066102      12.008814      649.42885    
      1061   0             -1215.5436     -254331.3      -150840.81     -140257.53     -471895.54     -214513.05      241949.8       238620.34      6.0044068      9.0066102      12.008814      649.42885    
Loop time of 2.67462 on 4 procs for 1000 steps with 48 atoms

56.1% CPU use with 4 MPI tasks x 1 OpenMP threads

Minimization stats:
  Stopping criterion = max iterations
  Energy initial, next-to-last, final = 
     -221.044283562975  -1215.54360002616  -1215.54360002616
  Force two-norm initial, final = 0.00027673647 215.80994
  Force max component initial, final = 7.707203e-05 90.737344
  Final line search alpha, max atom move = 2.1525041e-07 1.953125e-05
  Iterations, force evaluations = 1000 12404

MPI task timing breakdown:
Section |  min time  |  avg time  |  max time  |%varavg| %total
---------------------------------------------------------------
Pair    | 2.0598     | 2.2947     | 2.5177     |  13.6 | 85.80
Neigh   | 2.2e-05    | 3.225e-05  | 4.4e-05    |   0.0 |  0.00
Comm    | 0.10656    | 0.32813    | 0.56324    |  35.8 | 12.27
Output  | 0.010511   | 0.011174   | 0.012505   |   0.7 |  0.42
Modify  | 0          | 0          | 0          |   0.0 |  0.00
Other   |            | 0.04055    |            |       |  1.52

Nlocal:             12 ave          16 max           8 min
Histogram: 2 0 0 0 0 0 0 0 0 2
Nghost:            384 ave         416 max         352 min
Histogram: 2 0 0 0 0 0 0 0 0 2
Neighs:          380.5 ave         511 max         254 min
Histogram: 2 0 0 0 0 0 0 0 0 2
FullNghs:          761 ave        1019 max         504 min
Histogram: 2 0 0 0 0 0 0 0 0 2

Total # of neighbors = 3044
Ave neighs/atom = 63.416667
Neighbor list builds = 2
Dangerous builds = 0

# Obtain new stress tensor

variable tmp equal pe
variable e1 equal ${tmp}
variable e1 equal -1215.54360002616
variable tmp equal press
variable p1 equal ${tmp}
variable p1 equal -254331.295778914
variable tmp equal pxx
variable pxx1 equal ${tmp}
variable pxx1 equal -150840.81383993
variable tmp equal pyy
variable pyy1 equal ${tmp}
variable pyy1 equal -140257.534869786
variable tmp equal pzz
variable pzz1 equal ${tmp}
variable pzz1 equal -471895.538627026
variable tmp equal pxy
variable pxy1 equal ${tmp}
variable pxy1 equal -214513.052487376
variable tmp equal pxz
variable pxz1 equal ${tmp}
variable pxz1 equal 241949.795273192
variable tmp equal pyz
variable pyz1 equal ${tmp}
variable pyz1 equal 238620.338417306

# Compute elastic constant from pressure tensor

variable C1pos equal ${d1}
variable C1pos equal 15084081.383993
variable C2pos equal ${d2}
variable C2pos equal 14025753.4869786
variable C3pos equal ${d3}
variable C3pos equal 47189553.8627026
variable C4pos equal ${d4}
variable C4pos equal -23862033.8417306
variable C5pos equal ${d5}
variable C5pos equal -24194979.5273192
variable C6pos equal ${d6}
variable C6pos equal 21451305.2487376

# Combine positive and negative

variable C1${dir} equal 0.5*(${C1neg}+${C1pos})
variable C16 equal 0.5*(${C1neg}+${C1pos})
variable C16 equal 0.5*(-16090131.2166586+${C1pos})
variable C16 equal 0.5*(-16090131.2166586+15084081.383993)
variable C2${dir} equal 0.5*(${C2neg}+${C2pos})
variable C26 equal 0.5*(${C2neg}+${C2pos})
variable C26 equal 0.5*(-14990992.0396379+${C2pos})
variable C26 equal 0.5*(-14990992.0396379+14025753.4869786)
variable C3${dir} equal 0.5*(${C3neg}+${C3pos})
variable C36 equal 0.5*(${C3neg}+${C3pos})
variable C36 equal 0.5*(-48226534.4064946+${C3pos})
variable C36 equal 0.5*(-48226534.4064946+47189553.8627026)
variable C4${dir} equal 0.5*(${C4neg}+${C4pos})
variable C46 equal 0.5*(${C4neg}+${C4pos})
variable C46 equal 0.5*(25359146.0744348+${C4pos})
variable C46 equal 0.5*(25359146.0744348+-23862033.8417306)
variable C5${dir} equal 0.5*(${C5neg}+${C5pos})
variable C56 equal 0.5*(${C5neg}+${C5pos})
variable C56 equal 0.5*(25645677.4109202+${C5pos})
variable C56 equal 0.5*(25645677.4109202+-24194979.5273192)
variable C6${dir} equal 0.5*(${C6neg}+${C6pos})
variable C66 equal 0.5*(${C6neg}+${C6pos})
variable C66 equal 0.5*(-22513169.8518262+${C6pos})
variable C66 equal 0.5*(-22513169.8518262+21451305.2487376)

# Delete dir to make sure it is not reused

variable dir delete

# Output final values

variable C11all equal ${C11}
variable C11all equal -1629146.7055583
variable C22all equal ${C22}
variable C22all equal 81392.0184426997
variable C33all equal ${C33}
variable C33all equal 191409.076480549

variable C12all equal 0.5*(${C12}+${C21})
variable C12all equal 0.5*(99415.3111169003+${C21})
variable C12all equal 0.5*(99415.3111169003+-1582322.48428805)
variable C13all equal 0.5*(${C13}+${C31})
variable C13all equal 0.5*(-385612.4541709+${C31})
variable C13all equal 0.5*(-385612.4541709+-3296345.60532035)
variable C23all equal 0.5*(${C23}+${C32})
variable C23all equal 0.5*(-343704.47537495+${C32})
variable C23all equal 0.5*(-343704.47537495+139838.499916103)

variable C44all equal ${C44}
variable C44all equal -1815930.3245267
variable C55all equal ${C55}
variable C55all equal -1506199.9607846
variable C66all equal ${C66}
variable C66all equal -530932.301544299

variable C14all equal 0.5*(${C14}+${C41})
variable C14all equal 0.5*(1241238.3079414+${C41})
variable C14all equal 0.5*(1241238.3079414+2061981.8233569)
variable C15all equal 0.5*(${C15}+${C51})
variable C15all equal 0.5*(1179863.66584035+${C51})
variable C15all equal 0.5*(1179863.66584035+1947726.2620867)
variable C16all equal 0.5*(${C16}+${C61})
variable C16all equal 0.5*(-503024.9163328+${C61})
variable C16all equal 0.5*(-503024.9163328+-1696436.77638095)

variable C24all equal 0.5*(${C24}+${C42})
variable C24all equal 0.5*(1173656.60605395+${C42})
variable C24all equal 0.5*(1173656.60605395+-156370.2186283)
variable C25all equal 0.5*(${C25}+${C52})
variable C25all equal 0.5*(1094914.46716105+${C52})
variable C25all equal 0.5*(1094914.46716105+-169850.605859401)
variable C26all equal 0.5*(${C26}+${C62})
variable C26all equal 0.5*(-482619.276329651+${C62})
variable C26all equal 0.5*(-482619.276329651+100743.10789855)

variable C34all equal 0.5*(${C34}+${C43})
variable C34all equal 0.5*(1209220.2283431+${C43})
variable C34all equal 0.5*(1209220.2283431+1210294.35051535)
variable C35all equal 0.5*(${C35}+${C53})
variable C35all equal 0.5*(100192.699353501+${C53})
variable C35all equal 0.5*(100192.699353501+1191385.7329465)
variable C36all equal 0.5*(${C36}+${C63})
variable C36all equal 0.5*(-518490.271896001+${C63})
variable C36all equal 0.5*(-518490.271896001+-421756.439687299)

variable C45all equal 0.5*(${C45}+${C54})
variable C45all equal 0.5*(-1528015.8023239+${C54})
variable C45all equal 0.5*(-1528015.8023239+-1797505.87105705)
variable C46all equal 0.5*(${C46}+${C64})
variable C46all equal 0.5*(748556.1163521+${C64})
variable C46all equal 0.5*(748556.1163521+1274253.1009762)
variable C56all equal 0.5*(${C56}+${C65})
variable C56all equal 0.5*(725348.941800499+${C65})
variable C56all equal 0.5*(725348.941800499+1194061.83445565)

# Average moduli for cubic crystals

variable C11cubic equal (${C11all}+${C22all}+${C33all})/3.0
variable C11cubic equal (-1629146.7055583+${C22all}+${C33all})/3.0
variable C11cubic equal (-1629146.7055583+81392.0184426997+${C33all})/3.0
variable C11cubic equal (-1629146.7055583+81392.0184426997+191409.076480549)/3.0
variable C12cubic equal (${C12all}+${C13all}+${C23all})/3.0
variable C12cubic equal (-741453.586585575+${C13all}+${C23all})/3.0
variable C12cubic equal (-741453.586585575+-1840979.02974562+${C23all})/3.0
variable C12cubic equal (-741453.586585575+-1840979.02974562+-101932.987729423)/3.0
variable C44cubic equal (${C44all}+${C55all}+${C66all})/3.0
variable C44cubic equal (-1815930.3245267+${C55all}+${C66all})/3.0
variable C44cubic equal (-1815930.3245267+-1506199.9607846+${C66all})/3.0
variable C44cubic equal (-1815930.3245267+-1506199.9607846+-530932.301544299)/3.0

variable bulkmodulus equal (${C11cubic}+2*${C12cubic})/3.0
variable bulkmodulus equal (-452115.203545017+2*${C12cubic})/3.0
variable bulkmodulus equal (-452115.203545017+2*-894788.534686873)/3.0
variable shearmodulus1 equal ${C44cubic}
variable shearmodulus1 equal -1284354.19561853
variable shearmodulus2 equal (${C11cubic}-${C12cubic})/2.0
variable shearmodulus2 equal (-452115.203545017-${C12cubic})/2.0
variable shearmodulus2 equal (-452115.203545017--894788.534686873)/2.0
variable poissonratio equal 1.0/(1.0+${C11cubic}/${C12cubic})
variable poissonratio equal 1.0/(1.0+-452115.203545017/${C12cubic})
variable poissonratio equal 1.0/(1.0+-452115.203545017/-894788.534686873)

# For Stillinger-Weber silicon, the analytical results
# are known to be (E. R. Cowley, 1988):
#               C11 = 151.4 GPa
#               C12 = 76.4 GPa
#               C44 = 56.4 GPa

print "========================================="
=========================================
print "Components of the Elastic Constant Tensor"
Components of the Elastic Constant Tensor
print "========================================="
=========================================

print "Elastic Constant C11all = ${C11all} ${cunits}"
Elastic Constant C11all = -1629146.7055583 GPa
print "Elastic Constant C22all = ${C22all} ${cunits}"
Elastic Constant C22all = 81392.0184426997 GPa
print "Elastic Constant C33all = ${C33all} ${cunits}"
Elastic Constant C33all = 191409.076480549 GPa

print "Elastic Constant C12all = ${C12all} ${cunits}"
Elastic Constant C12all = -741453.586585575 GPa
print "Elastic Constant C13all = ${C13all} ${cunits}"
Elastic Constant C13all = -1840979.02974562 GPa
print "Elastic Constant C23all = ${C23all} ${cunits}"
Elastic Constant C23all = -101932.987729423 GPa

print "Elastic Constant C44all = ${C44all} ${cunits}"
Elastic Constant C44all = -1815930.3245267 GPa
print "Elastic Constant C55all = ${C55all} ${cunits}"
Elastic Constant C55all = -1506199.9607846 GPa
print "Elastic Constant C66all = ${C66all} ${cunits}"
Elastic Constant C66all = -530932.301544299 GPa

print "Elastic Constant C14all = ${C14all} ${cunits}"
Elastic Constant C14all = 1651610.06564915 GPa
print "Elastic Constant C15all = ${C15all} ${cunits}"
Elastic Constant C15all = 1563794.96396352 GPa
print "Elastic Constant C16all = ${C16all} ${cunits}"
Elastic Constant C16all = -1099730.84635688 GPa

print "Elastic Constant C24all = ${C24all} ${cunits}"
Elastic Constant C24all = 508643.193712825 GPa
print "Elastic Constant C25all = ${C25all} ${cunits}"
Elastic Constant C25all = 462531.930650825 GPa
print "Elastic Constant C26all = ${C26all} ${cunits}"
Elastic Constant C26all = -190938.084215551 GPa

print "Elastic Constant C34all = ${C34all} ${cunits}"
Elastic Constant C34all = 1209757.28942923 GPa
print "Elastic Constant C35all = ${C35all} ${cunits}"
Elastic Constant C35all = 645789.21615 GPa
print "Elastic Constant C36all = ${C36all} ${cunits}"
Elastic Constant C36all = -470123.35579165 GPa

print "Elastic Constant C45all = ${C45all} ${cunits}"
Elastic Constant C45all = -1662760.83669048 GPa
print "Elastic Constant C46all = ${C46all} ${cunits}"
Elastic Constant C46all = 1011404.60866415 GPa
print "Elastic Constant C56all = ${C56all} ${cunits}"
Elastic Constant C56all = 959705.388128075 GPa

print "========================================="
=========================================
print "Average properties for a cubic crystal"
Average properties for a cubic crystal
print "========================================="
=========================================

print "Bulk Modulus = ${bulkmodulus} ${cunits}"
Bulk Modulus = -747230.757639588 GPa
print "Shear Modulus 1 = ${shearmodulus1} ${cunits}"
Shear Modulus 1 = -1284354.19561853 GPa
print "Shear Modulus 2 = ${shearmodulus2} ${cunits}"
Shear Modulus 2 = 221336.665570928 GPa
print "Poisson Ratio = ${poissonratio}"
Poisson Ratio = 0.664329980894909
Total wall time: 0:00:32
