LAMMPS (22 Dec 2022)
  using 1 OpenMP thread(s) per MPI task
Loaded 1 plugins from C:\Program Files\LAMMPS 64-bit 23Jun2022\plugins
Loaded 0 plugins from C:\Program Files\LAMMPS 64-bit 23Jun2022-MPI\plugins
Loaded 1 plugins from C:\Program Files\LAMMPS 64-bit 22Dec2022-MSMPI\plugins
Loaded 1 plugins from C:\Program Files\LAMMPS 64-bit 28Mar2023-MPI\plugins
# Compute elastic constant tensor for a crystal
#
# Written by Aidan Thompson (Sandia, athomps@sandia.gov)
#
#  This script uses the following three include files.
#
#   init.mod      (must be modified for different crystal structures)
# 	       	  Define units, deformation parameters and initial
#		  configuration of the atoms and simulation cell.
#
#
#   potential.mod    (must be modified for different pair styles)
# 		     Define pair style and other attributes
#		     not stored in restart file
#
#
#   displace.mod    (displace.mod should not need to be modified)
# 		    Perform positive and negative box displacements
# 		    in direction ${dir} and size ${up}.
# 		    It uses the resultant changes
#		    in stress to compute one
# 		    row of the elastic stiffness tensor
#
#		    Inputs variables:
#		    	   dir = the Voigt deformation component
#		    		    (1,2,3,4,5,6)
#		    Global constants:
#       	    	   up = the deformation magnitude (strain units)
#       		   cfac = conversion from LAMMPS pressure units to
#               	   output units for elastic constants
#
#
#  To run this on a different system, it should only be necessary to
#  modify the files init.mod and potential.mod. In order to calculate
#  the elastic constants correctly, care must be taken to specify
#  the correct units in init.mod (units, cfac and cunits). It is also
#  important to verify that the minimization of energy w.r.t atom
#  positions in the deformed cell is fully converged.
#  One indication of this is that the elastic constants are insensitive
#  to the choice of the variable ${up} in init.mod. Another is to check
#  the final max and two-norm forces reported in the log file. If you know
#  that minimization is not required, you can set maxiter = 0.0 in
#  init.mod.
#

include init.mod
# NOTE: This script can be modified for different atomic structures,
# units, etc. See in.elastic for more info.
#

# Define the finite deformation size. Try several values of this
# variable to verify that results do not depend on it.
variable up equal 1.0e-6

# Define the amount of random jiggle for atoms
# This prevents atoms from staying on saddle points
variable atomjiggle equal 1.0e-5

# Uncomment one of these blocks, depending on what units
# you are using in LAMMPS and for output

# metal units, elastic constants in eV/A^3
#units		metal
#variable cfac equal 6.2414e-7
#variable cunits string eV/A^3

# metal units, elastic constants in GPa
units		metal
variable cfac equal 1.0e-4
variable cunits string GPa

# real units, elastic constants in GPa
#units		real
#variable cfac equal 1.01325e-4
#variable cunits string GPa

# Define minimization parameters
variable etol equal 0.0
variable ftol equal 1.0e-10
variable maxiter equal 100
variable maxeval equal 1000
variable dmax equal 1.0e-2

# generate the box and atom positions using a diamond lattice

dimension    3
boundary     p p p
read_data    data.in
Reading data file ...
  orthogonal box = (0.028889292 0.028889292 0.028889292) to (3.0311107 3.0311107 3.0311107)
  2 by 1 by 2 MPI processor grid
  reading atoms ...
  2 atoms
  reading velocities ...
  2 velocities
  read_data CPU = 0.001 seconds
#replicate    2 3 4
replicate    2 3 4
Replication is creating a 2x3x4 = 24 times larger system...
  orthogonal box = (0.028889292 0.028889292 0.028889292) to (6.0333321 9.0355535 12.037775)
  1 by 2 by 2 MPI processor grid
  48 atoms
  replicate CPU = 0.000 seconds
change_box   all triclinic
Changing box ...
  triclinic box = (0.028889292 0.028889292 0.028889292) to (6.0333321 9.0355535 12.037775) with tilt (0 0 0)

# Need to set mass to something, just to satisfy LAMMPS
mass 1 1.0e-20

include potential.mod
# NOTE: This script can be modified for different pair styles
# See in.elastic for more info.

# Choose potential
#-----------------------
#pair_style	sw
#pair_coeff * * Si.sw Si
#-----------------------
#pair_style morse	2.83994742	# D0[eV] a[1/A] r0[A] rc[A], 1NN for BCC
#pair_coeff 1 1	2.1173	1.0202	2.4595	2.6497	#	Fe-Fe
#-----------------------
#pair_style smatb # R0(A)   p       q     A(eV)   xi(eV)  Rcs(A)   Rc(A), 4NN: Rcs=4NN, Rc=(4NN+5NN)/2
#pair_coeff 1 1	2.4802	7.0149	2.3779	0.3144	3.0551	4.033	4.176	#	Co	Co
#-----------------------
#pair_style eam/alloy
#pair_coeff * * AlCrFeCoNi_Zhou04.eam.alloy Fe
#-----------------------
pair_style meam
pair_coeff * * ./../../library.meam Ti Cr N ./../../TiCrN.meam Ti Cr
#-----------------------

# Setup neighbor style
neighbor 1.0 nsq
neigh_modify once no every 1 delay 0 check yes

# Setup minimization style
min_style	     cg
min_modify	     dmax ${dmax} line quadratic
min_modify	     dmax 0.01 line quadratic

# Setup output
thermo		1
thermo_style custom step temp pe press pxx pyy pzz pxy pxz pyz lx ly lz vol
thermo_modify norm no

# Compute initial state
fix 3 all box/relax  aniso 0.0
minimize ${etol} ${ftol} ${maxiter} ${maxeval}
minimize 0 ${ftol} ${maxiter} ${maxeval}
minimize 0 1e-10 ${maxiter} ${maxeval}
minimize 0 1e-10 100 ${maxeval}
minimize 0 1e-10 100 1000
Neighbor list info ...
  update: every = 1 steps, delay = 0 steps, check = yes
  max neighbors/atom: 2000, page size: 100000
  master list distance cutoff = 6
  ghost atom cutoff = 6
  2 neighbor lists, perpetual/occasional/extra = 2 0 0
  (1) pair meam, perpetual
      attributes: full, newton on
      pair build: full/nsq
      stencil: none
      bin: none
  (2) pair meam, perpetual, half/full from (1)
      attributes: half, newton on
      pair build: halffull/newton
      stencil: none
      bin: none
Per MPI rank memory allocation (min/avg/max) = 9.778 | 9.781 | 9.783 Mbytes
   Step          Temp          PotEng         Press           Pxx            Pyy            Pzz            Pxy            Pxz            Pyz             Lx             Ly             Lz           Volume    
         0   0             -221.04         4.475103e-10   7.7902996e-10  2.992454e-10   2.6425555e-10 -7.5526039e-11  1.1914353e-11 -1.3146872e-11  6.0044428      9.0066642      12.008886      649.44054    
         1   0             -221.04         9.5414773e-12 -2.1623606e-10  5.806535e-11   1.8679514e-10 -4.6630311e-11  5.5463365e-12 -1.8282369e-11  6.0044428      9.0066642      12.008886      649.44054    
Loop time of 0.0006015 on 4 procs for 1 steps with 48 atoms

0.0% CPU use with 4 MPI tasks x 1 OpenMP threads

Minimization stats:
  Stopping criterion = force tolerance
  Energy initial, next-to-last, final = 
     -221.039999987535  -221.039999987535  -221.039999987535
  Force two-norm initial, final = 3.6173848e-13 1.4423487e-13
  Force max component initial, final = 3.1577897e-13 8.7651055e-14
  Final line search alpha, max atom move = 1 8.7651055e-14
  Iterations, force evaluations = 1 2

MPI task timing breakdown:
Section |  min time  |  avg time  |  max time  |%varavg| %total
---------------------------------------------------------------
Pair    | 0.000396   | 0.000429   | 0.000471   |   0.0 | 71.32
Neigh   | 0          | 0          | 0          |   0.0 |  0.00
Comm    | 3.7e-05    | 7.875e-05  | 0.000111   |   0.0 | 13.09
Output  | 0          | 0          | 0          |   0.0 |  0.00
Modify  | 0          | 0          | 0          |   0.0 |  0.00
Other   |            | 9.375e-05  |            |       | 15.59

Nlocal:             12 ave          16 max           8 min
Histogram: 2 0 0 0 0 0 0 0 0 2
Nghost:            293 ave         297 max         289 min
Histogram: 2 0 0 0 0 0 0 0 0 2
Neighs:            348 ave         464 max         232 min
Histogram: 2 0 0 0 0 0 0 0 0 2
FullNghs:          696 ave         928 max         464 min
Histogram: 2 0 0 0 0 0 0 0 0 2

Total # of neighbors = 2784
Ave neighs/atom = 58
Neighbor list builds = 0
Dangerous builds = 0

variable tmp equal pxx
variable pxx0 equal ${tmp}
variable pxx0 equal -2.16236055034662e-10
variable tmp equal pyy
variable pyy0 equal ${tmp}
variable pyy0 equal 5.80653503433126e-11
variable tmp equal pzz
variable pzz0 equal ${tmp}
variable pzz0 equal 1.86795136481788e-10
variable tmp equal pyz
variable pyz0 equal ${tmp}
variable pyz0 equal -1.82823685632836e-11
variable tmp equal pxz
variable pxz0 equal ${tmp}
variable pxz0 equal 5.54633653043434e-12
variable tmp equal pxy
variable pxy0 equal ${tmp}
variable pxy0 equal -4.66303108299479e-11

variable tmp equal lx
variable lx0 equal ${tmp}
variable lx0 equal 6.0044428312337
variable tmp equal ly
variable ly0 equal ${tmp}
variable ly0 equal 9.00666424685055
variable tmp equal lz
variable lz0 equal ${tmp}
variable lz0 equal 12.0088856624674

# These formulas define the derivatives w.r.t. strain components
# Constants uses $, variables use v_
variable d1 equal -(v_pxx1-${pxx0})/(v_delta/v_len0)*${cfac}
variable d1 equal -(v_pxx1--2.16236055034662e-10)/(v_delta/v_len0)*${cfac}
variable d1 equal -(v_pxx1--2.16236055034662e-10)/(v_delta/v_len0)*0.0001
variable d2 equal -(v_pyy1-${pyy0})/(v_delta/v_len0)*${cfac}
variable d2 equal -(v_pyy1-5.80653503433126e-11)/(v_delta/v_len0)*${cfac}
variable d2 equal -(v_pyy1-5.80653503433126e-11)/(v_delta/v_len0)*0.0001
variable d3 equal -(v_pzz1-${pzz0})/(v_delta/v_len0)*${cfac}
variable d3 equal -(v_pzz1-1.86795136481788e-10)/(v_delta/v_len0)*${cfac}
variable d3 equal -(v_pzz1-1.86795136481788e-10)/(v_delta/v_len0)*0.0001
variable d4 equal -(v_pyz1-${pyz0})/(v_delta/v_len0)*${cfac}
variable d4 equal -(v_pyz1--1.82823685632836e-11)/(v_delta/v_len0)*${cfac}
variable d4 equal -(v_pyz1--1.82823685632836e-11)/(v_delta/v_len0)*0.0001
variable d5 equal -(v_pxz1-${pxz0})/(v_delta/v_len0)*${cfac}
variable d5 equal -(v_pxz1-5.54633653043434e-12)/(v_delta/v_len0)*${cfac}
variable d5 equal -(v_pxz1-5.54633653043434e-12)/(v_delta/v_len0)*0.0001
variable d6 equal -(v_pxy1-${pxy0})/(v_delta/v_len0)*${cfac}
variable d6 equal -(v_pxy1--4.66303108299479e-11)/(v_delta/v_len0)*${cfac}
variable d6 equal -(v_pxy1--4.66303108299479e-11)/(v_delta/v_len0)*0.0001

displace_atoms all random ${atomjiggle} ${atomjiggle} ${atomjiggle} 87287 units box
displace_atoms all random 1e-05 ${atomjiggle} ${atomjiggle} 87287 units box
displace_atoms all random 1e-05 1e-05 ${atomjiggle} 87287 units box
displace_atoms all random 1e-05 1e-05 1e-05 87287 units box
Displacing atoms ...

# Write restart
unfix 3
write_restart restart.equil
System init for write_restart ...

# uxx Perturbation

variable dir equal 1
include displace.mod
# NOTE: This script should not need to be
# modified. See in.elastic for more info.
#
# Find which reference length to use

if "${dir} == 1" then    "variable len0 equal ${lx0}"
variable len0 equal ${lx0}
variable len0 equal 6.0044428312337
if "${dir} == 2" then    "variable len0 equal ${ly0}"
if "${dir} == 3" then    "variable len0 equal ${lz0}"
if "${dir} == 4" then    "variable len0 equal ${lz0}"
if "${dir} == 5" then    "variable len0 equal ${lz0}"
if "${dir} == 6" then    "variable len0 equal ${ly0}"

# Reset box and simulation parameters

clear
  using 1 OpenMP thread(s) per MPI task
Loaded 1 plugins from C:\Program Files\LAMMPS 64-bit 23Jun2022\plugins
Loaded 0 plugins from C:\Program Files\LAMMPS 64-bit 23Jun2022-MPI\plugins
Loaded 1 plugins from C:\Program Files\LAMMPS 64-bit 22Dec2022-MSMPI\plugins
Loaded 1 plugins from C:\Program Files\LAMMPS 64-bit 28Mar2023-MPI\plugins
box tilt large

The 'box' command has been removed and will be ignored

read_restart restart.equil
Reading restart file ...
  restart file = 22 Dec 2022, LAMMPS = 22 Dec 2022
  restoring atom style atomic from restart
  triclinic box = (0.028889292 0.028889292 0.028889292) to (6.0333321 9.0355535 12.037775) with tilt (0 0 0)
  1 by 2 by 2 MPI processor grid
  pair style meam stores no restart info
  48 atoms
  read_restart CPU = 0.000 seconds
include potential.mod
# NOTE: This script can be modified for different pair styles
# See in.elastic for more info.

# Choose potential
#-----------------------
#pair_style	sw
#pair_coeff * * Si.sw Si
#-----------------------
#pair_style morse	2.83994742	# D0[eV] a[1/A] r0[A] rc[A], 1NN for BCC
#pair_coeff 1 1	2.1173	1.0202	2.4595	2.6497	#	Fe-Fe
#-----------------------
#pair_style smatb # R0(A)   p       q     A(eV)   xi(eV)  Rcs(A)   Rc(A), 4NN: Rcs=4NN, Rc=(4NN+5NN)/2
#pair_coeff 1 1	2.4802	7.0149	2.3779	0.3144	3.0551	4.033	4.176	#	Co	Co
#-----------------------
#pair_style eam/alloy
#pair_coeff * * AlCrFeCoNi_Zhou04.eam.alloy Fe
#-----------------------
pair_style meam
pair_coeff * * ./../../library.meam Ti Cr N ./../../TiCrN.meam Ti Cr
#-----------------------

# Setup neighbor style
neighbor 1.0 nsq
neigh_modify once no every 1 delay 0 check yes

# Setup minimization style
min_style	     cg
min_modify	     dmax ${dmax} line quadratic
min_modify	     dmax 0.01 line quadratic

# Setup output
thermo		1
thermo_style custom step temp pe press pxx pyy pzz pxy pxz pyz lx ly lz vol
thermo_modify norm no

# Negative deformation

variable delta equal -${up}*${len0}
variable delta equal -1e-06*${len0}
variable delta equal -1e-06*6.0044428312337
variable deltaxy equal -${up}*xy
variable deltaxy equal -1e-06*xy
variable deltaxz equal -${up}*xz
variable deltaxz equal -1e-06*xz
variable deltayz equal -${up}*yz
variable deltayz equal -1e-06*yz
if "${dir} == 1" then    "change_box all x delta 0 ${delta} xy delta ${deltaxy} xz delta ${deltaxz} remap units box"
change_box all x delta 0 ${delta} xy delta ${deltaxy} xz delta ${deltaxz} remap units box
change_box all x delta 0 -6.0044428312337e-06 xy delta ${deltaxy} xz delta ${deltaxz} remap units box
change_box all x delta 0 -6.0044428312337e-06 xy delta -0 xz delta ${deltaxz} remap units box
change_box all x delta 0 -6.0044428312337e-06 xy delta -0 xz delta -0 remap units box
Changing box ...
  triclinic box = (0.028889292 0.028889292 0.028889292) to (6.0333261 9.0355535 12.037775) with tilt (0 0 0)
  triclinic box = (0.028889292 0.028889292 0.028889292) to (6.0333261 9.0355535 12.037775) with tilt (0 0 0)
  triclinic box = (0.028889292 0.028889292 0.028889292) to (6.0333261 9.0355535 12.037775) with tilt (0 0 0)
if "${dir} == 2" then    "change_box all y delta 0 ${delta} yz delta ${deltayz} remap units box"
if "${dir} == 3" then    "change_box all z delta 0 ${delta} remap units box"
if "${dir} == 4" then    "change_box all yz delta ${delta} remap units box"
if "${dir} == 5" then    "change_box all xz delta ${delta} remap units box"
if "${dir} == 6" then    "change_box all xy delta ${delta} remap units box"

# Relax atoms positions

minimize ${etol} ${ftol} ${maxiter} ${maxeval}
minimize 0 ${ftol} ${maxiter} ${maxeval}
minimize 0 1e-10 ${maxiter} ${maxeval}
minimize 0 1e-10 100 ${maxeval}
minimize 0 1e-10 100 1000
Neighbor list info ...
  update: every = 1 steps, delay = 0 steps, check = yes
  max neighbors/atom: 2000, page size: 100000
  master list distance cutoff = 6
  ghost atom cutoff = 6
  2 neighbor lists, perpetual/occasional/extra = 2 0 0
  (1) pair meam, perpetual
      attributes: full, newton on
      pair build: full/nsq
      stencil: none
      bin: none
  (2) pair meam, perpetual, half/full from (1)
      attributes: half, newton on
      pair build: halffull/newton
      stencil: none
      bin: none
Per MPI rank memory allocation (min/avg/max) = 9.772 | 9.773 | 9.776 Mbytes
   Step          Temp          PotEng         Press           Pxx            Pyy            Pzz            Pxy            Pxz            Pyz             Lx             Ly             Lz           Volume    
         1   0             -221.04         1.2548482      6.6423338     -1.4388474     -1.4389418     -6.1060189e-06 -3.7627233e-05 -4.9789311e-06  6.0044368      9.0066642      12.008886      649.43989    
         2   0             -221.04         1.2548824      6.642404      -1.4389032     -1.4388535      8.8036214e-06 -8.8306113e-06 -4.0988427e-06  6.0044368      9.0066642      12.008886      649.43989    
         3   0             -221.04         1.2548921      6.6424105     -1.4388769     -1.4388574      4.5758261e-06 -4.5602992e-06 -2.2907591e-06  6.0044368      9.0066642      12.008886      649.43989    
         4   0             -221.04         1.254898       6.6424002     -1.4388558     -1.4388505      9.8267216e-07 -4.8906315e-06  6.4238419e-08  6.0044368      9.0066642      12.008886      649.43989    
         5   0             -221.04         1.2549023      6.642396      -1.4388473     -1.4388419     -1.2824446e-06 -2.684923e-06   1.849188e-06   6.0044368      9.0066642      12.008886      649.43989    
         6   0             -221.04         1.2549044      6.6423946     -1.438845      -1.4388363     -1.9697325e-06 -7.2097585e-07  2.8381463e-06  6.0044368      9.0066642      12.008886      649.43989    
         7   0             -221.04         1.2549058      6.6423916     -1.4388431     -1.4388311     -2.0234315e-06 -5.7332726e-08  3.8613055e-06  6.0044368      9.0066642      12.008886      649.43989    
         8   0             -221.04         1.2548968      6.642358      -1.4388972     -1.4387705     -4.2249665e-06  5.0788959e-06  1.206449e-05   6.0044368      9.0066642      12.008886      649.43989    
         9   0             -221.04         1.2526599      6.6372538     -1.4500095     -1.4292646     -0.00033743651  0.00023767253  0.00064688255  6.0044368      9.0066642      12.008886      649.43989    
        10   0             -221.04019     -15.174803     -31.338935     -83.587353      69.40188      -2.2084148      1.2778369      3.9050847      6.0044368      9.0066642      12.008886      649.43989    
        11   0             -221.04118     -99.362381     -222.9722      -506.64493      431.52999     -13.200166      7.5939882      23.654425      6.0044368      9.0066642      12.008886      649.43989    
        12   0             -221.04318     -253.75627     -559.99437     -1291.3946      1090.1202     -32.29354       17.932783      59.039335      6.0044368      9.0066642      12.008886      649.43989    
        13   0             -221.04642     -475.88779     -1011.8633     -2441.7831      2025.9831     -57.605503      29.753727      108.3081       6.0044368      9.0066642      12.008886      649.43989    
        14   0             -221.05124     -762.31228     -1537.6061     -3963.2545      3213.9238     -86.692011      39.386699      169.17336      6.0044368      9.0066642      12.008886      649.43989    
        15   0             -221.05808     -1108.9068     -2090.5295     -5863.524       4627.3332     -116.67226      42.123377      239.02963      6.0044368      9.0066642      12.008886      649.43989    
        16   0             -221.06758     -1511.8517     -2626.6215     -8162.3307      6253.3971     -144.37639      31.908134      315.19611      6.0044368      9.0066642      12.008886      649.43989    
        17   0             -221.08149     -1972.0489     -3126.6861     -10954.341      8164.8806     -166.13576     -1.9681288      395.54141      6.0044368      9.0066642      12.008886      649.43989    
        18   0             -221.10449     -2436.2009     -3612.0357     -14226.5        10529.933     -174.02867     -83.865307      467.7862       6.0044368      9.0066642      12.008886      649.43989    
        19   0             -221.14221     -2709.0585     -4161.5267     -17378.591      13412.942     -157.95121     -241.56054      497.34062      6.0044368      9.0066642      12.008886      649.43989    
        20   0             -221.1873      -2809.9372     -4642.2237     -20206.125      16418.537     -124.10676     -447.5994       488.86764      6.0044368      9.0066642      12.008886      649.43989    
        21   0             -221.23736     -2906.0226     -4895.4489     -23313.099      19490.48      -81.007555     -688.54133      471.84976      6.0044368      9.0066642      12.008886      649.43989    
        22   0             -221.29386     -3020.3841     -4878.8521     -26815.13       22632.829     -31.581277     -966.97785      452.46018      6.0044368      9.0066642      12.008886      649.43989    
        23   0             -221.35789     -3146.0462     -4577.0145     -30698.788      25837.664      23.643996     -1287.2516      431.47545      6.0044368      9.0066642      12.008886      649.43989    
        24   0             -221.43045     -3274.895      -3975.7784     -34952.454      29103.547      85.418091     -1656.1179      409.18857      6.0044368      9.0066642      12.008886      649.43989    
        25   0             -221.51268     -3399.1839     -3054.7133     -39577.148      32434.31       155.42107     -2084.1021      385.86859      6.0044368      9.0066642      12.008886      649.43989    
        26   0             -221.59956     -3503.0065     -1877.6074     -44247.366      35615.954      231.00196     -2552.2569      363.20064      6.0044368      9.0066642      12.008886      649.43989    
        27   0             -221.68895     -3577.4317     -495.42415     -48828.548      38591.677      312.28912     -3057.6928      341.41149      6.0044368      9.0066642      12.008886      649.43989    
        28   0             -221.7801      -3614.8991      1066.5884     -53266.607      41355.321      400.89878     -3607.5056      319.96858      6.0044368      9.0066642      12.008886      649.43989    
        29   0             -221.87234     -3605.7551      2797.275      -57508.445      43893.905      499.03498     -4213.3359      297.96949      6.0044368      9.0066642      12.008886      649.43989    
        30   0             -221.96199     -3539.6819      4638.5035     -61373.072      46115.523      606.02066     -4870.0997      274.7847       6.0044368      9.0066642      12.008886      649.43989    
        31   0             -222.04907     -3404.8211      6619.359      -64859.895      48026.072      725.27171     -5601.3765      248.4044       6.0044368      9.0066642      12.008886      649.43989    
        32   0             -222.13393     -3183.6352      8810.0529     -67985.903      49624.945      861.52662     -6445.6662      216.01765      6.0044368      9.0066642      12.008886      649.43989    
        33   0             -222.21306     -2869.6348      11197.07      -70673.3        50867.326      1012.9693     -7411.382       175.47451      6.0044368      9.0066642      12.008886      649.43989    
        34   0             -222.28097     -2494.1239      13637.064     -72894.807      51775.371      1166.8828     -8451.3323      127.60914      6.0044368      9.0066642      12.008886      649.43989    
        35   0             -222.34023     -2079.4826      16183.772     -74951.867      52529.647      1319.436      -9594.3005      72.042642      6.0044368      9.0066642      12.008886      649.43989    
        36   0             -222.39397     -1639.6787      18925.263     -77170.001      53325.701      1469.0773     -10895.266      7.6131572      6.0044368      9.0066642      12.008886      649.43989    
        37   0             -222.44509     -1182.8218      21969.594     -79887.379      54369.32       1617.9567     -12432.395     -67.711024      6.0044368      9.0066642      12.008886      649.43989    
        38   0             -222.49717     -710.39277      25487.34      -83504.442      55885.923      1777.5081     -14326.101     -158.82085      6.0044368      9.0066642      12.008886      649.43989    
        39   0             -222.55597     -216.2366       29745.851     -88547.915      58153.354      1963.351      -16759.692     -275.54255      6.0044368      9.0066642      12.008886      649.43989    
        40   0             -222.63048      308.10134      35046.497     -95613.375      61491.183      2189.662      -19944.328     -433.76693      6.0044368      9.0066642      12.008886      649.43989    
        41   0             -222.70782      737.31699      40075.892     -102893.1       65029.16       2401.634      -23062.089     -600.44272      6.0044368      9.0066642      12.008886      649.43989    
        42   0             -222.7922       1116.0733      44977.788     -110290.29      68660.717      2609.9456     -26134.595     -782.80493      6.0044368      9.0066642      12.008886      649.43989    
        43   0             -222.8853       1471.2333      49828.326     -117709.54      72294.915      2822.642      -29170.289     -988.05584      6.0044368      9.0066642      12.008886      649.43989    
        44   0             -222.98788      1820.7695      54675.518     -125077.17      75863.959      3047.3884     -32182.306     -1225.2308      6.0044368      9.0066642      12.008886      649.43989    
        45   0             -223.10065      2178.2984      59550.349     -132333.13      79317.68       3293.4668     -35192.146     -1507.1012      6.0044368      9.0066642      12.008886      649.43989    
        46   0             -223.22009      2542.1693      64293.076     -139162.47      82495.899      3564.5203     -38119.942     -1840.0415      6.0044368      9.0066642      12.008886      649.43989    
        47   0             -223.33816      2896.1247      68598.423     -145095.49      85185.442      3856.9101     -40804.764     -2217.2201      6.0044368      9.0066642      12.008886      649.43989    
        48   0             -223.45236      3237.2225      72396.125     -150053.27      87368.814      4178.4988     -43227.786     -2642.5618      6.0044368      9.0066642      12.008886      649.43989    
        49   0             -223.56435      3570.2659      75736.638     -154134.92      89109.075      4548.3244     -45439.941     -3133.4919      6.0044368      9.0066642      12.008886      649.43989    
        50   0             -223.67483      3891.1391      78600.946     -157353.99      90426.465      4987.5821     -47437.911     -3706.557       6.0044368      9.0066642      12.008886      649.43989    
        51   0             -223.78338      4184.4336      80922.504     -159691.42      91322.219      5513.8396     -49166.849     -4369.5784      6.0044368      9.0066642      12.008886      649.43989    
        52   0             -223.89405      4436.6386      82715.751     -161228.01      91822.174      6162.3564     -50606.62      -5149.3239      6.0044368      9.0066642      12.008886      649.43989    
        53   0             -223.99402      4593.5678      83787.084     -161898.11      91891.73       6851.9507     -51531.286     -5938.7526      6.0044368      9.0066642      12.008886      649.43989    
        54   0             -224.08473      4657.9256      84305.341     -161978.66      91647.098      7548.8817     -52018.917     -6711.4625      6.0044368      9.0066642      12.008886      649.43989    
        55   0             -224.17         4643.1028      84425.14      -161667.68      91171.844      8247.7735     -52173.848     -7470.1491      6.0044368      9.0066642      12.008886      649.43989    
        56   0             -224.25256      4560.0105      84237.65      -161076.27      90518.652      8950.8313     -52073.962     -8215.9103      6.0044368      9.0066642      12.008886      649.43989    
        57   0             -224.33421      4416.895       83796.615     -160269.24      89723.311      9659.794      -51776.373     -8946.9058      6.0044368      9.0066642      12.008886      649.43989    
        58   0             -224.41623      4219.76        83143.061     -159288.69      88804.913      10372.233     -51325.416     -9664.6545      6.0044368      9.0066642      12.008886      649.43989    
        59   0             -224.49953      3972.5063      82310.791     -158163.4       87770.124      11083.237     -50756.696     -10373.79       6.0044368      9.0066642      12.008886      649.43989    
        60   0             -224.58482      3677.2172      81326.531     -156912.45      86617.571      11786.987     -50096.566     -11080.015      6.0044368      9.0066642      12.008886      649.43989    
        61   0             -224.67264      3334.5722      80207.685     -155546.61      85342.639      12479.049     -49361.517     -11787.393      6.0044368      9.0066642      12.008886      649.43989    
        62   0             -224.76342      2944.0867      78964.084     -154071.88      83940.059      13156.059     -48560.512     -12498.269      6.0044368      9.0066642      12.008886      649.43989    
        63   0             -224.85752      2504.4725      77601.453     -152492.52      82404.487      13812.888     -47694.325     -13213.368      6.0044368      9.0066642      12.008886      649.43989    
        64   0             -224.95526      2013.6979      76122.85      -150810.79      80729.029      14443.093     -46759.847     -13934.781      6.0044368      9.0066642      12.008886      649.43989    
        65   0             -225.05696      1468.8542      74526.463     -149025.15      78905.254      15042.544     -45754.149     -14667.349      6.0044368      9.0066642      12.008886      649.43989    
        66   0             -225.16293      866.20153      72811.136     -147134.83      76922.295      15609.039     -44675.562     -15416.031      6.0044368      9.0066642      12.008886      649.43989    
        67   0             -225.27348      201.15022      70978.429     -145141.04      74766.065      16141.942     -43524.977     -16184.89       6.0044368      9.0066642      12.008886      649.43989    
        68   0             -225.38892     -531.88802      69022.342     -143043.96      72425.952      16642.062     -42304.638     -16981.303      6.0044368      9.0066642      12.008886      649.43989    
        69   0             -225.50742     -1324.9584      66977.887     -140888.55      69935.784      17102.511     -41039.821     -17796.679      6.0044368      9.0066642      12.008886      649.43989    
        70   0             -225.62902     -2181.9718      64847.77      -138689.96      67296.271      17526.242     -39737.502     -18636.983      6.0044368      9.0066642      12.008886      649.43989    
        71   0             -225.7545      -3113.4511      62623.002     -136457.88      64494.524      17918.716     -38397.962     -19512.739      6.0044368      9.0066642      12.008886      649.43989    
        72   0             -225.88468     -4132.9745      60293.477     -134211.01      61518.613      18286.989     -37025.081     -20436.238      6.0044368      9.0066642      12.008886      649.43989    
        73   0             -226.02045     -5257.6595      57849.219     -131980.16      58357.963      18641.563     -35630.779     -21424.7        6.0044368      9.0066642      12.008886      649.43989    
        74   0             -226.15387     -6428.727       55441.973     -129945.96      55217.803      18978.699     -34324.05      -22434.357      6.0044368      9.0066642      12.008886      649.43989    
        75   0             -226.28407     -7639.5791      53100.758     -128160.8       52141.307      19313.46      -33133.324     -23468.761      6.0044368      9.0066642      12.008886      649.43989    
        76   0             -226.41252     -8905.1501      50813.693     -126641.81      49112.67       19664.959     -32060.34      -24549.346      6.0044368      9.0066642      12.008886      649.43989    
        77   0             -226.5408      -10244.455      48568.609     -125413.79      46111.82       20051.195     -31106.632     -25700.452      6.0044368      9.0066642      12.008886      649.43989    
        78   0             -226.67075     -11681.909      46353.415     -124515.31      43116.165      20487.931     -30276.832     -26949.49       6.0044368      9.0066642      12.008886      649.43989    
        79   0             -226.80449     -13249.181      44153.407     -124000.69      40099.742      20990.935     -29579.623     -28330.692      6.0044368      9.0066642      12.008886      649.43989    
        80   0             -226.93471     -14860.903      42101.877     -123934.6       37250.01       21537.536     -29069.527     -29779.228      6.0044368      9.0066642      12.008886      649.43989    
        81   0             -227.05902     -16475.535      40226.548     -124273.26      34620.107      22111.124     -28745.021     -31267.81       6.0044368      9.0066642      12.008886      649.43989    
        82   0             -227.17883     -18096.325      38486.33      -124942.43      32167.128      22713.159     -28580.564     -32808.893      6.0044368      9.0066642      12.008886      649.43989    
        83   0             -227.29528     -19726.183      36844.694     -125872.42      29849.174      23346.66      -28552.897     -34411.254      6.0044368      9.0066642      12.008886      649.43989    
        84   0             -227.40937     -21368.869      35273.312     -127008.24      27628.319      24010.663     -28640.785     -36075.748      6.0044368      9.0066642      12.008886      649.43989    
        85   0             -227.52207     -23030.165      33750.071     -128312.64      25472.073      24700.522     -28829.583     -37795.321      6.0044368      9.0066642      12.008886      649.43989    
        86   0             -227.63435     -24717.908      32258.236     -129766         23354.038      25406.963     -29111.606     -39556.447      6.0044368      9.0066642      12.008886      649.43989    
        87   0             -227.74712     -26440.155      30786.271     -131359.15      21252.413      26118.772     -29480.731     -41341.848      6.0044368      9.0066642      12.008886      649.43989    
        88   0             -227.86118     -28202.243      29325.182     -133077.7       19145.789      26833.213     -29928.081     -43134.362      6.0044368      9.0066642      12.008886      649.43989    
        89   0             -227.97705     -30004.122      27866.925     -134889.97      17010.683      27562.141     -30436.986     -44920.059      6.0044368      9.0066642      12.008886      649.43989    
        90   0             -228.09494     -31838.689      26404.389     -136743.14      14822.686      28330.764     -30978.192     -46692.55       6.0044368      9.0066642      12.008886      649.43989    
        91   0             -228.21451     -33691.251      24932.547     -138566.39      12560.086      29174.514     -31510.293     -48456.33       6.0044368      9.0066642      12.008886      649.43989    
        92   0             -228.33498     -35540.916      23449.491     -140281.78      10209.542      30133.263     -31982.661     -50225.524      6.0044368      9.0066642      12.008886      649.43989    
        93   0             -228.45524     -37364.226      21958.173     -141821.86      7771.0048      31240.5       -32339.982     -52017.852      6.0044368      9.0066642      12.008886      649.43989    
        94   0             -228.57434     -39140.743      20463.825     -143147.33      5261.2754      32510.492     -32529.731     -53846.276      6.0044368      9.0066642      12.008886      649.43989    
        95   0             -228.69201     -40858.904      18969.921     -144255.9       2709.2642      33931.987     -32507.833     -55714.631      6.0044368      9.0066642      12.008886      649.43989    
        96   0             -228.80913     -42520.034      17469.464     -145176.25      146.68572      35477.225     -32238.556     -57626.942      6.0044368      9.0066642      12.008886      649.43989    
        97   0             -228.9279      -44138.342      15937.357     -145948.43     -2403.9545      37123.881     -31686.779     -59604.252      6.0044368      9.0066642      12.008886      649.43989    
        98   0             -229.05195     -45737.459      14331.435     -146610.17     -4933.6386      38868.107     -30813.064     -61688.107      6.0044368      9.0066642      12.008886      649.43989    
        99   0             -229.18653     -47345.346      12601.825     -147194.45     -7443.4087      40720.415     -29577.645     -63926.526      6.0044368      9.0066642      12.008886      649.43989    
       100   0             -229.33855     -48988.473      10705.064     -147731.77     -9938.7115      42691.758     -27952.474     -66353.87       6.0044368      9.0066642      12.008886      649.43989    
       101   0             -229.51622     -50685.865      8619.1757     -148251.47     -12425.297      44779.949     -25936.623     -68976.26       6.0044368      9.0066642      12.008886      649.43989    
Loop time of 0.0153118 on 4 procs for 100 steps with 48 atoms

153.1% CPU use with 4 MPI tasks x 1 OpenMP threads

Minimization stats:
  Stopping criterion = max iterations
  Energy initial, next-to-last, final = 
     -221.039999972033  -229.338548370145  -229.516223949762
  Force two-norm initial, final = 0.00050997275 8.8895557
  Force max component initial, final = 0.00014023968 4.1589458
  Final line search alpha, max atom move = 0.0024376322 0.01013798
  Iterations, force evaluations = 100 107

MPI task timing breakdown:
Section |  min time  |  avg time  |  max time  |%varavg| %total
---------------------------------------------------------------
Pair    | 0.011625   | 0.012139   | 0.012422   |   0.3 | 79.28
Neigh   | 1.6e-05    | 1.65e-05   | 1.7e-05    |   0.0 |  0.11
Comm    | 0.001002   | 0.0012805  | 0.001793   |   0.9 |  8.36
Output  | 0.000925   | 0.00097625 | 0.001107   |   0.0 |  6.38
Modify  | 0          | 0          | 0          |   0.0 |  0.00
Other   |            | 0.000899   |            |       |  5.87

Nlocal:             12 ave          12 max          12 min
Histogram: 4 0 0 0 0 0 0 0 0 0
Nghost:            384 ave         384 max         384 min
Histogram: 4 0 0 0 0 0 0 0 0 0
Neighs:          362.5 ave         370 max         355 min
Histogram: 1 0 1 0 0 0 0 0 1 1
FullNghs:          725 ave         726 max         723 min
Histogram: 1 0 0 0 0 0 1 0 0 2

Total # of neighbors = 2900
Ave neighs/atom = 60.416667
Neighbor list builds = 1
Dangerous builds = 0

# Obtain new stress tensor

variable tmp equal pxx
variable pxx1 equal ${tmp}
variable pxx1 equal 8619.17569795755
variable tmp equal pyy
variable pyy1 equal ${tmp}
variable pyy1 equal -148251.474515321
variable tmp equal pzz
variable pzz1 equal ${tmp}
variable pzz1 equal -12425.2971607539
variable tmp equal pxy
variable pxy1 equal ${tmp}
variable pxy1 equal 44779.949375327
variable tmp equal pxz
variable pxz1 equal ${tmp}
variable pxz1 equal -25936.6225015018
variable tmp equal pyz
variable pyz1 equal ${tmp}
variable pyz1 equal -68976.2595843871

# Compute elastic constant from pressure tensor

variable C1neg equal ${d1}
variable C1neg equal 861917.569795776
variable C2neg equal ${d2}
variable C2neg equal -14825147.4515321
variable C3neg equal ${d3}
variable C3neg equal -1242529.71607541
variable C4neg equal ${d4}
variable C4neg equal -6897625.95843871
variable C5neg equal ${d5}
variable C5neg equal -2593662.25015018
variable C6neg equal ${d6}
variable C6neg equal 4477994.9375327

# Reset box and simulation parameters

clear
  using 1 OpenMP thread(s) per MPI task
Loaded 1 plugins from C:\Program Files\LAMMPS 64-bit 23Jun2022\plugins
Loaded 0 plugins from C:\Program Files\LAMMPS 64-bit 23Jun2022-MPI\plugins
Loaded 1 plugins from C:\Program Files\LAMMPS 64-bit 22Dec2022-MSMPI\plugins
Loaded 1 plugins from C:\Program Files\LAMMPS 64-bit 28Mar2023-MPI\plugins
box tilt large

The 'box' command has been removed and will be ignored

read_restart restart.equil
Reading restart file ...
  restart file = 22 Dec 2022, LAMMPS = 22 Dec 2022
  restoring atom style atomic from restart
  triclinic box = (0.028889292 0.028889292 0.028889292) to (6.0333321 9.0355535 12.037775) with tilt (0 0 0)
  1 by 2 by 2 MPI processor grid
  pair style meam stores no restart info
  48 atoms
  read_restart CPU = 0.000 seconds
include potential.mod
# NOTE: This script can be modified for different pair styles
# See in.elastic for more info.

# Choose potential
#-----------------------
#pair_style	sw
#pair_coeff * * Si.sw Si
#-----------------------
#pair_style morse	2.83994742	# D0[eV] a[1/A] r0[A] rc[A], 1NN for BCC
#pair_coeff 1 1	2.1173	1.0202	2.4595	2.6497	#	Fe-Fe
#-----------------------
#pair_style smatb # R0(A)   p       q     A(eV)   xi(eV)  Rcs(A)   Rc(A), 4NN: Rcs=4NN, Rc=(4NN+5NN)/2
#pair_coeff 1 1	2.4802	7.0149	2.3779	0.3144	3.0551	4.033	4.176	#	Co	Co
#-----------------------
#pair_style eam/alloy
#pair_coeff * * AlCrFeCoNi_Zhou04.eam.alloy Fe
#-----------------------
pair_style meam
pair_coeff * * ./../../library.meam Ti Cr N ./../../TiCrN.meam Ti Cr
#-----------------------

# Setup neighbor style
neighbor 1.0 nsq
neigh_modify once no every 1 delay 0 check yes

# Setup minimization style
min_style	     cg
min_modify	     dmax ${dmax} line quadratic
min_modify	     dmax 0.01 line quadratic

# Setup output
thermo		1
thermo_style custom step temp pe press pxx pyy pzz pxy pxz pyz lx ly lz vol
thermo_modify norm no

# Positive deformation

variable delta equal ${up}*${len0}
variable delta equal 1e-06*${len0}
variable delta equal 1e-06*6.0044428312337
variable deltaxy equal ${up}*xy
variable deltaxy equal 1e-06*xy
variable deltaxz equal ${up}*xz
variable deltaxz equal 1e-06*xz
variable deltayz equal ${up}*yz
variable deltayz equal 1e-06*yz
if "${dir} == 1" then    "change_box all x delta 0 ${delta} xy delta ${deltaxy} xz delta ${deltaxz} remap units box"
change_box all x delta 0 ${delta} xy delta ${deltaxy} xz delta ${deltaxz} remap units box
change_box all x delta 0 6.0044428312337e-06 xy delta ${deltaxy} xz delta ${deltaxz} remap units box
change_box all x delta 0 6.0044428312337e-06 xy delta 0 xz delta ${deltaxz} remap units box
change_box all x delta 0 6.0044428312337e-06 xy delta 0 xz delta 0 remap units box
Changing box ...
  triclinic box = (0.028889292 0.028889292 0.028889292) to (6.0333381 9.0355535 12.037775) with tilt (0 0 0)
  triclinic box = (0.028889292 0.028889292 0.028889292) to (6.0333381 9.0355535 12.037775) with tilt (0 0 0)
  triclinic box = (0.028889292 0.028889292 0.028889292) to (6.0333381 9.0355535 12.037775) with tilt (0 0 0)
if "${dir} == 2" then    "change_box all y delta 0 ${delta} yz delta ${deltayz} remap units box"
if "${dir} == 3" then    "change_box all z delta 0 ${delta} remap units box"
if "${dir} == 4" then    "change_box all yz delta ${delta} remap units box"
if "${dir} == 5" then    "change_box all xz delta ${delta} remap units box"
if "${dir} == 6" then    "change_box all xy delta ${delta} remap units box"

# Relax atoms positions

minimize ${etol} ${ftol} ${maxiter} ${maxeval}
minimize 0 ${ftol} ${maxiter} ${maxeval}
minimize 0 1e-10 ${maxiter} ${maxeval}
minimize 0 1e-10 100 ${maxeval}
minimize 0 1e-10 100 1000
Neighbor list info ...
  update: every = 1 steps, delay = 0 steps, check = yes
  max neighbors/atom: 2000, page size: 100000
  master list distance cutoff = 6
  ghost atom cutoff = 6
  2 neighbor lists, perpetual/occasional/extra = 2 0 0
  (1) pair meam, perpetual
      attributes: full, newton on
      pair build: full/nsq
      stencil: none
      bin: none
  (2) pair meam, perpetual, half/full from (1)
      attributes: half, newton on
      pair build: halffull/newton
      stencil: none
      bin: none
Per MPI rank memory allocation (min/avg/max) = 9.772 | 9.773 | 9.776 Mbytes
   Step          Temp          PotEng         Press           Pxx            Pyy            Pzz            Pxy            Pxz            Pyz             Lx             Ly             Lz           Volume    
         1   0             -221.04        -1.2549561     -6.6423903      1.4388082      1.4387139     -6.1061303e-06 -3.7627574e-05 -4.9790211e-06  6.0044488      9.0066642      12.008886      649.44119    
         2   0             -221.04        -1.2549219     -6.6423201      1.4387524      1.4388021      8.8033305e-06 -8.8305255e-06 -4.0990587e-06  6.0044488      9.0066642      12.008886      649.44119    
         3   0             -221.04        -1.2549122     -6.6423135      1.4387788      1.4387982      4.5756102e-06 -4.5600347e-06 -2.2913178e-06  6.0044488      9.0066642      12.008886      649.44119    
         4   0             -221.04        -1.2549063     -6.6423239      1.4387999      1.4388052      9.8244985e-07 -4.890545e-06   6.3598339e-08  6.0044488      9.0066642      12.008886      649.44119    
         5   0             -221.04        -1.254902      -6.642328       1.4388083      1.4388137     -1.2825726e-06 -2.6844344e-06  1.848708e-06   6.0044488      9.0066642      12.008886      649.44119    
         6   0             -221.04        -1.2548999     -6.6423295      1.4388106      1.4388193     -1.9696163e-06 -7.2060565e-07  2.8374716e-06  6.0044488      9.0066642      12.008886      649.44119    
         7   0             -221.04        -1.2548985     -6.6423325      1.4388125      1.4388246     -2.0232471e-06 -5.7433832e-08  3.8595641e-06  6.0044488      9.0066642      12.008886      649.44119    
         8   0             -221.04        -1.2549075     -6.642366       1.4387585      1.438885      -4.2204789e-06  5.0680852e-06  1.2041197e-05  6.0044488      9.0066642      12.008886      649.44119    
         9   0             -221.04        -1.2571347     -6.6474374      1.4276888      1.4483444     -0.00033610335  0.00023633833  0.000643662    6.0044488      9.0066642      12.008886      649.44119    
        10   0             -221.04018     -17.540019     -44.21227      -80.023105      71.615317     -2.1890907      1.2635499      3.8660444      6.0044488      9.0066642      12.008886      649.44119    
        11   0             -221.04118     -101.49386     -234.93118     -502.08926      432.53886     -13.151593      7.5470854      23.537274      6.0044488      9.0066642      12.008886      649.44119    
        12   0             -221.04317     -255.63471     -570.73623     -1285.8707      1089.7028     -32.217549      17.842374      58.823732      6.0044488      9.0066642      12.008886      649.44119    
        13   0             -221.04641     -477.49881     -1021.1641     -2435.3046      2023.9723     -57.507003      29.611234      107.97885      6.0044488      9.0066642      12.008886      649.44119    
        14   0             -221.05123     -763.64638     -1545.3229     -3955.8269      3210.2106     -86.5791        39.185044      168.72097      6.0044488      9.0066642      12.008886      649.44119    
        15   0             -221.05806     -1109.9586     -2096.5898     -5855.141       4621.8551     -116.55614      41.856474      238.45015      6.0044488      9.0066642      12.008886      649.44119    
        16   0             -221.06755     -1512.6157     -2630.9819     -8152.9314      6246.0663     -144.27097      31.571961      314.48954      6.0044488      9.0066642      12.008886      649.44119    
        17   0             -221.08143     -1972.4957     -3129.1809     -10943.505      8155.1988     -166.05888     -2.3605565      394.70701      6.0044488      9.0066642      12.008886      649.44119    
        18   0             -221.10441     -2436.8123     -3612.5815     -14216.203      10518.348     -174.01194     -84.292475      466.91397      6.0044488      9.0066642      12.008886      649.44119    
        19   0             -221.14208     -2710.2396     -4159.9574     -17369.97       13399.209     -157.98786     -241.96184      496.5264       6.0044488      9.0066642      12.008886      649.44119    
        20   0             -221.18716     -2811.2696     -4639.5195     -20198.8        16404.511     -124.1513      -448.1099       488.0691       6.0044488      9.0066642      12.008886      649.44119    
        21   0             -221.23721     -2907.3175     -4891.7537     -23306.391      19476.192     -81.05662      -689.211        471.04857      6.0044488      9.0066642      12.008886      649.44119    
        22   0             -221.29369     -3021.6403     -4874.1354     -26809.176      22618.39      -31.643109     -967.86205      451.66264      6.0044488      9.0066642      12.008886      649.44119    
        23   0             -221.3577      -3147.2717     -4571.2418     -30693.74       25823.166      23.557816     -1288.4048      430.68813      6.0044488      9.0066642      12.008886      649.44119    
        24   0             -221.43025     -3276.0899     -3968.9426     -34948.383      29089.056      85.29398      -1657.5925      408.41609      6.0044488      9.0066642      12.008886      649.44119    
        25   0             -221.51245     -3400.3448     -3046.8556     -39574.076      32419.897      155.24253     -2085.95        385.11477      6.0044488      9.0066642      12.008886      649.44119    
        26   0             -221.59933     -3504.1697     -1868.4226     -44246.894      35602.807      230.77943     -2554.6776      362.46055      6.0044488      9.0066642      12.008886      649.44119    
        27   0             -221.68873     -3578.5953     -484.87274     -48830.965      38580.052      312.01543     -3060.7721      340.68761      6.0044488      9.0066642      12.008886      649.44119    
        28   0             -221.7799      -3616.061       1078.5095     -53272.144      41345.451      400.56492     -3611.3339      319.2644       6.0044488      9.0066642      12.008886      649.44119    
        29   0             -221.87216     -3606.9139      2810.7394     -57517.778      43886.297      498.63974     -4218.0853      297.28726      6.0044488      9.0066642      12.008886      649.44119    
        30   0             -221.96184     -3540.8331      4653.5663     -61386.495      46110.429      605.55731     -4875.9117      274.12827      6.0044488      9.0066642      12.008886      649.44119    
        31   0             -222.04895     -3405.9609      6636.1386     -64877.813      48023.792      724.73132     -5608.4463      247.77822      6.0044488      9.0066642      12.008886      649.44119    
        32   0             -222.13386     -3184.7268      8829.1254     -68009.372      49626.066      860.91656     -6454.4082      215.42156      6.0044488      9.0066642      12.008886      649.44119    
        33   0             -222.21303     -2870.6786      11218.601     -70702.687      50872.05       1012.2723     -7422.0789      174.91442      6.0044488      9.0066642      12.008886      649.44119    
        34   0             -222.28099     -2495.0182      13662.063     -72931.12       51784.002      1166.1391     -8464.5377      127.0719       6.0044488      9.0066642      12.008886      649.44119    
        35   0             -222.34033     -2080.1746      16212.95      -74995.918      52542.444      1318.6654     -9610.4841      71.514295      6.0044488      9.0066642      12.008886      649.44119    
        36   0             -222.39415     -1640.1107      18959.645     -77223.265      53343.288      1468.3061     -10915.089      7.0682045      6.0044488      9.0066642      12.008886      649.44119    
        37   0             -222.44537     -1182.9216      22010.593     -79952.178      54392.82       1617.2126     -12456.783     -68.316282      6.0044488      9.0066642      12.008886      649.44119    
        38   0             -222.4976      -710.06091      25536.874     -83584.19       55917.133      1776.8297     -14356.333     -159.55761      6.0044488      9.0066642      12.008886      649.44119    
        39   0             -222.55663     -215.34594      29805.993     -88646.423      58194.393      1962.8066     -16797.159     -276.51975      6.0044488      9.0066642      12.008886      649.44119    
        40   0             -222.63124      308.19188      35103.807     -95713.125      61533.894      2188.6662     -19980.808     -434.65127      6.0044488      9.0066642      12.008886      649.44119    
        41   0             -222.70873      737.24563      40132.584     -102992.96      65072.114      2400.3926     -23097.988     -601.3377       6.0044488      9.0066642      12.008886      649.44119    
        42   0             -222.79326      1116.18        45035.31      -110389.79      68703.016      2608.5881     -26170.296     -783.79864      6.0044488      9.0066642      12.008886      649.44119    
        43   0             -222.88652      1471.7195      49887.573     -117808.33      72335.918      2821.2602     -29206.151     -989.24162      6.0044488      9.0066642      12.008886      649.44119    
        44   0             -222.98926      1821.7694      54736.892     -125174.74      75903.161      3046.066      -32218.669     -1226.7235      6.0044488      9.0066642      12.008886      649.44119    
        45   0             -223.10219      2179.936       59613.948     -132428.89      79354.751      3292.3204     -35229.452     -1509.0703      6.0044488      9.0066642      12.008886      649.44119    
        46   0             -223.22167      2544.2174      64354.337     -139249.52      82527.84       3563.4855     -38156.008     -1842.407       6.0044488      9.0066642      12.008886      649.44119    
        47   0             -223.33967      2898.3001      68653.123     -145168.62      85210.4        3855.9072     -40837.633     -2219.794       6.0044488      9.0066642      12.008886      649.44119    
        48   0             -223.45379      3239.5282      72444.294     -150113.64      87387.929      4177.675      -43257.983     -2645.4207      6.0044488      9.0066642      12.008886      649.44119    
        49   0             -223.56571      3572.7034      75778.475     -154183.79      89123.42       4547.8721     -45467.94      -3136.7604      6.0044488      9.0066642      12.008886      649.44119    
        50   0             -223.67611      3893.5576      78635.698     -157391.49      90436.464      4987.609      -47463.279     -3710.2126      6.0044488      9.0066642      12.008886      649.44119    
        51   0             -223.78459      4186.7356      80950.676     -159719.19      91328.723      5514.5734     -49189.694     -4373.7556      6.0044488      9.0066642      12.008886      649.44119    
        52   0             -223.89524      4438.6413      82737.742     -161247.33      91825.517      6164.0833     -50626.683     -5154.1996      6.0044488      9.0066642      12.008886      649.44119    
        53   0             -223.99503      4594.7611      83801.971     -161909.77      91892.087      6853.4778     -51546.736     -5942.9721      6.0044488      9.0066642      12.008886      649.44119    
        54   0             -224.08565      4658.4449      84315.573     -161985.74      91645.506      7550.2651     -52031.142     -6715.2707      6.0044488      9.0066642      12.008886      649.44119    
        55   0             -224.17084      4643.0238      84431.985     -161671.75      91168.835      8248.9972     -52183.646     -7473.598       6.0044488      9.0066642      12.008886      649.44119    
        56   0             -224.25334      4559.3979      84241.841     -161078.25      90514.603      8951.9025     -52081.948     -8218.9938      6.0044488      9.0066642      12.008886      649.44119    
        57   0             -224.33496      4415.8027      83798.644     -160269.7       89718.469      9660.6929     -51783.041     -8949.6162      6.0044488      9.0066642      12.008886      649.44119    
        58   0             -224.41695      4218.2284      83143.33      -159288.04      88799.392      10372.907     -51331.178     -9667.0187      6.0044488      9.0066642      12.008886      649.44119    
        59   0             -224.50023      3970.5612      82309.646     -158161.9       87763.935      11083.61      -50761.894     -10375.862      6.0044488      9.0066642      12.008886      649.44119    
        60   0             -224.58552      3674.8723      81324.206     -156910.28      86610.69       11787.001     -50101.444     -11081.84       6.0044488      9.0066642      12.008886      649.44119    
        61   0             -224.67333      3331.8318      80204.323     -155543.86      85335.03       12478.661     -49366.233     -11788.994      6.0044488      9.0066642      12.008886      649.44119    
        62   0             -224.76411      2940.9479      78959.752     -154068.61      83931.697      13155.236     -48565.145     -12499.649      6.0044488      9.0066642      12.008886      649.44119    
        63   0             -224.85822      2500.9291      77596.172     -152488.74      82395.351      13811.579     -47698.891     -13214.534      6.0044488      9.0066642      12.008886      649.44119    
        64   0             -224.95597      2009.7378      76116.673     -150806.51      80719.049      14441.258     -46764.371     -13935.73       6.0044488      9.0066642      12.008886      649.44119    
        65   0             -225.05769      1464.4593      74519.332     -149020.34      78894.383      15040.165     -45758.646     -14668.121      6.0044488      9.0066642      12.008886      649.44119    
        66   0             -225.16368      861.34904      72803.031     -147129.44      76910.46       15606.113     -44680.069     -15416.643      6.0044488      9.0066642      12.008886      649.44119    
        67   0             -225.27425      195.81017      70969.306     -145135.06      74753.18       16138.495     -43529.553     -16185.358      6.0044488      9.0066642      12.008886      649.44119    
        68   0             -225.38972     -537.75351      69012.152     -143037.35      72411.935      16638.126     -42309.362     -16981.638      6.0044488      9.0066642      12.008886      649.44119    
        69   0             -225.50823     -1331.2137      66966.984     -140881.76      69921.13       17098.052     -41045.063     -17796.748      6.0044488      9.0066642      12.008886      649.44119    
        70   0             -225.62985     -2188.6547      64836.064     -138682.96      67280.937      17521.353     -39743.39      -18636.852      6.0044488      9.0066642      12.008886      649.44119    
        71   0             -225.75534     -3120.6101      62610.395     -136450.7       64478.473      17913.493     -38404.697     -19512.51       6.0044488      9.0066642      12.008886      649.44119    
        72   0             -225.88555     -4140.6673      60279.871     -134203.7       61501.831      18281.525     -37032.902     -20436.033      6.0044488      9.0066642      12.008886      649.44119    
        73   0             -226.02136     -5265.9549      57834.523     -131972.86      58340.467      18635.952     -35639.95      -21424.649      6.0044488      9.0066642      12.008886      649.44119    
        74   0             -226.15473     -6436.8501      55427.809     -129940.2       55201.841      18972.835     -34335.641     -22433.915      6.0044488      9.0066642      12.008886      649.44119    
        75   0             -226.28489     -7647.5888      53086.923     -128156.38      52126.696      19307.426     -33147.162     -23468.037      6.0044488      9.0066642      12.008886      649.44119    
        76   0             -226.41331     -8913.1071      50800.007     -126638.57      49099.239      19658.791     -32076.18      -24548.39       6.0044488      9.0066642      12.008886      649.44119    
        77   0             -226.54159     -10252.422      48554.906     -125411.59      46099.421      20044.897     -31124.195     -25699.285      6.0044488      9.0066642      12.008886      649.44119    
        78   0             -226.67152     -11689.942      46339.54      -124514.03      43104.664      20481.495     -30295.812     -26948.126      6.0044488      9.0066642      12.008886      649.44119    
        79   0             -226.80527     -13257.328      44139.195     -124000.2       40089.017      20984.363     -29599.719     -28329.194      6.0044488      9.0066642      12.008886      649.44119    
        80   0             -226.9355      -14869.498      42086.779     -123934.59      37239.321      21530.948     -29090.32      -29778.057      6.0044488      9.0066642      12.008886      649.44119    
        81   0             -227.05983     -16484.497      40210.564     -124273.49      34609.438      22104.54      -28766.341     -31267.155      6.0044488      9.0066642      12.008886      649.44119    
        82   0             -227.17965     -18105.552      38469.471     -124942.57      32156.445      22706.615     -28602.279     -32808.923      6.0044488      9.0066642      12.008886      649.44119    
        83   0             -227.2961      -19735.564      36827.011     -125872.14      29838.442      23340.168     -28574.883     -34412.075      6.0044488      9.0066642      12.008886      649.44119    
        84   0             -227.41018     -21378.295      35254.904     -127007.3       27617.508      24004.227     -28662.936     -36077.372      6.0044488      9.0066642      12.008886      649.44119    
        85   0             -227.52286     -23039.538      33731.072     -128310.87      25461.181      24694.131     -28851.836     -37797.669      6.0044488      9.0066642      12.008886      649.44119    
        86   0             -227.63512     -24727.132      32238.822     -129763.32      23343.102      25400.573     -29133.919     -39559.345      6.0044488      9.0066642      12.008886      649.44119    
        87   0             -227.74786     -26449.133      30766.677     -131355.58      21241.502      26112.31      -29503.073     -41345.027      6.0044488      9.0066642      12.008886      649.44119    
        88   0             -227.86187     -28210.87       29305.694     -133073.3       19135          26826.604     -29950.446     -43137.431      6.0044488      9.0066642      12.008886      649.44119    
        89   0             -227.97771     -30012.296      27847.863     -134884.89      17000.135      27555.276     -30459.379     -44922.511      6.0044488      9.0066642      12.008886      649.44119    
        90   0             -228.09555     -31846.324      26386.068     -136737.56      14812.518      28323.465     -31000.616     -46693.799      6.0044488      9.0066642      12.008886      649.44119    
        91   0             -228.21508     -33698.295      24915.214     -138560.51      12550.407      29166.562     -31532.757     -48455.801      6.0044488      9.0066642      12.008886      649.44119    
        92   0             -228.3355      -35547.37       23433.243     -140275.83      10200.481      30124.438     -32005.188     -50222.709      6.0044488      9.0066642      12.008886      649.44119    
        93   0             -228.45572     -37370.146      21942.992     -141816.02      7762.5893      31230.609     -32362.593     -52012.408      6.0044488      9.0066642      12.008886      649.44119    
        94   0             -228.57478     -39146.244      20449.55      -143141.73      5253.4461      32499.434     -32552.437     -53838.118      6.0044488      9.0066642      12.008886      649.44119    
        95   0             -228.69243     -40864.135      18956.28      -144250.54      2701.8549      33919.87      -32530.601     -55704          6.0044488      9.0066642      12.008886      649.44119    
        96   0             -228.80952     -42525.144      17456.129     -145171.03      139.46886      35464.379     -32261.296     -57614.354      6.0044488      9.0066642      12.008886      649.44119    
        97   0             -228.92828     -44143.45       15924.037     -145943.2      -2411.188       37110.744     -31709.362     -59590.338      6.0044488      9.0066642      12.008886      649.44119    
        98   0             -229.05232     -45742.649      14317.923     -146604.85     -4941.0237      38855.083     -30835.354     -61673.442      6.0044488      9.0066642      12.008886      649.44119    
        99   0             -229.18691     -47350.672      12588.001     -147189.02     -7450.9952      40707.797     -29599.528     -63911.538      6.0044488      9.0066642      12.008886      649.44119    
       100   0             -229.33894     -48993.967      10690.887     -147726.3      -9946.4916      42679.711     -27973.877     -66338.826      6.0044488      9.0066642      12.008886      649.44119    
       101   0             -229.51665     -50691.539      8604.6744     -148246.06     -12433.233      44768.529     -25957.534     -68961.286      6.0044488      9.0066642      12.008886      649.44119    
Loop time of 0.01529 on 4 procs for 100 steps with 48 atoms

102.2% CPU use with 4 MPI tasks x 1 OpenMP threads

Minimization stats:
  Stopping criterion = max iterations
  Energy initial, next-to-last, final = 
     -221.039999972033  -229.338944497838  -229.516651299101
  Force two-norm initial, final = 0.00050997569 8.8914047
  Force max component initial, final = 0.00014024092 4.1597796
  Final line search alpha, max atom move = 0.00243699 0.010137341
  Iterations, force evaluations = 100 107

MPI task timing breakdown:
Section |  min time  |  avg time  |  max time  |%varavg| %total
---------------------------------------------------------------
Pair    | 0.011672   | 0.01225    | 0.01257    |   0.3 | 80.12
Neigh   | 1.6e-05    | 1.65e-05   | 1.7e-05    |   0.0 |  0.11
Comm    | 0.001039   | 0.001356   | 0.00193    |   0.9 |  8.87
Output  | 0.00093    | 0.00096425 | 0.001048   |   0.0 |  6.31
Modify  | 0          | 0          | 0          |   0.0 |  0.00
Other   |            | 0.0007033  |            |       |  4.60

Nlocal:             12 ave          12 max          12 min
Histogram: 4 0 0 0 0 0 0 0 0 0
Nghost:            384 ave         384 max         384 min
Histogram: 4 0 0 0 0 0 0 0 0 0
Neighs:          362.5 ave         370 max         355 min
Histogram: 1 0 1 0 0 0 0 0 1 1
FullNghs:          725 ave         726 max         723 min
Histogram: 1 0 0 0 0 0 1 0 0 2

Total # of neighbors = 2900
Ave neighs/atom = 60.416667
Neighbor list builds = 1
Dangerous builds = 0

# Obtain new stress tensor

variable tmp equal pe
variable e1 equal ${tmp}
variable e1 equal -229.516651299101
variable tmp equal press
variable p1 equal ${tmp}
variable p1 equal -50691.5394550063
variable tmp equal pxx
variable pxx1 equal ${tmp}
variable pxx1 equal 8604.67438952549
variable tmp equal pyy
variable pyy1 equal ${tmp}
variable pyy1 equal -148246.059485394
variable tmp equal pzz
variable pzz1 equal ${tmp}
variable pzz1 equal -12433.2332691508
variable tmp equal pxy
variable pxy1 equal ${tmp}
variable pxy1 equal 44768.529074328
variable tmp equal pxz
variable pxz1 equal ${tmp}
variable pxz1 equal -25957.5340557664
variable tmp equal pyz
variable pyz1 equal ${tmp}
variable pyz1 equal -68961.2863238811

# Compute elastic constant from pressure tensor

variable C1pos equal ${d1}
variable C1pos equal -860467.438952571
variable C2pos equal ${d2}
variable C2pos equal 14824605.9485394
variable C3pos equal ${d3}
variable C3pos equal 1243323.3269151
variable C4pos equal ${d4}
variable C4pos equal 6896128.63238811
variable C5pos equal ${d5}
variable C5pos equal 2595753.40557664
variable C6pos equal ${d6}
variable C6pos equal -4476852.9074328

# Combine positive and negative

variable C1${dir} equal 0.5*(${C1neg}+${C1pos})
variable C11 equal 0.5*(${C1neg}+${C1pos})
variable C11 equal 0.5*(861917.569795776+${C1pos})
variable C11 equal 0.5*(861917.569795776+-860467.438952571)
variable C2${dir} equal 0.5*(${C2neg}+${C2pos})
variable C21 equal 0.5*(${C2neg}+${C2pos})
variable C21 equal 0.5*(-14825147.4515321+${C2pos})
variable C21 equal 0.5*(-14825147.4515321+14824605.9485394)
variable C3${dir} equal 0.5*(${C3neg}+${C3pos})
variable C31 equal 0.5*(${C3neg}+${C3pos})
variable C31 equal 0.5*(-1242529.71607541+${C3pos})
variable C31 equal 0.5*(-1242529.71607541+1243323.3269151)
variable C4${dir} equal 0.5*(${C4neg}+${C4pos})
variable C41 equal 0.5*(${C4neg}+${C4pos})
variable C41 equal 0.5*(-6897625.95843871+${C4pos})
variable C41 equal 0.5*(-6897625.95843871+6896128.63238811)
variable C5${dir} equal 0.5*(${C5neg}+${C5pos})
variable C51 equal 0.5*(${C5neg}+${C5pos})
variable C51 equal 0.5*(-2593662.25015018+${C5pos})
variable C51 equal 0.5*(-2593662.25015018+2595753.40557664)
variable C6${dir} equal 0.5*(${C6neg}+${C6pos})
variable C61 equal 0.5*(${C6neg}+${C6pos})
variable C61 equal 0.5*(4477994.9375327+${C6pos})
variable C61 equal 0.5*(4477994.9375327+-4476852.9074328)

# Delete dir to make sure it is not reused

variable dir delete

# uyy Perturbation

variable dir equal 2
include displace.mod
# NOTE: This script should not need to be
# modified. See in.elastic for more info.
#
# Find which reference length to use

if "${dir} == 1" then    "variable len0 equal ${lx0}"
if "${dir} == 2" then    "variable len0 equal ${ly0}"
variable len0 equal ${ly0}
variable len0 equal 9.00666424685055
if "${dir} == 3" then    "variable len0 equal ${lz0}"
if "${dir} == 4" then    "variable len0 equal ${lz0}"
if "${dir} == 5" then    "variable len0 equal ${lz0}"
if "${dir} == 6" then    "variable len0 equal ${ly0}"

# Reset box and simulation parameters

clear
  using 1 OpenMP thread(s) per MPI task
Loaded 1 plugins from C:\Program Files\LAMMPS 64-bit 23Jun2022\plugins
Loaded 0 plugins from C:\Program Files\LAMMPS 64-bit 23Jun2022-MPI\plugins
Loaded 1 plugins from C:\Program Files\LAMMPS 64-bit 22Dec2022-MSMPI\plugins
Loaded 1 plugins from C:\Program Files\LAMMPS 64-bit 28Mar2023-MPI\plugins
box tilt large

The 'box' command has been removed and will be ignored

read_restart restart.equil
Reading restart file ...
  restart file = 22 Dec 2022, LAMMPS = 22 Dec 2022
  restoring atom style atomic from restart
  triclinic box = (0.028889292 0.028889292 0.028889292) to (6.0333321 9.0355535 12.037775) with tilt (0 0 0)
  1 by 2 by 2 MPI processor grid
  pair style meam stores no restart info
  48 atoms
  read_restart CPU = 0.000 seconds
include potential.mod
# NOTE: This script can be modified for different pair styles
# See in.elastic for more info.

# Choose potential
#-----------------------
#pair_style	sw
#pair_coeff * * Si.sw Si
#-----------------------
#pair_style morse	2.83994742	# D0[eV] a[1/A] r0[A] rc[A], 1NN for BCC
#pair_coeff 1 1	2.1173	1.0202	2.4595	2.6497	#	Fe-Fe
#-----------------------
#pair_style smatb # R0(A)   p       q     A(eV)   xi(eV)  Rcs(A)   Rc(A), 4NN: Rcs=4NN, Rc=(4NN+5NN)/2
#pair_coeff 1 1	2.4802	7.0149	2.3779	0.3144	3.0551	4.033	4.176	#	Co	Co
#-----------------------
#pair_style eam/alloy
#pair_coeff * * AlCrFeCoNi_Zhou04.eam.alloy Fe
#-----------------------
pair_style meam
pair_coeff * * ./../../library.meam Ti Cr N ./../../TiCrN.meam Ti Cr
#-----------------------

# Setup neighbor style
neighbor 1.0 nsq
neigh_modify once no every 1 delay 0 check yes

# Setup minimization style
min_style	     cg
min_modify	     dmax ${dmax} line quadratic
min_modify	     dmax 0.01 line quadratic

# Setup output
thermo		1
thermo_style custom step temp pe press pxx pyy pzz pxy pxz pyz lx ly lz vol
thermo_modify norm no

# Negative deformation

variable delta equal -${up}*${len0}
variable delta equal -1e-06*${len0}
variable delta equal -1e-06*9.00666424685055
variable deltaxy equal -${up}*xy
variable deltaxy equal -1e-06*xy
variable deltaxz equal -${up}*xz
variable deltaxz equal -1e-06*xz
variable deltayz equal -${up}*yz
variable deltayz equal -1e-06*yz
if "${dir} == 1" then    "change_box all x delta 0 ${delta} xy delta ${deltaxy} xz delta ${deltaxz} remap units box"
if "${dir} == 2" then    "change_box all y delta 0 ${delta} yz delta ${deltayz} remap units box"
change_box all y delta 0 ${delta} yz delta ${deltayz} remap units box
change_box all y delta 0 -9.00666424685055e-06 yz delta ${deltayz} remap units box
change_box all y delta 0 -9.00666424685055e-06 yz delta -0 remap units box
Changing box ...
  triclinic box = (0.028889292 0.028889292 0.028889292) to (6.0333321 9.0355445 12.037775) with tilt (0 0 0)
  triclinic box = (0.028889292 0.028889292 0.028889292) to (6.0333321 9.0355445 12.037775) with tilt (0 0 0)
if "${dir} == 3" then    "change_box all z delta 0 ${delta} remap units box"
if "${dir} == 4" then    "change_box all yz delta ${delta} remap units box"
if "${dir} == 5" then    "change_box all xz delta ${delta} remap units box"
if "${dir} == 6" then    "change_box all xy delta ${delta} remap units box"

# Relax atoms positions

minimize ${etol} ${ftol} ${maxiter} ${maxeval}
minimize 0 ${ftol} ${maxiter} ${maxeval}
minimize 0 1e-10 ${maxiter} ${maxeval}
minimize 0 1e-10 100 ${maxeval}
minimize 0 1e-10 100 1000
Neighbor list info ...
  update: every = 1 steps, delay = 0 steps, check = yes
  max neighbors/atom: 2000, page size: 100000
  master list distance cutoff = 6
  ghost atom cutoff = 6
  2 neighbor lists, perpetual/occasional/extra = 2 0 0
  (1) pair meam, perpetual
      attributes: full, newton on
      pair build: full/nsq
      stencil: none
      bin: none
  (2) pair meam, perpetual, half/full from (1)
      attributes: half, newton on
      pair build: halffull/newton
      stencil: none
      bin: none
Per MPI rank memory allocation (min/avg/max) = 9.772 | 9.773 | 9.776 Mbytes
   Step          Temp          PotEng         Press           Pxx            Pyy            Pzz            Pxy            Pxz            Pyz             Lx             Ly             Lz           Volume    
         1   0             -221.04         1.2548482     -1.4389053      6.6423917     -1.4389418     -6.1059335e-06 -3.7627744e-05 -4.9790669e-06  6.0044428      9.0066552      12.008886      649.43989    
         2   0             -221.04         1.2548824     -1.4388351      6.6423359     -1.4388535      8.8035351e-06 -8.8303599e-06 -4.099099e-06   6.0044428      9.0066552      12.008886      649.43989    
         3   0             -221.04         1.2548921     -1.4388286      6.6423623     -1.4388574      4.5758739e-06 -4.5600497e-06 -2.2912312e-06  6.0044428      9.0066552      12.008886      649.43989    
         4   0             -221.04         1.254898      -1.438839       6.6423834     -1.4388505      9.8262188e-07 -4.890548e-06   6.375183e-08   6.0044428      9.0066552      12.008886      649.43989    
         5   0             -221.04         1.2549023     -1.4388431      6.6423918     -1.4388419     -1.2825439e-06 -2.6844214e-06  1.8489229e-06  6.0044428      9.0066552      12.008886      649.43989    
         6   0             -221.04         1.2549044     -1.4388446      6.6423941     -1.4388363     -1.9697321e-06 -7.2051385e-07  2.8377745e-06  6.0044428      9.0066552      12.008886      649.43989    
         7   0             -221.04         1.2549058     -1.4388475      6.642396      -1.4388311     -2.0233906e-06 -5.7258381e-08  3.860415e-06   6.0044428      9.0066552      12.008886      649.43989    
         8   0             -221.04         1.2548968     -1.4388811      6.6423419     -1.4387705     -4.2232661e-06  5.076103e-06   1.2056449e-05  6.0044428      9.0066552      12.008886      649.43989    
         9   0             -221.04         1.2526606     -1.4439766      6.6312292     -1.4292709     -0.00033712705  0.00023728002  0.00064597953  6.0044428      9.0066552      12.008886      649.43989    
        10   0             -221.04019     -15.167384     -39.350751     -75.494454      69.343054     -2.205806       1.2749568      3.8982411      6.0044428      9.0066552      12.008886      649.43989    
        11   0             -221.04118     -99.330964     -230.66343     -498.56114      431.23168     -13.186098      7.577411       23.616142      6.0044428      9.0066552      12.008886      649.43989    
        12   0             -221.04318     -253.68602     -567.12198     -1283.3481      1089.412      -32.259345      17.891269      58.94579       6.0044428      9.0066552      12.008886      649.43989    
        13   0             -221.04642     -475.76515     -1018.2148     -2433.7962      2024.7155     -57.543252      29.675889      108.13835      6.0044428      9.0066552      12.008886      649.43989    
        14   0             -221.05124     -762.12537     -1543.0084     -3955.3431      3211.9754     -86.594864      39.260787      168.91021      6.0044428      9.0066552      12.008886      649.43989    
        15   0             -221.05808     -1108.6456     -2094.8532     -5855.6976      4624.614      -116.53467      41.937049      238.6601       6.0044428      9.0066552      12.008886      649.43989    
        16   0             -221.06758     -1511.5077     -2629.7756     -8154.5942      6249.8466     -144.19411      31.647985      314.7112       6.0044428      9.0066552      12.008886      649.43989    
        17   0             -221.08147     -1971.6124     -3128.5886     -10946.701      8160.4524     -165.90541     -2.3183884      394.93424      6.0044428      9.0066552      12.008886      649.43989    
        18   0             -221.10448     -2435.7117     -3612.7298     -14219.328      10524.923     -173.75264     -84.328161      467.06992      6.0044428      9.0066552      12.008886      649.43989    
        19   0             -221.1422      -2708.511      -4161.2772     -17371.916      13407.66      -157.64617     -242.12434      496.55864      6.0044428      9.0066552      12.008886      649.43989    
        20   0             -221.18729     -2809.3563     -4641.2646     -20200.035      16413.231     -123.79102     -448.24887      488.06685      6.0044428      9.0066552      12.008886      649.43989    
        21   0             -221.23735     -2905.42       -4893.7414     -23307.735      19485.217     -80.687599     -689.29988      471.0445       6.0044428      9.0066552      12.008886      649.43989    
        22   0             -221.29384     -3019.7618     -4876.3246     -26810.61       22627.649     -31.261785     -967.87973      451.65777      6.0044428      9.0066552      12.008886      649.43989    
        23   0             -221.35788     -3145.4011     -4573.6084     -30695.196      25832.601      23.957951     -1288.3332      430.68203      6.0044428      9.0066552      12.008886      649.43989    
        24   0             -221.43044     -3274.22       -3971.4508     -34949.842      29098.633      85.72087      -1657.4185      408.40961      6.0044428      9.0066552      12.008886      649.43989    
        25   0             -221.51267     -3398.4694     -3049.4391     -39575.553      32429.584      155.70599     -2085.6668      385.1091       6.0044428      9.0066552      12.008886      649.43989    
        26   0             -221.59956     -3502.2509     -1871.3562     -44247.062      35611.666      231.26745     -2554.1511      362.46243      6.0044428      9.0066552      12.008886      649.43989    
[...]
        63   0             -224.85775      2503.2482      77600.086     -152492.19      82401.848      13811.912     -47697.014     -13213.588      6.0044428      9.0066642      12.008886      649.44054    
        64   0             -224.95549      2012.3361      76121.192     -150810.31      80726.128      14441.933     -46762.549     -13934.921      6.0044428      9.0066642      12.008886      649.44054    
        65   0             -225.05719      1467.3506      74524.495     -149024.52      78902.081      15041.195     -45756.875     -14667.42       6.0044428      9.0066642      12.008886      649.44054    
        66   0             -225.16317      864.55044      72808.855     -147134.03      76918.83       15607.5       -44678.329     -15416.036      6.0044428      9.0066642      12.008886      649.44054    
        67   0             -225.27372      199.34379      70975.821     -145140.08      74762.287      16140.224     -43527.809     -16184.829      6.0044428      9.0066642      12.008886      649.44054    
        68   0             -225.38918     -533.86018      69019.392     -143042.81      72421.836      16640.179     -42307.567     -16981.175      6.0044428      9.0066642      12.008886      649.44054    
        69   0             -225.50768     -1327.0479      66974.712     -140887.36      69931.504      17100.457     -41042.976     -17796.432      6.0044428      9.0066642      12.008886      649.44054    
        70   0             -225.62928     -2184.1881      64844.337     -138688.72      67291.816      17524.052     -39740.933     -18636.637      6.0044428      9.0066642      12.008886      649.44054    
        71   0             -225.75476     -3115.8064      62619.277     -136456.58      64489.887      17916.427     -38401.747     -19512.327      6.0044428      9.0066642      12.008886      649.44054    
        72   0             -225.88495     -4135.4827      60289.422     -134209.66      61513.793      18284.633     -37029.309     -20435.801      6.0044428      9.0066642      12.008886      649.44054    
        73   0             -226.02073     -5260.3369      57844.8       -131978.78      58352.971      18639.17      -35635.541     -21424.278      6.0044428      9.0066642      12.008886      649.44054    
        74   0             -226.15414     -6431.3207      55437.704     -129945.03      55213.359      18976.231     -34329.685     -22433.775      6.0044428      9.0066642      12.008886      649.44054    
        75   0             -226.28432     -7642.1049      53096.564     -128160.22      52137.346      19310.936     -33139.76      -23468.05       6.0044428      9.0066642      12.008886      649.44054    
        76   0             -226.41276     -8907.6227      50809.509     -126641.51      49109.133      19662.381     -32067.479     -24548.513      6.0044428      9.0066642      12.008886      649.44054    
        77   0             -226.54104     -10246.887      48564.375     -125413.69      46108.657      20048.558     -31114.363     -25699.495      6.0044428      9.0066642      12.008886      649.44054    
        78   0             -226.67098     -11684.307      46349.076     -124515.33      43113.333      20485.227     -30285.032     -26948.407      6.0044428      9.0066642      12.008886      649.44054    
        79   0             -226.80472     -13251.545      44148.908     -124000.75      40097.203      20988.16      -29588.17      -28329.497      6.0044428      9.0066642      12.008886      649.44054    
        80   0             -226.93495     -14863.538      42096.789     -123934.57      37247.162      21534.789     -29078.207     -29778.26       6.0044428      9.0066642      12.008886      649.44054    
        81   0             -227.05928     -16478.413      40220.923     -124273.16      34616.998      22108.408     -28753.82      -31267.148      6.0044428      9.0066642      12.008886      649.44054    
        82   0             -227.1791      -18099.409      38480.225     -124942.26      32163.807      22710.468     -28589.487     -32808.601      6.0044428      9.0066642      12.008886      649.44054    
        83   0             -227.29555     -19729.431      36838.179     -125872.16      29845.691      23343.983     -28561.951     -34411.369      6.0044428      9.0066642      12.008886      649.44054    
        84   0             -227.40965     -21372.236      35266.464     -127007.89      27624.719      24007.997     -28649.979     -36076.279      6.0044428      9.0066642      12.008886      649.44054    
        85   0             -227.52235     -23033.604      33742.972     -128312.18      25468.399      24697.877     -28838.925     -37796.255      6.0044428      9.0066642      12.008886      649.44054    
        86   0             -227.63461     -24721.366      32250.971     -129765.4       23350.333      25404.355     -29121.095     -39557.739      6.0044428      9.0066642      12.008886      649.44054    
        87   0             -227.74738     -26443.579      30778.938     -131358.4       21248.721      26116.212     -29490.358     -41343.416      6.0044428      9.0066642      12.008886      649.44054    
        88   0             -227.86142     -28205.577      29317.897     -133076.79      19142.162      26830.698     -29937.849     -43136.065      6.0044428      9.0066642      12.008886      649.44054    
        89   0             -227.97728     -30007.322      27859.816     -134888.96      17007.175      27559.64      -30446.916     -44921.701      6.0044428      9.0066642      12.008886      649.44054    
        90   0             -228.09514     -31841.728      26397.58      -136742.12      14819.353      28328.209     -30988.316     -46693.9        6.0044428      9.0066642      12.008886      649.44054    
        91   0             -228.21469     -33694.121      24926.131     -138565.45      12556.954      29171.825     -31520.657     -48457.165      6.0044428      9.0066642      12.008886      649.44054    
        92   0             -228.33514     -35543.634      23443.496     -140281.02      10206.621      30130.376     -31993.32      -50225.653      6.0044428      9.0066642      12.008886      649.44054    
        93   0             -228.45539     -37366.83       21952.577     -141821.31      7768.2471      31237.378     -32350.989     -52017.152      6.0044428      9.0066642      12.008886      649.44054    
        94   0             -228.57448     -39143.286      20458.558     -143147         5258.5862      32507.143     -32541.134     -53844.719      6.0044428      9.0066642      12.008886      649.44054    
        95   0             -228.69213     -40861.439      18964.888     -144255.72      2706.511       33928.491     -32519.667     -55712.29       6.0044428      9.0066642      12.008886      649.44054    
        96   0             -228.80924     -42522.601      17464.578     -145176.11      143.73114      35473.71      -32250.85      -57623.951      6.0044428      9.0066642      12.008886      649.44054    
        97   0             -228.92799     -44140.957      15932.579     -145948.24     -2407.2122      37120.464     -31699.569     -59600.744      6.0044428      9.0066642      12.008886      649.44054    
        98   0             -229.05202     -45740.112      14326.776     -146609.86     -4937.2491      38864.852     -30826.391     -61684.176      6.0044428      9.0066642      12.008886      649.44054    
        99   0             -229.18657     -47348.012      12597.328     -147193.99     -7447.3692      40717.332     -29591.546     -63922.229      6.0044428      9.0066642      12.008886      649.44054    
       100   0             -229.33855     -48991.124      10700.766     -147731.15     -9942.9885      42688.831     -27966.949     -66349.257      6.0044428      9.0066642      12.008886      649.44054    
       101   0             -229.51617     -50688.483      8615.0794     -148250.69     -12429.842      44777.161     -25951.615     -68971.393      6.0044428      9.0066642      12.008886      649.44054    
Loop time of 0.0157938 on 4 procs for 100 steps with 48 atoms

24.7% CPU use with 4 MPI tasks x 1 OpenMP threads

Minimization stats:
  Stopping criterion = max iterations
  Energy initial, next-to-last, final = 
     -221.039999973209  -229.338547128349  -229.516168218634
  Force two-norm initial, final = 0.00050997444 8.8859508
  Force max component initial, final = 0.00014024052 4.1569412
  Final line search alpha, max atom move = 0.0024389645 0.010138632
  Iterations, force evaluations = 100 107

MPI task timing breakdown:
Section |  min time  |  avg time  |  max time  |%varavg| %total
---------------------------------------------------------------
Pair    | 0.012191   | 0.012653   | 0.01298    |   0.3 | 80.11
Neigh   | 1.6e-05    | 1.675e-05  | 1.8e-05    |   0.0 |  0.11
Comm    | 0.00093    | 0.0012557  | 0.001717   |   0.8 |  7.95
Output  | 0.000932   | 0.001001   | 0.001207   |   0.4 |  6.34
Modify  | 0          | 0          | 0          |   0.0 |  0.00
Other   |            | 0.0008672  |            |       |  5.49

Nlocal:             12 ave          12 max          12 min
Histogram: 4 0 0 0 0 0 0 0 0 0
Nghost:            384 ave         384 max         384 min
Histogram: 4 0 0 0 0 0 0 0 0 0
Neighs:          362.5 ave         370 max         355 min
Histogram: 1 0 1 0 0 0 0 0 1 1
FullNghs:          725 ave         726 max         723 min
Histogram: 1 0 0 0 0 0 1 0 0 2

Total # of neighbors = 2900
Ave neighs/atom = 60.416667
Neighbor list builds = 1
Dangerous builds = 0

# Obtain new stress tensor

variable tmp equal pe
variable e1 equal ${tmp}
variable e1 equal -229.516168218634
variable tmp equal press
variable p1 equal ${tmp}
variable p1 equal -50688.4831593062
variable tmp equal pxx
variable pxx1 equal ${tmp}
variable pxx1 equal 8615.07942937837
variable tmp equal pyy
variable pyy1 equal ${tmp}
variable pyy1 equal -148250.687118475
variable tmp equal pzz
variable pzz1 equal ${tmp}
variable pzz1 equal -12429.8417888216
variable tmp equal pxy
variable pxy1 equal ${tmp}
variable pxy1 equal 44777.1605994935
variable tmp equal pxz
variable pxz1 equal ${tmp}
variable pxz1 equal -25951.6154269904
variable tmp equal pyz
variable pyz1 equal ${tmp}
variable pyz1 equal -68971.3932077803

# Compute elastic constant from pressure tensor

variable C1pos equal ${d1}
variable C1pos equal -861507.942937858
variable C2pos equal ${d2}
variable C2pos equal 14825068.7118475
variable C3pos equal ${d3}
variable C3pos equal 1242984.17888218
variable C4pos equal ${d4}
variable C4pos equal 6897139.32077803
variable C5pos equal ${d5}
variable C5pos equal 2595161.54269904
variable C6pos equal ${d6}
variable C6pos equal -4477716.05994935

# Combine positive and negative

variable C1${dir} equal 0.5*(${C1neg}+${C1pos})
variable C16 equal 0.5*(${C1neg}+${C1pos})
variable C16 equal 0.5*(860883.953760362+${C1pos})
variable C16 equal 0.5*(860883.953760362+-861507.942937858)
variable C2${dir} equal 0.5*(${C2neg}+${C2pos})
variable C26 equal 0.5*(${C2neg}+${C2pos})
variable C26 equal 0.5*(-14824683.1262057+${C2pos})
variable C26 equal 0.5*(-14824683.1262057+14825068.7118475)
variable C3${dir} equal 0.5*(${C3neg}+${C3pos})
variable C36 equal 0.5*(${C3neg}+${C3pos})
variable C36 equal 0.5*(-1242862.04136813+${C3pos})
variable C36 equal 0.5*(-1242862.04136813+1242984.17888218)
variable C4${dir} equal 0.5*(${C4neg}+${C4pos})
variable C46 equal 0.5*(${C4neg}+${C4pos})
variable C46 equal 0.5*(-6896608.36873826+${C4pos})
variable C46 equal 0.5*(-6896608.36873826+6897139.32077803)
variable C5${dir} equal 0.5*(${C5neg}+${C5pos})
variable C56 equal 0.5*(${C5neg}+${C5pos})
variable C56 equal 0.5*(-2594259.81792772+${C5pos})
variable C56 equal 0.5*(-2594259.81792772+2595161.54269904)
variable C6${dir} equal 0.5*(${C6neg}+${C6pos})
variable C66 equal 0.5*(${C6neg}+${C6pos})
variable C66 equal 0.5*(4477125.6422846+${C6pos})
variable C66 equal 0.5*(4477125.6422846+-4477716.05994935)

# Delete dir to make sure it is not reused

variable dir delete

# Output final values

variable C11all equal ${C11}
variable C11all equal 725.065421602514
variable C22all equal ${C22}
variable C22all equal 1322.26446994953
variable C33all equal ${C33}
variable C33all equal -972.47332406498

variable C12all equal 0.5*(${C12}+${C21})
variable C12all equal 0.5*(339.168878816999+${C21})
variable C12all equal 0.5*(339.168878816999+-270.751496349461)
variable C13all equal 0.5*(${C13}+${C31})
variable C13all equal 0.5*(-1678.86920649902+${C31})
variable C13all equal 0.5*(-1678.86920649902+396.805419845041)
variable C23all equal 0.5*(${C23}+${C32})
variable C23all equal 0.5*(-2051.05276994966+${C32})
variable C23all equal 0.5*(-2051.05276994966+393.401994294953)

variable C44all equal ${C44}
variable C44all equal 25.5987095851451
variable C55all equal ${C55}
variable C55all equal -321.979383809958
variable C66all equal ${C66}
variable C66all equal -295.208832374774

variable C14all equal 0.5*(${C14}+${C41})
variable C14all equal 0.5*(-37.7406055220054+${C41})
variable C14all equal 0.5*(-37.7406055220054+-748.663025300018)
variable C15all equal 0.5*(${C15}+${C51})
variable C15all equal 0.5*(-38.4296824875055+${C51})
variable C15all equal 0.5*(-38.4296824875055+1045.57771322993)
variable C16all equal 0.5*(${C16}+${C61})
variable C16all equal 0.5*(-311.994588748028+${C61})
variable C16all equal 0.5*(-311.994588748028+571.015049949754)

variable C24all equal 0.5*(${C24}+${C42})
variable C24all equal 0.5*(-7.06467259954661+${C42})
variable C24all equal 0.5*(-7.06467259954661+2587.56598168006)
variable C25all equal 0.5*(${C25}+${C52})
variable C25all equal 0.5*(127.219749299809+${C52})
variable C25all equal 0.5*(127.219749299809+-1635.7147154198)
variable C26all equal 0.5*(${C26}+${C62})
variable C26all equal 0.5*(192.792820900679+${C62})
variable C26all equal 0.5*(192.792820900679+-1990.60083603999)

variable C34all equal 0.5*(${C34}+${C43})
variable C34all equal 0.5*(-68.3607519749785+${C43})
variable C34all equal 0.5*(-68.3607519749785+-4854.27098326525)
variable C35all equal 0.5*(${C35}+${C53})
variable C35all equal 0.5*(-65.9237861600704+${C53})
variable C35all equal 0.5*(-65.9237861600704+4274.36178623512)
variable C36all equal 0.5*(${C36}+${C63})
variable C36all equal 0.5*(61.0687570250593+${C63})
variable C36all equal 0.5*(61.0687570250593+3476.57883541007)

variable C45all equal 0.5*(${C45}+${C54})
variable C45all equal 0.5*(193.928882869892+${C54})
variable C45all equal 0.5*(193.928882869892+-331.223290960072)
variable C46all equal 0.5*(${C46}+${C64})
variable C46all equal 0.5*(265.476019884925+${C64})
variable C46all equal 0.5*(265.476019884925+6.13623257027939)
variable C56all equal 0.5*(${C56}+${C65})
variable C56all equal 0.5*(450.862385659944+${C65})
variable C56all equal 0.5*(450.862385659944+-89.4457383747213)

# Average moduli for cubic crystals

variable C11cubic equal (${C11all}+${C22all}+${C33all})/3.0
variable C11cubic equal (725.065421602514+${C22all}+${C33all})/3.0
variable C11cubic equal (725.065421602514+1322.26446994953+${C33all})/3.0
variable C11cubic equal (725.065421602514+1322.26446994953+-972.47332406498)/3.0
variable C12cubic equal (${C12all}+${C13all}+${C23all})/3.0
variable C12cubic equal (34.208691233769+${C13all}+${C23all})/3.0
variable C12cubic equal (34.208691233769+-641.03189332699+${C23all})/3.0
variable C12cubic equal (34.208691233769+-641.03189332699+-828.825387827354)/3.0
variable C44cubic equal (${C44all}+${C55all}+${C66all})/3.0
variable C44cubic equal (25.5987095851451+${C55all}+${C66all})/3.0
variable C44cubic equal (25.5987095851451+-321.979383809958+${C66all})/3.0
variable C44cubic equal (25.5987095851451+-321.979383809958+-295.208832374774)/3.0

variable bulkmodulus equal (${C11cubic}+2*${C12cubic})/3.0
variable bulkmodulus equal (358.285522495688+2*${C12cubic})/3.0
variable bulkmodulus equal (358.285522495688+2*-478.549529973525)/3.0
variable shearmodulus1 equal ${C44cubic}
variable shearmodulus1 equal -197.196502199862
variable shearmodulus2 equal (${C11cubic}-${C12cubic})/2.0
variable shearmodulus2 equal (358.285522495688-${C12cubic})/2.0
variable shearmodulus2 equal (358.285522495688--478.549529973525)/2.0
variable poissonratio equal 1.0/(1.0+${C11cubic}/${C12cubic})
variable poissonratio equal 1.0/(1.0+358.285522495688/${C12cubic})
variable poissonratio equal 1.0/(1.0+358.285522495688/-478.549529973525)

# For Stillinger-Weber silicon, the analytical results
# are known to be (E. R. Cowley, 1988):
#               C11 = 151.4 GPa
#               C12 = 76.4 GPa
#               C44 = 56.4 GPa

print "========================================="
=========================================
print "Components of the Elastic Constant Tensor"
Components of the Elastic Constant Tensor
print "========================================="
=========================================

print "Elastic Constant C11all = ${C11all} ${cunits}"
Elastic Constant C11all = 725.065421602514 GPa
print "Elastic Constant C22all = ${C22all} ${cunits}"
Elastic Constant C22all = 1322.26446994953 GPa
print "Elastic Constant C33all = ${C33all} ${cunits}"
Elastic Constant C33all = -972.47332406498 GPa

print "Elastic Constant C12all = ${C12all} ${cunits}"
Elastic Constant C12all = 34.208691233769 GPa
print "Elastic Constant C13all = ${C13all} ${cunits}"
Elastic Constant C13all = -641.03189332699 GPa
print "Elastic Constant C23all = ${C23all} ${cunits}"
Elastic Constant C23all = -828.825387827354 GPa

print "Elastic Constant C44all = ${C44all} ${cunits}"
Elastic Constant C44all = 25.5987095851451 GPa
print "Elastic Constant C55all = ${C55all} ${cunits}"
Elastic Constant C55all = -321.979383809958 GPa
print "Elastic Constant C66all = ${C66all} ${cunits}"
Elastic Constant C66all = -295.208832374774 GPa

print "Elastic Constant C14all = ${C14all} ${cunits}"
Elastic Constant C14all = -393.201815411012 GPa
print "Elastic Constant C15all = ${C15all} ${cunits}"
Elastic Constant C15all = 503.574015371212 GPa
print "Elastic Constant C16all = ${C16all} ${cunits}"
Elastic Constant C16all = 129.510230600863 GPa

print "Elastic Constant C24all = ${C24all} ${cunits}"
Elastic Constant C24all = 1290.25065454026 GPa
print "Elastic Constant C25all = ${C25all} ${cunits}"
Elastic Constant C25all = -754.247483059996 GPa
print "Elastic Constant C26all = ${C26all} ${cunits}"
Elastic Constant C26all = -898.904007569656 GPa

print "Elastic Constant C34all = ${C34all} ${cunits}"
Elastic Constant C34all = -2461.31586762011 GPa
print "Elastic Constant C35all = ${C35all} ${cunits}"
Elastic Constant C35all = 2104.21900003752 GPa
print "Elastic Constant C36all = ${C36all} ${cunits}"
Elastic Constant C36all = 1768.82379621756 GPa

print "Elastic Constant C45all = ${C45all} ${cunits}"
Elastic Constant C45all = -68.64720404509 GPa
print "Elastic Constant C46all = ${C46all} ${cunits}"
Elastic Constant C46all = 135.806126227602 GPa
print "Elastic Constant C56all = ${C56all} ${cunits}"
Elastic Constant C56all = 180.708323642611 GPa

print "========================================="
=========================================
print "Average properties for a cubic crystal"
Average properties for a cubic crystal
print "========================================="
=========================================

print "Bulk Modulus = ${bulkmodulus} ${cunits}"
Bulk Modulus = -199.604512483787 GPa
print "Shear Modulus 1 = ${shearmodulus1} ${cunits}"
Shear Modulus 1 = -197.196502199862 GPa
print "Shear Modulus 2 = ${shearmodulus2} ${cunits}"
Shear Modulus 2 = 418.417526234606 GPa
print "Poisson Ratio = ${poissonratio}"
Poisson Ratio = 3.97915835343933
Total wall time: 0:00:00
