LAMMPS (22 Dec 2022)
  using 1 OpenMP thread(s) per MPI task
Loaded 1 plugins from C:\Program Files\LAMMPS 64-bit 23Jun2022\plugins
Loaded 0 plugins from C:\Program Files\LAMMPS 64-bit 23Jun2022-MPI\plugins
Loaded 1 plugins from C:\Program Files\LAMMPS 64-bit 22Dec2022-MSMPI\plugins
Loaded 1 plugins from C:\Program Files\LAMMPS 64-bit 28Mar2023-MPI\plugins
# Compute elastic constant tensor for a crystal
#
# Written by Aidan Thompson (Sandia, athomps@sandia.gov)
#
#  This script uses the following three include files.
#
#   init.mod      (must be modified for different crystal structures)
# 	       	  Define units, deformation parameters and initial
#		  configuration of the atoms and simulation cell.
#
#
#   potential.mod    (must be modified for different pair styles)
# 		     Define pair style and other attributes
#		     not stored in restart file
#
#
#   displace.mod    (displace.mod should not need to be modified)
# 		    Perform positive and negative box displacements
# 		    in direction ${dir} and size ${up}.
# 		    It uses the resultant changes
#		    in stress to compute one
# 		    row of the elastic stiffness tensor
#
#		    Inputs variables:
#		    	   dir = the Voigt deformation component
#		    		    (1,2,3,4,5,6)
#		    Global constants:
#       	    	   up = the deformation magnitude (strain units)
#       		   cfac = conversion from LAMMPS pressure units to
#               	   output units for elastic constants
#
#
#  To run this on a different system, it should only be necessary to
#  modify the files init.mod and potential.mod. In order to calculate
#  the elastic constants correctly, care must be taken to specify
#  the correct units in init.mod (units, cfac and cunits). It is also
#  important to verify that the minimization of energy w.r.t atom
#  positions in the deformed cell is fully converged.
#  One indication of this is that the elastic constants are insensitive
#  to the choice of the variable ${up} in init.mod. Another is to check
#  the final max and two-norm forces reported in the log file. If you know
#  that minimization is not required, you can set maxiter = 0.0 in
#  init.mod.
#

include init.mod
# NOTE: This script can be modified for different atomic structures,
# units, etc. See in.elastic for more info.
#

# Define the finite deformation size. Try several values of this
# variable to verify that results do not depend on it.
variable up equal 1.0e-6

# Define the amount of random jiggle for atoms
# This prevents atoms from staying on saddle points
variable atomjiggle equal 1.0e-5

# Uncomment one of these blocks, depending on what units
# you are using in LAMMPS and for output

# metal units, elastic constants in eV/A^3
#units		metal
#variable cfac equal 6.2414e-7
#variable cunits string eV/A^3

# metal units, elastic constants in GPa
units		metal
variable cfac equal 1.0e-4
variable cunits string GPa

# real units, elastic constants in GPa
#units		real
#variable cfac equal 1.01325e-4
#variable cunits string GPa

# Define minimization parameters
variable etol equal 0.0
variable ftol equal 1.0e-10
variable maxiter equal 100
variable maxeval equal 1000
variable dmax equal 1.0e-2

# generate the box and atom positions using a diamond lattice

dimension    3
boundary     p p p
read_data    data.in
Reading data file ...
  orthogonal box = (0 0 0) to (3.02 3.02 3.02)
  1 by 2 by 2 MPI processor grid
  reading atoms ...
  2 atoms
  read_data CPU = 0.001 seconds
#replicate    2 3 4
replicate    2 3 4
Replication is creating a 2x3x4 = 24 times larger system...
  orthogonal box = (0 0 0) to (6.04 9.06 12.08)
  1 by 2 by 2 MPI processor grid
  48 atoms
  replicate CPU = 0.000 seconds
change_box   all triclinic
Changing box ...
  triclinic box = (0 0 0) to (6.04 9.06 12.08) with tilt (0 0 0)

# Need to set mass to something, just to satisfy LAMMPS
mass 1 1.0e-20

include potential.mod
# NOTE: This script can be modified for different pair styles
# See in.elastic for more info.

# Choose potential
#-----------------------
#pair_style	sw
#pair_coeff * * Si.sw Si
#-----------------------
#pair_style morse	2.83994742	# D0[eV] a[1/A] r0[A] rc[A], 1NN for BCC
#pair_coeff 1 1	2.1173	1.0202	2.4595	2.6497	#	Fe-Fe
#-----------------------
#pair_style smatb # R0(A)   p       q     A(eV)   xi(eV)  Rcs(A)   Rc(A), 4NN: Rcs=4NN, Rc=(4NN+5NN)/2
#pair_coeff 1 1	2.4802	7.0149	2.3779	0.3144	3.0551	4.033	4.176	#	Co	Co
#-----------------------
#pair_style eam/alloy
#pair_coeff * * AlCrFeCoNi_Zhou04.eam.alloy Fe
#-----------------------
pair_style meam
pair_coeff * * ./../../library.meam Ti Cr N ./../../TiCrN.meam Ti Cr
#-----------------------

# Setup neighbor style
neighbor 1.0 nsq
neigh_modify once no every 1 delay 0 check yes

# Setup minimization style
min_style	     cg
min_modify	     dmax ${dmax} line quadratic
min_modify	     dmax 0.01 line quadratic

# Setup output
thermo		1
thermo_style custom step temp pe press pxx pyy pzz pxy pxz pyz lx ly lz vol
thermo_modify norm no

# Compute initial state
fix 3 all box/relax  aniso 0.0
minimize ${etol} ${ftol} ${maxiter} ${maxeval}
minimize 0 ${ftol} ${maxiter} ${maxeval}
minimize 0 1e-10 ${maxiter} ${maxeval}
minimize 0 1e-10 100 ${maxeval}
minimize 0 1e-10 100 1000
Neighbor list info ...
  update: every = 1 steps, delay = 0 steps, check = yes
  max neighbors/atom: 2000, page size: 100000
  master list distance cutoff = 5
  ghost atom cutoff = 5
  2 neighbor lists, perpetual/occasional/extra = 2 0 0
  (1) pair meam, perpetual
      attributes: full, newton on
      pair build: full/nsq
      stencil: none
      bin: none
  (2) pair meam, perpetual, half/full from (1)
      attributes: half, newton on
      pair build: halffull/newton
      stencil: none
      bin: none
Per MPI rank memory allocation (min/avg/max) = 9.776 | 9.776 | 9.776 Mbytes
   Step          Temp          PotEng         Press           Pxx            Pyy            Pzz            Pxy            Pxz            Pyz             Lx             Ly             Lz           Volume    
         0   0             -220.96116     -21446.5       -21446.5       -21446.5       -21446.5       -2.7865371e-11  2.721116e-11  -8.9134207e-12  6.04           9.06           12.08          661.04659    
         1   0             -220.96379     -21096.07      -21096.07      -21096.07      -21096.07      -5.9279566e-12 -3.0281078e-12  5.3833028e-13  6.039396       9.059094       12.078792      660.8483     
         2   0             -220.96638     -20745.169     -20745.169     -20745.169     -20745.169      2.622853e-11   4.3752461e-13 -1.5044115e-11  6.038792       9.058188       12.077584      660.65004    
         3   0             -220.96892     -20393.796     -20393.796     -20393.796     -20393.796      9.8289079e-12 -4.2452624e-11 -3.787407e-11   6.038188       9.057282       12.076376      660.45183    
         4   0             -220.97142     -20041.951     -20041.951     -20041.951     -20041.951     -5.2521776e-11  2.1316873e-11 -1.7444139e-11  6.037584       9.056376       12.075168      660.25365    
         5   0             -220.97388     -19689.633     -19689.633     -19689.633     -19689.633      9.1812735e-12 -2.526454e-12   3.8671589e-11  6.03698        9.05547        12.07396       660.05552    
         6   0             -220.97629     -19336.842     -19336.842     -19336.842     -19336.842     -3.8434138e-11  3.032655e-11   6.6718409e-12  6.036376       9.054564       12.072752      659.85742    
         7   0             -220.97866     -18983.575     -18983.575     -18983.575     -18983.575     -1.5001841e-11  2.0324889e-11 -6.303075e-12   6.035772       9.053658       12.071544      659.65937    
         8   0             -220.98098     -18629.837     -18629.837     -18629.837     -18629.837     -2.8626163e-11 -2.8827526e-11 -1.1665876e-11  6.035168       9.052752       12.070336      659.46135    
         9   0             -220.98327     -18275.626     -18275.626     -18275.626     -18275.626     -1.6672005e-11 -3.8785509e-12  2.3541118e-11  6.034564       9.051846       12.069128      659.26337    
        10   0             -220.9855      -17920.944     -17920.944     -17920.944     -17920.944      3.1651187e-11  5.7689686e-12 -2.1962565e-11  6.03396        9.05094        12.06792       659.06543    
        11   0             -220.98769     -17565.789     -17565.789     -17565.789     -17565.789      2.3949556e-11 -2.8178571e-11 -1.8223267e-12  6.033356       9.050034       12.066712      658.86754    
        12   0             -220.98984     -17210.159     -17210.159     -17210.159     -17210.159     -1.8664808e-11 -4.1183453e-11 -1.5123104e-11  6.032752       9.049128       12.065504      658.66968    
        13   0             -220.99194     -16854.056     -16854.056     -16854.056     -16854.056     -1.5438258e-11  4.6598557e-12  3.1605978e-11  6.032148       9.048222       12.064296      658.47186    
        14   0             -220.994       -16497.477     -16497.477     -16497.477     -16497.477      6.0454069e-11  2.0401438e-11 -2.3036061e-11  6.031544       9.047316       12.063088      658.27408    
        15   0             -220.99602     -16140.421     -16140.421     -16140.421     -16140.421      2.0763094e-11 -6.757473e-12   2.243481e-11   6.03094        9.04641        12.06188       658.07634    
        16   0             -220.99799     -15782.889     -15782.889     -15782.889     -15782.889     -3.7681443e-12 -1.0646218e-11 -6.7595037e-13  6.030336       9.045504       12.060672      657.87864    
        17   0             -220.99991     -15424.88      -15424.88      -15424.88      -15424.88       1.7630606e-12 -6.4234584e-12  1.49768e-11    6.029732       9.044598       12.059464      657.68098    
        18   0             -221.00179     -15066.392     -15066.392     -15066.392     -15066.392     -5.7646341e-11  2.1643416e-11 -2.2319773e-12  6.029128       9.043692       12.058256      657.48336    
        19   0             -221.00363     -14707.425     -14707.425     -14707.425     -14707.425     -6.1554457e-11  2.8111071e-11  7.5436447e-12  6.028524       9.042786       12.057048      657.28578    
        20   0             -221.00542     -14347.978     -14347.978     -14347.978     -14347.978     -2.1736804e-11  4.6324459e-11  6.760867e-11   6.02792        9.04188        12.05584       657.08824    
        21   0             -221.00716     -13988.05      -13988.05      -13988.05      -13988.05      -4.5762965e-11 -2.0342856e-11  8.9698119e-12  6.027316       9.040974       12.054632      656.89074    
        22   0             -221.00887     -13627.64      -13627.64      -13627.64      -13627.64       5.0914741e-11 -2.3294665e-11 -2.7560839e-11  6.026712       9.040068       12.053424      656.69328    
        23   0             -221.01052     -13266.748     -13266.748     -13266.748     -13266.748      2.6828437e-11 -2.0321224e-12 -1.6595666e-12  6.026108       9.039162       12.052216      656.49585    
        24   0             -221.01214     -12905.373     -12905.373     -12905.373     -12905.373      8.927295e-12   1.7820298e-11 -5.9762367e-11  6.025504       9.038256       12.051008      656.29847    
        25   0             -221.0137      -12543.518     -12543.518     -12543.518     -12543.518      5.9355288e-13 -2.1621235e-11 -3.69391e-12    6.0249         9.03735        12.0498        656.10113    
        26   0             -221.01522     -12181.183     -12181.183     -12181.183     -12181.183     -1.4690723e-11 -1.9864976e-11 -3.0509349e-12  6.024296       9.036444       12.048592      655.90382    
        27   0             -221.0167      -11818.368     -11818.368     -11818.368     -11818.368     -1.0015236e-11  3.0518528e-12  1.5055807e-11  6.023692       9.035538       12.047384      655.70656    
        28   0             -221.01813     -11455.071     -11455.071     -11455.071     -11455.071     -4.3416095e-11  2.6847425e-11 -3.9211148e-11  6.023088       9.034632       12.046176      655.50933    
        29   0             -221.01952     -11091.292     -11091.292     -11091.292     -11091.292     -1.3807973e-11 -4.0885511e-12  2.5752782e-11  6.022484       9.033726       12.044968      655.31215    
        30   0             -221.02086     -10727.029     -10727.029     -10727.029     -10727.029      5.7261579e-11 -2.511567e-12  -4.4495465e-11  6.02188        9.03282        12.04376       655.115      
        31   0             -221.02216     -10362.283     -10362.283     -10362.283     -10362.283     -4.4944697e-11 -2.7245124e-11 -1.1237553e-11  6.021276       9.031914       12.042552      654.9179     
        32   0             -221.02341     -9997.0529     -9997.0529     -9997.0529     -9997.0529     -1.6219825e-11 -3.5488752e-12 -6.6019268e-11  6.020672       9.031008       12.041344      654.72083    
        33   0             -221.02462     -9631.3371     -9631.3371     -9631.3371     -9631.3371     -1.6504656e-11 -5.9958376e-12 -6.6242965e-13  6.020068       9.030102       12.040136      654.5238     
        34   0             -221.02578     -9265.1352     -9265.1352     -9265.1352     -9265.1352      1.8617833e-11  8.5971876e-12  4.1116984e-11  6.019464       9.029196       12.038928      654.32682    
        35   0             -221.0269      -8898.4464     -8898.4464     -8898.4464     -8898.4464     -2.3988003e-11 -9.1776266e-13 -1.461622e-12   6.01886        9.02829        12.03772       654.12987    
        36   0             -221.02797     -8531.2697     -8531.2697     -8531.2697     -8531.2697     -4.3304286e-11 -1.834378e-11  -2.422603e-11   6.018256       9.027384       12.036512      653.93296    
        37   0             -221.029       -8163.6041     -8163.6041     -8163.6041     -8163.6041     -1.8411638e-11  3.9623612e-12  2.4981582e-11  6.017652       9.026478       12.035304      653.73609    
        38   0             -221.02998     -7795.4491     -7795.4491     -7795.4491     -7795.4491     -8.8619759e-12  8.5054819e-12  1.9953861e-11  6.017048       9.025572       12.034096      653.53926    
        39   0             -221.03091     -7426.8037     -7426.8037     -7426.8037     -7426.8037     -4.5084805e-12 -2.9369767e-11  5.0367619e-11  6.016444       9.024666       12.032888      653.34247    
        40   0             -221.0318      -7057.6672     -7057.6672     -7057.6672     -7057.6672      2.1966014e-11 -3.6544545e-11 -1.9676523e-11  6.01584        9.02376        12.03168       653.14572    
        41   0             -221.03264     -6688.0396     -6688.0396     -6688.0396     -6688.0396      1.0088599e-10 -1.1918439e-13 -2.0414583e-11  6.015236       9.022854       12.030472      652.94901    
        42   0             -221.03344     -6317.9241     -6317.9241     -6317.9241     -6317.9241      3.1120833e-11  5.8588261e-12 -1.725288e-11   6.014632       9.021948       12.029264      652.75234    
        43   0             -221.03419     -5947.3201     -5947.3201     -5947.3201     -5947.3201      4.0045707e-12 -2.5333429e-11 -1.3458917e-12  6.014028       9.021042       12.028056      652.55571    
        44   0             -221.0349      -5576.2269     -5576.2269     -5576.2269     -5576.2269     -2.2401422e-12  1.2048508e-11  4.5160604e-12  6.013424       9.020136       12.026848      652.35911    
        45   0             -221.03556     -5204.6438     -5204.6438     -5204.6438     -5204.6438     -5.7323578e-11  3.1212826e-11  1.2393077e-11  6.01282        9.01923        12.02564       652.16256    
        46   0             -221.03618     -4832.5698     -4832.5698     -4832.5698     -4832.5698      1.5126243e-11 -2.3719348e-11  1.14419e-11    6.012216       9.018324       12.024432      651.96605    
        47   0             -221.03675     -4460.0043     -4460.0043     -4460.0043     -4460.0043      4.921976e-11   7.6757184e-12  3.7184592e-12  6.011612       9.017418       12.023224      651.76957    
        48   0             -221.03727     -4086.9465     -4086.9465     -4086.9465     -4086.9465     -1.0113575e-11  8.7956128e-11 -3.6189126e-11  6.011008       9.016512       12.022016      651.57314    
        49   0             -221.03775     -3713.3955     -3713.3955     -3713.3955     -3713.3955      1.8139149e-11 -7.1341894e-12  4.8300852e-11  6.010404       9.015606       12.020808      651.37674    
        50   0             -221.03818     -3339.3504     -3339.3504     -3339.3504     -3339.3504     -1.1336197e-11  1.3845867e-11 -3.5135381e-11  6.0098         9.0147         12.0196        651.18039    
        51   0             -221.03857     -2964.8102     -2964.8102     -2964.8102     -2964.8102     -3.6192099e-11 -3.7519781e-11  1.1595781e-11  6.009196       9.013794       12.018392      650.98407    
        52   0             -221.03891     -2589.7742     -2589.7742     -2589.7742     -2589.7742     -2.3450414e-11 -6.1669213e-12  1.0318062e-11  6.008592       9.012888       12.017184      650.7878     
        53   0             -221.0392      -2214.2416     -2214.2416     -2214.2416     -2214.2416      2.8377798e-11 -1.1483161e-11 -1.384131e-12   6.007988       9.011982       12.015976      650.59156    
        54   0             -221.03945     -1838.2115     -1838.2115     -1838.2115     -1838.2115      3.879473e-11  -2.0084501e-11 -7.3056302e-11  6.007384       9.011076       12.014768      650.39536    
        55   0             -221.03965     -1461.6831     -1461.6831     -1461.6831     -1461.6831     -1.550074e-11  -3.7154712e-11  1.7012857e-11  6.00678        9.01017        12.01356       650.1992     
        56   0             -221.03981     -1084.6558     -1084.6558     -1084.6558     -1084.6558      5.1431825e-11 -1.2160594e-11  4.3613945e-11  6.006176       9.009264       12.012352      650.00308    
        57   0             -221.03992     -707.12855     -707.12855     -707.12855     -707.12855     -6.531486e-11   2.4054788e-11  6.6723808e-13  6.005572       9.008358       12.011144      649.80701    
        58   0             -221.03998     -329.10218     -329.10218     -329.10218     -329.10218     -8.8207877e-12 -3.4929331e-11 -5.9812842e-11  6.004968       9.007452       12.009936      649.61097    
        59   0             -221.04        -0.019547716   -0.019547715   -0.019547716   -0.019547717   -2.5403591e-11 -2.1243838e-11 -2.163756e-11   6.0044428      9.0066643      12.008886      649.44055    
        60   0             -221.04        -7.0846507e-07 -7.1023949e-07 -7.0774829e-07 -7.0740743e-07 -3.8245185e-12 -1.2667559e-12  4.3394948e-11  6.0044428      9.0066642      12.008886      649.44054    
        61   0             -221.04         3.5925653e-10  3.0210416e-09 -1.1982826e-10 -1.8234437e-09 -1.5309915e-11  1.9155403e-11 -3.0812981e-13  6.0044428      9.0066642      12.008886      649.44054    
Loop time of 0.00825925 on 4 procs for 61 steps with 48 atoms

94.6% CPU use with 4 MPI tasks x 1 OpenMP threads

Minimization stats:
  Stopping criterion = force tolerance
  Energy initial, next-to-last, final = 
     -220.961155723059  -221.039999999249  -221.039999999249
  Force two-norm initial, final = 15.326351 1.4837675e-12
  Force max component initial, final = 8.8486731 1.2318277e-12
  Final line search alpha, max atom move = 1 1.2318277e-12
  Iterations, force evaluations = 61 64

MPI task timing breakdown:
Section |  min time  |  avg time  |  max time  |%varavg| %total
---------------------------------------------------------------
Pair    | 0.005072   | 0.0050822  | 0.005091   |   0.0 | 61.53
Neigh   | 0          | 0          | 0          |   0.0 |  0.00
Comm    | 0.000455   | 0.00045975 | 0.000463   |   0.0 |  5.57
Output  | 0.00055    | 0.000594   | 0.000654   |   0.0 |  7.19
Modify  | 0          | 0          | 0          |   0.0 |  0.00
Other   |            | 0.002123   |            |       | 25.71

Nlocal:             12 ave          12 max          12 min
Histogram: 4 0 0 0 0 0 0 0 0 0
Nghost:            293 ave         293 max         293 min
Histogram: 4 0 0 0 0 0 0 0 0 0
Neighs:            156 ave         156 max         156 min
Histogram: 4 0 0 0 0 0 0 0 0 0
FullNghs:          312 ave         312 max         312 min
Histogram: 4 0 0 0 0 0 0 0 0 0

Total # of neighbors = 1248
Ave neighs/atom = 26
Neighbor list builds = 0
Dangerous builds = 0

variable tmp equal pxx
variable pxx0 equal ${tmp}
variable pxx0 equal 3.02104160239737e-09
variable tmp equal pyy
variable pyy0 equal ${tmp}
variable pyy0 equal -1.19828259387929e-10
variable tmp equal pzz
variable pzz0 equal ${tmp}
variable pzz0 equal -1.82344374142888e-09
variable tmp equal pyz
variable pyz0 equal ${tmp}
variable pyz0 equal -3.08129809854673e-13
variable tmp equal pxz
variable pxz0 equal ${tmp}
variable pxz0 equal 1.91554031792989e-11
variable tmp equal pxy
variable pxy0 equal ${tmp}
variable pxy0 equal -1.53099147578139e-11

variable tmp equal lx
variable lx0 equal ${tmp}
variable lx0 equal 6.00444281429114
variable tmp equal ly
variable ly0 equal ${tmp}
variable ly0 equal 9.00666422143672
variable tmp equal lz
variable lz0 equal ${tmp}
variable lz0 equal 12.0088856285823

# These formulas define the derivatives w.r.t. strain components
# Constants uses $, variables use v_
variable d1 equal -(v_pxx1-${pxx0})/(v_delta/v_len0)*${cfac}
variable d1 equal -(v_pxx1-3.02104160239737e-09)/(v_delta/v_len0)*${cfac}
variable d1 equal -(v_pxx1-3.02104160239737e-09)/(v_delta/v_len0)*0.0001
variable d2 equal -(v_pyy1-${pyy0})/(v_delta/v_len0)*${cfac}
variable d2 equal -(v_pyy1--1.19828259387929e-10)/(v_delta/v_len0)*${cfac}
variable d2 equal -(v_pyy1--1.19828259387929e-10)/(v_delta/v_len0)*0.0001
variable d3 equal -(v_pzz1-${pzz0})/(v_delta/v_len0)*${cfac}
variable d3 equal -(v_pzz1--1.82344374142888e-09)/(v_delta/v_len0)*${cfac}
variable d3 equal -(v_pzz1--1.82344374142888e-09)/(v_delta/v_len0)*0.0001
variable d4 equal -(v_pyz1-${pyz0})/(v_delta/v_len0)*${cfac}
variable d4 equal -(v_pyz1--3.08129809854673e-13)/(v_delta/v_len0)*${cfac}
variable d4 equal -(v_pyz1--3.08129809854673e-13)/(v_delta/v_len0)*0.0001
variable d5 equal -(v_pxz1-${pxz0})/(v_delta/v_len0)*${cfac}
variable d5 equal -(v_pxz1-1.91554031792989e-11)/(v_delta/v_len0)*${cfac}
variable d5 equal -(v_pxz1-1.91554031792989e-11)/(v_delta/v_len0)*0.0001
variable d6 equal -(v_pxy1-${pxy0})/(v_delta/v_len0)*${cfac}
variable d6 equal -(v_pxy1--1.53099147578139e-11)/(v_delta/v_len0)*${cfac}
variable d6 equal -(v_pxy1--1.53099147578139e-11)/(v_delta/v_len0)*0.0001

displace_atoms all random ${atomjiggle} ${atomjiggle} ${atomjiggle} 87287 units box
displace_atoms all random 1e-05 ${atomjiggle} ${atomjiggle} 87287 units box
displace_atoms all random 1e-05 1e-05 ${atomjiggle} 87287 units box
displace_atoms all random 1e-05 1e-05 1e-05 87287 units box
Displacing atoms ...

# Write restart
unfix 3
write_restart restart.equil
System init for write_restart ...

# uxx Perturbation

variable dir equal 1
include displace.mod
# NOTE: This script should not need to be
# modified. See in.elastic for more info.
#
# Find which reference length to use

if "${dir} == 1" then    "variable len0 equal ${lx0}"
variable len0 equal ${lx0}
variable len0 equal 6.00444281429114
if "${dir} == 2" then    "variable len0 equal ${ly0}"
if "${dir} == 3" then    "variable len0 equal ${lz0}"
if "${dir} == 4" then    "variable len0 equal ${lz0}"
if "${dir} == 5" then    "variable len0 equal ${lz0}"
if "${dir} == 6" then    "variable len0 equal ${ly0}"

# Reset box and simulation parameters

clear
  using 1 OpenMP thread(s) per MPI task
Loaded 1 plugins from C:\Program Files\LAMMPS 64-bit 23Jun2022\plugins
Loaded 0 plugins from C:\Program Files\LAMMPS 64-bit 23Jun2022-MPI\plugins
Loaded 1 plugins from C:\Program Files\LAMMPS 64-bit 22Dec2022-MSMPI\plugins
Loaded 1 plugins from C:\Program Files\LAMMPS 64-bit 28Mar2023-MPI\plugins
box tilt large

The 'box' command has been removed and will be ignored

read_restart restart.equil
Reading restart file ...
  restart file = 22 Dec 2022, LAMMPS = 22 Dec 2022
  restoring atom style atomic from restart
  triclinic box = (0.017778593 0.026667889 0.035557186) to (6.0222214 9.0333321 12.044443) with tilt (0 0 0)
  1 by 2 by 2 MPI processor grid
  pair style meam stores no restart info
  48 atoms
  read_restart CPU = 0.000 seconds
include potential.mod
# NOTE: This script can be modified for different pair styles
# See in.elastic for more info.

# Choose potential
#-----------------------
#pair_style	sw
#pair_coeff * * Si.sw Si
#-----------------------
#pair_style morse	2.83994742	# D0[eV] a[1/A] r0[A] rc[A], 1NN for BCC
#pair_coeff 1 1	2.1173	1.0202	2.4595	2.6497	#	Fe-Fe
#-----------------------
#pair_style smatb # R0(A)   p       q     A(eV)   xi(eV)  Rcs(A)   Rc(A), 4NN: Rcs=4NN, Rc=(4NN+5NN)/2
#pair_coeff 1 1	2.4802	7.0149	2.3779	0.3144	3.0551	4.033	4.176	#	Co	Co
#-----------------------
#pair_style eam/alloy
#pair_coeff * * AlCrFeCoNi_Zhou04.eam.alloy Fe
#-----------------------
pair_style meam
pair_coeff * * ./../../library.meam Ti Cr N ./../../TiCrN.meam Ti Cr
#-----------------------

# Setup neighbor style
neighbor 1.0 nsq
neigh_modify once no every 1 delay 0 check yes

# Setup minimization style
min_style	     cg
min_modify	     dmax ${dmax} line quadratic
min_modify	     dmax 0.01 line quadratic

# Setup output
thermo		1
thermo_style custom step temp pe press pxx pyy pzz pxy pxz pyz lx ly lz vol
thermo_modify norm no

# Negative deformation

variable delta equal -${up}*${len0}
variable delta equal -1e-06*${len0}
variable delta equal -1e-06*6.00444281429114
variable deltaxy equal -${up}*xy
variable deltaxy equal -1e-06*xy
variable deltaxz equal -${up}*xz
variable deltaxz equal -1e-06*xz
variable deltayz equal -${up}*yz
variable deltayz equal -1e-06*yz
if "${dir} == 1" then    "change_box all x delta 0 ${delta} xy delta ${deltaxy} xz delta ${deltaxz} remap units box"
change_box all x delta 0 ${delta} xy delta ${deltaxy} xz delta ${deltaxz} remap units box
change_box all x delta 0 -6.00444281429114e-06 xy delta ${deltaxy} xz delta ${deltaxz} remap units box
change_box all x delta 0 -6.00444281429114e-06 xy delta -0 xz delta ${deltaxz} remap units box
change_box all x delta 0 -6.00444281429114e-06 xy delta -0 xz delta -0 remap units box
Changing box ...
  triclinic box = (0.017778593 0.026667889 0.035557186) to (6.0222154 9.0333321 12.044443) with tilt (0 0 0)
  triclinic box = (0.017778593 0.026667889 0.035557186) to (6.0222154 9.0333321 12.044443) with tilt (0 0 0)
  triclinic box = (0.017778593 0.026667889 0.035557186) to (6.0222154 9.0333321 12.044443) with tilt (0 0 0)
if "${dir} == 2" then    "change_box all y delta 0 ${delta} yz delta ${deltayz} remap units box"
if "${dir} == 3" then    "change_box all z delta 0 ${delta} remap units box"
if "${dir} == 4" then    "change_box all yz delta ${delta} remap units box"
if "${dir} == 5" then    "change_box all xz delta ${delta} remap units box"
if "${dir} == 6" then    "change_box all xy delta ${delta} remap units box"

# Relax atoms positions

minimize ${etol} ${ftol} ${maxiter} ${maxeval}
minimize 0 ${ftol} ${maxiter} ${maxeval}
minimize 0 1e-10 ${maxiter} ${maxeval}
minimize 0 1e-10 100 ${maxeval}
minimize 0 1e-10 100 1000
Neighbor list info ...
  update: every = 1 steps, delay = 0 steps, check = yes
  max neighbors/atom: 2000, page size: 100000
  master list distance cutoff = 5
  ghost atom cutoff = 5
  2 neighbor lists, perpetual/occasional/extra = 2 0 0
  (1) pair meam, perpetual
      attributes: full, newton on
      pair build: full/nsq
      stencil: none
      bin: none
  (2) pair meam, perpetual, half/full from (1)
      attributes: half, newton on
      pair build: halffull/newton
      stencil: none
      bin: none
Per MPI rank memory allocation (min/avg/max) = 9.768 | 9.772 | 9.775 Mbytes
   Step          Temp          PotEng         Press           Pxx            Pyy            Pzz            Pxy            Pxz            Pyz             Lx             Ly             Lz           Volume    
        61   0             -221.04         1.2548323      6.9238907     -1.5796948     -1.5796989     -4.3333077e-08 -3.4030689e-06  1.0426177e-05  6.0044368      9.0066642      12.008886      649.43989    
        62   0             -221.04         1.2546303      6.9238403     -1.5802617     -1.5796876     -2.0822564e-05  0.00012544686  5.4291095e-06  6.0044368      9.0066642      12.008886      649.43989    
        63   0             -221.04001      1.1458636      6.8470531     -1.9801192     -1.4293431     -0.0040921731   0.089895065   -0.0048783802   6.0044368      9.0066642      12.008886      649.43989    
        64   0             -221.04437     -42.049815     -19.686039     -166.44534      59.98193      -1.6200728      37.805912     -2.0462213      6.0044368      9.0066642      12.008886      649.43989    
        65   0             -221.05658     -162.73191     -90.576391     -625.73877      228.11942     -6.0554009      144.03983     -7.6739105      6.0044368      9.0066642      12.008886      649.43989    
        66   0             -221.07646     -359.09394     -200.70273     -1373.7131      497.13399     -13.027187      318.42106     -16.613939      6.0044368      9.0066642      12.008886      649.43989    
        67   0             -221.10377     -628.2414      -343.86829     -2402.6909      861.83504     -22.082808      560.09789     -28.476337      6.0044368      9.0066642      12.008886      649.43989    
        68   0             -221.13845     -966.131       -509.90035     -3705.1879      1316.6952     -32.682751      868.45768     -42.851334      6.0044368      9.0066642      12.008886      649.43989    
        69   0             -221.18178     -1366.8545     -668.27281     -5284.607       1852.3163     -44.600352      1247.16       -59.812122      6.0044368      9.0066642      12.008886      649.43989    
        70   0             -221.24352     -1818.5187     -673.2112      -7224.2178      2441.873      -60.324131      1728.1662     -82.869036      6.0044368      9.0066642      12.008886      649.43989    
        71   0             -221.36385     -2302.1292      7.2504157     -9973.6187      3059.9806     -91.47624       2457.7032     -127.09879      6.0044368      9.0066642      12.008886      649.43989    
        72   0             -221.5226      -2752.4989      1234.7685     -13262.411      3770.1457     -128.7265       3344.4253     -181.13383      6.0044368      9.0066642      12.008886      649.43989    
        73   0             -221.70014     -3270.4046      2619.6853     -17222.867      4791.968      -161.64242      4380.1016     -235.06045      6.0044368      9.0066642      12.008886      649.43989    
        74   0             -221.90113     -3887.52        4202.1258     -22056.029      6191.3432     -189.35801      5599.6933     -289.93075      6.0044368      9.0066642      12.008886      649.43989    
        75   0             -222.12559     -4594.1296      6042.4013     -27791.735      7966.9445     -211.06341      6994.6163     -345.19739      6.0044368      9.0066642      12.008886      649.43989    
        76   0             -222.37137     -5375.1098      8189.7977     -34411.857      10096.73      -226.18177      8543.411      -399.4481       6.0044368      9.0066642      12.008886      649.43989    
        77   0             -222.63498     -6215.5266      10679.528     -41869.44       12543.333     -234.44771      10218.789     -450.74993      6.0044368      9.0066642      12.008886      649.43989    
        78   0             -222.91209     -7102.6044      13529.539     -50095.614      15258.263     -235.9821       11991.837     -496.90234      6.0044368      9.0066642      12.008886      649.43989    
        79   0             -223.19794     -8026.9787      16735.904     -59004.065      18187.225     -231.33168      13835.5       -535.67816      6.0044368      9.0066642      12.008886      649.43989    
        80   0             -223.48752     -8983.1275      20267.283     -68491.242      21274.577     -221.47868      15727.312     -565.03019      6.0044368      9.0066642      12.008886      649.43989    
        81   0             -223.77153     -9955.203       24001.254     -78283.792      24416.929     -208.17998      17622.442     -583.13235      6.0044368      9.0066642      12.008886      649.43989    
        82   0             -224.03762     -10916.728      27717.37      -87930.601      27463.046     -194.15751      19455.922     -589.47013      6.0044368      9.0066642      12.008886      649.43989    
        83   0             -224.28035     -11859.084      31239.006     -97133.948      30317.689     -181.8691       21202.475     -585.18999      6.0044368      9.0066642      12.008886      649.43989    
        84   0             -224.501       -12793.109      34458.336     -105776.7       32939.034     -172.98989      22874.301     -571.75529      6.0044368      9.0066642      12.008886      649.43989    
        85   0             -224.70297     -13734.588      37263.893     -113735.66      35268.006     -168.70316      24483.804     -550.18747      6.0044368      9.0066642      12.008886      649.43989    
        86   0             -224.89274     -14709.825      39519.538     -120852.74      37203.726     -169.61274      26039.422     -520.75847      6.0044368      9.0066642      12.008886      649.43989    
        87   0             -225.0822      -15768.394      41023.076     -126887.23      38558.967     -176.67735      27540.483     -482.74976      6.0044368      9.0066642      12.008886      649.43989    
        88   0             -225.29387     -17010.164      41422.693     -131431.51      38978.329     -193.92548      28968.809     -436.34209      6.0044368      9.0066642      12.008886      649.43989    
        89   0             -225.50433     -18248.471      40503.244     -133428.4       38179.741     -223.54847      29999.836     -398.14593      6.0044368      9.0066642      12.008886      649.43989    
        90   0             -225.72545     -19521.634      38596.807     -133579.2       36417.487     -270.36883      30717.016     -376.52336      6.0044368      9.0066642      12.008886      649.43989    
        91   0             -225.96763     -20879.01       35911.249     -132413.59      33865.309     -341.66179      31207.961     -377.97672      6.0044368      9.0066642      12.008886      649.43989    
        92   0             -226.2363      -22345.983      32576.999     -130257.21      30642.257     -446.8675       31524.096     -408.69293      6.0044368      9.0066642      12.008886      649.43989    
        93   0             -226.53427     -23933.592      28681.334     -127320.61      26838.498     -595.31994      31693.565     -474.67192      6.0044368      9.0066642      12.008886      649.43989    
        94   0             -226.86229     -25641.508      24295.476     -123748.26      22528.26      -791.71825      31729.401     -579.20222      6.0044368      9.0066642      12.008886      649.43989    
        95   0             -227.21874     -27457.338      19497.135     -119652.5       17783.349     -1032.9647      31636.535     -720.36424      6.0044368      9.0066642      12.008886      649.43989    
        96   0             -227.60286     -29374.047      14331.97      -115094.76      12640.647     -1316.7057      31413.226     -894.84112      6.0044368      9.0066642      12.008886      649.43989    
        97   0             -228.01339     -31382.659      8836.7823     -110116.65      7131.895      -1647.6823      31048.338     -1102.4845      6.0044368      9.0066642      12.008886      649.43989    
        98   0             -228.44868     -33472.864      3045.1402     -104750.7       1286.9682     -2037.9523      30518.679     -1350.2736      6.0044368      9.0066642      12.008886      649.43989    
        99   0             -228.90662     -35633.143     -3012.7942     -99021.554     -4865.0811     -2502.743       29795.387     -1648.9902      6.0044368      9.0066642      12.008886      649.43989    
       100   0             -229.3847      -37850.387     -9312.6269     -92943.513     -11295.021     -3059.2726      28845.837     -2012.3029      6.0044368      9.0066642      12.008886      649.43989    
       101   0             -229.87507     -40086.388     -15772.984     -86579.037     -17907.144     -3729.0795      27643.931     -2462.728       6.0044368      9.0066642      12.008886      649.43989    
       102   0             -230.35867     -42253.274     -22157.008     -80138.742     -24464.073     -4511.6697      26207.157     -3019.9028      6.0044368      9.0066642      12.008886      649.43989    
       103   0             -230.83046     -44328.504     -28426.385     -73672.196     -30886.93      -5417.7884      24542.782     -3698.2664      6.0044368      9.0066642      12.008886      649.43989    
       104   0             -231.28681     -46295.046     -34540.433     -67227.987     -37116.717     -6458.2181      22669.351     -4514.0556      6.0044368      9.0066642      12.008886      649.43989    
       105   0             -231.72472     -48137.089     -40462.156     -60854.922     -43094.19      -7645.5803      20615.183     -5480.1287      6.0044368      9.0066642      12.008886      649.43989    
       106   0             -232.142       -49842.094     -46159.396     -54575.345     -48791.541     -8984.9077      18410.665     -6606.7576      6.0044368      9.0066642      12.008886      649.43989    
       107   0             -232.53734     -51401.579     -51607.385     -48399.807     -54197.545     -10447.024      16105.041     -7885.9812      6.0044368      9.0066642      12.008886      649.43989    
       108   0             -232.91023     -52811.868     -56797.65      -42327.154     -59310.801     -11974.536      13785.167     -9275.4881      6.0044368      9.0066642      12.008886      649.43989    
       109   0             -233.26085     -54075.549     -61741.699     -36336.905     -64148.041     -13505.001      11573.414     -10699.228      6.0044368      9.0066642      12.008886      649.43989    
       110   0             -233.58989     -55201.589     -66454.659     -30425.9       -68724.209     -14974.265      9609.6442     -12067.764      6.0044368      9.0066642      12.008886      649.43989    
       111   0             -233.89887     -56206.705     -70953.296     -24617.751     -73049.068     -16342.514      8041.0778     -13278.87       6.0044368      9.0066642      12.008886      649.43989    
       112   0             -234.19132     -57119.233     -75260.97      -18959.217     -77137.511     -17575.085      7001.9681     -14232.47       6.0044368      9.0066642      12.008886      649.43989    
       113   0             -234.47337     -57982.959     -79414.334     -13507.663     -81026.878     -18643.497      6622.0966     -14835.334      6.0044368      9.0066642      12.008886      649.43989    
       114   0             -234.75526     -58870.9       -83483.69      -8332.8575     -84796.152     -19565.783      7056.388      -15024.774      6.0044368      9.0066642      12.008886      649.43989    
       115   0             -235.0118      -59751.922     -86969.758     -4280.6771     -88005.33      -20276.703      8316.2372     -14795.788      6.0044368      9.0066642      12.008886      649.43989    
       116   0             -235.24747     -60698.413     -89918.87      -1445.7358     -90730.634     -20922.099      10210.896     -14331.411      6.0044368      9.0066642      12.008886      649.43989    
       117   0             -235.47088     -61796.109     -92488.64       252.73404     -93152.42      -21649.024      12573.416     -13788.959      6.0044368      9.0066642      12.008886      649.43989    
       118   0             -235.68629     -63108.094     -94803.493      900.17713     -95420.965     -22566.975      15234.22      -13310.07       6.0044368      9.0066642      12.008886      649.43989    
       119   0             -235.89538     -64671.133     -96967.657      607.21755     -97652.96      -23747.025      18007.598     -13032.776      6.0044368      9.0066642      12.008886      649.43989    
       120   0             -236.10276     -66530.326     -99085.15      -547.11186     -99958.716     -25216.602      20770.036     -13061.875      6.0044368      9.0066642      12.008886      649.43989    
       121   0             -236.31224     -68713.611     -101209.54     -2532.343      -102398.95     -26949.584      23385.983     -13479.416      6.0044368      9.0066642      12.008886      649.43989    
       122   0             -236.50775     -70984.736     -103157.75     -5046.3662     -104750.09     -28690.577      25476.998     -14253.61       6.0044368      9.0066642      12.008886      649.43989    
       123   0             -236.69456     -73300.717     -104965.52     -7912.272      -107024.35     -30372.058      27044.338     -15315.517      6.0044368      9.0066642      12.008886      649.43989    
       124   0             -236.87883     -75657.429     -106674.37     -11045.792     -109252.13     -31981.753      28139.248     -16613.914      6.0044368      9.0066642      12.008886      649.43989    
       125   0             -237.06514     -78054.796     -108309.48     -14402.825     -111452.09     -33523.746      28812.478     -18107.619      6.0044368      9.0066642      12.008886      649.43989    
       126   0             -237.25718     -80496.27      -109886.63     -17966.48      -113635.69     -35010.362      29113.652     -19760.581      6.0044368      9.0066642      12.008886      649.43989    
       127   0             -237.45815     -82988.4       -111416.4      -21739.101     -115809.7      -36455.955      29090.01      -21537.952      6.0044368      9.0066642      12.008886      649.43989    
       128   0             -237.67108     -85540.851     -112906.08     -25739.25      -117977.22     -37874.829      28784.901     -23403.949      6.0044368      9.0066642      12.008886      649.43989    
       129   0             -237.89618     -88133.012     -114343.97     -29942.95      -120112.12     -39262.061      28242.476     -25296.329      6.0044368      9.0066642      12.008886      649.43989    
       130   0             -238.13564     -90772.681     -115736.19     -34370.409     -122211.44     -40627.794      27502.059     -27171.616      6.0044368      9.0066642      12.008886      649.43989    
       131   0             -238.39264     -93478.555     -117095.39     -39058.675     -124281.61     -41988.905      26590.691     -28994.147      6.0044368      9.0066642      12.008886      649.43989    
       132   0             -238.67048     -96269.302     -118438.1      -44038.67      -126331.13     -43366.836      25520.966     -30730.727      6.0044368      9.0066642      12.008886      649.43989    
       133   0             -238.97251     -99161.012     -119785.83     -49327.538     -128369.66     -44789.996      24289.926     -32354.194      6.0044368      9.0066642      12.008886      649.43989    
       134   0             -239.29037     -102062.26     -121119.99     -54727.573     -130339.21     -46245.758      22923.337     -33802.578      6.0044368      9.0066642      12.008886      649.43989    
       135   0             -239.61282     -104874.06     -122422.9      -60005.096     -132194.19     -47727.766      21442.147     -35061.992      6.0044368      9.0066642      12.008886      649.43989    
       136   0             -239.94386     -107642.11     -123730.84     -65194.339     -134001.14     -49315.823      19757.603     -36221.112      6.0044368      9.0066642      12.008886      649.43989    
       137   0             -240.28863     -110416.76     -125090.08     -70325.11      -135835.1      -51097.652      17747.671     -37379.063      6.0044368      9.0066642      12.008886      649.43989    
       138   0             -240.6547      -113259.46     -126573.73     -75410.638     -137794        -53174.106      15245.733     -38653.204      6.0044368      9.0066642      12.008886      649.43989    
       139   0             -241.04233     -116162.83     -128249.08     -80285.219     -139954.2      -55593.773      12102.822     -40147.507      6.0044368      9.0066642      12.008886      649.43989    
       140   0             -241.43132     -118960.33     -130093.54     -84516.232     -142271.22     -58221.718      8401.5919     -41865.501      6.0044368      9.0066642      12.008886      649.43989    
       141   0             -241.82645     -121661.38     -132146.48     -88049.777     -144787.89     -61004.294      4166.0039     -43832.156      6.0044368      9.0066642      12.008886      649.43989    
       142   0             -242.23805     -124294.29     -134416.08     -90950.222     -147516.58     -63885.563     -514.52616     -46032.509      6.0044368      9.0066642      12.008886      649.43989    
       143   0             -242.67929     -126890.99     -136872.14     -93368.874     -150431.97     -66813.627     -5496.5571     -48422.514      6.0044368      9.0066642      12.008886      649.43989    
       144   0             -243.16358     -129477.36     -139454.47     -95497.699     -153479.92     -69745.852     -10616.696     -50943.819      6.0044368      9.0066642      12.008886      649.43989    
       145   0             -243.70298     -132072.05     -142092.49     -97526.078     -156597.59     -72654.229     -15734.98      -53538.629      6.0044368      9.0066642      12.008886      649.43989    
       146   0             -244.30781     -134690.71     -144728.29     -99608.24      -159735.59     -75524.801     -20767.384     -56158.053      6.0044368      9.0066642      12.008886      649.43989    
       147   0             -244.98708     -137350.91     -147332.87     -101847.17     -162872.69     -78349.488     -25693.071     -58761.435      6.0044368      9.0066642      12.008886      649.43989    
       148   0             -245.74933     -140074.75     -149909.51     -104296.99     -166017.77     -81114.102     -30538.458     -61311.135      6.0044368      9.0066642      12.008886      649.43989    
       149   0             -246.6035      -142888.13     -152485.82     -106976.53     -169202.05     -83791.233     -35350.38      -63766.865      6.0044368      9.0066642      12.008886      649.43989    
       150   0             -247.55953     -145817.79     -155100.4      -109885.61     -172467.35     -86342.283     -40173.801     -66085.987      6.0044368      9.0066642      12.008886      649.43989    
       151   0             -248.62855     -148888.11     -157791.56     -113016.29     -175856.46     -88727.245     -45042.074     -68231.359      6.0044368      9.0066642      12.008886      649.43989    
       152   0             -249.82274     -152119.23     -160592.24     -116356.44     -179409        -90916.089     -49977.937     -70182.96       6.0044368      9.0066642      12.008886      649.43989    
       153   0             -251.15322     -155526.52     -163794.05     -118866.92     -183918.59     -92881.998     -54658.678     -73708.282      6.0044368      9.0066642      12.008886      649.43989    
       154   0             -252.62496     -159115.96     -167460.61     -121116.56     -188770.72     -95717.248     -59251.113     -77085.546      6.0044368      9.0066642      12.008886      649.43989    
       155   0             -254.24806     -162892.57     -171288.88     -123520.61     -193868.23     -98481.007     -63909.341     -80501.995      6.0044368      9.0066642      12.008886      649.43989    
       156   0             -256.03607     -166861.63     -175282.45     -126094.82     -199207.62     -101174.41     -68633.084     -83964.955      6.0044368      9.0066642      12.008886      649.43989    
       157   0             -258.00389     -171027        -179445.93     -128850.63     -204784.45     -103802.86     -73421.968     -87485.417      6.0044368      9.0066642      12.008886      649.43989    
       158   0             -260.16779     -175390.84     -183784.9      -131796.22     -210591.4      -106376.74     -78276.379     -91077.698      6.0044368      9.0066642      12.008886      649.43989    
       159   0             -262.54553     -179953.61     -188306.5      -134937.29     -216617.02     -108912.17     -83199.81      -94761.305      6.0044368      9.0066642      12.008886      649.43989    
       160   0             -265.15665     -184714.04     -193019.25     -138275.71     -222847.16     -111433.75     -88203.951     -98559.76       6.0044368      9.0066642      12.008886      649.43989    
       161   0             -268.02269     -189669.07     -197936.31     -141801.92     -229268.98     -113973.11     -93316.465     -102496.83      6.0044368      9.0066642      12.008886      649.43989    
Loop time of 0.0133698 on 4 procs for 100 steps with 48 atoms

0.0% CPU use with 4 MPI tasks x 1 OpenMP threads

Minimization stats:
  Stopping criterion = max iterations
  Energy initial, next-to-last, final = 
     -221.039999993653  -265.156646455896  -268.022688746852
  Force two-norm initial, final = 0.00043718244 140.68047
  Force max component initial, final = 9.044807e-05 65.994161
  Final line search alpha, max atom move = 0.00015005289 0.0099026145
  Iterations, force evaluations = 100 101

MPI task timing breakdown:
Section |  min time  |  avg time  |  max time  |%varavg| %total
---------------------------------------------------------------
Pair    | 0.009411   | 0.010096   | 0.010751   |   0.5 | 75.51
Neigh   | 1.7e-05    | 2.375e-05  | 3e-05      |   0.0 |  0.18
Comm    | 0.000859   | 0.0015138  | 0.002197   |   1.3 | 11.32
Output  | 0.000937   | 0.000983   | 0.001106   |   0.0 |  7.35
Modify  | 0          | 0          | 0          |   0.0 |  0.00
Other   |            | 0.0007535  |            |       |  5.64

Nlocal:             12 ave          16 max           8 min
Histogram: 2 0 0 0 0 0 0 0 0 2
Nghost:            293 ave         297 max         289 min
Histogram: 2 0 0 0 0 0 0 0 0 2
Neighs:            230 ave         307 max         151 min
Histogram: 2 0 0 0 0 0 0 0 0 2
FullNghs:          460 ave         615 max         305 min
Histogram: 2 0 0 0 0 0 0 0 0 2

Total # of neighbors = 1840
Ave neighs/atom = 38.333333
Neighbor list builds = 2
Dangerous builds = 0

# Obtain new stress tensor

variable tmp equal pxx
variable pxx1 equal ${tmp}
variable pxx1 equal -197936.308179215
variable tmp equal pyy
variable pyy1 equal ${tmp}
variable pyy1 equal -141801.919657918
variable tmp equal pzz
variable pzz1 equal ${tmp}
variable pzz1 equal -229268.975456103
variable tmp equal pxy
variable pxy1 equal ${tmp}
variable pxy1 equal -113973.10523653
variable tmp equal pxz
variable pxz1 equal ${tmp}
variable pxz1 equal -93316.4646768685
variable tmp equal pyz
variable pyz1 equal ${tmp}
variable pyz1 equal -102496.83186966

# Compute elastic constant from pressure tensor

variable C1neg equal ${d1}
variable C1neg equal -19793630.8179218
variable C2neg equal ${d2}
variable C2neg equal -14180191.9657918
variable C3neg equal ${d3}
variable C3neg equal -22926897.5456101
variable C4neg equal ${d4}
variable C4neg equal -10249683.186966
variable C5neg equal ${d5}
variable C5neg equal -9331646.46768685
variable C6neg equal ${d6}
variable C6neg equal -11397310.523653

# Reset box and simulation parameters

clear
  using 1 OpenMP thread(s) per MPI task
Loaded 1 plugins from C:\Program Files\LAMMPS 64-bit 23Jun2022\plugins
Loaded 0 plugins from C:\Program Files\LAMMPS 64-bit 23Jun2022-MPI\plugins
Loaded 1 plugins from C:\Program Files\LAMMPS 64-bit 22Dec2022-MSMPI\plugins
Loaded 1 plugins from C:\Program Files\LAMMPS 64-bit 28Mar2023-MPI\plugins
box tilt large

The 'box' command has been removed and will be ignored

read_restart restart.equil
Reading restart file ...
  restart file = 22 Dec 2022, LAMMPS = 22 Dec 2022
  restoring atom style atomic from restart
  triclinic box = (0.017778593 0.026667889 0.035557186) to (6.0222214 9.0333321 12.044443) with tilt (0 0 0)
  1 by 2 by 2 MPI processor grid
  pair style meam stores no restart info
  48 atoms
  read_restart CPU = 0.000 seconds
include potential.mod
# NOTE: This script can be modified for different pair styles
# See in.elastic for more info.

# Choose potential
#-----------------------
#pair_style	sw
#pair_coeff * * Si.sw Si
#-----------------------
#pair_style morse	2.83994742	# D0[eV] a[1/A] r0[A] rc[A], 1NN for BCC
#pair_coeff 1 1	2.1173	1.0202	2.4595	2.6497	#	Fe-Fe
#-----------------------
#pair_style smatb # R0(A)   p       q     A(eV)   xi(eV)  Rcs(A)   Rc(A), 4NN: Rcs=4NN, Rc=(4NN+5NN)/2
#pair_coeff 1 1	2.4802	7.0149	2.3779	0.3144	3.0551	4.033	4.176	#	Co	Co
#-----------------------
#pair_style eam/alloy
#pair_coeff * * AlCrFeCoNi_Zhou04.eam.alloy Fe
#-----------------------
pair_style meam
pair_coeff * * ./../../library.meam Ti Cr N ./../../TiCrN.meam Ti Cr
#-----------------------

# Setup neighbor style
neighbor 1.0 nsq
neigh_modify once no every 1 delay 0 check yes

# Setup minimization style
min_style	     cg
min_modify	     dmax ${dmax} line quadratic
min_modify	     dmax 0.01 line quadratic

# Setup output
thermo		1
thermo_style custom step temp pe press pxx pyy pzz pxy pxz pyz lx ly lz vol
thermo_modify norm no

# Positive deformation

variable delta equal ${up}*${len0}
variable delta equal 1e-06*${len0}
variable delta equal 1e-06*6.00444281429114
variable deltaxy equal ${up}*xy
variable deltaxy equal 1e-06*xy
variable deltaxz equal ${up}*xz
variable deltaxz equal 1e-06*xz
variable deltayz equal ${up}*yz
variable deltayz equal 1e-06*yz
if "${dir} == 1" then    "change_box all x delta 0 ${delta} xy delta ${deltaxy} xz delta ${deltaxz} remap units box"
change_box all x delta 0 ${delta} xy delta ${deltaxy} xz delta ${deltaxz} remap units box
change_box all x delta 0 6.00444281429114e-06 xy delta ${deltaxy} xz delta ${deltaxz} remap units box
change_box all x delta 0 6.00444281429114e-06 xy delta 0 xz delta ${deltaxz} remap units box
change_box all x delta 0 6.00444281429114e-06 xy delta 0 xz delta 0 remap units box
Changing box ...
  triclinic box = (0.017778593 0.026667889 0.035557186) to (6.0222274 9.0333321 12.044443) with tilt (0 0 0)
  triclinic box = (0.017778593 0.026667889 0.035557186) to (6.0222274 9.0333321 12.044443) with tilt (0 0 0)
  triclinic box = (0.017778593 0.026667889 0.035557186) to (6.0222274 9.0333321 12.044443) with tilt (0 0 0)
if "${dir} == 2" then    "change_box all y delta 0 ${delta} yz delta ${deltayz} remap units box"
if "${dir} == 3" then    "change_box all z delta 0 ${delta} remap units box"
if "${dir} == 4" then    "change_box all yz delta ${delta} remap units box"
if "${dir} == 5" then    "change_box all xz delta ${delta} remap units box"
if "${dir} == 6" then    "change_box all xy delta ${delta} remap units box"

# Relax atoms positions

minimize ${etol} ${ftol} ${maxiter} ${maxeval}
minimize 0 ${ftol} ${maxiter} ${maxeval}
minimize 0 1e-10 ${maxiter} ${maxeval}
minimize 0 1e-10 100 ${maxeval}
minimize 0 1e-10 100 1000
Neighbor list info ...
  update: every = 1 steps, delay = 0 steps, check = yes
  max neighbors/atom: 2000, page size: 100000
  master list distance cutoff = 5
  ghost atom cutoff = 5
  2 neighbor lists, perpetual/occasional/extra = 2 0 0
  (1) pair meam, perpetual
      attributes: full, newton on
      pair build: full/nsq
      stencil: none
      bin: none
  (2) pair meam, perpetual, half/full from (1)
      attributes: half, newton on
      pair build: halffull/newton
      stencil: none
      bin: none
Per MPI rank memory allocation (min/avg/max) = 9.768 | 9.772 | 9.775 Mbytes
   Step          Temp          PotEng         Press           Pxx            Pyy            Pzz            Pxy            Pxz            Pyz             Lx             Ly             Lz           Volume    
        61   0             -221.04        -1.2550135     -6.9241527      1.5795581      1.5795541     -4.3386141e-08 -3.4031107e-06  1.0426188e-05  6.0044488      9.0066642      12.008886      649.44119    
        62   0             -221.04        -1.2552155     -6.9242029      1.5789913      1.5795652     -2.0821804e-05  0.00012544025  5.4278542e-06  6.0044488      9.0066642      12.008886      649.44119    
        63   0             -221.04001     -1.3639636     -7.0008616      1.1791512      1.7298196     -0.004091625    0.08988628    -0.0048774562   6.0044488      9.0066642      12.008886      649.44119    
        64   0             -221.04437     -44.557195     -33.48499      -163.29796      63.111366     -1.6200296      37.806773     -2.0461268      6.0044488      9.0066642      12.008886      649.44119    
        65   0             -221.05658     -165.23302     -104.23868     -622.62663      231.16625     -6.0552992      144.04354     -7.6735736      6.0044488      9.0066642      12.008886      649.44119    
        66   0             -221.07646     -361.58507     -214.14311     -1370.6594      500.04734     -13.027084      318.42957     -16.613195      6.0044488      9.0066642      12.008886      649.44119    
        67   0             -221.10378     -630.71894     -357.00575     -2399.7188      864.56774     -22.082822      560.1131      -28.475018      6.0044488      9.0066642      12.008886      649.44119    
        68   0             -221.13845     -968.59151     -522.65949     -3702.3201      1319.205      -32.68309       868.48141     -42.849278      6.0044488      9.0066642      12.008886      649.44119    
        69   0             -221.18178     -1369.2946     -680.58324     -5281.8662      1854.5655     -44.601281      1247.1939     -59.809167      6.0044488      9.0066642      12.008886      649.44119    
        70   0             -221.24353     -1820.9349     -684.99709     -7221.6286      2443.821      -60.325838      1728.2115     -82.864964      6.0044488      9.0066642      12.008886      649.44119    
        71   0             -221.36386     -2304.5161     -3.8861271     -9971.2154      3061.5533     -91.478277      2457.7592     -127.09318      6.0044488      9.0066642      12.008886      649.44119    
        72   0             -221.52261     -2754.8672      1224.3164     -13260.273      3771.3548     -128.72896      3344.5107     -181.12794      6.0044488      9.0066642      12.008886      649.44119    
        73   0             -221.70016     -3272.7525      2609.9641     -17221.025      4792.8033     -161.64487      4380.2192     -235.05396      6.0044488      9.0066642      12.008886      649.44119    
        74   0             -221.90115     -3889.8425      4193.2038     -22054.523      6191.7915     -189.36035      5599.8455     -289.92294      6.0044488      9.0066642      12.008886      649.44119    
        75   0             -222.12562     -4596.4207      6034.3248     -27790.601      7967.0138     -211.0658       6994.8037     -345.1872       6.0044488      9.0066642      12.008886      649.44119    
        76   0             -222.37141     -5377.3625      8182.5832     -34411.123      10096.452     -226.18468      8543.6328     -399.43422      6.0044488      9.0066642      12.008886      649.44119    
        77   0             -222.63502     -6217.734       10673.162     -41869.128      12542.764     -234.45179      10219.044     -450.73084      6.0044488      9.0066642      12.008886      649.44119    
        78   0             -222.91214     -7104.7592      13523.983     -50095.735      15257.475     -235.9882       11992.122     -496.87651      6.0044488      9.0066642      12.008886      649.44119    
        79   0             -223.19799     -8029.0739      16731.097     -59004.623      18186.305     -231.34071      13835.812     -535.64418      6.0044488      9.0066642      12.008886      649.44119    
        80   0             -223.48757     -8985.1554      20263.148     -68492.231      21273.617     -221.49151      15727.648     -564.98696      6.0044488      9.0066642      12.008886      649.44119    
        81   0             -223.77157     -9957.1465      23997.661     -78285.093      24415.993     -208.19752      17622.78      -583.07933      6.0044488      9.0066642      12.008886      649.44119    
        82   0             -224.03767     -10918.583      27714.23      -87932.205      27462.228     -194.18002      19456.263     -589.40798      6.0044488      9.0066642      12.008886      649.44119    
        83   0             -224.28038     -11860.84       31236.239     -97135.815      30317.057     -181.89647      21202.815     -585.12007      6.0044488      9.0066642      12.008886      649.44119    
        84   0             -224.50103     -12794.751      34455.904     -105778.81      32938.654     -173.02161      22874.639     -571.67934      6.0044488      9.0066642      12.008886      649.44119    
        85   0             -224.70299     -13736.094      37261.807     -113738.05      35267.956     -168.73831      24484.141     -550.10752      6.0044488      9.0066642      12.008886      649.44119    
        86   0             -224.89274     -14711.159      39517.872     -120855.46      37204.113     -169.64998      26039.764     -520.6766       6.0044488      9.0066642      12.008886      649.44119    
        87   0             -225.08217     -15769.496      41021.994     -126890.44      38559.959     -176.71399      27540.842     -482.66764      6.0044488      9.0066642      12.008886      649.44119    
        88   0             -225.2938      -17010.939      41422.455     -131435.45      38980.172     -193.95545      28969.202     -436.25708      6.0044488      9.0066642      12.008886      649.44119    
        89   0             -225.50423     -18249.044      40503.831     -133433.37      38182.405     -223.56814      30000.399     -398.04741      6.0044488      9.0066642      12.008886      649.44119    
        90   0             -225.72532     -19521.982      38598.099     -133584.88      36420.834     -270.3729       30717.683     -376.40669      6.0044488      9.0066642      12.008886      649.44119    
        91   0             -225.96747     -20879.126      35913.173     -132419.8       33869.249     -341.64403      31208.691     -377.83766      6.0044488      9.0066642      12.008886      649.44119    
        92   0             -226.2361      -22345.869      32579.504     -130263.84      30646.723     -446.82052      31524.87      -408.5279       6.0044488      9.0066642      12.008886      649.44119    
        93   0             -226.53403     -23933.258      28684.383     -127327.59      26843.434     -595.23733      31694.374     -474.47828      6.0044488      9.0066642      12.008886      649.44119    
        94   0             -226.86202     -25641.009      24298.923     -123755.46      22533.512     -791.60244      31730.245     -578.98414      6.0044488      9.0066642      12.008886      649.44119    
        95   0             -227.21844     -27456.694      19500.928     -119659.87      17788.859     -1032.8182      31637.416     -720.12731      6.0044488      9.0066642      12.008886      649.44119    
        96   0             -227.60253     -29373.279      14336.064     -115102.27      12646.367     -1316.5291      31414.149     -894.59042      6.0044488      9.0066642      12.008886      649.44119    
        97   0             -228.01304     -31381.788      8841.1326     -110124.28      7137.7841     -1647.4704      31049.317     -1102.2201      6.0044488      9.0066642      12.008886      649.44119    
        98   0             -228.44831     -33471.909      3049.705      -104758.42      1292.9888     -2037.6969      30519.735     -1349.9913      6.0044488      9.0066642      12.008886      649.44119    
        99   0             -228.90623     -35632.126     -3008.0566     -99029.362     -4858.9584     -2502.4354      29796.543     -1648.6844      6.0044488      9.0066642      12.008886      649.44119    
       100   0             -229.38429     -37849.329     -9307.7506     -92951.415     -11288.821     -3058.9012      28847.121     -2011.9617      6.0044488      9.0066642      12.008886      649.44119    
       101   0             -229.87465     -40085.338     -15768.08      -86586.969     -17900.965     -3728.6307      27645.359     -2462.3315      6.0044488      9.0066642      12.008886      649.44119    
       102   0             -230.35826     -42252.32      -22152.303     -80146.503     -24458.153     -4511.1534      26208.7       -3019.4483      6.0044488      9.0066642      12.008886      649.44119    
       103   0             -230.83006     -44327.667     -28421.919     -73679.758     -30881.325     -5417.2076      24544.427     -3697.7493      6.0044488      9.0066642      12.008886      649.44119    
       104   0             -231.28643     -46294.345     -34536.237     -67235.311     -37111.488     -6457.574       22671.078     -4513.473       6.0044488      9.0066642      12.008886      649.44119    
       105   0             -231.72435     -48136.54      -40458.257     -60861.983     -43089.38      -7644.8774      20616.967     -5479.4852      6.0044488      9.0066642      12.008886      649.44119    
       106   0             -232.14165     -49841.705     -46155.809     -54582.143     -48787.164     -8984.1646      18412.48      -6606.0554      6.0044488      9.0066642      12.008886      649.44119    
       107   0             -232.53701     -51401.357     -51604.118     -48406.354     -54193.6       -10446.284      16106.84      -7885.2376      6.0044488      9.0066642      12.008886      649.44119    
       108   0             -232.90991     -52811.815     -56794.692     -42333.487     -59307.265     -11973.849      13786.881     -9274.7416      6.0044488      9.0066642      12.008886      649.44119    
       109   0             -233.26055     -54075.661     -61739.036     -36343.059     -64144.887     -13504.419      11574.962     -10698.526      6.0044488      9.0066642      12.008886      649.44119    
       110   0             -233.58961     -55201.86      -66452.282     -30431.885     -68721.413     -14973.83       9610.9419     -12067.157      6.0044488      9.0066642      12.008886      649.44119    
       111   0             -233.89861     -56207.124     -70951.206     -24623.55      -73046.616     -16342.24       8042.0365     -13278.42       6.0044488      9.0066642      12.008886      649.44119    
       112   0             -234.19108     -57119.783     -75259.171     -18964.797     -77135.382     -17574.984      7002.5015     -14232.25       6.0044488      9.0066642      12.008886      649.44119    
       113   0             -234.47313     -57983.614     -79412.827     -13512.984     -81025.032     -18643.539      6622.1022     -14835.419      6.0044488      9.0066642      12.008886      649.44119    
       114   0             -234.75502     -58871.613     -83482.461     -8337.8546     -84794.522     -19565.885      7055.7226     -15025.221      6.0044488      9.0066642      12.008886      649.44119    
       115   0             -235.01159     -59752.748     -86969.281     -4284.678      -88004.284     -20276.847      8314.9811     -14796.56       6.0044488      9.0066642      12.008886      649.44119    
       116   0             -235.24728     -60699.297     -89919.02      -1448.8781     -90729.993     -20922.12       10209.161     -14332.394      6.0044488      9.0066642      12.008886      649.44119    
       117   0             -235.47071     -61797.019     -92489.326      250.31609     -93152.047     -21648.811      12571.282     -13790.083      6.0044488      9.0066642      12.008886      649.44119    
       118   0             -235.68613     -63108.926     -94804.481      898.30246     -95420.6       -22566.379      15231.566     -13311.316      6.0044488      9.0066642      12.008886      649.44119    
       119   0             -235.89522     -64671.853     -96968.891      605.86742     -97652.534     -23745.972      18004.44      -13034.084      6.0044488      9.0066642      12.008886      649.44119    
       120   0             -236.1026      -66530.903     -99086.586     -547.93934     -99958.185     -25215.056      20766.403     -13063.178      6.0044488      9.0066642      12.008886      649.44119    
       121   0             -236.31209     -68714.111     -101211.23     -2532.719      -102398.39     -26947.624      23382.034     -13480.668      6.0044488      9.0066642      12.008886      649.44119    
       122   0             -236.50762     -70985.269     -103159.71     -5046.4906     -104749.6      -28688.367      25472.906     -14254.822      6.0044488      9.0066642      12.008886      649.44119    
       123   0             -236.69446     -73301.295     -104967.7      -7912.2428     -107023.94     -30369.667      27040.132     -15316.695      6.0044488      9.0066642      12.008886      649.44119    
       124   0             -236.87874     -75658.064     -106676.71     -11045.687     -109251.79     -31979.23       28134.956     -16615.064      6.0044488      9.0066642      12.008886      649.44119    
       125   0             -237.06507     -78055.495     -108311.95     -14402.711     -111451.82     -33521.121      28808.126     -18108.748      6.0044488      9.0066642      12.008886      649.44119    
       126   0             -237.25712     -80497.04      -109889.21     -17966.418     -113635.49     -35007.647      29109.265     -19761.691      6.0044488      9.0066642      12.008886      649.44119    
       127   0             -237.45811     -82989.245     -111419.04     -21739.147     -115809.54     -36453.147      29085.613     -21539.039      6.0044488      9.0066642      12.008886      649.44119    
       128   0             -237.67107     -85541.771     -112908.76     -25739.457     -117977.1      -37871.91       28780.521     -23404.995      6.0044488      9.0066642      12.008886      649.44119    
       129   0             -237.89616     -88133.708     -114346.49     -29942.877     -120111.76     -39258.843      28238.188     -25297.079      6.0044488      9.0066642      12.008886      649.44119    
       130   0             -238.13561     -90773.142     -115738.54     -34370.043     -122210.84     -40624.252      27497.914     -27172.02       6.0044488      9.0066642      12.008886      649.44119    
       131   0             -238.39259     -93478.765     -117097.56     -39057.983     -124280.75     -41985.01       26586.712     -28994.15       6.0044488      9.0066642      12.008886      649.44119    
       132   0             -238.67042     -96269.238     -118440.1      -44037.579     -126330.04     -43362.563      25517.144     -30730.268      6.0044488      9.0066642      12.008886      649.44119    
       133   0             -238.97243     -99160.638     -119787.66     -49325.907     -128368.35     -44785.332      24286.204     -32353.225      6.0044488      9.0066642      12.008886      649.44119    
       134   0             -239.29027     -102061.69     -121121.75     -54725.494     -130337.83     -46240.809      22919.529     -33801.184      6.0044488      9.0066642      12.008886      649.44119    
       135   0             -239.61272     -104873.38     -122424.72     -60002.526     -132192.9      -47722.658      21438.028     -35060.291      6.0044488      9.0066642      12.008886      649.44119    
       136   0             -239.94376     -107641.4      -123732.87     -65191.229     -134000.12     -49310.733      19752.85      -36219.28       6.0044488      9.0066642      12.008886      649.44119    
       137   0             -240.28855     -110416.19     -125092.55     -70321.403     -135834.62     -51092.853      17741.801     -37377.376      6.0044488      9.0066642      12.008886      649.44119    
       138   0             -240.65469     -113259.25     -126577        -75406.25      -137794.51     -53170.029      15237.981     -38652.098      6.0044488      9.0066642      12.008886      649.44119    
       139   0             -241.04222     -116161.79     -128252.76     -80277.467     -139955.15     -55589.726      12093.835     -40146.834      6.0044488      9.0066642      12.008886      649.44119    
       140   0             -241.43113     -118958.5      -130097.77     -84504.942     -142272.78     -58217.736      8391.3725     -41865.484      6.0044488      9.0066642      12.008886      649.44119    
       141   0             -241.82622     -121658.87     -132151.28     -88035.215     -144790.12     -61000.404      4154.7608     -43832.89       6.0044488      9.0066642      12.008886      649.44119    
       142   0             -242.23783     -124291.26     -134421.37     -90932.99      -147519.42     -63881.774     -526.36437     -46033.959      6.0044488      9.0066642      12.008886      649.44119    
       143   0             -242.67914     -126887.58     -136877.73     -93349.746     -150435.25     -66809.932     -5508.4166     -48424.557      6.0044488      9.0066642      12.008886      649.44119    
       144   0             -243.16354     -129473.66     -139460.1      -95477.469     -153483.42     -69742.249     -10628.017     -50946.295      6.0044488      9.0066642      12.008886      649.44119    
       145   0             -243.70311     -132068.15     -142097.94     -97505.431     -156601.09     -72650.734     -15745.357     -53541.386      6.0044488      9.0066642      12.008886      649.44119    
       146   0             -244.30814     -134686.68     -144733.39     -99587.675     -159738.97     -75521.447     -20776.632     -56160.966      6.0044488      9.0066642      12.008886      649.44119    
       147   0             -244.98764     -137346.84     -147337.59     -101826.98     -162875.94     -78346.294     -25701.205     -58764.402      6.0044488      9.0066642      12.008886      649.44119    
       148   0             -245.75015     -140070.73     -149913.92     -104277.3      -166020.98     -81111.046     -30545.608     -61314.056      6.0044488      9.0066642      12.008886      649.44119    
       149   0             -246.60462     -142884.27     -152490.06     -106957.37     -169205.38     -83788.236     -35356.694     -63769.629      6.0044488      9.0066642      12.008886      649.44119    
       150   0             -247.56099     -145814.19     -155104.64     -109866.94     -172470.98     -86339.244     -40179.398     -66088.491      6.0044488      9.0066642      12.008886      649.44119    
       151   0             -248.63039     -148884.85     -157795.95     -112998.05     -175860.56     -88724.08      -45047.032     -68233.543      6.0044488      9.0066642      12.008886      649.44119    
       152   0             -249.82501     -152116.39     -160596.9      -116338.55     -179413.71     -90912.762     -49982.311     -70184.843      6.0044488      9.0066642      12.008886      649.44119    
       153   0             -251.15595     -155524.15     -163800.67     -118845.43     -183926.36     -92881.17      -54661.168     -73714.537      6.0044488      9.0066642      12.008886      649.44119    
       154   0             -252.62818     -159114.09     -167467.67     -121095.4      -188779.2      -95716.695     -59253.072     -77091.968      6.0044488      9.0066642      12.008886      649.44119    
       155   0             -254.25182     -162891.24     -171296.42     -123499.85     -193877.44     -98480.749     -63910.803     -80508.6        6.0044488      9.0066642      12.008886      649.44119    
       156   0             -256.04042     -166860.86     -175290.5      -126074.51     -199217.57     -101174.48     -68634.094     -83971.768      6.0044488      9.0066642      12.008886      649.44119    
       157   0             -258.0089      -171026.82     -179454.54     -128830.79     -204795.13     -103803.3      -73422.58      -87492.469      6.0044488      9.0066642      12.008886      649.44119    
       158   0             -260.17351     -175391.26     -183794.11     -131776.87     -210602.81     -106377.61     -78276.663     -91085.034      6.0044488      9.0066642      12.008886      649.44119    
       159   0             -262.55204     -179954.65     -188316.36     -134918.45     -216629.13     -108913.54     -83199.863     -94768.978      6.0044488      9.0066642      12.008886      649.44119    
       160   0             -265.16403     -184715.7      -193029.79     -138257.36     -222859.95     -111435.73     -88203.909     -98567.838      6.0044488      9.0066642      12.008886      649.44119    
       161   0             -268.03102     -189671.35     -197947.61     -141784        -229282.42     -113975.8      -93316.548     -102505.37      6.0044488      9.0066642      12.008886      649.44119    
Loop time of 0.0134658 on 4 procs for 100 steps with 48 atoms

58.0% CPU use with 4 MPI tasks x 1 OpenMP threads

Minimization stats:
  Stopping criterion = max iterations
  Energy initial, next-to-last, final = 
     -221.039999993653   -265.16403066565  -268.031024450804
  Force two-norm initial, final = 0.00043718719 140.72801
  Force max component initial, final = 9.0449492e-05 66.016709
  Final line search alpha, max atom move = 0.00015000122 0.0099025866
  Iterations, force evaluations = 100 101

MPI task timing breakdown:
Section |  min time  |  avg time  |  max time  |%varavg| %total
---------------------------------------------------------------
Pair    | 0.009376   | 0.010208   | 0.010997   |   0.6 | 75.81
Neigh   | 1.7e-05    | 2.5e-05    | 3.2e-05    |   0.0 |  0.19
Comm    | 0.000767   | 0.0015603  | 0.002384   |   1.6 | 11.59
Output  | 0.000906   | 0.00094875 | 0.00106    |   0.0 |  7.05
Modify  | 0          | 0          | 0          |   0.0 |  0.00
Other   |            | 0.000724   |            |       |  5.38

Nlocal:             12 ave          16 max           8 min
Histogram: 2 0 0 0 0 0 0 0 0 2
Nghost:            293 ave         297 max         289 min
Histogram: 2 0 0 0 0 0 0 0 0 2
Neighs:            230 ave         307 max         151 min
Histogram: 2 0 0 0 0 0 0 0 0 2
FullNghs:          460 ave         615 max         305 min
Histogram: 2 0 0 0 0 0 0 0 0 2

Total # of neighbors = 1840
Ave neighs/atom = 38.333333
Neighbor list builds = 2
Dangerous builds = 0

# Obtain new stress tensor

variable tmp equal pe
variable e1 equal ${tmp}
variable e1 equal -268.031024450804
variable tmp equal press
variable p1 equal ${tmp}
variable p1 equal -189671.345683521
variable tmp equal pxx
variable pxx1 equal ${tmp}
variable pxx1 equal -197947.610860018
variable tmp equal pyy
variable pyy1 equal ${tmp}
variable pyy1 equal -141784.002771207
variable tmp equal pzz
variable pzz1 equal ${tmp}
variable pzz1 equal -229282.423419336
variable tmp equal pxy
variable pxy1 equal ${tmp}
variable pxy1 equal -113975.796615656
variable tmp equal pxz
variable pxz1 equal ${tmp}
variable pxz1 equal -93316.5478128525
variable tmp equal pyz
variable pyz1 equal ${tmp}
variable pyz1 equal -102505.368721897

[...]
       124   0             -236.8788      -75657.498     -106675.43     -11045.304     -109251.76     -31975.185      28138.558     -16612.635      6.0044428      9.0066642      12.008886      649.44054    
       125   0             -237.06512     -78054.906     -108310.61     -14402.303     -111451.8      -33516.766      28811.705     -18106.151      6.0044428      9.0066642      12.008886      649.44054    
       126   0             -237.25717     -80496.424     -109887.85     -17965.929     -113635.5      -35002.984      29112.779     -19758.886      6.0044428      9.0066642      12.008886      649.44054    
       127   0             -237.45815     -82988.602     -111417.68     -21738.527     -115809.6      -36448.184      29089.021     -21535.989      6.0044428      9.0066642      12.008886      649.44054    
       128   0             -237.6711      -85541.103     -112907.43     -25738.663     -117977.22     -37866.657      28783.785     -23401.671      6.0044428      9.0066642      12.008886      649.44054    
       129   0             -237.8962      -88133.166     -114345.29     -29942.12      -120112.09     -39253.395      28241.253     -25293.574      6.0044428      9.0066642      12.008886      649.44054    
       130   0             -238.13567     -90772.731     -115737.48     -34369.327     -122211.38     -40618.619      27500.748     -27168.324      6.0044428      9.0066642      12.008886      649.44054    
       131   0             -238.39266     -93478.495     -117096.64     -39057.336     -124281.5      -41979.202      26589.305     -28990.26       6.0044428      9.0066642      12.008886      649.44054    
       132   0             -238.67051     -96269.125     -118439.33     -44037.069     -126330.98     -43356.589      25519.521     -30726.189      6.0044428      9.0066642      12.008886      649.44054    
       133   0             -238.97254     -99160.71      -119787.03     -49325.666     -128369.43     -44779.197      24288.435     -32348.955      6.0044428      9.0066642      12.008886      649.44054    
       134   0             -239.29035     -102061.41     -121120.98     -54724.645     -130338.6      -46234.222      22922         -33796.43       6.0044428      9.0066642      12.008886      649.44054    
       135   0             -239.61277     -104872.75     -122423.72     -60001.245     -132193.27     -47715.582      21440.96      -35055.061      6.0044428      9.0066642      12.008886      649.44054    
       136   0             -239.94377     -107640.39     -123731.51     -65189.686     -133999.96     -49303.073      19756.565     -36213.509      6.0044428      9.0066642      12.008886      649.44054    
       137   0             -240.2885      -110414.7      -125090.64     -70319.749     -135833.69     -51084.403      17746.774     -37370.877      6.0044428      9.0066642      12.008886      649.44054    
       138   0             -240.65454     -113257.09     -126574.23     -75404.628     -137792.42     -53160.412      15244.948     -38644.507      6.0044428      9.0066642      12.008886      649.44054    
       139   0             -241.04216     -116160.33     -128249.61     -80278.781     -139952.6      -55579.78       12101.964     -40138.421      6.0044428      9.0066642      12.008886      649.44054    
       140   0             -241.43113     -118957.72     -130094.17     -84509.336     -142269.67     -58207.471      8400.5881     -41856.097      6.0044428      9.0066642      12.008886      649.44054    
       141   0             -241.82626     -121658.7      -132147.23     -88042.422     -144786.44     -60989.823      4164.8006     -43822.48       6.0044428      9.0066642      12.008886      649.44054    
       142   0             -242.23786     -124291.57     -134416.97     -90942.442     -147515.28     -63870.887     -515.9445      -46022.582      6.0044428      9.0066642      12.008886      649.44054    
       143   0             -242.67911     -126888.25     -136873.17     -93360.728     -150430.85     -66798.765     -5498.1645     -48412.342      6.0044428      9.0066642      12.008886      649.44054    
       144   0             -243.16342     -129474.62     -139455.62     -95489.259     -153478.98     -69730.823     -10618.451     -50933.4        6.0044428      9.0066642      12.008886      649.44054    
       145   0             -243.70285     -132069.33     -142093.75     -97517.411     -156596.83     -72639.052     -15736.845     -53527.958      6.0044428      9.0066642      12.008886      649.44054    
       146   0             -244.30771     -134688.01     -144729.63     -99599.399     -159735        -75509.497     -20769.333     -56147.125      6.0044428      9.0066642      12.008886      649.44054    
       147   0             -244.98702     -137348.26     -147334.3      -101838.19     -162872.28     -78334.077     -25695.092     -58750.251      6.0044428      9.0066642      12.008886      649.44054    
       148   0             -245.7493      -140072.15     -149911.02     -104287.88     -166017.56     -81098.599     -30540.548     -61299.696      6.0044428      9.0066642      12.008886      649.44054    
       149   0             -246.60351     -142885.6      -152487.44     -106967.3      -169202.07     -83775.647     -35352.533     -63755.173      6.0044428      9.0066642      12.008886      649.44054    
       150   0             -247.55959     -145815.34     -155102.14     -109876.25     -172467.62     -86326.624     -40176.008     -66074.049      6.0044428      9.0066642      12.008886      649.44054    
       151   0             -248.62866     -148885.74     -157793.44     -113006.79     -175857.01     -88711.522     -45044.322     -68219.189      6.0044428      9.0066642      12.008886      649.44054    
       152   0             -249.82291     -152116.96     -160594.27     -116346.77     -179409.84     -90900.313     -49980.209     -70170.585      6.0044428      9.0066642      12.008886      649.44054    
       153   0             -251.15345     -155524.36     -163796.38     -118856.68     -183920.01     -92866.303     -54660.818     -73696.357      6.0044428      9.0066642      12.008886      649.44054    
       154   0             -252.62526     -159113.9      -167463.1      -121106.21     -188772.39     -95701.575     -59253.261     -77073.419      6.0044428      9.0066642      12.008886      649.44054    
       155   0             -254.24843     -162890.62     -171291.53     -123510.17     -193870.16     -98465.375     -63911.497     -80489.673      6.0044428      9.0066642      12.008886      649.44054    
       156   0             -256.03652     -166859.8      -175285.27     -126084.31     -199209.81     -101158.84     -68635.256     -83952.445      6.0044428      9.0066642      12.008886      649.44054    
       157   0             -258.00442     -171025.28     -179448.92     -128840.04     -204786.89     -103787.37     -73424.169     -87472.725      6.0044428      9.0066642      12.008886      649.44054    
       158   0             -260.16841     -175389.24     -183788.05     -131785.57     -210594.09     -106361.35     -78278.632     -91064.835      6.0044428      9.0066642      12.008886      649.44054    
       159   0             -262.54625     -179952.13     -188309.82     -134926.6      -216619.95     -108896.9      -83202.143     -94748.281      6.0044428      9.0066642      12.008886      649.44054    
       160   0             -265.15748     -184712.68     -193022.73     -138264.97     -222850.33     -111418.62     -88206.398     -98546.587      6.0044428      9.0066642      12.008886      649.44054    
       161   0             -268.02364     -189667.83     -197939.96     -141791.15     -229272.38     -113958.13     -93319.07      -102483.52      6.0044428      9.0066642      12.008886      649.44054    
Loop time of 0.0136668 on 4 procs for 100 steps with 48 atoms

28.6% CPU use with 4 MPI tasks x 1 OpenMP threads

Minimization stats:
  Stopping criterion = max iterations
  Energy initial, next-to-last, final = 
     -221.039999994899  -265.157478948194  -268.023638808487
  Force two-norm initial, final = 0.00043718472 140.68603
  Force max component initial, final = 9.0448935e-05 65.996683
  Final line search alpha, max atom move = 0.00015004717 0.0099026156
  Iterations, force evaluations = 100 101

MPI task timing breakdown:
Section |  min time  |  avg time  |  max time  |%varavg| %total
---------------------------------------------------------------
Pair    | 0.009627   | 0.010401   | 0.01108    |   0.5 | 76.10
Neigh   | 1.6e-05    | 2.275e-05  | 2.9e-05    |   0.0 |  0.17
Comm    | 0.000917   | 0.0015877  | 0.002369   |   1.4 | 11.62
Output  | 0.000907   | 0.00094275 | 0.001042   |   0.0 |  6.90
Modify  | 0          | 0          | 0          |   0.0 |  0.00
Other   |            | 0.000713   |            |       |  5.22

Nlocal:             12 ave          16 max           8 min
Histogram: 2 0 0 0 0 0 0 0 0 2
Nghost:            293 ave         297 max         289 min
Histogram: 2 0 0 0 0 0 0 0 0 2
Neighs:            230 ave         307 max         151 min
Histogram: 2 0 0 0 0 0 0 0 0 2
FullNghs:          460 ave         615 max         305 min
Histogram: 2 0 0 0 0 0 0 0 0 2

Total # of neighbors = 1840
Ave neighs/atom = 38.333333
Neighbor list builds = 2
Dangerous builds = 0

# Obtain new stress tensor

variable tmp equal pe
variable e1 equal ${tmp}
variable e1 equal -268.023638808487
variable tmp equal press
variable p1 equal ${tmp}
variable p1 equal -189667.827010755
variable tmp equal pxx
variable pxx1 equal ${tmp}
variable pxx1 equal -197939.956751517
variable tmp equal pyy
variable pyy1 equal ${tmp}
variable pyy1 equal -141791.145970679
variable tmp equal pzz
variable pzz1 equal ${tmp}
variable pzz1 equal -229272.378310067
variable tmp equal pxy
variable pxy1 equal ${tmp}
variable pxy1 equal -113958.131971964
variable tmp equal pxz
variable pxz1 equal ${tmp}
variable pxz1 equal -93319.0699948661
variable tmp equal pyz
variable pyz1 equal ${tmp}
variable pyz1 equal -102483.517656321

# Compute elastic constant from pressure tensor

variable C1pos equal ${d1}
variable C1pos equal 19793995.675152
variable C2pos equal ${d2}
variable C2pos equal 14179114.5970679
variable C3pos equal ${d3}
variable C3pos equal 22927237.8310065
variable C4pos equal ${d4}
variable C4pos equal 10248351.7656321
variable C5pos equal ${d5}
variable C5pos equal 9331906.99948661
variable C6pos equal ${d6}
variable C6pos equal 11395813.1971964

# Combine positive and negative

variable C1${dir} equal 0.5*(${C1neg}+${C1pos})
variable C16 equal 0.5*(${C1neg}+${C1pos})
variable C16 equal 0.5*(-19794396.7501154+${C1pos})
variable C16 equal 0.5*(-19794396.7501154+19793995.675152)
variable C2${dir} equal 0.5*(${C2neg}+${C2pos})
variable C26 equal 0.5*(${C2neg}+${C2pos})
variable C26 equal 0.5*(-14179477.2113192+${C2pos})
variable C26 equal 0.5*(-14179477.2113192+14179114.5970679)
variable C3${dir} equal 0.5*(${C3neg}+${C3pos})
variable C36 equal 0.5*(${C3neg}+${C3pos})
variable C36 equal 0.5*(-22927902.6984032+${C3pos})
variable C36 equal 0.5*(-22927902.6984032+22927237.8310065)
variable C4${dir} equal 0.5*(${C4neg}+${C4pos})
variable C46 equal 0.5*(${C4neg}+${C4pos})
variable C46 equal 0.5*(-10251867.3122761+${C4pos})
variable C46 equal 0.5*(-10251867.3122761+10248351.7656321)
variable C5${dir} equal 0.5*(${C5neg}+${C5pos})
variable C56 equal 0.5*(${C5neg}+${C5pos})
variable C56 equal 0.5*(-9331395.24494077+${C5pos})
variable C56 equal 0.5*(-9331395.24494077+9331906.99948661)
variable C6${dir} equal 0.5*(${C6neg}+${C6pos})
variable C66 equal 0.5*(${C6neg}+${C6pos})
variable C66 equal 0.5*(-11399075.9166322+${C6pos})
variable C66 equal 0.5*(-11399075.9166322+11395813.1971964)

# Delete dir to make sure it is not reused

variable dir delete

# Output final values

variable C11all equal ${C11}
variable C11all equal 565.134040150791
variable C22all equal ${C22}
variable C22all equal 210.276945500635
variable C33all equal ${C33}
variable C33all equal -369.858484750614

variable C12all equal 0.5*(${C12}+${C21})
variable C12all equal 0.5*(-580.53657435067+${C21})
variable C12all equal 0.5*(-580.53657435067+-895.844335549511)
variable C13all equal 0.5*(${C13}+${C31})
variable C13all equal 0.5*(-347.650205550715+${C31})
variable C13all equal 0.5*(-347.650205550715+672.398161649704)
variable C23all equal 0.5*(${C23}+${C32})
variable C23all equal 0.5*(276.47957639955+${C32})
variable C23all equal 0.5*(276.47957639955+-763.33554359898)

variable C44all equal ${C44}
variable C44all equal -1829.67397029977
variable C55all equal ${C55}
variable C55all equal -350.79391520936
variable C66all equal ${C66}
variable C66all equal -1631.35971789993

variable C14all equal 0.5*(${C14}+${C41})
variable C14all equal 0.5*(-131.44462550059+${C41})
variable C14all equal 0.5*(-131.44462550059+426.842611850239)
variable C15all equal 0.5*(${C15}+${C51})
variable C15all equal 0.5*(-283.740245549008+${C51})
variable C15all equal 0.5*(-283.740245549008+4.15679919999093)
variable C16all equal 0.5*(${C16}+${C61})
variable C16all equal 0.5*(-200.537481699139+${C61})
variable C16all equal 0.5*(-200.537481699139+134.568956299685)

variable C24all equal 0.5*(${C24}+${C42})
variable C24all equal 0.5*(-30.8430953994393+${C42})
variable C24all equal 0.5*(-30.8430953994393+-91.8131150007248)
variable C25all equal 0.5*(${C25}+${C52})
variable C25all equal 0.5*(-100.453428500332+${C52})
variable C25all equal 0.5*(-100.453428500332+-715.248177010566)
variable C26all equal 0.5*(${C26}+${C62})
variable C26all equal 0.5*(-181.307125650346+${C62})
variable C26all equal 0.5*(-181.307125650346+9.16462344955653)

variable C34all equal 0.5*(${C34}+${C43})
variable C34all equal 0.5*(-319.491785699502+${C43})
variable C34all equal 0.5*(-319.491785699502+-343.836862600408)
variable C35all equal 0.5*(${C35}+${C53})
variable C35all equal 0.5*(-360.909819850698+${C53})
variable C35all equal 0.5*(-360.909819850698+-229.556569229811)
variable C36all equal 0.5*(${C36}+${C63})
variable C36all equal 0.5*(-332.433698348701+${C63})
variable C36all equal 0.5*(-332.433698348701+-277.585639949888)

variable C45all equal 0.5*(${C45}+${C54})
variable C45all equal 0.5*(-250.250730549917+${C54})
variable C45all equal 0.5*(-250.250730549917+206.359091395512)
variable C46all equal 0.5*(${C46}+${C64})
variable C46all equal 0.5*(-1757.77332200017+${C64})
variable C46all equal 0.5*(-1757.77332200017+-1265.04079660028)
variable C56all equal 0.5*(${C56}+${C65})
variable C56all equal 0.5*(255.877272919752+${C65})
variable C56all equal 0.5*(255.877272919752+-96.967789449729)

# Average moduli for cubic crystals

variable C11cubic equal (${C11all}+${C22all}+${C33all})/3.0
variable C11cubic equal (565.134040150791+${C22all}+${C33all})/3.0
variable C11cubic equal (565.134040150791+210.276945500635+${C33all})/3.0
variable C11cubic equal (565.134040150791+210.276945500635+-369.858484750614)/3.0
variable C12cubic equal (${C12all}+${C13all}+${C23all})/3.0
variable C12cubic equal (-738.19045495009+${C13all}+${C23all})/3.0
variable C12cubic equal (-738.19045495009+162.373978049494+${C23all})/3.0
variable C12cubic equal (-738.19045495009+162.373978049494+-243.427983599715)/3.0
variable C44cubic equal (${C44all}+${C55all}+${C66all})/3.0
variable C44cubic equal (-1829.67397029977+${C55all}+${C66all})/3.0
variable C44cubic equal (-1829.67397029977+-350.79391520936+${C66all})/3.0
variable C44cubic equal (-1829.67397029977+-350.79391520936+-1631.35971789993)/3.0

variable bulkmodulus equal (${C11cubic}+2*${C12cubic})/3.0
variable bulkmodulus equal (135.184166966937+2*${C12cubic})/3.0
variable bulkmodulus equal (135.184166966937+2*-273.081486833437)/3.0
variable shearmodulus1 equal ${C44cubic}
variable shearmodulus1 equal -1270.60920113635
variable shearmodulus2 equal (${C11cubic}-${C12cubic})/2.0
variable shearmodulus2 equal (135.184166966937-${C12cubic})/2.0
variable shearmodulus2 equal (135.184166966937--273.081486833437)/2.0
variable poissonratio equal 1.0/(1.0+${C11cubic}/${C12cubic})
variable poissonratio equal 1.0/(1.0+135.184166966937/${C12cubic})
variable poissonratio equal 1.0/(1.0+135.184166966937/-273.081486833437)

# For Stillinger-Weber silicon, the analytical results
# are known to be (E. R. Cowley, 1988):
#               C11 = 151.4 GPa
#               C12 = 76.4 GPa
#               C44 = 56.4 GPa

print "========================================="
=========================================
print "Components of the Elastic Constant Tensor"
Components of the Elastic Constant Tensor
print "========================================="
=========================================

print "Elastic Constant C11all = ${C11all} ${cunits}"
Elastic Constant C11all = 565.134040150791 GPa
print "Elastic Constant C22all = ${C22all} ${cunits}"
Elastic Constant C22all = 210.276945500635 GPa
print "Elastic Constant C33all = ${C33all} ${cunits}"
Elastic Constant C33all = -369.858484750614 GPa

print "Elastic Constant C12all = ${C12all} ${cunits}"
Elastic Constant C12all = -738.19045495009 GPa
print "Elastic Constant C13all = ${C13all} ${cunits}"
Elastic Constant C13all = 162.373978049494 GPa
print "Elastic Constant C23all = ${C23all} ${cunits}"
Elastic Constant C23all = -243.427983599715 GPa

print "Elastic Constant C44all = ${C44all} ${cunits}"
Elastic Constant C44all = -1829.67397029977 GPa
print "Elastic Constant C55all = ${C55all} ${cunits}"
Elastic Constant C55all = -350.79391520936 GPa
print "Elastic Constant C66all = ${C66all} ${cunits}"
Elastic Constant C66all = -1631.35971789993 GPa

print "Elastic Constant C14all = ${C14all} ${cunits}"
Elastic Constant C14all = 147.698993174824 GPa
print "Elastic Constant C15all = ${C15all} ${cunits}"
Elastic Constant C15all = -139.791723174509 GPa
print "Elastic Constant C16all = ${C16all} ${cunits}"
Elastic Constant C16all = -32.984262699727 GPa

print "Elastic Constant C24all = ${C24all} ${cunits}"
Elastic Constant C24all = -61.328105200082 GPa
print "Elastic Constant C25all = ${C25all} ${cunits}"
Elastic Constant C25all = -407.850802755449 GPa
print "Elastic Constant C26all = ${C26all} ${cunits}"
Elastic Constant C26all = -86.0712511003947 GPa

print "Elastic Constant C34all = ${C34all} ${cunits}"
Elastic Constant C34all = -331.664324149955 GPa
print "Elastic Constant C35all = ${C35all} ${cunits}"
Elastic Constant C35all = -295.233194540254 GPa
print "Elastic Constant C36all = ${C36all} ${cunits}"
Elastic Constant C36all = -305.009669149294 GPa

print "Elastic Constant C45all = ${C45all} ${cunits}"
Elastic Constant C45all = -21.9458195772025 GPa
print "Elastic Constant C46all = ${C46all} ${cunits}"
Elastic Constant C46all = -1511.40705930023 GPa
print "Elastic Constant C56all = ${C56all} ${cunits}"
Elastic Constant C56all = 79.4547417350115 GPa

print "========================================="
=========================================
print "Average properties for a cubic crystal"
Average properties for a cubic crystal
print "========================================="
=========================================

print "Bulk Modulus = ${bulkmodulus} ${cunits}"
Bulk Modulus = -136.992935566646 GPa
print "Shear Modulus 1 = ${shearmodulus1} ${cunits}"
Shear Modulus 1 = -1270.60920113635 GPa
print "Shear Modulus 2 = ${shearmodulus2} ${cunits}"
Shear Modulus 2 = 204.132826900187 GPa
print "Poisson Ratio = ${poissonratio}"
Poisson Ratio = 1.98032483225787
Total wall time: 0:00:00
