Position data for a-TiO Structure

20 atoms
2 atom types

0.0 5.855 xlo xhi
0.0 8.90624 ylo yhi
0.0 4.142 zlo zhi
-2.9275 0.0 0.0 xy xz yz

Atoms

1 1 2.92750 0.00000 0.00000
2 1 1.52087 4.45312 2.07100
3 1 0.03811 2.96872 0.00000
4 1 3.00363 5.93753 0.00000
5 1 -1.36852 7.42184 2.07100
6 1 4.41026 1.48440 2.07100
7 1 2.96561 2.96872 0.00000
8 1 0.07613 5.93753 0.00000
9 1 1.55898 7.42184 2.07100
10 1 1.48276 1.48440 2.07100
11 2 -1.40663 4.45312 0.00000
12 2 0.00000 0.00000 2.07100
13 2 1.48276 1.48440 0.00000
14 2 1.55898 7.42184 0.00000
15 2 0.07613 5.93753 2.07100
16 2 2.96561 2.96872 2.07100
17 2 4.41026 1.48440 0.00000
18 2 -1.36852 7.42184 0.00000
19 2 3.00363 5.93753 2.07100
20 2 0.03811 2.96872 2.07100