Position data for T2O3 Structure

20 atoms
2 atom types

0.0 9.982 xlo xhi
0.0 8.6447 ylo yhi
0.0 2.879 zlo zhi
-4.9910 0.0 0.0 xy xz yz

Atoms

1 1 0.00000 0.00000 0.00000
2 1 -2.49550 4.32233 0.00000
3 1 4.99100 0.00000 0.00000
4 1 2.49550 4.32233 0.00000
5 1 0.00005 2.88153 1.43950
6 1 -2.49545 7.20386 1.43950
7 1 4.99105 2.88153 1.43950
8 1 2.49555 7.20386 1.43950
9 1 2.49545 1.44081 1.43950
10 1 -0.00005 5.76314 1.43950
11 1 7.48645 1.44081 1.43950
12 1 4.99095 5.76314 1.43950
13 2 2.49550 0.00000 0.00000
14 2 0.00000 4.32233 0.00000
15 2 7.48650 0.00000 0.00000
16 2 -1.24775 2.16117 0.00000
17 2 -3.74325 6.48350 0.00000
18 2 3.74325 2.16117 0.00000
19 2 -1.24775 6.48350 0.00000
20 2 3.74325 6.48350 0.00000