LAMMPS Description

1890 atoms
1 atom types

0 33 xlo xhi
0 33 ylo yhi
0 33 zlo zhi

Masses

1 12.0

Atoms

1 1 1 14.571195339600 6.483250726800 6.948817725600
2 1 1 15.785967882000 6.434616711000 7.483465277400
3 1 1 13.752778594200 7.565512723800 7.174611514200
4 1 1 12.269000172600 7.802542309200 7.917839875200
5 1 1 21.446980386000 6.331012212600 4.621211367000
6 1 1 21.383354420400 7.632600882600 4.726971570600
7 1 1 6.428998812600 13.364588347200 7.632960166800
8 1 1 6.634901321400 12.009988926600 7.537782516000
9 1 1 7.493525235000 14.563062451800 7.777523064000
10 1 1 7.123299198000 10.803675894000 7.902913249800
11 1 1 5.987993788200 14.908857163200 7.634527952400
12 1 1 9.227169486600 10.957482193800 4.981410108600
13 1 1 10.000087787400 10.908390907200 6.186286004400
14 1 1 11.478313635000 10.908162271800 5.913425985600