ITEM: TIMESTEP
0
ITEM: NUMBER OF ATOMS
12000
ITEM: BOX BOUNDS pp pp pp
-9.2728769907814979e-02 2.7433728769907184e+01
-1.0032714867003989e-01 2.7441327148669771e+01
-8.2176940321960501e-01 2.1954976940321978e+02
ITEM: ATOMS id type x y z c_peratom fx fy fz 
242 2 5.24259 5.59506 4.63051 -25.1559 0.782865 2.94123 1.2237 
1201 2 5.28247 3.23145 2.07688 -24.1098 -0.973507 -0.432353 -1.07372 
1202 2 5.46475 2.88166 7.52397 -24.2937 0.984804 -1.00021 1.03927 
2041 2 2.29257 5.62428 1.97079 -25.3382 -1.60029 2.38788 0.6246 
2042 2 2.66793 5.39135 7.58291 -25.9198 1.47246 2.27643 2.40801 
3002 2 2.56117 2.76398 4.56953 -24.541 -1.69612 1.78062 -0.411892 
4001 1 0.774308 1.50434 0.606618 -7.28259 1.69209 -0.290754 0.621977 
4002 1 1.1248 1.54211 5.93076 -8.05553 0.933341 -0.206123 1.61185 
5001 1 3.72856 4.36183 3.53296 -8.24671 0.648446 0.469677 0.155721 
6001 1 3.52971 4.46413 0.855278 -7.12688 3.68853 -2.92592 -2.53871 
6002 1 4.55299 4.4499 6.55875 -7.43045 -0.648012 0.971921 -3.52771 
7001 1 1.34832 1.37781 3.28831 -8.13908 -0.185807 0.52507 -1.18309 
8001 1 4.12421 1.7786 3.12872 -7.64472 -2.63348 -2.38841 1.18563 
9001 1 0.927826 4.31948 0.581828 -6.86183 -0.148559 -0.25677 1.28458 
9002 1 1.71876 4.21429 6.16127 -7.31437 -1.66504 -2.11516 -1.65637 
10001 1 0.903001 4.1981 3.48185 -8.01273 1.0714 -2.81466 -2.7842 
11001 1 3.77834 1.52381 0.371388 -8.03188 0.46541 -0.299438 -0.552125 
11002 1 3.72502 1.50898 5.82235 -8.19989 2.14544 -0.0915717 2.12592 
10201 1 6.67496 4.16501 3.65668 -7.63029 -1.1013 2.13618 -1.72317 
9201 1 6.24137 4.12688 0.302871 -7.78469 1.9017 0.48032 4.33078 
7201 1 6.57374 1.7348 3.0498 -7.30598 3.04298 -2.97011 1.13365 
2 2 0.163105 0.0707348 4.56042 -24.4796 -3.83954 -0.581488 1.03327 
1002 2 -0.0822802 2.67723 7.52252 -24.0826 -0.134283 1.96201 -0.300675 
2001 2 2.6218 -0.0253457 2.03236 -23.957 1.66851 3.09052 -2.2138 
2002 3 2.25881 0.220991 7.52685 -28.1418 1.17359 -1.89551 -1.13417 
202 2 5.34286 0.407558 4.7039 -23.8884 0.164786 -0.716519 -0.596898 
201 2 5.25107 0.11842 -0.748876 -24.3329 -0.901821 -0.371457 -0.323955 
4202 1 6.7978 1.21558 6.07994 -8.89201 -0.131399 -0.633687 0.576304 
4201 1 6.98302 1.17635 0.353921 -8.28623 -1.15535 -0.645419 0.771372 
9202 1 7.38897 3.71271 6.31887 -6.96736 -1.62926 1.31678 1.69244 
3401 2 13.6435 2.83218 -0.572949 -25.2068 0.230377 3.12317 -2.68719 
442 2 10.6278 5.48881 4.6208 -24.4491 2.05982 -0.830618 0.122026 
1401 2 10.6175 2.46193 1.98296 -24.4499 2.27064 1.48586 0.664493 
1402 2 10.6134 2.46542 7.79466 -24.275 0.529852 2.90642 -1.26161 
2241 2 8.03035 5.55067 1.79828 -23.5784 -0.0988198 0.138303 1.59941 
2242 2 8.36383 5.43774 7.56878 -24.3552 -2.48843 -0.718418 -1.07987 
3202 2 8.31206 2.52101 4.82843 -24.8209 0.222937 0.813296 -1.15366 
4401 1 12.4846 1.59882 0.611294 -6.85232 -4.13941 -0.909984 0.498712 
4402 1 12.565 0.795687 5.66453 -7.16112 -0.190281 0.516549 0.928939 
5201 1 9.31154 4.02399 3.43622 -8.18014 1.41691 0.387201 -1.4407 
6201 1 9.20398 3.88429 0.637003 -8.31554 0.0261635 -0.267151 0.83403 
6202 1 9.89233 3.96329 6.13225 -7.34417 -1.23057 1.57979 0.983303 
7401 1 12.1684 1.06863 3.09394 -7.11279 -0.779212 1.62866 1.60369 
8201 1 9.68569 1.12354 3.62956 -7.86781 -2.84374 0.634963 -1.33127 
9401 1 12.2293 4.47539 0.577294 -7.11536 -0.0669593 -0.893934 -0.252866 
9402 1 12.3593 3.68585 6.2292 -6.57315 1.11637 -0.239474 -0.685835 
10401 1 12.4113 4.32354 3.22526 -6.64235 -1.52118 -2.3113 2.02594 
11201 1 9.86682 0.881482 0.753914 -7.26055 -1.88342 0.920027 1.2411 
11202 1 9.64104 1.19833 6.24138 -8.31907 -0.725573 -1.32376 1.57967 
2442 2 13.1823 5.35746 7.48569 -24.681 1.35392 -0.348269 -0.370794 
2441 2 13.651 5.84952 2.03491 -25.8005 -0.40897 -2.04281 -2.06542 
441 2 10.8036 5.46641 -0.645761 -24.6448 -0.213838 -0.405306 -2.20533 
11241 1 9.46896 6.68705 0.503097 -7.7212 -1.54435 0.0205978 1.30256 
4442 1 11.9197 6.60434 6.17406 -8.32847 1.20393 1.11611 -0.170424 
4242 1 7.04384 6.75667 5.5768 -6.86058 -1.12782 -1.41056 1.43284 
3402 2 13.7564 2.65065 4.64948 -25.0263 -3.75426 0.356776 0.664653 
642 2 16.2191 5.62606 4.44755 -24.379 1.30946 0.447186 1.03565 
1601 2 16.497 2.82377 2.09448 -24.7253 -0.664003 -0.943167 -0.727749 
1602 2 16.3171 2.83859 7.18393 -24.7643 0.699027 -0.527666 1.85775 
2641 3 19.1877 5.62586 1.90167 -28.4517 0.320218 -0.749321 -0.974293 
2642 3 19.0842 5.32579 7.20648 -28.6131 0.73089 1.90672 -0.446319 
3602 3 19.2822 2.83791 4.672 -28.3322 -0.245939 -0.452345 0.282925 
4601 1 17.3441 0.662516 0.967934 -6.39619 1.41328 2.48684 0.500753 
4602 1 18.0936 1.53393 6.17613 -7.1117 -1.85291 -1.32259 -0.565823 
5401 1 15.1131 4.50087 3.08746 -7.42748 0.193063 -2.07143 0.828464 
6401 1 14.9221 4.31218 0.697778 -7.19484 1.69632 -0.35255 -2.43552 
6402 1 15.0764 3.97075 5.70768 -7.68404 1.49865 2.09265 0.102432 
7601 1 17.7251 1.19255 3.59893 -7.87348 1.36155 2.21992 -0.763015 
8401 1 14.9735 1.45419 3.33585 -8.2927 1.95581 1.44745 0.0120494 
9601 1 17.9497 3.98705 0.846073 -8.18789 -0.363539 0.258206 -2.88347 
9602 1 17.9083 3.95568 6.01802 -7.72605 0.220996 1.10116 0.109078 
10601 1 17.8502 4.33351 3.21428 -7.35811 -0.793601 -1.65555 2.55281 
11401 1 14.8581 1.50197 0.476844 -6.87092 3.78932 -0.767972 1.14095 
11402 1 15.0582 1.38341 6.18675 -7.82862 1.39201 -1.86415 -1.47127 
11601 1 20.2504 1.4491 0.825756 -7.79419 0.290221 -1.83719 -1.11588 
8601 1 20.5408 1.65969 3.36673 -7.6211 -1.23615 -0.184554 0.322322 
2401 2 13.7486 0.12378 2.07224 -25.7993 0.93712 -1.42763 -1.66068 
5601 1 20.4215 4.567 3.13565 -7.41775 0.02163 -0.690502 0.567911 
2602 3 19.3647 0.313847 7.44314 -29.638 -0.332351 -1.95612 -1.05616 
4642 1 17.6503 6.50123 5.76795 -7.87068 -0.154065 1.49533 1.45164 
5602 1 20.2426 4.0821 8.29883 -7.40878 0.604305 -1.74283 0.865836 
602 2 16.4332 0.000630165 4.81131 -24.2515 -0.0864175 -0.547612 0.600487 
641 3 16.1882 5.5468 -0.744745 -27.763 0.500179 1.19523 0.301577 
42 2 27.2148 5.37113 4.62327 -24.4004 -0.91082 2.85279 0.990289 
1001 2 26.9781 2.86302 1.83692 -24.4612 1.86722 0.0492581 -1.31509 
1 2 27.3414 -0.0451297 -0.706894 -25.3169 -1.46766 -1.32903 -0.391759 
6602 1 20.7522 4.10545 5.69397 -8.15377 0.0680848 -0.110887 -0.161279 
11602 1 20.6671 1.33189 5.97458 -7.73405 1.60518 -0.320257 0.537995 
6601 1 20.8983 4.10725 0.506344 -6.44604 -1.96271 -1.11135 1.35233 
842 3 21.8536 5.47227 4.49475 -27.7377 0.386185 0.913394 -0.149047 
1801 3 21.8091 2.58302 2.07569 -29.0656 -0.273759 1.45185 -2.03488 
1802 2 22.0539 2.75184 7.3134 -24.9598 -2.00302 -1.34509 1.49531 
2841 3 24.6125 5.40183 1.63535 -28.7727 -1.31229 1.00404 -0.170918 
2842 2 24.4774 5.60839 7.4985 -24.1038 0.461554 -0.537526 -0.84012 
3802 2 24.5053 2.80748 4.65198 -23.7674 0.230551 0.0897765 0.298033 
4801 1 23.0397 1.44208 0.701444 -7.82583 -0.74679 -1.77427 -1.45849 
4802 1 23.4778 1.24505 6.06744 -8.59293 -0.307353 2.08913 -0.86065 
5801 1 25.555 4.19609 3.00451 -8.81813 1.01708 -0.462103 1.22847 
6801 1 25.9287 3.9799 0.212733 -6.92889 -0.0663475 -0.491144 0.950939 
6802 1 26.1849 3.98587 6.01747 -7.87497 0.0540407 -0.441973 -0.345884 
7801 1 23.1583 1.07461 3.19067 -7.59526 -0.0175385 1.72318 2.25902 
8801 1 25.91 1.456 3.55215 -8.69514 0.826987 0.194456 -1.1534 
9801 1 23.406 3.96561 0.473002 -7.07155 1.00526 1.10517 0.616047 
9802 1 23.4214 4.11741 6.33393 -8.39616 -0.157564 -0.707097 -3.61384 
10801 1 22.9153 3.85422 3.16781 -8.1003 1.13677 0.654895 2.73002 
11801 1 25.7306 1.22993 0.502489 -7.97162 -0.410414 -0.442003 2.74331 
11802 1 26.1976 1.32127 6.47161 -7.62467 -1.30154 -0.997446 -0.528855 
2802 3 24.8684 0.0754386 7.28412 -28.6182 -0.779092 -0.851535 2.53543 
11641 1 20.7189 6.76235 0.369083 -6.4148 -0.898184 0.192762 2.06404 
11841 1 25.6919 6.56819 0.406061 -7.30429 2.48617 1.58526 -1.13424 
11842 1 25.745 6.58738 5.64476 -7.80108 0.606861 1.80577 1.84319 
3801 3 24.3083 2.36482 -0.718864 -29.2274 1.84715 1.34255 -0.678429 
801 2 21.6425 -0.0181675 -0.634309 -24.6322 0.519945 0.741906 -2.10403 
2801 2 24.7406 0.0456457 2.02634 -24.8817 -1.46038 -1.8839 -0.246953 
4041 1 0.882909 6.9803 0.566448 -6.95009 -1.19899 -1.44751 0.0598015 
8041 1 4.12604 7.11031 3.28375 -6.84558 -2.51699 0.0193834 -0.44631 
11042 1 3.77396 6.94782 5.98212 -7.16761 0.450618 0.670044 0.552802 
11041 1 3.31413 7.16452 0.522872 -6.76199 3.26253 0.321434 -0.579438 
4042 1 1.0119 6.78772 6.32958 -7.70064 2.25733 -2.0851 -3.571 
7041 1 1.06624 6.85783 3.49036 -7.65122 1.45057 -0.814364 -0.684328 
282 2 5.1548 11.0395 4.63799 -25.4375 0.285792 1.16514 -0.109362 
1241 2 5.30656 8.60596 1.76415 -24.8037 -1.98683 -1.82965 2.87076 
1242 2 5.24674 8.61979 7.57165 -24.0918 -2.07271 -2.40023 1.20344 
2081 3 2.37312 11.046 1.93399 -27.4919 1.7416 -0.109936 0.363183 
2082 2 2.38912 11.0221 7.29624 -25.3176 0.995731 0.0559754 2.67483 
3042 2 2.34501 8.25357 4.68767 -25.1453 1.99827 -0.532711 1.29888 
4081 1 1.05421 12.5222 0.436828 -8.77062 0.440014 -0.808043 1.43293 
4082 1 1.15447 12.2082 5.87888 -7.92823 -0.480684 3.35767 1.90794 
5041 1 3.90002 9.94429 3.16859 -7.54636 -0.51501 -2.06959 -0.675077 
6041 1 3.6809 9.78008 0.414029 -7.94819 0.755202 0.24057 0.542368 
6042 1 3.68679 9.80742 6.06327 -7.48114 1.47306 -3.09631 -0.618824 
7081 1 1.10964 12.3352 3.43957 -8.75635 -1.07874 0.366857 -3.87198 
8081 1 3.93752 12.4162 3.31983 -6.7184 -1.00359 0.899212 -0.00854646 
9041 1 0.869136 9.59086 0.36664 -7.88484 1.74677 1.82169 0.354939 
9042 1 1.02862 9.65942 6.16613 -7.62255 -1.50078 -2.06225 0.0690045 
10041 1 1.12774 9.45578 3.40976 -7.46073 1.99859 2.29776 -1.77585 
11081 1 3.83144 12.3815 0.675982 -7.30535 0.169342 -0.832959 1.09673 
11082 1 3.77676 12.254 6.06399 -6.44519 0.728088 2.2205 -1.77982 
9241 1 6.63566 9.69878 0.539395 -7.85783 -0.200392 0.951477 -0.486596 
4241 1 6.74509 6.90264 0.312984 -8.46012 -2.91344 -1.94795 2.2915 
9242 1 6.43867 9.51271 6.1057 -8.41029 1.96784 2.40131 -0.844005 
4282 1 6.67779 12.7564 5.73399 -7.78963 1.62545 -4.33365 1.57669 
7241 1 6.58825 7.20605 3.00668 -6.70341 2.56646 -1.5158 -1.05881 
7281 1 6.74738 12.4697 2.98309 -6.85174 -0.977041 0.0431464 2.48739 
10241 1 6.81763 9.9219 3.33216 -7.36747 -0.605646 -1.0112 1.10023 
4281 1 6.85835 12.4304 0.332136 -7.42201 -1.29872 0.6638 -0.819878 
7441 1 12.3048 6.85051 3.34536 -7.67085 -1.98764 2.47096 2.49077 
4441 1 12.0208 7.17888 0.664395 -7.39678 1.48765 -2.44373 -1.01152 
8241 1 9.71403 7.03236 3.25033 -8.17801 -2.30309 -2.1584 1.44742 
11242 1 9.50629 7.10152 6.13793 -8.48395 -0.102062 -0.698972 0.629903 
482 2 10.8471 10.9164 4.64421 -25.0853 -1.15812 -1.97967 1.50613 
1441 3 10.9459 8.25821 2.25645 -28.8132 0.427092 0.691764 -3.24883 
1442 3 10.5545 8.04464 7.68117 -27.6114 0.938121 1.39473 0.843822 
2281 2 7.98118 11.1431 1.87119 -25.8159 1.50644 -2.3845 -1.92123 
2282 2 7.89344 11.2264 7.26361 -23.7527 -0.26552 -0.0717366 1.83017 
3242 2 8.25125 8.38904 4.76028 -24.6089 -2.0618 0.10674 -2.12084 
4481 1 12.1868 12.3229 0.731303 -7.94556 1.17851 0.823513 -0.245555 
4482 1 12.625 12.385 6.25107 -6.27273 -0.243225 -0.316685 -0.14347 
5241 1 12.2897 9.67985 3.39245 -7.67489 0.813736 -3.32086 0.221747 
6241 1 9.38395 9.46234 0.484991 -7.21406 -0.0966646 0.883414 -0.883764 
6242 1 9.62107 9.5515 3.122 -7.39321 -0.725899 0.319949 2.82229 
7481 1 12.0181 12.0991 3.49806 -7.05671 3.91395 3.97731 -2.85986 
8281 1 9.40153 12.1618 3.08008 -6.57557 0.297787 1.76437 1.28621 
9441 1 12.1016 9.54226 0.768907 -7.61814 -0.680123 2.44511 -1.63852 
9442 1 9.25075 9.92687 6.17102 -8.58362 0.707698 -0.704394 -1.9576 
10441 1 12.3125 9.68271 5.9571 -7.78459 -1.4668 -1.73334 1.12049 
11281 1 9.47739 12.3424 0.534268 -7.50596 0.300641 0.541801 -1.54432 
11282 1 9.99829 12.659 5.46084 -7.11846 -2.81436 1.42026 2.73608 
2481 2 13.5125 10.885 1.90043 -25.5566 1.1541 0.486461 0.589069 
3442 3 13.4041 8.2556 4.862 -27.69 0.858727 0.0583697 -0.874394 
2482 2 13.6092 10.7605 7.60118 -25.2051 -2.48023 2.842 -2.80637 
3241 2 8.05682 8.07093 -0.7553 -25.2382 2.11269 2.57556 -2.71334 
481 2 10.7814 10.9279 -0.569202 -24.688 0.934363 -0.0495851 -0.869727 
8282 1 9.5682 12.3912 8.30559 -7.7714 -1.4154 0.287463 1.08316 
8441 1 14.7626 7.30367 3.38811 -7.95879 2.18069 0.0196632 1.04268 
7641 1 17.7254 6.92226 3.13007 -8.52526 0.477176 1.5777 0.191729 
4641 1 18.0623 7.07058 0.451819 -7.30279 -0.671865 -1.56639 3.46839 
11441 1 15.2112 6.99461 0.715986 -7.30844 -0.217401 -3.16544 -1.01914 
11442 1 14.7948 6.80594 6.11344 -8.44453 -0.881374 -0.369233 -0.130748 
682 2 16.443 10.8889 4.65561 -25.4338 1.33344 1.35337 0.534657 
1641 2 16.4235 8.35644 1.98361 -25.4411 -0.871564 1.47184 -1.61386 
1642 2 16.2582 7.97088 7.22514 -24.5626 0.709359 1.79231 1.5037 
2681 2 19.1578 11.0217 1.92322 -25.4231 0.120623 2.50141 -1.07616 
2682 3 19.2865 10.9936 7.33377 -28.0091 0.908376 -0.458561 -1.33395 
3642 3 19.1982 8.14757 4.52553 -27.7425 -0.734386 1.18931 2.26469 
4681 1 18.0495 12.7782 0.588641 -7.26656 1.09693 -1.6921 -0.959089 
4682 1 18.0821 12.0574 5.82692 -7.49721 -0.491072 -0.130705 0.0874656 
5441 1 15.251 10.0452 3.10208 -7.06864 -0.969516 -1.03938 0.254516 
6441 1 14.738 9.36008 0.679265 -6.51934 -0.415028 2.21572 -1.08297 
6442 1 14.944 9.59577 5.83101 -7.71725 -0.36031 -0.420361 0.880455 
7681 1 17.7057 12.5287 3.1618 -7.22204 -0.841331 0.55002 0.428946 
8481 1 14.7222 12.6578 2.85883 -7.04576 0.253346 -0.13962 -0.896912 
9641 1 17.5425 9.91773 0.455245 -7.7793 0.361595 -0.293236 -0.380423 
9642 1 17.5516 9.28962 5.90461 -7.85584 1.45579 -0.45178 0.295661 
10641 1 17.8879 9.85869 3.18044 -7.71826 -0.80252 -3.42494 1.17699 
11481 1 15.4291 12.3547 0.311312 -7.33497 -2.49741 0.446401 0.0502182 
11482 1 15.3189 12.6248 5.69359 -7.34633 1.65782 -2.45229 0.0851964 
5641 1 20.4184 9.89597 3.37124 -7.87351 2.16057 -2.43634 -0.605757 
8681 1 20.5018 12.5183 3.3367 -7.0031 -0.391709 -1.58447 -0.290044 
6641 1 20.2878 9.37693 0.451624 -8.17776 0.806322 1.62107 2.60986 
11642 1 20.2717 6.91506 6.04284 -7.27032 0.984965 -0.503056 -1.87426 
3482 2 13.7351 13.5007 4.5452 -25.9948 -1.29535 1.93538 2.3143 
881 3 21.8146 10.7777 -0.466024 -29.2451 1.22411 1.07013 -2.87062 
3881 3 24.575 13.6673 -0.781227 -28.6748 -2.11058 0.407298 1.40995 
1042 2 27.3542 7.79868 7.52331 -23.4124 -1.7874 5.22935 3.42348 
1041 3 27.2417 8.0568 1.5946 -28.8679 -0.678911 1.9623 1.33601 
6642 1 20.5766 9.59063 6.01667 -7.17286 -1.23461 0.11334 -1.32607 
8641 1 20.6326 7.11211 3.42734 -8.9472 -1.08644 -0.177141 -0.382687 
11681 1 20.9031 12.0149 0.672163 -7.05063 -3.09764 0.316101 0.61047 
4841 1 23.2897 6.78553 0.451149 -6.98172 -0.124011 0.31965 0.67063 
7841 1 23.3767 6.84726 3.21455 -7.34846 -0.881796 -1.45527 0.082869 
82 2 27.3718 11.0103 4.56699 -23.9774 -1.23091 -2.83539 1.50755 
4842 1 23.1949 6.82427 6.00044 -7.84658 -1.6177 0.110547 0.211083 
8841 1 26.1183 7.01188 2.9841 -7.30172 -1.23234 -0.684892 0.104778 
11682 1 20.7575 12.3419 6.0975 -7.16282 0.0197076 -0.273564 1.07332 
882 3 21.9445 11.0444 4.81366 -29.0847 -1.35092 0.402303 0.225764 
1841 2 21.7494 8.29367 2.0584 -24.5909 2.655 -0.19216 -2.63853 
1842 2 21.9218 8.11231 7.30422 -25.0516 -2.85273 1.5567 -1.56465 
2881 3 24.6009 10.8505 2.11506 -28.1676 -0.96776 0.89304 -2.69218 
2882 2 24.7508 10.9446 7.24231 -25.2784 -1.00671 1.52831 2.20182 
3842 3 24.8784 8.36992 4.30764 -27.9086 -0.622394 -3.13982 -0.0904493 
4881 1 23.3164 12.367 0.583318 -6.68476 1.93005 -0.549658 0.0970515 
4882 1 23.4473 12.5064 5.81702 -7.44333 -0.46804 0.339395 0.247735 
5841 1 26.3142 9.64553 3.05213 -8.00478 -3.25649 2.18935 0.667954 
6841 1 25.7951 9.52786 0.510698 -7.45729 -0.460874 -0.610631 -0.14193 
6842 1 25.6604 9.59811 5.74169 -8.23803 1.68502 -0.212392 -0.429658 
7881 1 22.9704 11.8359 3.28 -7.07289 0.924075 0.230191 -0.736753 
8881 1 25.4768 12.6288 3.36518 -8.86638 2.41683 -1.36007 -0.650677 
9841 1 23.0466 9.60432 0.586511 -7.34897 0.402882 -0.622444 2.27777 
9842 1 23.1263 9.80158 6.17224 -7.61035 -0.0925427 -0.688665 -0.677385 
10841 1 23.4999 9.39336 3.12577 -8.15068 0.0963039 -0.1412 1.60685 
11881 1 25.9158 12.2633 0.586183 -7.83477 0.719996 -1.27166 0.659164 
11882 1 26.0582 12.3603 6.00722 -8.18103 1.12201 -0.152503 0.0686042 
1881 2 22.0518 13.5873 2.08208 -27.0002 -0.582203 0.418179 -1.25301 
1081 2 26.9722 13.5903 2.05167 -23.0044 2.76812 0.15306 0.3183 
4204 1 6.54577 1.36076 17.2397 -8.67567 0.277411 -1.82143 -0.475234 
9204 1 6.60441 4.09877 17.1921 -7.57094 -0.530366 -0.537027 -0.249693 
6004 1 3.75408 4.02983 16.9215 -8.37664 1.96761 0.704036 2.48104 
4244 1 6.57773 6.69239 17.25 -7.7056 1.18702 1.48434 0.466718 
11004 1 3.81166 1.11545 17.4848 -8.33181 -1.22806 -0.35633 -4.41635 
5002 1 4.02062 4.12921 9.00403 -6.93729 0.123677 -1.4346 0.671114 
243 3 5.44362 5.36737 10.2545 -28.0369 -1.81922 0.00760736 -0.262612 
244 2 5.26475 5.55454 15.7974 -25.4409 -0.219587 -1.094 -0.598874 
1203 2 5.18211 2.56911 12.9145 -25.6237 -1.59614 1.85031 1.62308 
2043 2 2.6817 5.3617 13.0729 -26.4445 -0.946612 0.293371 -0.461571 
3003 2 2.39912 2.53005 10.4157 -25.3286 0.189354 0.996753 -0.615561 
3004 2 2.44335 2.61807 16.0595 -24.8913 -1.1927 -2.56365 -4.85577 
4003 1 1.29168 0.98061 11.7365 -7.00524 -2.03549 2.51904 -0.579807 
5003 1 3.87049 3.83368 14.3253 -6.74679 1.79755 -0.679289 -0.0293411 
6003 1 3.90512 4.10963 11.6436 -7.35611 -0.0455004 -0.918848 -0.291983 
7002 1 0.869151 1.23517 8.96135 -7.90633 -0.884873 1.50854 -0.960271 
7003 1 0.9594 1.399 14.8152 -6.60672 0.0725952 0.743822 -1.37615 
8002 1 3.38083 0.954076 8.8911 -7.24418 1.35081 2.13037 0.165654 
8003 1 3.79868 0.946553 14.278 -7.1682 -0.315456 0.422012 1.17993 
9003 1 1.00597 3.96422 11.6854 -7.33974 -0.109224 -2.4341 -0.430116 
10002 1 1.33608 3.81103 8.85813 -7.88822 -1.61871 0.592737 0.159878 
10003 1 1.34399 4.33933 14.4079 -6.00327 -1.79988 -2.07394 -0.266675 
11003 1 3.80808 1.2487 11.4935 -7.48052 1.61564 1.2984 0.787629 
9203 1 6.55726 4.00382 11.6805 -8.04874 1.27342 0.208559 -1.82192 
10203 1 6.78753 4.12064 14.3288 -6.93987 -0.834594 1.52366 0.665255 
4203 1 6.49527 1.27474 11.879 -7.8476 1.1138 -2.04574 -2.74124 
10202 1 6.70728 4.28912 8.80907 -7.68146 0.462276 0.629841 1.74935 
7202 1 6.08513 1.69068 9.17509 -7.61673 0.630767 0.223413 0.934956 
9004 1 1.07007 3.93153 16.8878 -7.26871 -2.0311 1.87364 3.97775 
7203 1 6.44741 1.54145 14.4312 -7.29375 0.242401 -1.61023 1.57422 
4004 1 1.05429 1.22209 17.3811 -7.40779 1.09776 -1.12882 0.665394 
7042 1 1.11829 6.61498 9.07284 -7.06178 -1.67684 -0.0363315 -0.99737 
4043 1 1.29503 6.50824 11.7474 -6.15227 -0.273256 1.34451 0.302635 
8043 1 3.61989 6.61385 14.7149 -7.09582 -0.24256 1.40883 -1.31817 
203 3 4.95133 -0.0315905 10.3362 -29.2654 1.44224 -0.172542 -1.5336 
4404 1 12.2551 1.23005 17.1387 -7.98066 -0.50574 0.0790406 -1.70279 
2403 2 13.649 -0.0167101 13.1007 -25.4137 -1.9405 2.05948 -1.12956 
443 3 10.5859 5.31877 10.3463 -28.1188 2.04918 2.32826 -0.183155 
444 2 10.8194 5.58951 15.9362 -24.478 -1.83014 -4.33767 2.35594 
1403 2 10.538 2.84092 13.1213 -24.9394 3.68357 0.948589 0.677395 
2243 2 8.19548 5.46538 12.8522 -24.7304 -2.1275 0.904254 0.857186 
3203 3 7.78722 2.5642 10.3919 -27.8805 -0.373786 0.870724 0.506095 
3204 2 7.77114 2.67492 15.8283 -24.8884 0.476493 2.11584 0.241937 
4403 1 11.9402 1.40443 11.446 -7.05542 0.679461 0.78908 0.0929141 
5202 1 9.30818 3.99081 9.0991 -7.8365 0.468558 0.510089 -2.20996 
5203 1 9.38426 4.3695 14.3547 -7.60613 0.616814 -1.49273 0.696458 
6203 1 9.42837 4.28451 11.5071 -8.32101 -0.329575 -2.33137 2.1247 
7402 1 12.0466 1.31266 8.92923 -7.85634 -0.622103 -0.206179 -1.18998 
7403 1 11.8246 1.27856 13.9546 -6.41776 0.232404 0.429766 2.30664 
8202 1 8.97837 1.42564 9.26562 -8.40059 1.36284 -1.98056 -1.71072 
8203 1 9.10916 1.16169 15.1267 -7.49959 0.651133 -0.344479 -1.90214 
9403 1 12.4127 4.15572 11.8558 -7.15603 0.111817 -1.87378 -1.38192 
10402 1 11.9574 4.18899 8.87703 -7.81295 -1.40239 -1.16725 2.04066 
10403 1 12.001 4.00185 14.7148 -6.98747 0.368938 -0.521663 -0.353162 
11203 1 9.13804 1.55565 12.2005 -7.78615 -0.433622 1.79137 -1.66629 
4443 1 12.0019 6.5885 12.1137 -6.79624 -1.11524 2.57872 -1.92378 
2443 2 13.5852 5.70328 13.1149 -24.8444 0.375015 -4.16712 2.94567 
3404 2 13.5031 2.72292 15.9492 -25.3928 0.144968 1.42387 -0.335314 
9404 1 12.3436 4.1083 17.3545 -7.26649 -0.681861 -0.204723 0.21765 
3403 2 13.4827 2.689 10.2169 -25.1294 -0.558778 -0.0549296 -1.06268 
404 3 10.7719 0.066318 16.2219 -27.996 0.754289 -0.68925 -2.67201 
7442 1 11.9464 6.78028 9.02065 -7.85825 0.0372682 -2.54352 -0.0246027 
7443 1 12.0739 6.72504 14.8319 -8.20098 2.58486 3.48707 -2.24465 
6204 1 9.38028 3.67747 17.2364 -7.65058 -0.398668 1.55007 -0.569007 
2203 2 8.00251 0.00481881 13.1179 -24.9976 -1.5634 -0.17284 1.66009 
11244 1 9.4604 6.68487 17.3659 -7.78607 -0.333278 0.297139 -3.15778 
603 2 16.5581 0.123545 9.97568 -25.6132 -1.93267 -0.950285 1.42973 
6604 1 20.5396 3.9159 17.0303 -7.46547 -1.91725 1.21453 -2.54069 
11404 1 14.9523 1.18656 17.13 -8.04018 -0.250785 0.477844 1.85585 
6404 1 15.119 4.10692 17.0882 -7.12912 -2.31594 -1.30797 0.595938 
9604 1 17.5239 4.14708 17.0351 -8.04814 3.42839 -0.841636 0.521429 
643 2 16.5755 5.49625 10.094 -24.5224 0.555617 1.65992 1.03945 
644 3 16.3062 5.2018 15.846 -27.6666 -1.25157 1.54551 -1.11381 
1603 2 16.2111 2.77849 12.8615 -25.0334 1.88822 -0.525596 2.62612 
2643 2 19.2361 5.83469 13.0728 -25.0004 0.795929 -2.96439 -2.80858 
3603 2 19.2992 2.83769 10.0681 -25.9332 -0.513894 -1.56711 0.302408 
3604 2 18.8063 2.67529 15.8242 -24.305 1.17165 -0.128034 -0.749349 
4603 1 17.6445 1.59276 11.4813 -7.23542 -0.526584 -0.357847 0.277362 
5402 1 14.5488 3.89663 8.49345 -7.37854 1.68124 0.796116 1.09261 
5403 1 14.9042 4.18889 14.4013 -7.61225 0.186075 0.809836 -0.368594 
6403 1 15.5461 4.41922 11.6816 -7.52809 -1.59212 -0.159435 -1.02904 
7602 1 18.0815 1.18619 8.7297 -7.25926 -1.54153 1.19299 1.13862 
7603 1 17.459 1.38147 14.4408 -7.8349 0.874711 -0.280491 -0.569355 
8402 1 14.7754 1.20888 8.81038 -6.89568 1.47257 -0.43283 0.647532 
8403 1 14.6904 1.52362 14.5603 -7.22076 0.152025 -0.883545 -1.82197 
9603 1 18.3509 4.33452 11.4625 -6.61173 -1.73629 1.52128 -0.207718 
10602 1 17.4747 3.82009 8.89033 -8.17355 -0.280569 1.54651 -0.871042 
10603 1 17.8423 4.13331 14.3149 -7.61016 -1.02242 0.497387 0.866089 
11403 1 14.8894 1.59062 11.5519 -7.70044 -0.631536 0.0364294 0.686109 
11603 1 20.1991 0.81136 11.3785 -6.71583 -0.043918 0.946179 0.628666 
11604 1 20.1887 1.45713 17.2653 -7.50253 0.678865 -1.14183 -0.295754 
8603 1 20.449 1.35216 14.2331 -8.29288 -0.273126 -0.297979 1.19357 
4604 1 17.6137 1.19737 17.1765 -8.43562 -0.123706 -0.0529405 1.66324 
8642 1 20.2734 6.57471 8.4958 -6.47768 2.19294 1.16758 2.26145 
4804 1 23.0775 1.45612 17.195 -8.13355 0.0706932 -0.032982 -0.601389 
8602 1 20.7565 1.48056 8.73812 -7.02433 -1.64152 0.962735 -0.459638 
2803 2 24.5957 -0.0765745 13.043 -26.1332 -1.06302 0.669674 -1.36653 
804 2 21.9119 -0.0336401 15.5826 -24.0305 -0.306203 1.38277 1.26371 
43 2 27.1838 5.19336 10.3389 -24.4646 2.25617 1.6799 0.771882 
9804 1 23.1111 4.27333 17.375 -7.27375 -0.828162 -2.52605 -0.300573 
5603 1 20.5881 4.31304 13.9878 -7.79318 1.33792 0.274797 1.7531 
6603 1 20.818 4.02071 11.266 -6.84287 0.490959 -0.9867 -0.87472 
44 2 27.188 5.53714 15.8145 -25.5303 0.541295 -0.840354 1.57267 
1003 2 27.1215 2.79868 13.2941 -25.5875 3.25947 -1.49178 -1.8219 
7802 1 23.1236 1.18803 8.82491 -6.32336 1.27089 0.828325 -1.73434 
5802 1 25.7632 3.96007 8.84311 -8.42783 3.15056 1.08194 0.117343 
843 2 21.9385 5.61258 10.1028 -24.9993 -0.723627 -1.19013 0.709707 
844 2 22.0013 5.45443 15.5984 -25.1832 -2.06047 0.740206 0.433912 
1803 2 21.8325 2.68232 12.9556 -25.3018 0.141121 0.463749 -1.29477 
2843 3 24.5501 5.27845 13.0669 -28.4474 -0.312254 1.2728 0.672559 
3803 2 24.4878 2.70778 10.1391 -25.6926 -2.34788 -1.31205 3.55074 
3804 2 24.5624 2.71214 15.8675 -25.0965 0.0822555 -0.0164891 0.043072 
4803 1 23.03 1.44143 11.609 -6.2558 0.274503 -0.240194 -0.818612 
5803 1 26.1053 4.24065 14.4544 -7.50711 -1.65878 0.629243 0.400783 
6803 1 25.8149 4.0455 11.8764 -7.87848 0.719216 1.23928 -2.14603 
7803 1 23.3572 1.45294 14.2289 -7.49956 -2.97718 -0.511412 2.12602 
8802 1 25.5988 1.08974 9.4074 -6.67656 1.64168 0.418593 -2.79867 
8803 1 25.7848 1.54634 14.3957 -6.63503 0.581478 -1.64468 2.05304 
9803 1 23.2966 4.0519 11.6757 -7.14246 0.501218 1.97956 0.679273 
10802 1 23.2434 4.04655 8.88968 -8.00809 -2.16764 1.9361 0.033113 
10803 1 23.4763 4.17329 14.6721 -8.0697 -0.967626 -0.542884 -1.69322 
11803 1 25.9056 1.30208 11.8915 -6.48486 1.21769 -0.393971 -0.595088 
11644 1 20.6334 6.60687 17.0645 -7.23245 -0.420304 0.660795 -1.93314 
11804 1 25.9091 1.45103 17.1693 -8.27423 -1.55004 -2.29289 -0.438012 
6804 1 25.7513 4.25235 17.1018 -7.97854 1.60899 -0.507959 0.151369 
7843 1 23.0736 6.70511 13.91 -6.91901 -0.613978 -0.421702 0.597777 
4844 1 23.2478 6.77073 16.8038 -7.77053 1.66729 2.7808 -0.839328 
4084 1 1.36997 12.3736 17.1691 -7.12289 -0.665119 0.597756 -0.473948 
11044 1 3.947 6.83061 17.2315 -7.07801 0.160926 0.309824 -0.219704 
11084 1 4.00334 12.635 17.0263 -7.76357 -0.615376 -2.42478 -1.86032 
4243 1 6.78524 6.80875 11.6824 -8.44214 -0.32658 0.509892 -1.5606 
83 2 -0.0721921 10.9812 10.2204 -24.7425 -0.830705 -0.142437 -0.0946531 
11043 1 3.97097 6.87016 11.8259 -7.69997 1.49614 0.628007 -0.0417979 
7043 1 0.722827 6.834 14.6587 -6.59045 2.01273 3.39701 -1.86502 
7243 1 6.41883 7.1317 14.508 -7.94426 0.328347 0.510534 -0.487817 
7242 1 6.5764 7.06879 8.63677 -7.8297 -0.100003 1.23225 0.860014 
8042 1 3.72916 6.86171 9.01217 -7.10669 1.88035 0.673917 -0.239837 
5042 1 3.90603 9.68814 8.97721 -7.47905 0.519372 0.829668 -0.210829 
283 3 5.15692 11.572 10.0227 -27.5394 1.29422 -1.44061 -0.70119 
284 2 5.34309 11.0134 15.6301 -24.6808 -0.923463 0.764128 0.297836 
1243 2 5.36883 8.44054 12.8032 -24.1737 -0.213021 -1.82134 2.57444 
2083 2 2.45472 11.0133 12.9879 -24.8824 1.68733 -2.33745 -0.942167 
3043 2 2.65058 8.2405 10.4857 -25.8968 -1.63234 -1.43437 -1.24665 
3044 2 2.3127 8.38171 15.7462 -25.533 0.0219523 -1.69289 0.934852 
4083 1 1.30168 12.313 11.6318 -8.31877 -1.1548 -0.518367 -1.72154 
5043 1 3.63576 9.75967 14.3974 -7.91019 2.02251 -0.392686 1.25843 
6043 1 3.91077 9.64213 11.7662 -7.77166 -0.476387 0.392534 -1.12379 
7082 1 1.37272 12.4948 8.76584 -8.08207 -0.429163 0.0188314 0.296721 
7083 1 1.59267 12.4089 14.2796 -7.92941 -1.6293 1.51945 1.49411 
8082 1 4.07731 12.6541 8.54503 -6.97747 -0.398501 -1.22758 2.7756 
8083 1 4.47803 12.6728 14.2718 -6.82848 -0.682364 -2.60901 0.74005 
9043 1 1.07247 9.31199 11.7849 -7.4068 0.791331 1.54624 -0.532798 
10042 1 1.31744 9.64021 9.13059 -7.04257 0.287366 0.0807637 -1.04427 
10043 1 0.992038 9.53795 14.4603 -6.07803 3.25063 1.78484 -1.36599 
11083 1 4.05161 12.2996 11.562 -7.88119 -0.780464 1.02356 -1.27448 
4283 1 6.6955 12.6514 11.3752 -8.31673 0.400251 -0.103569 -0.36353 
10243 1 6.67468 10.1302 14.1859 -7.55306 -1.20244 -2.68659 1.37967 
7282 1 6.74251 12.7739 8.50308 -7.71327 1.41008 -0.911329 0.694321 
4284 1 6.68012 12.2644 16.8795 -8.41089 1.88329 1.53088 1.44529 
10242 1 6.49389 10.191 8.9417 -8.05345 0.770146 -1.36632 -0.539405 
6044 1 4.10564 9.71389 17.2403 -8.16225 0.452997 0.343784 -1.03815 
9044 1 1.11121 9.81115 17.1191 -6.82855 1.30159 -1.67042 -0.308402 
4044 1 1.32325 6.78994 17.4509 -7.63424 -1.28377 0.340906 0.188834 
9444 1 12.4302 9.38415 17.3316 -8.07232 -1.08233 1.83852 -0.224288 
3284 2 8.37962 13.6442 15.8509 -24.5838 0.179342 1.01022 -0.228764 
9244 1 7.08992 9.62019 16.9858 -7.54615 -0.585216 -0.919577 -0.392816 
8243 1 9.30181 6.99008 14.1418 -8.18566 0.160899 0.978639 2.07922 
1483 3 10.7896 13.6701 12.9742 -27.1575 0.224777 0.663473 0.221179 
11284 1 9.91759 12.4083 17.2149 -7.24398 -2.00253 0.414044 0.951174 
9243 1 6.79872 9.6667 11.777 -7.99519 0.340712 -0.185542 -2.94373 
7283 1 7.13336 12.7229 14.1748 -7.65083 1.37052 0.85961 -0.54167 
4484 1 12.5172 12.3192 17.1931 -8.56591 0.109155 0.0524531 -0.771546 
8242 1 9.22784 6.90162 9.02088 -8.2529 0.310979 -1.67112 -1.42412 
11243 1 9.60433 6.95259 11.5714 -6.94798 -1.87753 0.92864 -0.407026 
7482 1 12.2787 12.1192 8.88346 -7.07048 0.202891 0.155061 0.864849 
483 2 10.8876 10.9034 10.2507 -24.5535 1.11774 0.456718 -4.68895 
484 2 11.0137 10.7354 15.7247 -24.3102 0.943863 2.92569 1.01341 
1443 2 10.8374 8.3419 13.0729 -24.6109 -0.283215 -1.28757 -1.47741 
2283 2 8.02586 11.1748 12.8745 -24.3386 1.43205 0.710714 -1.00417 
3243 2 7.92858 8.41727 10.2336 -24.5791 1.20002 -0.585575 -0.280949 
3244 2 8.13023 8.09823 15.653 -23.9518 -0.719349 1.43514 1.67012 
4483 1 12.1387 12.1029 11.471 -8.24017 1.32759 2.77782 2.37157 
5242 1 9.34014 9.50182 8.86744 -7.23084 -0.519028 0.565367 -1.25368 
5243 1 9.48853 9.79244 14.4013 -8.27315 -0.121463 -1.35389 -1.54814 
6243 1 9.48992 9.94796 11.3418 -7.70249 -3.0779 -2.11674 4.50777 
7483 1 12.582 12.4268 14.2333 -7.81213 -1.09671 0.474215 -0.50244 
8283 1 9.99419 12.4539 14.7642 -7.63399 -1.10418 0.782502 -3.32347 
9443 1 12.1732 9.42228 11.5928 -7.5176 -1.26435 0.157224 -0.368129 
10442 1 12.0341 9.12298 8.71711 -7.48471 0.895508 3.08868 -0.171678 
10443 1 12.3739 9.56717 14.3434 -8.67789 0.140115 -0.506493 0.864554 
11283 1 9.49539 12.6594 11.5557 -8.33787 -0.510075 -0.298672 0.591712 
3443 2 13.4203 7.97367 10.1844 -25.5572 0.46272 1.38797 0.772683 
3444 2 13.5242 8.08119 15.9475 -24.5515 0.82461 -0.300216 1.39741 
6244 1 9.88353 9.56809 17.0961 -7.83735 -1.44577 -1.41965 1.1262 
4684 1 17.4837 13.0178 16.6184 -7.55826 -0.0236051 -1.37988 -0.883712 
11684 1 20.206 12.1043 16.9845 -7.44181 0.587451 0.35159 -0.150072 
3684 2 19.1747 13.6462 15.3146 -24.2645 -0.514041 4.0694 4.66616 
11443 1 14.6174 6.92674 11.7847 -6.8534 1.99434 -0.659288 -0.233477 
7643 1 17.9003 7.08182 13.9835 -7.1256 -1.99397 0.342901 3.6203 
6444 1 14.9596 9.37543 17.1151 -7.51781 2.01691 1.23976 -0.869921 
11484 1 15.1199 12.1109 17.3711 -7.43098 -0.33143 0.725882 -0.987475 
9644 1 17.9694 9.96533 17.3288 -7.82715 -1.85436 -0.812321 -2.96194 
11444 1 14.9332 6.86814 17.2183 -7.12075 1.76975 -2.30288 0.158743 