ITEM: TIMESTEP
0
ITEM: NUMBER OF ATOMS
18000
ITEM: BOX BOUNDS pp pp pp
-2.9777521368157522e-01 2.7638775213681619e+01
-2.9083571560714638e-01 2.7631835715606947e+01
-3.6234717313941474e+00 3.3171547173138538e+02
ITEM: ATOMS id type x y z c_peratom fx fy fz 
362 2 5.42037 5.20364 1.99164 -24.5014 -0.274266 -0.228092 -1.45452 
1801 2 5.33577 2.52797 -0.943797 -25.5696 0.138295 0.289031 -0.759677 
3061 2 2.53851 5.31425 -0.683791 -26.3125 3.39948 -2.53931 -3.22339 
4502 2 2.85246 2.47078 2.06817 -25.507 -4.26263 -0.179857 -3.30869 
6001 1 1.07177 1.26046 -2.1751 -7.17338 0.383851 1.9313 -1.47931 
7501 1 3.94749 3.72294 0.47296 -7.07053 1.30433 0.899086 0.768933 
9001 1 3.68681 3.63627 -2.47232 -6.43831 0.817256 -0.322253 1.74812 
10501 1 0.900228 1.02785 0.605196 -6.80711 -0.120793 -0.474347 -0.102749 
12001 1 3.84073 1.09101 0.38943 -7.96902 2.82439 1.22689 2.67556 
13501 1 0.901913 4.32194 -1.87863 -7.32236 -1.3464 -1.06367 -1.6213 
15001 1 1.41167 3.71811 0.608588 -6.79044 -1.61004 -0.813375 -0.738472 
16501 1 3.9851 0.886492 -2.39494 -7.25587 0.0212586 1.21159 0.155338 
13801 1 6.55636 3.80799 -2.51817 -7.15825 0.0902012 0.633272 0.149114 
16561 1 4.14956 6.21707 -1.92289 -6.4822 1.50241 1.98383 -0.503618 
10561 1 1.11465 6.36882 0.315419 -6.93964 -2.25811 3.54571 0.413469 
12061 1 3.9127 6.51238 0.691503 -7.38235 1.10595 0.730526 1.19726 
13502 1 1.3718 3.78238 3.18364 -6.30091 -0.914623 0.0606869 0.520922 
6002 1 1.2725 0.891355 3.30233 -7.94456 -0.496663 0.108433 1.44052 
16502 1 4.03148 1.28484 3.34925 -6.83072 0.961826 -5.61007 0.584974 
15301 1 6.58047 3.91965 0.470852 -6.71298 0.208395 -1.10322 -0.208308 
62 2 -0.0846999 5.01386 1.53892 -25.6494 -1.62996 1.29118 3.92902 
3001 2 2.48224 0.0216923 -0.717827 -25.2641 -2.85501 -0.667596 -3.27928 
6062 1 0.898625 6.57335 2.8915 -6.15666 0.68403 1.10886 1.95878 
6301 1 6.94731 1.16804 -2.48459 -7.4592 0.0819938 1.03938 -0.813099 
10801 1 6.81882 1.13585 0.412176 -7.71587 -1.33986 -0.964632 0.0728027 
6361 1 6.77553 6.63664 -2.38678 -8.24833 1.13527 0.335789 0.259787 
662 2 11.1309 4.95251 2.07608 -25.1796 -1.15087 2.31029 -3.16834 
2101 2 10.9714 2.32093 -0.797565 -25.25 -0.0792579 2.92849 -0.701945 
3361 2 8.34659 5.24507 -1.12729 -25.1753 -1.63551 -2.22048 2.02245 
4802 2 8.17384 2.16139 1.89255 -24.957 -0.718206 2.79071 -0.419286 
6601 1 12.6128 1.49916 -2.51279 -6.8146 -0.398412 -2.13958 1.44893 
7801 1 9.4189 3.88282 0.534173 -7.1623 0.947925 -0.870482 -0.667923 
9301 1 9.31052 3.52418 -2.50482 -7.06062 1.14239 0.851433 0.641276 
11101 1 11.9333 1.05105 0.677864 -7.82564 3.95254 0.0897101 -1.68882 
12301 1 9.49916 0.984362 0.510761 -7.232 -0.856759 0.398884 0.71744 
14101 1 12.3313 3.98157 -1.82402 -7.05874 -1.83354 -0.266123 -1.60716 
15601 1 12.341 3.6753 0.740966 -6.50585 -1.02386 -0.309413 -0.863923 
16801 1 9.90486 0.904759 -2.07818 -7.43652 1.18016 -0.679862 -1.8822 
10861 1 7.04918 6.45766 0.793171 -7.46658 -3.00637 -0.35276 -1.58176 
11161 1 12.3424 6.64607 0.383944 -7.03271 2.26931 -1.8509 2.09708 
6661 1 12.2201 6.56132 -2.23253 -7.0177 1.52113 -0.491574 -2.39999 
14102 1 12.4586 3.80648 3.20024 -7.19146 0.805359 -2.75646 2.1101 
9302 1 9.56548 3.95174 3.3612 -7.53695 0.637022 -0.396182 -0.404201 
16802 1 9.64375 1.25566 3.26225 -7.97663 0.669478 -1.70252 0.30769 
6662 1 12.9348 6.46705 3.1191 -6.61071 -6.39807 0.626119 -0.246694 
16861 1 9.58647 6.33662 -2.50999 -7.1798 0.096541 0.741321 0.968535 
3301 2 8.32944 -0.182652 -1.06742 -25.7836 -2.5755 -0.377321 0.577259 
3601 2 13.5508 -0.243389 -0.952462 -24.6548 0.545305 -1.14107 -0.865197 
3661 2 13.8951 5.20618 -0.931912 -25.0964 -1.82961 0.117003 2.19148 
5102 2 13.7139 2.17512 1.94404 -25.2828 -0.103792 3.22577 -0.252039 
962 2 16.7349 4.90295 2.14214 -24.25 -0.353349 3.63728 -0.741724 
2401 2 16.5661 2.5922 -1.1373 -24.3731 -1.5436 -3.83738 3.12102 
3961 2 19.4274 5.14624 -0.736119 -24.4972 -2.8914 3.54218 -0.307066 
5402 2 19.5297 2.20093 2.09695 -24.5974 -4.12727 4.1969 3.4863 
6901 1 17.8677 1.07671 -2.33242 -7.06875 0.827294 1.74492 -0.924174 
8101 1 14.9283 3.61289 0.293719 -7.20905 1.90068 -0.193465 -0.723467 
9601 1 14.985 3.73682 -2.61775 -8.61713 0.807994 0.292 0.932556 
11401 1 18.0766 1.2344 0.379891 -7.49382 -2.80349 -0.337003 1.40282 
12601 1 14.6426 0.728319 0.63206 -7.58433 2.11192 0.799448 1.16344 
14401 1 17.6046 4.08888 -2.11583 -8.31313 2.87528 0.641446 -0.97484 
15901 1 17.7104 3.98747 0.537668 -7.29036 -0.255718 -0.534715 -0.735509 
17101 1 15.2924 0.840035 -2.07975 -7.17835 -0.473034 0.172122 -0.791808 
6962 1 17.8473 6.58825 3.23293 -7.26639 -0.208314 -0.318776 1.10801 
17401 1 20.6159 0.769408 -2.14352 -8.63028 0.971031 1.45403 -1.12478 
17161 1 14.9777 6.53989 -2.33623 -7.99386 -0.052535 -0.233299 -0.0812415 
902 2 16.6349 -0.273008 1.88912 -23.9156 -1.33993 -0.333246 0.170003 
9901 1 20.2042 3.62278 -2.02036 -7.78866 0.742393 -1.25629 -1.75057 
12901 1 20.5005 1.01486 0.870659 -8.10249 5.26005 -4.021 -3.99449 
8401 1 20.3174 3.90774 0.627912 -7.02632 3.0408 -1.97465 0.894091 
961 2 16.4335 5.23863 -3.35826 -23.4336 0.543182 4.35085 -4.60501 
9602 1 15.179 3.82754 3.08007 -7.76373 0.482742 -2.6248 2.32044 
17162 1 15.1864 6.39841 3.17962 -6.94384 4.34068 1.57154 1.06904 
1501 2 27.5168 2.82506 -1.09883 -24.5254 0.108701 -3.27388 1.18429 
9902 1 20.6964 3.71728 3.11036 -6.43386 2.69534 -0.111353 0.371756 
1262 2 21.9628 5.36631 2.00728 -25.4103 0.205046 -1.48427 0.0207384 
2701 2 21.7742 2.2139 -0.909396 -24.2758 2.11688 1.53293 0.989743 
4261 2 24.542 5.43199 -1.08544 -23.8823 1.81257 -0.791643 0.457332 
5702 2 24.9857 2.53611 2.16439 -25.3294 0.167442 -1.00617 -2.12876 
7201 1 23.5218 0.949503 -2.29393 -7.2863 -0.827089 -0.768514 -0.028173 
8701 1 26.146 3.772 0.477626 -8.03844 1.24691 0.285034 -0.398122 
10201 1 26.0622 3.90277 -2.57133 -7.80468 0.0695874 0.427161 1.65503 
11701 1 23.3616 0.839452 0.620453 -6.80455 -2.88748 1.17958 -1.61635 
13201 1 25.8857 0.985249 0.802549 -7.17171 2.67604 0.839708 2.0109 
14701 1 22.7909 3.60972 -2.43981 -6.97413 0.795882 1.07404 1.40774 
16201 1 23.2486 3.92733 0.665239 -7.04813 -0.325844 0.517212 -0.988901 
17701 1 26.3098 1.13269 -2.03393 -6.97438 -0.376061 0.912697 -1.15679 
12961 1 20.9917 6.68452 0.508602 -7.33329 -2.28625 -2.34806 0.293474 
7261 1 23.6947 6.39273 -3.11298 -7.52487 -0.867223 0.0699505 4.00262 
13261 1 26.1696 6.59307 0.554369 -6.87873 0.432806 -0.473541 -0.0848486 
2 2 27.5514 -0.258876 2.00175 -25.5529 0.572217 -1.52986 -0.529246 
7202 1 23.4323 1.25899 3.16584 -7.03355 0.0271265 -0.0948513 1.08048 
6061 1 1.45606 6.73571 -2.42452 -6.53877 -1.0362 1.21521 -0.33752 
422 2 5.58418 10.6706 1.77908 -24.8973 -0.906771 -0.790119 -1.20692 
1861 2 5.44158 8.0728 -1.01926 -24.912 -0.990427 -0.313077 -0.284828 
3121 2 2.68765 11.0324 -1.11034 -25.5512 0.597696 -1.29134 0.0501653 
4562 2 2.59728 8.07569 1.84182 -25.3292 0.373009 -2.23826 0.141753 
6121 1 1.41458 12.3054 -2.48387 -7.00021 -2.10522 -1.13135 -0.418897 
7561 1 4.1357 9.31084 0.462109 -7.42487 -0.189661 0.228502 -0.190189 
9061 1 3.89378 9.34961 -2.34808 -7.65049 0.281784 -0.366493 -0.736177 
10621 1 1.26387 11.9421 0.377208 -7.21671 0.377766 0.650506 -0.923809 
12121 1 3.98903 12.1543 0.362631 -7.38863 0.849792 0.828757 1.5616 
13561 1 1.12246 9.52415 -2.16945 -7.73149 0.639399 0.403524 -0.957427 
15061 1 1.14843 9.16047 0.573292 -7.56233 -0.0622503 1.22246 0.779388 
16621 1 3.99845 12.3143 -2.33535 -5.77107 -1.21064 -0.737866 -0.604533 
6421 1 6.34208 12.2687 -2.65931 -6.62131 3.56575 -0.489876 -1.79989 
4622 2 2.58029 13.5699 1.54195 -24.345 0.458803 -0.86383 1.18276 
13562 1 1.37941 9.4385 3.32383 -8.25123 -0.903078 -2.43737 -0.712788 
122 2 -0.195875 10.6571 2.07966 -25.0549 1.06061 0.100247 -1.37742 
1621 2 -0.150445 13.5861 -0.789547 -25.0455 0.75153 -0.110577 -2.2305 
6122 1 1.23525 12.1568 2.96814 -7.30158 1.07564 0.68185 1.24295 
9062 1 4.39015 9.1387 3.12039 -7.79162 -0.855272 -0.132064 0.790744 
16622 1 4.2856 11.8655 3.25163 -7.14782 -2.43571 0.166558 -1.09656 
121 2 -0.118525 10.7754 -3.55064 -24.6619 0.801048 2.65358 -3.05607 
12361 1 9.58167 6.7275 0.202902 -6.93538 -2.46832 -0.841037 0.503495 
13862 1 7.14631 9.52994 3.34117 -7.89971 -2.37786 -2.82284 -1.03172 
10921 1 7.01695 12.1849 -0.117907 -7.05906 -0.866306 0.542182 2.46525 
6422 1 6.70645 12.1217 3.00686 -7.49387 3.71205 -0.0807419 -2.66643 
15361 1 6.92318 9.30303 0.21225 -7.72983 -0.423495 -0.573439 2.07674 
13861 1 6.70265 9.43916 -2.41887 -7.37358 1.00302 -0.341978 -1.27846 
722 2 11.0711 10.8348 1.93145 -24.8268 -1.26544 0.841401 -1.8674 
2161 2 11.0007 7.77556 -0.833258 -25.5686 1.57693 3.50838 -2.42786 
3421 2 8.42003 10.682 -1.05664 -25.3082 -2.54242 -0.210763 0.511805 
4862 2 8.09829 7.81793 1.911 -23.9811 3.02728 2.75624 0.0739925 
6721 1 12.4103 11.8693 -2.30335 -8.05678 -0.716913 1.77075 -0.754831 
7861 1 9.60642 9.67869 0.457057 -6.7786 0.823829 -2.76696 0.960184 
9361 1 9.68421 9.32136 -2.4521 -8.03598 -0.889983 -2.04246 1.51673 
11221 1 12.4202 12.321 0.347434 -7.67647 -0.465633 -2.16198 1.30945 
12421 1 9.67701 12.1368 0.216578 -6.98345 -0.535264 -0.647329 1.24115 
14161 1 12.5039 9.21617 -2.11103 -6.73812 -1.81929 -0.12141 -3.53787 
15661 1 12.3303 9.34232 0.280068 -6.80428 -0.658395 0.545293 4.17724 
16921 1 9.44909 11.9546 -2.59205 -8.33198 -0.883976 2.31031 0.394301 
4922 2 8.09757 13.5927 1.64296 -26.028 0.0670235 -0.525047 0.813193 
2221 2 10.846 13.4769 -0.877376 -25.1544 1.91602 2.0638 -0.444439 
14162 1 12.431 9.55419 3.23147 -7.97146 -1.61067 -1.53366 -0.406673 
5222 2 13.6453 13.4738 1.80636 -25.1482 1.46978 1.2547 1.82296 
16862 1 10.0371 6.71044 2.78058 -7.89717 -1.3812 1.63237 1.97887 
9362 1 9.63423 9.62608 3.29676 -8.19024 1.92574 -0.767891 -0.144651 
16922 1 9.53386 12.741 3.03857 -6.13072 1.45191 -5.55599 0.293702 
721 2 10.9194 10.7259 -3.54889 -24.2398 1.42363 -1.36364 -2.81645 
11461 1 18.3388 6.85308 0.660524 -6.98396 -0.867379 -0.549184 -2.25126 
6961 1 17.7767 7.11987 -2.41866 -7.44686 -1.46252 -1.49271 2.12314 
12661 1 15.3462 6.72758 0.496325 -7.76327 -0.662585 -1.87201 -0.369468 
5521 2 19.4768 13.5262 -3.29128 -24.7068 0.272219 -1.12972 -1.11866 
17461 1 20.5163 6.69001 -2.37049 -8.27023 1.41206 -0.565305 1.07447 
3721 2 13.6956 10.6579 -0.842889 -26.1346 0.958881 0.824223 -1.39419 
5162 2 13.8652 7.85728 1.86001 -25.1972 0.475033 2.01592 -1.90775 
1022 2 16.5458 10.9726 2.00691 -24.8965 -0.837028 -0.543345 -0.334129 
2461 2 16.5486 8.13526 -0.597881 -24.9083 0.486128 0.161379 -2.92284 
4021 2 19.1482 10.9133 -0.600814 -24.301 -0.278033 -0.00272632 -1.05091 
5462 2 19.3547 8.25486 2.08546 -24.8075 -1.58726 -3.10908 -0.162305 
7021 1 17.862 12.3219 -2.00251 -7.29573 1.19006 2.01148 0.914076 
8161 1 15.0755 9.46408 0.361395 -7.09308 -0.377537 -1.27295 2.65192 
9661 1 15.0767 9.36244 -2.32356 -6.62917 0.8998 0.440717 -0.515921 
11521 1 18.0041 12.3809 0.780798 -8.01647 -0.927642 -0.162944 -0.278836 
12721 1 15.1026 12.0344 0.296029 -7.06668 0.892422 2.05958 2.36921 
14461 1 17.8346 9.83393 -2.10403 -7.78619 1.42488 -2.0616 1.25382 
15961 1 17.6435 9.50796 0.735624 -7.9902 2.5095 0.800159 -0.477448 
17221 1 15.2012 12.3038 -2.31858 -7.20285 -1.13742 0.287926 -1.48079 
17222 1 15.1992 12.2973 3.24109 -7.88283 -1.29713 -1.39284 -1.02766 
5522 2 19.3689 13.6495 2.08485 -25.0124 0.598209 -1.01441 -1.26951 
14462 1 17.9236 9.54837 3.35884 -7.84224 0.496889 -1.41825 0.0259641 
8461 1 20.5646 9.2575 0.578677 -7.82205 -0.940178 2.28894 -1.53805 
1021 2 16.5128 10.9188 -3.5412 -25.6877 0.052043 -0.740311 -0.387389 
5461 2 19.2833 8.41243 -3.22026 -24.2028 0.630961 -0.242289 -2.23981 
9662 1 14.9657 9.33916 3.3145 -7.66859 1.69519 0.0176639 -0.725614 
17522 1 20.597 11.9685 3.10156 -7.55058 0.538 -0.399071 0.868001 
1321 2 22.4848 10.779 -3.58034 -25.8064 -1.94117 2.86364 1.42804 
17761 1 26.1727 7.03412 -2.07938 -7.58222 1.09364 -1.43254 0.992451 
11761 1 23.4381 6.85487 0.359625 -7.43681 2.028 -2.58642 -1.88594 
7262 1 23.2534 6.76121 3.23639 -7.5712 1.91078 -1.41379 -0.9614 
1561 2 27.6306 8.32832 -0.79106 -24.8421 1.17975 -3.7006 -1.48443 
13021 1 20.676 11.9761 0.434055 -7.1795 0.941662 1.21374 0.843346 
17521 1 20.9888 12.5662 -2.10197 -7.25281 0.215129 -0.950846 -0.226138 
9961 1 20.8656 9.60531 -2.29324 -7.81431 -0.39547 -0.295737 2.9444 
1322 2 22.1613 10.8848 1.79166 -25.2585 -1.99474 -1.70566 3.35996 
2761 2 21.98 8.08135 -0.749797 -24.0864 0.89951 2.74005 -0.569467 
4321 2 25.1436 10.8615 -0.923873 -24.1735 -1.79376 1.89393 -0.679758 
5762 2 24.9437 7.99751 1.85741 -26.1142 0.00802222 -0.95533 1.42514 
7321 1 23.8821 12.3955 -2.10347 -7.42785 -1.864 -1.01788 -0.0282115 
8761 1 26.1366 9.40692 0.286672 -8.32576 -0.067341 1.16444 2.62827 
10261 1 26.4584 9.67135 -2.3663 -8.02193 -1.40188 -1.27238 -0.183167 
11821 1 23.4871 12.0865 0.76422 -7.66798 2.99455 1.99815 -4.84117 
13321 1 26.7053 12.3915 0.700591 -8.02345 -2.27939 -2.36889 0.645764 
14761 1 23.6705 9.50963 -1.91492 -7.94504 -0.869654 -1.19613 -0.562106 
16261 1 23.3272 9.26198 1.03122 -6.78687 0.3502 0.829058 -2.13324 
17821 1 26.402 12.3562 -2.04765 -7.01785 1.57962 -1.89735 -0.615785 
5822 2 25.1135 13.4239 1.83072 -24.8809 -0.971259 1.70214 0.973995 
9962 1 21.067 8.96228 3.2318 -7.48029 -1.25833 1.97999 0.0352692 
7322 1 23.6267 12.2687 3.15225 -7.27911 -0.160172 1.55756 2.60689 
10262 1 26.75 8.8712 2.986 -6.7566 -0.789217 0.365916 -0.172562 
1921 2 5.56636 13.8165 -1.15735 -25.8871 -0.192416 -3.57752 -0.515912 
482 2 5.39441 16.5397 1.9082 -24.1932 0.243672 0.104771 -0.88392 
1981 2 5.18775 19.3767 -1.14659 -24.0414 2.87548 -0.503828 -0.488903 
3181 2 2.84653 16.6931 -1.39977 -24.4091 -0.33009 -5.05669 2.60812 
4682 2 2.56507 19.0856 1.70259 -24.3047 0.0972044 1.43046 -0.965108 
6181 1 1.53743 17.816 -2.5931 -7.86897 -0.17969 0.867863 -1.14869 
7621 1 4.31941 15.1001 -0.0580736 -7.48616 -1.06099 1.76522 2.74292 
9121 1 4.19276 14.8971 -2.74607 -7.17651 -0.184931 1.06119 0.0325435 
10681 1 1.13528 17.3895 0.100521 -7.88217 -0.713354 2.50633 0.372816 
12181 1 3.89137 17.9881 0.219006 -8.40784 0.719892 -0.471661 -0.0559419 
13621 1 1.42426 15.0109 -2.81784 -6.70716 -0.338677 1.11062 0.600927 
15121 1 1.42543 14.8021 0.0960471 -7.77677 0.0146162 -0.231312 1.582 
16681 1 4.4257 17.6767 -2.54362 -8.60804 -0.214347 1.36469 -0.672975 
9122 1 3.78005 15.1346 3.05294 -7.53824 1.32993 -0.23192 -2.7579 
182 2 -0.0496431 16.2096 1.73887 -24.8175 0.515427 0.646175 0.237594 
1681 2 -0.138704 19.1052 -0.87457 -23.7157 0.55131 0.903684 -0.855674 
15181 1 1.30077 20.5167 0.360916 -8.3632 -0.746654 -2.18458 -1.48472 
13681 1 1.11615 20.623 -2.56006 -8.03938 0.774545 0.348737 1.12757 
6182 1 1.40978 17.602 2.87087 -7.33394 -0.383489 0.908333 -0.450092 
16682 1 4.03157 18.2912 3.05781 -7.73829 0.370998 -3.05201 -0.71223 
9181 1 3.90642 20.5879 -2.72096 -8.05417 0.225702 -0.591553 1.45708 
13622 1 1.14709 15.0349 3.24907 -7.46267 -1.58313 -3.11128 -2.11392 
13922 1 6.61987 14.9248 2.92622 -7.82549 -0.799187 0.230147 0.513801 
13682 1 1.36384 20.4898 2.99252 -7.74457 -0.470584 -1.30971 1.0117 
13921 1 7.0283 14.8726 -2.39736 -7.42678 0.393594 0.532862 -1.83184 
15421 1 7.23272 15.045 0.148911 -6.58623 -3.34779 -1.94005 1.4987 
10981 1 7.0175 17.625 0.466619 -6.98455 -1.8565 1.40585 2.41105 
6481 1 7.23184 17.6761 -2.20385 -6.77506 -3.08561 0.972939 -2.30461 
13981 1 6.8945 20.6017 -2.66495 -7.22919 -1.56875 -0.328356 0.79761 
782 2 10.9035 16.3586 2.08498 -25.1368 0.864638 -2.17745 -0.150453 
2281 2 11.1293 19.1674 -0.849245 -25.034 -1.21683 -0.69703 -0.229143 
3481 2 8.42264 16.4302 -0.95308 -26.2271 0.12738 -1.05013 0.694451 
4982 2 8.30525 19.0599 1.78794 -25.0898 -0.54908 -0.0710468 0.112506 
6781 1 12.9069 17.6766 -2.37338 -6.98189 -2.24419 -0.814329 0.937433 
7921 1 9.65084 14.7271 0.768334 -6.30847 2.62862 1.69722 -1.55136 
9421 1 9.77638 14.9914 -2.07387 -7.00371 -0.424611 -0.0520393 -0.470196 
11281 1 12.5254 17.6509 0.582607 -7.75537 -1.73028 1.11489 0.50252 
12481 1 9.68307 17.448 0.600167 -7.82355 1.0703 2.45698 0.457375 
14221 1 12.3292 15.0451 -2.12083 -7.34622 0.972143 -1.73366 0.340807 
15721 1 12.3266 14.8519 0.575907 -7.45732 0.00569322 0.914781 0.634071 
16981 1 9.73633 17.7685 -2.17076 -7.46239 3.18341 -0.212164 -0.968871 
7981 1 9.65267 20.4876 0.669939 -7.61968 -0.087415 0.171843 0.377953 
9481 1 9.49765 20.3915 -2.01921 -6.73635 0.89804 0.908513 -0.434571 
14281 1 12.2863 20.304 -2.28471 -6.79367 0.255643 1.10157 -0.830856 
15781 1 12.2555 20.5044 0.513036 -7.93684 1.13014 1.347 0.997049 
14222 1 12.4381 14.9227 3.35865 -7.56135 -1.73607 1.09212 0.116728 
13982 1 6.95741 20.5987 2.676 -7.37219 -1.14282 0.733535 2.25058 
3781 2 13.5692 16.1871 -0.641558 -24.8676 2.60972 1.02545 -1.50107 
5282 2 13.4688 19.3978 2.1561 -25.2849 0.80155 -1.42894 -0.0442021 
15481 1 6.82648 20.5348 0.124668 -7.403 -0.807487 0.362716 -0.767797 
781 2 11.1158 16.4012 -3.49789 -25.8627 0.196837 -0.741108 -1.2635 
2521 2 16.6149 13.8529 -0.721908 -25.0371 -0.942982 -2.04176 -1.36992 
1082 2 16.49 16.4911 1.9272 -25.505 -0.200162 -2.01367 0.291127 
2581 2 16.7246 19.1959 -0.916354 -24.9037 -2.00957 -1.06056 -0.578693 
4081 2 19.6363 16.5438 -0.954367 -24.273 -3.81871 0.541656 2.97259 
5582 2 19.248 19.1617 2.17153 -24.6369 0.231653 -0.476386 -1.89957 
7081 1 18.0039 17.6168 -2.32265 -6.89855 1.71164 0.0517449 0.0693365 
8221 1 15.2504 15.0192 0.678319 -7.71315 -1.77884 -0.877532 -1.14848 
9721 1 15.2822 15.1359 -2.1432 -7.46134 -0.334812 -0.426781 0.482613 
11581 1 18.0753 18.0858 0.301776 -7.1366 1.02248 -1.44183 1.65382 
12781 1 15.2931 17.8064 0.727756 -6.83597 -0.141391 1.01296 -1.99753 
14521 1 18.1593 15.0751 -2.52502 -7.68836 -0.375391 -0.881437 0.561794 
16021 1 17.8931 15.1553 0.438474 -7.47671 2.15042 1.01259 -0.309089 
17281 1 15.4972 17.9434 -2.59703 -6.8215 0.491768 0.449487 0.455262 
14522 1 17.9833 14.9127 3.15609 -7.22885 -0.613119 0.389453 1.16717 
9722 1 15.0679 14.9636 3.29433 -6.57308 0.927057 0.693696 0.742541 
9781 1 15.1987 20.6213 -2.254 -7.43874 1.15695 0.289486 1.47793 
14581 1 18.2187 20.2291 -2.23796 -8.34853 0.218596 1.99952 1.13945 
7082 1 17.821 17.6542 3.20238 -8.03165 0.472278 1.24243 1.24406 
5581 2 19.4848 18.9108 -3.59898 -25.3648 0.918533 0.916342 -2.11276 
2821 2 22.3709 13.7419 -0.77266 -25.0409 -0.0541057 -0.871798 0.0247357 
17581 1 20.8742 17.9196 -2.14387 -8.60743 0.354199 0.0845819 -0.246129 
8581 1 20.7815 20.3911 0.637848 -7.74022 -2.35717 0.0929162 -2.20621 
13081 1 20.7115 17.8678 0.908446 -7.10521 -0.245328 -1.79333 -1.62116 
8521 1 21.0431 14.845 0.707469 -7.688 -0.868447 0.92812 0.0345681 
10021 1 20.9487 15.3044 -2.06442 -8.09908 0.456388 -1.87409 0.325784 
1382 2 22.202 16.6066 2.03122 -24.1877 0.0260953 -1.07734 -2.39343 
2881 2 22.2782 19.1877 -0.972132 -24.8512 -1.02542 2.91998 -0.986982 
4381 2 24.9443 16.3837 -0.865956 -24.7362 -0.0251844 -0.745471 -0.803627 
5882 2 24.922 19.2733 1.97098 -23.3378 -4.81669 -3.1566 -3.90858 
7381 1 23.8845 17.5457 -2.58111 -6.96657 0.16086 1.09009 1.34072 
8821 1 26.4778 15.0403 0.615316 -7.63563 0.381065 -0.792937 -0.955224 
10321 1 26.4677 14.8253 -2.21258 -7.62184 0.302373 3.38495 -1.05082 
11881 1 23.2902 17.8508 0.212155 -7.75263 2.09035 -3.3463 2.17878 
13381 1 26.0837 17.7102 0.432328 -8.04651 1.40562 2.43163 0.285313 
14821 1 23.7063 15.0292 -2.35925 -7.61229 -0.972223 -0.310817 1.45376 
16321 1 23.8614 14.9617 0.488012 -7.43943 -0.87449 -0.6269 -1.32086 
17881 1 26.8217 18.0617 -2.46622 -7.76001 -1.6411 -1.23044 0.514597 
14881 1 23.5177 20.4883 -2.30367 -6.74513 3.57707 0.0698064 1.65098 
16381 1 23.4336 20.387 0.813184 -7.39117 0.657109 0.34078 -2.26774 
10382 1 26.4806 19.98 2.90334 -8.50817 4.44389 3.00471 2.04821 
17882 1 26.6593 17.1942 3.29242 -7.50974 -0.937913 1.58338 0.0173492 
14822 1 23.5914 15.3197 3.00976 -7.74256 0.532254 -1.8389 3.06704 
4741 2 2.95388 24.6273 -3.58143 -24.4604 1.937 5.33161 -1.31006 
7681 1 3.97793 20.6815 0.165628 -8.09093 0.305622 0.636103 0.301189 
302 2 5.22729 27.311 1.55843 -23.8067 0.507131 2.71807 0.083219 
542 2 5.50061 21.7804 1.63032 -24.3648 -0.246194 2.4225 -1.79935 
2041 2 5.42667 24.6442 -0.97849 -25.4129 0.885234 2.41284 0.039368 
3241 2 2.45457 22.0372 -1.12178 -24.2571 -0.787335 -2.02001 2.08102 
4742 2 2.54336 24.7282 1.71948 -25.5929 -0.873505 0.528799 1.3692 
6241 1 1.5269 23.7779 -2.42253 -7.82956 -3.44264 -2.62001 3.06062 
7741 1 3.75835 26.3731 0.0311512 -7.21732 0.515961 -1.66059 2.73136 
9241 1 4.46859 25.9922 -2.39407 -5.94965 -2.15488 -1.64289 -2.03725 
10741 1 1.39414 23.2146 0.545277 -7.52945 -0.654546 0.190559 -1.44469 
12241 1 4.1493 23.6063 0.631005 -7.48503 0.90875 -0.581727 1.48998 
13741 1 1.46454 26.6115 -2.0951 -7.0405 -1.80341 -2.10978 -0.348486 
15241 1 0.850014 26.0262 0.813362 -6.83512 0.731671 0.453182 -3.16024 
16741 1 3.95856 23.2525 -1.93306 -7.99339 2.96833 0.128314 -2.74074 
1741 2 -0.0515739 24.9784 -0.94459 -25.0387 -0.184217 0.953186 1.40314 
13742 1 1.25408 25.9735 3.14039 -6.4188 -1.1725 0.0664648 3.55051 
9242 1 3.84649 26.2575 2.82598 -7.79217 1.395 0.0404355 0.879954 
6242 1 0.823998 23.0081 3.30932 -7.21801 0.669835 0.723402 1.06081 
6542 1 6.54886 23.6891 2.97962 -7.62391 -0.528637 -1.99027 -0.600625 
242 2 -0.15578 21.5776 1.74677 -24.9404 0.520272 4.41193 1.22253 
9182 1 4.17141 20.8939 3.11091 -7.73568 -0.510971 0.219694 0.527063 
602 2 11.0823 27.5995 1.98408 -24.5783 -2.79918 -2.40796 1.128 
15541 1 6.69861 26.0955 0.483117 -7.89464 -1.20764 0.501989 0.534262 
6541 1 6.99398 23.4899 -2.69383 -7.84738 -1.52001 -0.791478 1.53344 
14041 1 6.79975 26.5646 -2.16841 -5.71013 0.485254 -1.15347 0.0883132 
11041 1 6.92916 23.4355 0.109029 -7.84053 0.6668 -1.33085 0.797231 
842 2 11.0528 22.0692 1.86512 -24.7786 -1.72094 -2.03346 -0.730978 
2341 2 10.642 24.8674 -0.794509 -24.7139 4.14643 0.172409 -2.63592 
3541 2 8.44568 22.0097 -0.908491 -24.9657 -0.769902 -1.3658 -0.765637 
5042 2 7.98643 24.9949 1.84079 -24.8677 2.06705 -1.3888 0.489451 
6841 1 12.5776 23.0023 -2.59423 -7.48604 0.863272 -1.37254 0.824775 
8041 1 9.4153 26.2222 0.224039 -7.53996 -1.25772 0.379079 1.66701 
9541 1 9.23002 26.2419 -2.58119 -7.58959 3.2884 -0.66684 0.372082 
11341 1 12.4859 23.6103 -0.134175 -6.76204 0.959801 -1.36407 2.04399 
12541 1 9.78933 23.3776 0.380425 -7.80333 -1.68132 -1.91894 0.62099 
14341 1 12.056 26.2648 -2.00797 -7.99334 0.133471 0.159341 -0.207981 
15841 1 12.1364 26.1037 0.549335 -7.24473 0.986449 1.49403 2.15297 
17041 1 9.87221 23.3318 -2.43002 -7.75471 -1.03413 0.358 0.186383 
9542 1 9.47193 26.2812 3.06813 -7.66412 0.370337 0.253547 0.338913 
17042 1 9.56838 23.4235 2.93517 -7.51131 -0.191185 0.173194 1.90304 
601 2 11.0382 27.3861 -3.58081 -24.8717 -0.738772 1.74581 -2.27059 
5341 2 13.5754 24.5376 -3.53103 -24.0339 4.03873 -1.2344 -0.0863873 
6842 1 12.4741 23.1153 2.98277 -7.07919 -0.338483 2.24318 -0.354309 
1141 2 16.8633 21.7535 -3.52125 -25.3829 -1.79457 0.379897 -0.902827 
16081 1 17.8542 20.7112 0.599116 -7.84483 0.0631755 0.564285 -0.228207 
8281 1 14.9786 20.7065 0.909849 -7.8463 -0.917646 -0.945659 -2.49053 
3841 2 13.949 22.0467 -0.902778 -24.639 -0.653412 -0.607545 -0.375681 
3901 2 19.3312 27.5695 -0.673285 -25.5194 -1.26621 -1.17843 -0.559375 
5342 2 13.8359 24.9401 1.9175 -25.1796 -1.2103 -0.0696988 -0.328327 
1142 2 16.3658 21.9566 1.86666 -24.0897 2.86219 0.414543 2.25697 
2641 2 16.5324 24.892 -0.784197 -25.3851 0.793164 -0.914838 0.831933 
4141 2 19.4851 21.7436 -0.948699 -24.6817 0.506542 1.15322 0.976453 
5642 2 19.4085 24.6683 2.06651 -25.3987 -0.171993 0.244632 -1.64558 
7141 1 18.1325 23.0956 -2.24883 -7.31012 2.51422 -0.322817 0.365575 
8341 1 15.1001 26.1474 0.442803 -7.62481 0.605158 -0.117805 0.153772 
9841 1 14.9522 25.8551 -2.44608 -7.45285 0.19438 1.31609 0.134534 
11641 1 18.0678 23.5759 0.463837 -6.8746 -0.179948 -0.301461 0.877773 
12841 1 15.2857 23.468 0.826527 -7.95141 -1.12181 0.468988 -1.65815 
14641 1 17.6842 26.3348 -1.91129 -7.11118 0.313147 -0.199036 -0.301817 
16141 1 18.1176 26.3375 0.737255 -7.55375 -2.26313 0.316603 1.69188 
17341 1 15.7384 23.3204 -2.04105 -6.92062 -3.61139 -1.43716 0.354264 
5641 2 19.4171 24.455 -3.51006 -24.9588 0.968301 0.753893 0.196913 
10141 1 20.4406 26.1196 -1.97752 -7.34653 1.73018 -1.34559 -2.03007 
9842 1 15.1645 26.4371 3.31896 -7.34347 1.25141 -0.600695 -1.60431 
8881 1 26.4995 20.8761 0.198103 -7.85718 -1.02103 -2.8877 -0.578909 
17641 1 20.9438 23.3513 -2.18496 -8.02724 0.505609 0.591901 -0.288271 
1202 2 22.1552 27.5439 2.20764 -25.7331 1.01128 0.88046 -0.228302 
7442 1 23.3239 23.6688 3.32927 -6.90458 0.513252 -0.655727 -1.1133 
10081 1 21.1845 20.7637 -2.34514 -6.49243 -3.61663 -0.386367 2.03906 
10381 1 26.1866 21.0363 -2.50359 -6.75959 0.470646 -0.960909 -0.247873 
8641 1 20.6778 25.8839 0.651934 -6.80189 1.3247 0.731422 -0.195979 
10142 1 20.7346 26.4292 3.30534 -7.06436 -1.29337 -2.62593 0.320218 
4201 2 24.7949 27.5346 -0.469362 -25.7689 -1.12961 0.166276 -3.05733 
13141 1 20.8736 23.137 0.628504 -7.68414 0.145293 -0.54421 0.219323 
1442 2 21.9632 21.5732 1.91981 -24.2107 2.06794 3.74597 1.13115 
2941 2 22.092 24.6407 -0.772098 -24.8196 -1.12633 0.304781 2.6875 
4441 2 25.1942 22.4069 -1.05476 -24.7391 2.06183 -1.91594 0.388659 
5942 2 25.0447 24.4991 2.01362 -25.8373 -1.72047 1.53829 -1.39919 
7441 1 23.9453 23.4813 -2.60265 -8.39216 0.351481 0.751439 4.33469 
8941 1 26.1479 26.2184 0.420511 -6.72681 1.42487 -1.41904 1.01451 
10441 1 26.3918 26.3798 -2.25747 -7.59581 -0.0956583 -1.44098 -1.39405 
11941 1 23.8165 23.4156 0.263137 -7.56308 -2.06788 -0.0888282 0.21954 
13441 1 26.3921 23.4727 0.564487 -6.85154 1.79469 0.297759 -0.903299 
14941 1 23.4431 25.9762 -1.69508 -7.55553 0.273482 1.97702 -1.77096 
16441 1 23.4449 26.1205 1.17693 -6.72508 0.71601 -1.01901 -0.916255 
17941 1 26.8233 23.6202 -2.23223 -7.46726 -1.23216 0.17423 -0.402278 
14882 1 23.7369 20.8942 3.25768 -7.65113 -1.22225 -1.48109 -0.24444 
10442 1 26.2236 26.0089 3.17637 -7.71708 0.811929 -0.00821903 0.934703 
17942 1 26.1464 23.0097 3.17256 -7.24431 -0.415587 -0.942662 1.21187 
1441 2 22.7025 22.1868 -3.52142 -24.9647 -5.18617 -5.30787 -3.87285 
1201 2 21.9728 27.4559 -3.53348 -23.9418 0.810522 -0.0786883 -0.791916 
16562 1 3.67394 6.53754 3.45019 -7.73484 1.81005 0.208863 -0.0789372 
9002 1 3.94006 3.54888 3.51689 -7.47155 2.70118 6.16061 -0.00501978 
363 2 5.40987 5.10436 7.5592 -24.1837 3.49124 -0.472863 1.12122 
1802 2 5.43439 2.50316 4.73827 -25.4596 1.59054 -1.94647 0.512332 
3062 2 3.01447 5.08026 4.8571 -24.3559 -3.48593 -0.927171 0.564819 
4503 2 2.839 2.34962 7.47202 -24.5546 -2.34473 0.414276 1.46834 
6003 1 1.38681 1.52848 9.23071 -6.82482 0.697292 -1.66266 -0.634678 
7502 1 4.21321 3.72167 6.23583 -7.94432 0.122 -8.8978e-05 0.382562 
9003 1 3.89815 4.2405 8.90497 -8.11039 0.967728 -3.37624 -0.522138 
10502 1 1.2068 0.725349 6.40967 -8.18748 1.32405 0.0444322 -1.62139 
12002 1 4.11975 1.09096 6.20407 -8.04997 -0.332984 -1.73084 -0.217521 
13503 1 1.02599 4.05264 8.83529 -7.19112 0.937704 0.173654 -0.703311 
15002 1 1.65271 3.29984 5.77242 -7.43493 0.265248 1.44185 1.5638 
16503 1 3.95946 1.00238 9.05032 -8.2435 0.975591 0.546154 -0.480389 
6303 1 6.66757 1.23299 8.95199 -8.06652 0.79984 0.213893 0.264016 
63 2 -0.210049 5.30544 7.54801 -24.3684 -0.735507 -0.518149 0.985165 
1502 2 0.0540088 2.32107 4.70642 -25.1596 -1.26321 0.503821 -0.531544 
10562 1 1.37393 6.37409 6.34442 -8.17911 -0.608474 -1.06271 -0.998791 
12062 1 4.25343 6.32895 6.34604 -8.26954 -1.05826 3.69043 -1.1775 
303 2 5.60142 -0.129451 7.55426 -24.534 -1.00392 -1.41702 -0.360975 
1503 2 -0.229448 2.63764 10.3144 -25.8791 -0.0900026 -1.72037 0.476075 
3363 2 8.13937 5.27874 10.3313 -25.2753 0.0958139 0.345296 0.0434183 
10862 1 7.12725 6.45429 6.16126 -7.72016 -1.58428 0.283036 0.0361851 
6302 1 6.8347 1.12679 3.42906 -7.33523 0.546553 -0.256327 -0.469287 
6362 1 6.74273 6.65372 3.59537 -8.60837 0.867131 -0.160051 -2.34368 
13802 1 6.76365 3.95553 3.42291 -7.91173 -1.4386 -0.93947 -1.5881 
6602 1 12.4575 0.957475 3.38609 -8.29556 -0.536157 -0.629184 -0.172863 
10802 1 6.83169 1.33543 6.20534 -7.6551 -0.00792429 -2.29 -0.21273 
15302 1 6.86196 3.87448 6.13392 -7.28982 -0.767894 0.104513 0.56245 
13803 1 6.81993 4.02616 8.96994 -7.40721 -1.51386 -0.666114 -0.551993 
663 2 11.1127 5.35838 7.15724 -25.221 0.933147 -0.13734 -1.58329 
2102 2 11.1363 2.36718 4.49703 -24.6804 -1.1438 1.5569 2.19585 
3362 2 8.13419 5.03725 4.6956 -24.8155 1.78915 0.552286 1.26367 
4803 2 8.24423 2.50145 7.44005 -25.1899 -0.327586 1.03127 1.10447 
6603 1 12.2451 1.18307 9.03092 -8.47462 0.742496 -0.102013 -1.01142 
7802 1 9.52629 3.6355 6.0333 -7.39473 1.26609 0.739483 0.537709 
9303 1 9.39943 3.96754 9.07366 -7.25733 0.633339 -1.26835 -0.938564 
11102 1 12.4762 1.04681 6.14898 -7.91333 -1.02399 0.906138 0.168427 
12302 1 9.5948 0.893459 6.08277 -7.86132 -0.245606 0.874087 -0.377888 
14103 1 12.2192 4.03677 8.52433 -8.37307 0.588429 -1.8959 0.866658 
15602 1 12.2542 4.11272 5.68665 -7.46271 -0.0809431 -1.36518 1.44066 
16803 1 9.48408 1.2309 8.83858 -7.82399 0.149373 -1.13345 -0.236227 
12362 1 9.90759 6.58635 5.73701 -7.27269 -1.80513 -0.267557 -2.40855 
5103 2 13.5534 2.44645 7.58944 -24.184 2.47156 0.171595 -1.70021 
16863 1 9.69204 6.41358 8.24357 -6.74037 -1.4141 0.560911 3.11468 
6663 1 12.4529 6.61733 8.69387 -7.7751 0.301345 1.78275 0.317217 
2103 2 10.9627 2.76936 9.98696 -24.8537 -0.770713 -1.55712 3.2093 
3303 2 8.08572 -0.156477 10.3376 -25.0156 2.52971 0.0117072 -0.924884 
17102 1 15.1106 1.06113 3.46665 -7.69339 1.07314 1.12255 -0.524265 
3662 2 13.898 5.28354 4.6202 -25.5954 -0.524995 -1.47697 1.05873 
14402 1 18.0861 3.5627 3.58983 -7.90697 -1.71277 0.603044 -3.51034 
6902 1 17.952 0.922879 3.45368 -8.20589 -0.551282 -1.13311 -1.81705 
963 2 16.6041 5.18184 7.3765 -25.1057 -2.47161 0.798996 0.958397 
2402 2 16.5335 2.37984 4.67216 -24.2668 -1.02604 -1.69146 1.57283 
3962 2 19.172 5.08947 4.80477 -25.0455 1.99162 2.46213 -1.48298 
5403 2 18.992 2.54274 7.46622 -24.5773 2.05646 0.678401 0.27622 
6903 1 18.0641 1.23444 8.88199 -7.36423 -0.161326 -1.24185 0.182519 