# LAMMPS data file written by OVITO Basic 3.8.4

4 atoms
2 atom types

0.0 3.724323 xlo xhi
0.0 3.724323 ylo yhi
0.0 3.724323 zlo zhi

Masses

1 58.6934  # Ni
2 118.71  # Sn

Atoms  # atomic

1 1 0.0 1.8621615 1.8621615
2 1 1.8621615 1.8621615 0.0
3 1 1.8621615 0.0 1.8621615
4 2 0.0 0.0 0.0
