# LAMMPS data file written by OVITO Basic 3.8.4

9 atoms
2 atom types

0.0 5.02778205 xlo xhi
0.0 4.35418698 ylo yhi
0.0 5.518918 zlo zhi
-2.513891025 0.0 0.0 xy xz yz

Masses

1 28.0855  # Si
2 15.9994  # O

Atoms  # atomic

1 1 -1.1998550473 2.0782099037 1.8396393149
2 1 1.3140359777 2.2759770763 5.5189179816
3 1 2.3997100946 0.0 3.6792786483
4 2 -1.0664503923 3.2469302935 2.9655004634
5 2 0.2351921026 1.8071487016 1.12586113
6 2 0.8312582897 3.6542949648 4.8051397967
7 2 3.3451493147 0.6998920152 2.5534175366
8 2 1.4474406327 1.1072566865 4.39305687
9 2 2.7490831276 2.5470382784 0.7137782033
