# LAMMPS data file written by OVITO Basic 3.8.4

56 atoms
2 atom types

0.0 8.53335154 xlo xhi
0.0 8.53335154 ylo yhi
0.0 8.53335154 zlo zhi

Masses

1 55.845  # Fe
2 15.9994  # O

Atoms  # atomic

1 1 1.0666689425 7.4666825975 3.2000068275
2 1 7.4666825975 5.3333447125 7.4666825975
3 1 3.2000068275 7.4666825975 1.0666689425
4 1 1.0666689425 5.3333447125 1.0666689425
5 1 6.400013655 2.133337885 6.400013655
6 1 4.26667577 0.0 4.26667577
7 1 1.0666689425 3.2000068275 7.4666825975
8 1 7.4666825975 1.0666689425 3.2000068275
9 1 3.2000068275 3.2000068275 5.3333447125
10 1 1.0666689425 1.0666689425 5.3333447125
11 1 6.400013655 6.400013655 2.133337885
12 1 4.26667577 4.26667577 0.0
13 1 5.3333447125 7.4666825975 7.4666825975
14 1 3.2000068275 5.3333447125 3.2000068275
15 1 7.4666825975 7.4666825975 5.3333447125
16 1 5.3333447125 5.3333447125 5.3333447125
17 1 2.133337885 2.133337885 2.133337885
18 1 0.0 0.0 0.0
19 1 5.3333447125 3.2000068275 3.2000068275
20 1 3.2000068275 1.0666689425 7.4666825975
21 1 7.4666825975 3.2000068275 1.0666689425
22 1 5.3333447125 1.0666689425 1.0666689425
23 1 2.133337885 6.400013655 6.400013655
24 1 0.0 4.26667577 4.26667577
25 2 1.1037833044 7.4295682356 1.1037833044
26 2 1.0295545806 5.2962303506 7.5037969594
27 2 7.5037969594 3.2371211894 7.5037969594
28 2 1.1037833044 5.3704590744 3.1628924656
29 2 7.5037969594 5.2962303506 1.0295545806
30 2 3.1628924656 7.4295682356 3.1628924656
31 2 1.0295545806 3.2371211894 1.0295545806
32 2 3.1628924656 5.3704590744 1.1037833044
33 2 1.1037833044 3.1628924656 5.3704590744
34 2 1.0295545806 1.0295545806 3.2371211894
35 2 7.5037969594 7.5037969594 3.2371211894
36 2 1.1037833044 1.1037833044 7.4295682356
37 2 7.5037969594 1.0295545806 5.2962303506
38 2 3.1628924656 3.1628924656 7.4295682356
39 2 1.0295545806 7.5037969594 5.2962303506
40 2 3.1628924656 1.1037833044 5.3704590744
41 2 5.3704590744 7.4295682356 5.3704590744
42 2 5.2962303506 5.2962303506 3.2371211894
43 2 3.2371211894 3.2371211894 3.2371211894
44 2 5.3704590744 5.3704590744 7.4295682356
45 2 3.2371211894 5.2962303506 5.2962303506
46 2 7.4295682356 7.4295682356 7.4295682356
47 2 5.2962303506 3.2371211894 5.2962303506
48 2 7.4295682356 5.3704590744 5.3704590744
49 2 5.3704590744 3.1628924656 1.1037833044
50 2 5.2962303506 1.0295545806 7.5037969594
51 2 3.2371211894 7.5037969594 7.5037969594
52 2 5.3704590744 1.1037833044 3.1628924656
53 2 3.2371211894 1.0295545806 1.0295545806
54 2 7.4295682356 3.1628924656 3.1628924656
55 2 5.2962303506 7.5037969594 1.0295545806
56 2 7.4295682356 1.1037833044 1.1037833044
