LAMMPS data file via write_data, version 22 Dec 2022, timestep = 72

56 atoms
2 atom types

-0.07918541467263576 8.61253695467262 xlo xhi
-0.07918541467263576 8.61253695467262 ylo yhi
-0.07918541467263576 8.61253695467262 zlo zhi

Masses

1 55.845
2 15.999

Atoms # atomic

17 1 2.0937451776636804 2.0937451776636795 2.093745177663679 0 0 0
18 1 -0.07918541467263499 -0.07918541467263536 -0.07918541467263494 0 0 0
31 2 0.8633091093301658 3.3241812459971944 0.8633091093301651 0 0 0
34 2 0.8633091093301654 0.8633091093301654 3.3241812459971958 0 0 0
43 2 3.324181245997194 3.324181245997194 3.324181245997193 0 0 0
53 2 3.3241812459971958 0.8633091093301656 0.863309109330166 0 0 0
7 1 1.0072798814955182 3.1802104738318397 7.52607165850447 0 0 0
9 1 3.180210473831837 3.1802104738318375 5.353141066168148 0 0 0
10 1 1.0072798814955182 1.0072798814955186 5.353141066168148 0 0 0
20 1 3.1802104738318375 1.0072798814955206 7.526071658504469 0 0 0
33 2 1.1512506536608769 3.036239701666482 5.497111838333507 0 0 0
36 2 1.151250653660877 1.151250653660877 7.382100886339112 0 0 0
38 2 3.036239701666482 3.036239701666481 7.382100886339108 0 0 0
40 2 3.036239701666482 1.1512506536608766 5.497111838333508 0 0 0
1 1 1.0072798814955186 7.5260716585044705 3.1802104738318393 0 0 0
3 1 3.1802104738318393 7.52607165850447 1.0072798814955184 0 0 0
4 1 1.0072798814955184 5.353141066168147 1.0072798814955188 0 0 0
14 1 3.180210473831838 5.353141066168148 3.1802104738318375 0 0 0
25 2 1.151250653660877 7.382100886339109 1.1512506536608769 0 0 0
28 2 1.1512506536608769 5.497111838333507 3.036239701666482 0 0 0
30 2 3.0362397016664815 7.382100886339111 3.0362397016664815 0 0 0
32 2 3.0362397016664824 5.497111838333507 1.1512506536608769 0 0 0
23 1 2.0937451776636795 6.439606362336308 6.439606362336307 0 0 0
24 1 -0.07918541467263523 4.266675769999994 4.266675769999994 0 0 0
26 2 0.8633091093301665 5.209170294002794 7.670042430669823 0 0 0
39 2 0.8633091093301682 7.670042430669825 5.209170294002793 0 0 0
45 2 3.3241812459971944 5.209170294002793 5.209170294002793 0 0 0
51 2 3.324181245997194 7.670042430669822 7.670042430669823 0 0 0
8 1 7.5260716585044705 1.0072798814955184 3.180210473831838 0 0 0
19 1 5.353141066168148 3.180210473831837 3.1802104738318375 0 0 0
21 1 7.5260716585044705 3.180210473831839 1.0072798814955175 0 0 0
22 1 5.353141066168148 1.007279881495518 1.0072798814955188 0 0 0
49 2 5.497111838333507 3.036239701666482 1.1512506536608769 0 0 0
52 2 5.497111838333507 1.1512506536608773 3.036239701666482 0 0 0
54 2 7.382100886339111 3.0362397016664815 3.0362397016664824 0 0 0
56 2 7.382100886339112 1.151250653660876 1.1512506536608762 0 0 0
5 1 6.439606362336306 2.0937451776636795 6.439606362336306 0 0 0
6 1 4.266675769999993 -0.0791854146726356 4.266675769999994 0 0 0
27 2 7.670042430669822 3.3241812459971936 7.670042430669823 0 0 0
37 2 7.670042430669824 0.8633091093301687 5.209170294002791 0 0 0
47 2 5.209170294002792 3.3241812459971944 5.209170294002792 0 0 0
50 2 5.209170294002793 0.8633091093301664 7.670042430669824 0 0 0
11 1 6.439606362336306 6.439606362336306 2.09374517766368 0 0 0
12 1 4.266675769999995 4.266675769999994 -0.07918541467263569 0 0 0
29 2 7.670042430669823 5.209170294002791 0.8633091093301662 0 0 0
35 2 7.670042430669822 7.670042430669822 3.324181245997191 0 0 0
42 2 5.209170294002792 5.209170294002793 3.3241812459971944 0 0 0
55 2 5.209170294002794 7.670042430669824 0.8633091093301661 0 0 0
2 1 7.526071658504469 5.353141066168149 7.526071658504468 0 0 0
13 1 5.353141066168149 7.526071658504469 7.526071658504467 0 0 0
15 1 7.526071658504462 7.526071658504462 5.353141066168154 0 0 0
16 1 5.353141066168147 5.353141066168147 5.353141066168147 0 0 0
41 2 5.49711183833351 7.382100886339109 5.497111838333508 0 0 0
44 2 5.497111838333508 5.497111838333508 7.382100886339109 0 0 0
46 2 7.382100886339111 7.382100886339111 7.382100886339107 0 0 0
48 2 7.382100886339109 5.49711183833351 5.497111838333508 0 0 0

Velocities

17 0 0 0
18 0 0 0
31 0 0 0
34 0 0 0
43 0 0 0
53 0 0 0
7 0 0 0
9 0 0 0
10 0 0 0
20 0 0 0
33 0 0 0
36 0 0 0
38 0 0 0
40 0 0 0
1 0 0 0
3 0 0 0
4 0 0 0
14 0 0 0
25 0 0 0
28 0 0 0
30 0 0 0
32 0 0 0
23 0 0 0
24 0 0 0
26 0 0 0
39 0 0 0
45 0 0 0
51 0 0 0
8 0 0 0
19 0 0 0
21 0 0 0
22 0 0 0
49 0 0 0
52 0 0 0
54 0 0 0
56 0 0 0
5 0 0 0
6 0 0 0
27 0 0 0
37 0 0 0
47 0 0 0
50 0 0 0
11 0 0 0
12 0 0 0
29 0 0 0
35 0 0 0
42 0 0 0
55 0 0 0
2 0 0 0
13 0 0 0
15 0 0 0
16 0 0 0
41 0 0 0
44 0 0 0
46 0 0 0
48 0 0 0
