LAMMPS data file via write_data, version 22 Dec 2022, timestep = 1029

28 atoms
3 atom types

0.007207379610897314 3.0251076203891025 xlo xhi
0.022012185845916972 9.23903481415409 ylo yhi
0.02567934843332239 10.778229651566692 zlo zhi

Masses

1 55.845
2 51.996
3 15.999

Atoms # atomic

1 2 2.2706323519136435 0.7181135908801966 1.5136434149336755 0 0 0
4 2 0.7616827490150114 3.5042648665717886 0.7581481567893158 0 0 0
15 3 0.7616822070522757 1.9322247874189458 1.8621817159270297 0 0 0
22 3 2.270633111663808 4.246298611556502 2.248512934562367 0 0 0
12 1 0.7616823210419632 2.353907920683986 3.6263431250476725 0 0 0
19 3 0.7616821632319708 1.112551787215345 4.870784469679574 0 0 0
27 3 0.7616826513252307 3.863610616867384 4.605128416441633 0 0 0
2 2 0.7616825521902314 4.041297312362378 7.083775657386654 0 0 0
3 2 2.270632272889509 1.2473386574799403 6.219783957718676 0 0 0
14 3 2.2706326623056574 2.790947694800443 7.29575550793578 0 0 0
23 3 0.7616821478012287 0.40917854408368687 7.4399021606863265 0 0 0
11 1 2.270632662492212 2.1914054695763965 9.041622623193119 0 0 0
18 3 2.2706328548614874 3.5107615043884945 10.224054297531694 0 0 0
26 3 2.270632362851299 0.6458483932748967 10.088079171727346 0 0 0
10 1 0.7616825582252574 6.962419218637211 1.801290749415812 0 0 0
20 3 0.76168270906572 5.721063130563288 0.5568493880568737 0 0 0
28 3 0.7616822653440993 8.472121941420303 0.8225054346866969 0 0 0
5 2 2.270632747533459 5.326624933616284 3.913990437573126 0 0 0
8 2 0.7616821085369875 8.112776165798671 4.669485683351723 0 0 0
16 3 0.7616826689635685 6.540736077551426 3.56545213645115 0 0 0
21 3 2.2706320176807053 8.85480994121202 3.1791209488214593 0 0 0
9 1 2.2706324544609635 6.799916797304944 7.138561509663268 0 0 0
17 3 2.2706322748890413 8.119272817392124 5.956129837850563 0 0 0
25 3 2.270632756924333 5.254359724671762 6.092104984357617 0 0 0
6 2 0.7616823292679052 8.649808633840037 9.096408481828789 0 0 0
7 2 2.2706328440890777 5.855849979444198 9.960400202426595 0 0 0
13 3 2.270632460377796 7.399459012666391 8.88442863467582 0 0 0
24 3 0.761682734005447 5.017689868721106 8.74028196127999 0 0 0

Velocities

1 0 0 0
4 0 0 0
15 0 0 0
22 0 0 0
12 0 0 0
19 0 0 0
27 0 0 0
2 0 0 0
3 0 0 0
14 0 0 0
23 0 0 0
11 0 0 0
18 0 0 0
26 0 0 0
10 0 0 0
20 0 0 0
28 0 0 0
5 0 0 0
8 0 0 0
16 0 0 0
21 0 0 0
9 0 0 0
17 0 0 0
25 0 0 0
6 0 0 0
7 0 0 0
13 0 0 0
24 0 0 0
