LAMMPS data file via write_data, version 22 Dec 2022, timestep = 153

56 atoms
2 atom types

-0.02667764623976677 8.560029186239763 xlo xhi
-0.02667764623976677 8.560029186239763 ylo yhi
-0.02667764623976677 8.560029186239763 zlo zhi

Masses

1 55.845
2 15.999

Atoms # atomic

17 1 2.119999061880112 2.119999061880113 2.119999061880114 0 0 0
53 2 3.409404718420647 0.8305934053395762 0.8305934053395777 0 0 0
31 2 0.8305934053395753 3.4094047184206473 0.8305934053395785 0 0 0
34 2 0.8305934053395778 0.8305934053395783 3.409404718420649 0 0 0
43 2 3.4094047184206495 3.4094047184206495 3.4094047184206504 0 0 0
7 1 1.0466607078201697 3.1933374159400545 7.486690832179818 0 0 0
9 1 3.1933374159400563 3.1933374159400563 5.340014124059933 0 0 0
10 1 1.0466607078201693 1.0466607078201693 5.340014124059933 0 0 0
20 1 3.1933374159400545 1.04666070782017 7.486690832179818 0 0 0
33 2 1.2627280103007654 2.977270113459461 5.55608142654053 0 0 0
36 2 1.2627280103007659 1.2627280103007656 7.270623529699225 0 0 0
38 2 2.977270113459459 2.9772701134594595 7.270623529699225 0 0 0
40 2 2.977270113459461 1.2627280103007659 5.55608142654053 0 0 0
12 1 4.266675769999995 4.2666757699999955 8.560029186239762 0 0 -1
1 1 1.0466607078201717 7.486690832179817 3.193337415940054 0 0 0
3 1 3.193337415940055 7.486690832179818 1.0466607078201693 0 0 0
4 1 1.0466607078201702 5.340014124059933 1.0466607078201722 0 0 0
14 1 3.193337415940055 5.340014124059934 3.1933374159400554 0 0 0
25 2 1.2627280103007654 7.270623529699224 1.2627280103007663 0 0 0
28 2 1.2627280103007659 5.55608142654053 2.9772701134594604 0 0 0
30 2 2.977270113459459 7.2706235296992245 2.9772701134594595 0 0 0
32 2 2.977270113459459 5.556081426540529 1.2627280103007663 0 0 0
6 1 4.2666757699999955 8.560029186239762 4.2666757699999955 0 -1 0
23 1 2.1199990618801143 6.413352478119876 6.413352478119875 0 0 0
51 2 3.409404718420648 7.702758134660413 7.702758134660413 0 0 0
26 2 0.8305934053395783 5.123946821579341 7.702758134660415 0 0 0
39 2 0.8305934053395793 7.702758134660415 5.123946821579342 0 0 0
45 2 3.40940471842065 5.123946821579342 5.1239468215793424 0 0 0
8 1 7.486690832179816 1.0466607078201715 3.1933374159400545 0 0 0
19 1 5.340014124059933 3.193337415940055 3.193337415940056 0 0 0
21 1 7.486690832179818 3.193337415940056 1.0466607078201682 0 0 0
22 1 5.340014124059932 1.0466607078201702 1.0466607078201722 0 0 0
49 2 5.556081426540528 2.977270113459459 1.2627280103007663 0 0 0
52 2 5.55608142654053 1.2627280103007659 2.9772701134594604 0 0 0
54 2 7.270623529699225 2.9772701134594595 2.9772701134594604 0 0 0
56 2 7.270623529699224 1.2627280103007654 1.2627280103007663 0 0 0
24 1 8.560029186239762 4.266675769999996 4.2666757699999955 -1 0 0
5 1 6.413352478119875 2.1199990618801143 6.413352478119876 0 0 0
50 2 5.123946821579342 0.830593405339578 7.702758134660415 0 0 0
27 2 7.702758134660413 3.4094047184206473 7.702758134660415 0 0 0
37 2 7.7027581346604155 0.8305934053395791 5.123946821579342 0 0 0
47 2 5.123946821579341 3.40940471842065 5.1239468215793424 0 0 0
11 1 6.413352478119876 6.413352478119876 2.119999061880114 0 0 0
55 2 5.123946821579341 7.702758134660412 0.8305934053395786 0 0 0
29 2 7.702758134660412 5.123946821579341 0.8305934053395789 0 0 0
35 2 7.702758134660413 7.702758134660413 3.4094047184206473 0 0 0
42 2 5.123946821579342 5.123946821579342 3.40940471842065 0 0 0
2 1 7.486690832179817 5.3400141240599375 7.486690832179816 0 0 0
13 1 5.3400141240599375 7.486690832179817 7.486690832179817 0 0 0
15 1 7.486690832179816 7.486690832179816 5.3400141240599375 0 0 0
16 1 5.340014124059933 5.340014124059933 5.340014124059933 0 0 0
41 2 5.556081426540532 7.270623529699226 5.556081426540531 0 0 0
44 2 5.556081426540531 5.556081426540531 7.270623529699225 0 0 0
46 2 7.2706235296992245 7.2706235296992245 7.270623529699224 0 0 0
48 2 7.270623529699226 5.556081426540532 5.556081426540531 0 0 0
18 1 8.560029186239762 8.560029186239762 8.56002918623976 -1 -1 -1

Velocities

17 0 0 0
53 0 0 0
31 0 0 0
34 0 0 0
43 0 0 0
7 0 0 0
9 0 0 0
10 0 0 0
20 0 0 0
33 0 0 0
36 0 0 0
38 0 0 0
40 0 0 0
12 0 0 0
1 0 0 0
3 0 0 0
4 0 0 0
14 0 0 0
25 0 0 0
28 0 0 0
30 0 0 0
32 0 0 0
6 0 0 0
23 0 0 0
51 0 0 0
26 0 0 0
39 0 0 0
45 0 0 0
8 0 0 0
19 0 0 0
21 0 0 0
22 0 0 0
49 0 0 0
52 0 0 0
54 0 0 0
56 0 0 0
24 0 0 0
5 0 0 0
50 0 0 0
27 0 0 0
37 0 0 0
47 0 0 0
11 0 0 0
55 0 0 0
29 0 0 0
35 0 0 0
42 0 0 0
2 0 0 0
13 0 0 0
15 0 0 0
16 0 0 0
41 0 0 0
44 0 0 0
46 0 0 0
48 0 0 0
18 0 0 0
