LAMMPS (22 Dec 2022)
  using 1 OpenMP thread(s) per MPI task
Loaded 1 plugins from C:\Program Files\LAMMPS 64-bit 23Jun2022\plugins
Loaded 0 plugins from C:\Program Files\LAMMPS 64-bit 23Jun2022-MPI\plugins
Loaded 1 plugins from C:\Program Files\LAMMPS 64-bit 22Dec2022-MSMPI\plugins
Loaded 1 plugins from C:\Program Files\LAMMPS 64-bit 28Mar2023-MPI\plugins
# Compute elastic constant tensor for a crystal
#
# Written by Aidan Thompson (Sandia, athomps@sandia.gov)
#
#  This script uses the following three include files.
#
#   init.mod      (must be modified for different crystal structures)
# 	       	  Define units, deformation parameters and initial
#		  configuration of the atoms and simulation cell.
#
#
#   potential.mod    (must be modified for different pair styles)
# 		     Define pair style and other attributes
#		     not stored in restart file
#
#
#   displace.mod    (displace.mod should not need to be modified)
# 		    Perform positive and negative box displacements
# 		    in direction ${dir} and size ${up}.
# 		    It uses the resultant changes
#		    in stress to compute one
# 		    row of the elastic stiffness tensor
#
#		    Inputs variables:
#		    	   dir = the Voigt deformation component
#		    		    (1,2,3,4,5,6)
#		    Global constants:
#       	    	   up = the deformation magnitude (strain units)
#       		   cfac = conversion from LAMMPS pressure units to
#               	   output units for elastic constants
#
#
#  To run this on a different system, it should only be necessary to
#  modify the files init.mod and potential.mod. In order to calculate
#  the elastic constants correctly, care must be taken to specify
#  the correct units in init.mod (units, cfac and cunits). It is also
#  important to verify that the minimization of energy w.r.t atom
#  positions in the deformed cell is fully converged.
#  One indication of this is that the elastic constants are insensitive
#  to the choice of the variable ${up} in init.mod. Another is to check
#  the final max and two-norm forces reported in the log file. If you know
#  that minimization is not required, you can set maxiter = 0.0 in
#  init.mod.
#

include init.mod
# NOTE: This script can be modified for different atomic structures,
# units, etc. See in.elastic for more info.
#

# Define the finite deformation size. Try several values of this
# variable to verify that results do not depend on it.
variable up equal 1.0e-6

# Define the amount of random jiggle for atoms
# This prevents atoms from staying on saddle points
variable atomjiggle equal 1.0e-5

# Uncomment one of these blocks, depending on what units
# you are using in LAMMPS and for output

# metal units, elastic constants in eV/A^3
#units		metal
#variable cfac equal 6.2414e-7
#variable cunits string eV/A^3

# metal units, elastic constants in GPa
units		metal
variable cfac equal 1.0e-4
variable cunits string GPa

# real units, elastic constants in GPa
#units		real
#variable cfac equal 1.01325e-4
#variable cunits string GPa

# Define minimization parameters
variable etol equal 0.0
variable ftol equal 1.0e-10
variable maxiter equal 100
variable maxeval equal 1000
variable dmax equal 1.0e-2

# generate the box and atom positions using a diamond lattice

dimension    3
boundary     p p p
read_data    data.in
Reading data file ...
  orthogonal box = (-0.026677646 -0.026677646 -0.026677646) to (8.5600292 8.5600292 8.5600292)
  2 by 1 by 2 MPI processor grid
  reading atoms ...
  56 atoms
  reading velocities ...
  56 velocities
  read_data CPU = 0.001 seconds
replicate    2 3 4
Replication is creating a 2x3x4 = 24 times larger system...
  orthogonal box = (-0.026677646 -0.026677646 -0.026677646) to (17.146736 25.733443 34.32015)
  1 by 2 by 2 MPI processor grid
  1344 atoms
  replicate CPU = 0.000 seconds
change_box   all triclinic
Changing box ...
  triclinic box = (-0.026677646 -0.026677646 -0.026677646) to (17.146736 25.733443 34.32015) with tilt (0 0 0)

# Need to set mass to something, just to satisfy LAMMPS
mass 1 1.0e-20

include potential.mod
# NOTE: This script can be modified for different pair styles
# See in.elastic for more info.

# Choose potential
#-----------------------
#pair_style	sw
#pair_coeff * * Si.sw Si
#-----------------------
#pair_style morse	2.83994742	# D0[eV] a[1/A] r0[A] rc[A], 1NN for BCC
#pair_coeff 1 1	2.1173	1.0202	2.4595	2.6497	#	Fe-Fe
#-----------------------
#pair_style smatb # R0(A)   p       q     A(eV)   xi(eV)  Rcs(A)   Rc(A), 4NN: Rcs=4NN, Rc=(4NN+5NN)/2
#pair_coeff 1 1	2.4802	7.0149	2.3779	0.3144	3.0551	4.033	4.176	#	Co	Co
#-----------------------
#pair_style eam/alloy
#pair_coeff * * AlCrFeCoNi_Zhou04.eam.alloy Fe
#-----------------------
pair_style meam
pair_coeff * * ./../../library.meam Fe Cr Ni O ./../../FeCrNiO.meam Fe O
#-----------------------

# Setup neighbor style
neighbor 1.0 nsq
neigh_modify once no every 1 delay 0 check yes

# Setup minimization style
min_style	     cg
min_modify	     dmax ${dmax} line quadratic
min_modify	     dmax 0.01 line quadratic

# Setup output
thermo		1
thermo_style custom step temp pe press pxx pyy pzz pxy pxz pyz lx ly lz vol
thermo_modify norm no

# Compute initial state
fix 3 all box/relax  aniso 0.0
minimize ${etol} ${ftol} ${maxiter} ${maxeval}
minimize 0 ${ftol} ${maxiter} ${maxeval}
minimize 0 1e-10 ${maxiter} ${maxeval}
minimize 0 1e-10 100 ${maxeval}
minimize 0 1e-10 100 1000
Neighbor list info ...
  update: every = 1 steps, delay = 0 steps, check = yes
  max neighbors/atom: 2000, page size: 100000
  master list distance cutoff = 5
  ghost atom cutoff = 5
  2 neighbor lists, perpetual/occasional/extra = 2 0 0
  (1) pair meam, perpetual
      attributes: full, newton on
      pair build: full/nsq
      stencil: none
      bin: none
  (2) pair meam, perpetual, half/full from (1)
      attributes: half, newton on
      pair build: halffull/newton
      stencil: none
      bin: none
Per MPI rank memory allocation (min/avg/max) = 10.03 | 10.03 | 10.03 Mbytes
   Step          Temp          PotEng         Press           Pxx            Pyy            Pzz            Pxy            Pxz            Pyz             Lx             Ly             Lz           Volume    
         0   0             -10052.606      3.6685189e-06  3.6685367e-06  3.6680532e-06  3.6689669e-06  7.2299738e-11 -2.5109848e-11  5.602981e-11   17.173414      25.76012       34.346827      15194.666    
         1   0             -10052.606     -4.3768929e-06 -4.3765731e-06 -4.3765169e-06 -4.3775888e-06  3.0343414e-11 -9.3732994e-11  2.1761405e-11  17.173414      25.76012       34.346827      15194.666    
         2   0             -10052.606     -2.7488442e-07 -6.0103447e-07 -1.1509575e-07 -1.0852303e-07 -3.3902209e-11  2.753896e-11  -5.3059269e-11  17.173414      25.76012       34.346827      15194.666    
         3   0             -10052.606      3.1432717e-08 -2.1166217e-08  5.6916002e-08  5.8548366e-08 -8.3350735e-11  5.0521871e-11  5.4568684e-11  17.173414      25.76012       34.346827      15194.666    
         4   0             -10052.606      6.4932408e-12 -2.684081e-10   2.7927179e-10  8.616031e-12   2.1165467e-11  6.6843016e-11 -5.2503207e-11  17.173414      25.76012       34.346827      15194.666    
Loop time of 0.007377 on 4 procs for 4 steps with 1344 atoms

0.0% CPU use with 4 MPI tasks x 1 OpenMP threads

Minimization stats:
  Stopping criterion = force tolerance
  Energy initial, next-to-last, final = 
     -10052.6062069764  -10052.6062069764  -10052.6062069765
  Force two-norm initial, final = 8.981496e-08 8.6073583e-12
  Force max component initial, final = 3.4795621e-08 2.648548e-12
  Final line search alpha, max atom move = 1 2.648548e-12
  Iterations, force evaluations = 4 8

MPI task timing breakdown:
Section |  min time  |  avg time  |  max time  |%varavg| %total
---------------------------------------------------------------
Pair    | 0.006636   | 0.0066523  | 0.006669   |   0.0 | 90.18
Neigh   | 0          | 0          | 0          |   0.0 |  0.00
Comm    | 0.000303   | 0.00030525 | 0.000309   |   0.0 |  4.14
Output  | 4.3e-05    | 4.375e-05  | 4.6e-05    |   0.0 |  0.59
Modify  | 0          | 0          | 0          |   0.0 |  0.00
Other   |            | 0.0003758  |            |       |  5.09

Nlocal:            336 ave         342 max         330 min
Histogram: 2 0 0 0 0 0 0 0 0 2
Nghost:            981 ave         987 max         975 min
Histogram: 2 0 0 0 0 0 0 0 0 2
Neighs:           7104 ave        7242 max        6972 min
Histogram: 2 0 0 0 0 0 0 0 0 2
FullNghs:        14208 ave       14472 max       13944 min
Histogram: 2 0 0 0 0 0 0 0 0 2

Total # of neighbors = 56832
Ave neighs/atom = 42.285714
Neighbor list builds = 0
Dangerous builds = 0

variable tmp equal pxx
variable pxx0 equal ${tmp}
variable pxx0 equal -2.68408096549671e-10
variable tmp equal pyy
variable pyy0 equal ${tmp}
variable pyy0 equal 2.79271787826629e-10
variable tmp equal pzz
variable pzz0 equal ${tmp}
variable pzz0 equal 8.61603101275986e-12
variable tmp equal pyz
variable pyz0 equal ${tmp}
variable pyz0 equal -5.25032073237631e-11
variable tmp equal pxz
variable pxz0 equal ${tmp}
variable pxz0 equal 6.68430164116606e-11
variable tmp equal pxy
variable pxy0 equal ${tmp}
variable pxy0 equal 2.11654674878666e-11

variable tmp equal lx
variable lx0 equal ${tmp}
variable lx0 equal 17.173413664453
variable tmp equal ly
variable ly0 equal ${tmp}
variable ly0 equal 25.7601204966795
variable tmp equal lz
variable lz0 equal ${tmp}
variable lz0 equal 34.346827328906

# These formulas define the derivatives w.r.t. strain components
# Constants uses $, variables use v_
variable d1 equal -(v_pxx1-${pxx0})/(v_delta/v_len0)*${cfac}
variable d1 equal -(v_pxx1--2.68408096549671e-10)/(v_delta/v_len0)*${cfac}
variable d1 equal -(v_pxx1--2.68408096549671e-10)/(v_delta/v_len0)*0.0001
variable d2 equal -(v_pyy1-${pyy0})/(v_delta/v_len0)*${cfac}
variable d2 equal -(v_pyy1-2.79271787826629e-10)/(v_delta/v_len0)*${cfac}
variable d2 equal -(v_pyy1-2.79271787826629e-10)/(v_delta/v_len0)*0.0001
variable d3 equal -(v_pzz1-${pzz0})/(v_delta/v_len0)*${cfac}
variable d3 equal -(v_pzz1-8.61603101275986e-12)/(v_delta/v_len0)*${cfac}
variable d3 equal -(v_pzz1-8.61603101275986e-12)/(v_delta/v_len0)*0.0001
variable d4 equal -(v_pyz1-${pyz0})/(v_delta/v_len0)*${cfac}
variable d4 equal -(v_pyz1--5.25032073237631e-11)/(v_delta/v_len0)*${cfac}
variable d4 equal -(v_pyz1--5.25032073237631e-11)/(v_delta/v_len0)*0.0001
variable d5 equal -(v_pxz1-${pxz0})/(v_delta/v_len0)*${cfac}
variable d5 equal -(v_pxz1-6.68430164116606e-11)/(v_delta/v_len0)*${cfac}
variable d5 equal -(v_pxz1-6.68430164116606e-11)/(v_delta/v_len0)*0.0001
variable d6 equal -(v_pxy1-${pxy0})/(v_delta/v_len0)*${cfac}
variable d6 equal -(v_pxy1-2.11654674878666e-11)/(v_delta/v_len0)*${cfac}
variable d6 equal -(v_pxy1-2.11654674878666e-11)/(v_delta/v_len0)*0.0001

displace_atoms all random ${atomjiggle} ${atomjiggle} ${atomjiggle} 87287 units box
displace_atoms all random 1e-05 ${atomjiggle} ${atomjiggle} 87287 units box
displace_atoms all random 1e-05 1e-05 ${atomjiggle} 87287 units box
displace_atoms all random 1e-05 1e-05 1e-05 87287 units box
Displacing atoms ...

# Write restart
unfix 3
write_restart restart.equil
System init for write_restart ...

# uxx Perturbation

variable dir equal 1
include displace.mod
# NOTE: This script should not need to be
# modified. See in.elastic for more info.
#
# Find which reference length to use

if "${dir} == 1" then    "variable len0 equal ${lx0}"
variable len0 equal ${lx0}
variable len0 equal 17.173413664453
if "${dir} == 2" then    "variable len0 equal ${ly0}"
if "${dir} == 3" then    "variable len0 equal ${lz0}"
if "${dir} == 4" then    "variable len0 equal ${lz0}"
if "${dir} == 5" then    "variable len0 equal ${lz0}"
if "${dir} == 6" then    "variable len0 equal ${ly0}"

# Reset box and simulation parameters

clear
  using 1 OpenMP thread(s) per MPI task
Loaded 1 plugins from C:\Program Files\LAMMPS 64-bit 23Jun2022\plugins
Loaded 0 plugins from C:\Program Files\LAMMPS 64-bit 23Jun2022-MPI\plugins
Loaded 1 plugins from C:\Program Files\LAMMPS 64-bit 22Dec2022-MSMPI\plugins
Loaded 1 plugins from C:\Program Files\LAMMPS 64-bit 28Mar2023-MPI\plugins
box tilt large

The 'box' command has been removed and will be ignored

read_restart restart.equil
Reading restart file ...
  restart file = 22 Dec 2022, LAMMPS = 22 Dec 2022
  restoring atom style atomic from restart
  triclinic box = (-0.026677646 -0.026677646 -0.026677646) to (17.146736 25.733443 34.32015) with tilt (0 0 0)
  1 by 2 by 2 MPI processor grid
  pair style meam stores no restart info
  1344 atoms
  read_restart CPU = 0.000 seconds
include potential.mod
# NOTE: This script can be modified for different pair styles
# See in.elastic for more info.

# Choose potential
#-----------------------
#pair_style	sw
#pair_coeff * * Si.sw Si
#-----------------------
#pair_style morse	2.83994742	# D0[eV] a[1/A] r0[A] rc[A], 1NN for BCC
#pair_coeff 1 1	2.1173	1.0202	2.4595	2.6497	#	Fe-Fe
#-----------------------
#pair_style smatb # R0(A)   p       q     A(eV)   xi(eV)  Rcs(A)   Rc(A), 4NN: Rcs=4NN, Rc=(4NN+5NN)/2
#pair_coeff 1 1	2.4802	7.0149	2.3779	0.3144	3.0551	4.033	4.176	#	Co	Co
#-----------------------
#pair_style eam/alloy
#pair_coeff * * AlCrFeCoNi_Zhou04.eam.alloy Fe
#-----------------------
pair_style meam
pair_coeff * * ./../../library.meam Fe Cr Ni O ./../../FeCrNiO.meam Fe O
#-----------------------

# Setup neighbor style
neighbor 1.0 nsq
neigh_modify once no every 1 delay 0 check yes

# Setup minimization style
min_style	     cg
min_modify	     dmax ${dmax} line quadratic
min_modify	     dmax 0.01 line quadratic

# Setup output
thermo		1
thermo_style custom step temp pe press pxx pyy pzz pxy pxz pyz lx ly lz vol
thermo_modify norm no

# Negative deformation

variable delta equal -${up}*${len0}
variable delta equal -1e-06*${len0}
variable delta equal -1e-06*17.173413664453
variable deltaxy equal -${up}*xy
variable deltaxy equal -1e-06*xy
variable deltaxz equal -${up}*xz
variable deltaxz equal -1e-06*xz
variable deltayz equal -${up}*yz
variable deltayz equal -1e-06*yz
if "${dir} == 1" then    "change_box all x delta 0 ${delta} xy delta ${deltaxy} xz delta ${deltaxz} remap units box"
change_box all x delta 0 ${delta} xy delta ${deltaxy} xz delta ${deltaxz} remap units box
change_box all x delta 0 -1.7173413664453e-05 xy delta ${deltaxy} xz delta ${deltaxz} remap units box
change_box all x delta 0 -1.7173413664453e-05 xy delta -0 xz delta ${deltaxz} remap units box
change_box all x delta 0 -1.7173413664453e-05 xy delta -0 xz delta -0 remap units box
Changing box ...
  triclinic box = (-0.026677646 -0.026677646 -0.026677646) to (17.146719 25.733443 34.32015) with tilt (0 0 0)
  triclinic box = (-0.026677646 -0.026677646 -0.026677646) to (17.146719 25.733443 34.32015) with tilt (0 0 0)
  triclinic box = (-0.026677646 -0.026677646 -0.026677646) to (17.146719 25.733443 34.32015) with tilt (0 0 0)
if "${dir} == 2" then    "change_box all y delta 0 ${delta} yz delta ${deltayz} remap units box"
if "${dir} == 3" then    "change_box all z delta 0 ${delta} remap units box"
if "${dir} == 4" then    "change_box all yz delta ${delta} remap units box"
if "${dir} == 5" then    "change_box all xz delta ${delta} remap units box"
if "${dir} == 6" then    "change_box all xy delta ${delta} remap units box"

# Relax atoms positions

minimize ${etol} ${ftol} ${maxiter} ${maxeval}
minimize 0 ${ftol} ${maxiter} ${maxeval}
minimize 0 1e-10 ${maxiter} ${maxeval}
minimize 0 1e-10 100 ${maxeval}
minimize 0 1e-10 100 1000
Neighbor list info ...
  update: every = 1 steps, delay = 0 steps, check = yes
  max neighbors/atom: 2000, page size: 100000
  master list distance cutoff = 5
  ghost atom cutoff = 5
  2 neighbor lists, perpetual/occasional/extra = 2 0 0
  (1) pair meam, perpetual
      attributes: full, newton on
      pair build: full/nsq
      stencil: none
      bin: none
  (2) pair meam, perpetual, half/full from (1)
      attributes: half, newton on
      pair build: halffull/newton
      stencil: none
      bin: none
Per MPI rank memory allocation (min/avg/max) = 10.03 | 10.03 | 10.03 Mbytes
   Step          Temp          PotEng         Press           Pxx            Pyy            Pzz            Pxy            Pxz            Pyz             Lx             Ly             Lz           Volume    
         4   0             -10052.606      1.2511208      3.3391284      0.30016975     0.11406422     0.045311503    0.015345931    0.028145512    17.173396      25.76012       34.346827      15194.65     
         5   0             -10052.606      1.1052494      2.8043393      0.29242636     0.21898271     0.026202083    0.0052447744   0.0052146201   17.173396      25.76012       34.346827      15194.65     
         6   0             -10052.606      1.0102533      2.4471806      0.29052433     0.293055       0.011174917   -0.0032808157  -0.0103907      17.173396      25.76012       34.346827      15194.65     
         7   0             -10052.606      0.99905502     2.3938126      0.29429955     0.30905294     0.0045939756  -0.0064942447  -0.011901605    17.173396      25.76012       34.346827      15194.65     
         8   0             -10052.606      1.0166743      2.4556258      0.296225       0.29817225     0.0021417702  -0.0046490209  -0.0058189197   17.173396      25.76012       34.346827      15194.65     
         9   0             -10052.606      1.0230402      2.4833334      0.29501258     0.2907746      0.001073008   -0.0015062681  -0.0010027629   17.173396      25.76012       34.346827      15194.65     
        10   0             -10052.606      1.0184997      2.4712915      0.2931363      0.29107143    -0.00021562483  0.0013620353   0.0017878363   17.173396      25.76012       34.346827      15194.65     
        11   0             -10052.606      1.0135452      2.4512359      0.29354408     0.29585552    -0.0012444144   0.0017274061   0.0017454417   17.173396      25.76012       34.346827      15194.65     
        12   0             -10052.606      1.0157563      2.4569227      0.29452082     0.29582534    -0.0010700008   0.00068387655  0.00096494152  17.173396      25.76012       34.346827      15194.65     
        13   0             -10052.606      1.0185144      2.4668563      0.29473086     0.29395606    -0.0004890006  -0.00019373986  0.00031593352  17.173396      25.76012       34.346827      15194.65     
        14   0             -10052.606      1.0181536      2.4674478      0.29403197     0.29298102     4.7011548e-05 -0.00026549945 -2.2473009e-05  17.173396      25.76012       34.346827      15194.65     
        15   0             -10052.606      1.0158304      2.4594785      0.2937138      0.29429893     0.00028948343  0.00011306796 -0.00021902191  17.173396      25.76012       34.346827      15194.65     
        16   0             -10052.606      1.0161095      2.4592936      0.29415754     0.2948772      0.00034580625  3.9518485e-05 -0.00034393428  17.173396      25.76012       34.346827      15194.65     
        17   0             -10052.606      1.0172831      2.4629084      0.29446434     0.2944767      0.00031110644 -0.00021030682 -0.00037564274  17.173396      25.76012       34.346827      15194.65     
        18   0             -10052.606      1.0176176      2.4648727      0.29422012     0.29376015     0.00015604493 -0.00028898939 -0.00024334938  17.173396      25.76012       34.346827      15194.65     
        19   0             -10052.606      1.0167925      2.4625479      0.29392758     0.29390212    -7.4505518e-05 -1.6678267e-05  3.4314406e-05  17.173396      25.76012       34.346827      15194.65     
        20   0             -10052.606      1.0166368      2.4614953      0.29409029     0.29432473    -0.00016266795  0.00017527355  0.00019910501  17.173396      25.76012       34.346827      15194.65     
        21   0             -10052.606      1.01702        2.4622022      0.2943585      0.29449922    -0.00015488853  0.00021707752  0.00025570866  17.173396      25.76012       34.346827      15194.65     
        22   0             -10052.606      1.0173061      2.4635092      0.29428206     0.29412691    -7.4065872e-05  6.1827896e-05  0.00013705326  17.173396      25.76012       34.346827      15194.65     
        23   0             -10052.606      1.0169884      2.4630064      0.29403017     0.29392863    -6.1801531e-06 -6.6008454e-05 -3.2276075e-05  17.173396      25.76012       34.346827      15194.65     
        24   0             -10052.606      1.0167961      2.4622569      0.29403579     0.29409573     3.7978246e-05 -7.9091196e-05 -0.00010826572  17.173396      25.76012       34.346827      15194.65     
        25   0             -10052.606      1.0169292      2.4622294      0.29422588     0.29433238     7.0122499e-05 -3.0785347e-05 -9.4256066e-05  17.173396      25.76012       34.346827      15194.65     
        26   0             -10052.606      1.017153       2.4629427      0.29427575     0.29424038     7.1851463e-05 -5.2791441e-06 -3.9446071e-05  17.173396      25.76012       34.346827      15194.65     
        27   0             -10052.606      1.0170592      2.4629969      0.29412943     0.29405117     2.7904329e-05 -1.6670177e-05 -1.4104057e-05  17.173396      25.76012       34.346827      15194.65     
        28   0             -10052.606      1.0169359      2.4626467      0.29408676     0.29407426    -1.5427661e-05 -1.4521781e-05 -1.3175486e-06  17.173396      25.76012       34.346827      15194.65     
        29   0             -10052.606      1.0169211      2.4623357      0.29417709     0.29425041    -5.0149545e-05  1.4128721e-05  2.630575e-05   17.173396      25.76012       34.346827      15194.65     
        30   0             -10052.606      1.0170489      2.4626628      0.29423414     0.29424973    -3.9232323e-05  3.8179787e-05  5.4836575e-05  17.173396      25.76012       34.346827      15194.65     
        31   0             -10052.606      1.017064       2.4628964      0.2941717      0.29412397    -1.39295e-05    2.8905324e-05  4.5133057e-05  17.173396      25.76012       34.346827      15194.65     
        32   0             -10052.606      1.0169992      2.4627898      0.29412172     0.2940861      2.8460177e-06  4.3127874e-06  9.7655962e-06  17.173396      25.76012       34.346827      15194.65     
        33   0             -10052.606      1.0169453      2.4624964      0.29415281     0.29418658     1.2084307e-05 -2.2667662e-05 -3.5466806e-05  17.173396      25.76012       34.346827      15194.65     
        34   0             -10052.606      1.0170085      2.4625668      0.29421353     0.29424524     2.0780549e-05 -2.5225984e-05 -4.1822266e-05  17.173396      25.76012       34.346827      15194.65     
        35   0             -10052.606      1.0170499      2.4627921      0.29418965     0.29416807     2.3034524e-05 -9.9355346e-06 -1.7577623e-05  17.173396      25.76012       34.346827      15194.65     
        36   0             -10052.606      1.017022       2.462817       0.29414299     0.29410609     1.332356e-05   3.8157674e-06  3.4732657e-06  17.173396      25.76012       34.346827      15194.65     
        37   0             -10052.606      1.0169593      2.4625933      0.29413743     0.29414718    -1.0334745e-05  9.3242191e-06  1.182615e-05   17.173396      25.76012       34.346827      15194.65     
        38   0             -10052.606      1.0169863      2.4625457      0.29419096     0.29422234    -2.3288559e-05  6.3567357e-06  1.2803689e-05  17.173396      25.76012       34.346827      15194.65     
        39   0             -10052.606      1.0170364      2.462707       0.29420147     0.29420062    -1.7995897e-05  5.9403452e-06  1.6938711e-05  17.173396      25.76012       34.346827      15194.65     
        40   0             -10052.606      1.017042       2.4628262      0.29416673     0.29413296    -4.7518017e-06  7.8614703e-06  1.7786817e-05  17.173396      25.76012       34.346827      15194.65     
        41   0             -10052.606      1.0169759      2.4626546      0.29413811     0.2941349      4.1745024e-06  5.1800839e-06  2.3068997e-06  17.173396      25.76012       34.346827      15194.65     
        42   0             -10052.606      1.0169751      2.4625618      0.29416997     0.29419342     7.35857e-06   -5.2710167e-06 -1.4730297e-05  17.173396      25.76012       34.346827      15194.65     
        43   0             -10052.606      1.017013       2.4626424      0.29419268     0.29420375     9.3593321e-06 -1.2315974e-05 -1.8891555e-05  17.173396      25.76012       34.346827      15194.65     
        44   0             -10052.606      1.0170335      2.4627548      0.29418068     0.29416515     9.1055163e-06 -1.0756841e-05 -1.1197432e-05  17.173396      25.76012       34.346827      15194.65     
        45   0             -10052.606      1.0169988      2.4627034      0.2941519      0.29414122     2.9135209e-06  3.8902958e-07  8.5397678e-07  17.173396      25.76012       34.346827      15194.65     
        46   0             -10052.606      1.0169835      2.4626197      0.2941609      0.29417004    -3.9754006e-06  6.5121605e-06  5.8586811e-06  17.173396      25.76012       34.346827      15194.65     
        47   0             -10052.606      1.016999       2.4626297      0.29417822     0.29418891    -6.3584776e-06  5.2600387e-06  6.0943238e-06  17.173396      25.76012       34.346827      15194.65     
        48   0             -10052.606      1.0170198      2.4627         0.29418155     0.29417792    -4.654457e-06   4.5517524e-07  4.3049681e-06  17.173396      25.76012       34.346827      15194.65     
        49   0             -10052.606      1.0170069      2.4627012      0.29416366     0.29415595    -1.549343e-06  -4.8657064e-07  2.3000212e-06  17.173396      25.76012       34.346827      15194.65     
        50   0             -10052.606      1.0169938      2.4626576      0.29416132     0.29416243     2.3113734e-07  8.9539897e-07  2.6036589e-07  17.173396      25.76012       34.346827      15194.65     
        51   0             -10052.606      1.0169978      2.4626473      0.2941704      0.29417566     1.3383478e-06  6.9458832e-07 -1.4745429e-06  17.173396      25.76012       34.346827      15194.65     
        52   0             -10052.606      1.0170112      2.4626743      0.29417905     0.29418039     2.4313765e-06 -1.5868199e-06 -3.0830561e-06  17.173396      25.76012       34.346827      15194.65     
        53   0             -10052.606      1.0170072      2.4626891      0.29416831     0.2941642      2.1232074e-06 -2.7398663e-06 -2.730533e-06   17.173396      25.76012       34.346827      15194.65     
        54   0             -10052.606      1.0169979      2.4626718      0.2941619      0.2941601      5.1989623e-07 -1.064523e-06  -9.2701671e-07  17.173396      25.76012       34.346827      15194.65     
        55   0             -10052.606      1.0169979      2.4626576      0.29416684     0.29416915    -1.0035269e-06  1.1605125e-06  1.0355981e-06  17.173396      25.76012       34.346827      15194.65     
        56   0             -10052.606      1.0170064      2.462666       0.29417538     0.29417772    -1.6015867e-06  2.0172053e-06  2.2690877e-06  17.173396      25.76012       34.346827      15194.65     
        57   0             -10052.606      1.0170076      2.4626812      0.29417166     0.29416993    -1.0683913e-06  7.2057742e-07  1.7455174e-06  17.173396      25.76012       34.346827      15194.65     
        58   0             -10052.606      1.017002       2.4626763      0.29416586     0.29416396    -4.898772e-07  -2.5984496e-07  4.8744824e-07  17.173396      25.76012       34.346827      15194.65     
        59   0             -10052.606      1.0169998      2.4626667      0.29416628     0.29416652    -4.3987411e-08 -3.7906198e-07 -4.135e-07      17.173396      25.76012       34.346827      15194.65     
        60   0             -10052.606      1.0170038      2.4626644      0.29417241     0.29417444     5.5143459e-07 -2.5751891e-08 -8.2244162e-07  17.173396      25.76012       34.346827      15194.65     
        61   0             -10052.606      1.017006       2.4626748      0.29417175     0.29417142     9.5616884e-07 -2.6932318e-07 -7.1073982e-07  17.173396      25.76012       34.346827      15194.65     
        62   0             -10052.606      1.0170038      2.4626767      0.29416809     0.29416658     7.5434841e-07 -5.6283321e-07 -6.0436874e-07  17.173396      25.76012       34.346827      15194.65     
        63   0             -10052.606      1.0170016      2.462671       0.29416708     0.29416656     1.7267124e-07 -4.5681725e-07 -4.1529567e-07  17.173396      25.76012       34.346827      15194.65     
        64   0             -10052.606      1.0170027      2.462666       0.29417042     0.2941717     -4.6028363e-07  1.7831941e-07  1.3395408e-07  17.173396      25.76012       34.346827      15194.65     
        65   0             -10052.606      1.0170046      2.462671       0.29417125     0.29417163    -4.7452866e-07  5.2456449e-07  6.8784128e-07  17.173396      25.76012       34.346827      15194.65     
        66   0             -10052.606      1.0170042      2.4626744      0.29416949     0.29416876    -2.9113092e-07  4.2121281e-07  7.3375226e-07  17.173396      25.76012       34.346827      15194.65     
        67   0             -10052.606      1.0170028      2.4626726      0.29416817     0.29416754    -1.4785677e-07  1.1447351e-07  3.287616e-07   17.173396      25.76012       34.346827      15194.65     
        68   0             -10052.606      1.0170026      2.4626685      0.29416945     0.29416998    -4.2127938e-08 -1.4160355e-07 -2.3598539e-07  17.173396      25.76012       34.346827      15194.65     
        69   0             -10052.606      1.0170038      2.46267        0.29417042     0.29417082     1.4427174e-07 -1.5947423e-07 -3.1691283e-07  17.173396      25.76012       34.346827      15194.65     
        70   0             -10052.606      1.0170039      2.4626723      0.29416982     0.29416963     2.4637069e-07 -1.0320055e-07 -1.8737177e-07  17.173396      25.76012       34.346827      15194.65     
        71   0             -10052.606      1.0170033      2.4626723      0.294169       0.29416863     1.9887112e-07 -5.1605723e-08 -8.0030728e-08  17.173396      25.76012       34.346827      15194.65     
        72   0             -10052.606      1.0170029      2.4626702      0.29416916     0.29416925    -1.4361627e-09 -1.7189104e-08 -4.5006433e-08  17.173396      25.76012       34.346827      15194.65     
        73   0             -10052.606      1.0170034      2.4626704      0.29416986     0.29417007    -9.7392902e-08  1.2631032e-08  2.1317077e-08  17.173396      25.76012       34.346827      15194.65     
        74   0             -10052.606      1.0170037      2.4626714      0.29416986     0.29416986    -9.2335849e-08  4.722936e-08   1.0402182e-07  17.173396      25.76012       34.346827      15194.65     
        75   0             -10052.606      1.0170035      2.4626717      0.29416944     0.29416929    -5.7271003e-08  6.7561762e-08  1.3289055e-07  17.173396      25.76012       34.346827      15194.65     
        76   0             -10052.606      1.0170031      2.4626709      0.29416922     0.29416919    -2.493922e-08   4.598145e-08   5.7013212e-08  17.173396      25.76012       34.346827      15194.65     
        77   0             -10052.606      1.0170033      2.4626707      0.29416957     0.29416965     5.4075014e-10 -6.6333789e-09 -2.7763127e-08  17.173396      25.76012       34.346827      15194.65     
        78   0             -10052.606      1.0170035      2.462671       0.29416972     0.29416976     2.4930042e-08 -3.7320329e-08 -5.6108809e-08  17.173396      25.76012       34.346827      15194.65     
        79   0             -10052.606      1.0170035      2.4626713      0.29416957     0.29416953     3.8153603e-08 -3.6038693e-08 -4.3780567e-08  17.173396      25.76012       34.346827      15194.65     
        80   0             -10052.606      1.0170033      2.4626711      0.2941694      0.29416937     2.5029221e-08 -8.9642868e-09 -1.660017e-08   17.173396      25.76012       34.346827      15194.65     
        81   0             -10052.606      1.0170033      2.4626709      0.2941695      0.29416952     1.3520627e-09  6.4241824e-09 -1.7373495e-09  17.173396      25.76012       34.346827      15194.65     
        82   0             -10052.606      1.0170034      2.462671       0.29416959     0.29416961    -1.0269289e-08  6.0300805e-09  6.0546292e-09  17.173396      25.76012       34.346827      15194.65     
        83   0             -10052.606      1.0170034      2.4626711      0.29416957     0.29416957    -1.2304547e-08  2.9310339e-09  1.1661634e-08  17.173396      25.76012       34.346827      15194.65     
        84   0             -10052.606      1.0170033      2.4626711      0.29416948     0.29416947    -8.1745613e-09  4.5295433e-09  1.2640866e-08  17.173396      25.76012       34.346827      15194.65     
        85   0             -10052.606      1.0170033      2.462671       0.29416949     0.29416949    -3.7618378e-09  5.7873798e-09  6.5328311e-09  17.173396      25.76012       34.346827      15194.65     
        86   0             -10052.606      1.0170034      2.462671       0.29416954     0.29416955     4.8811738e-10  2.096835e-09  -8.6873327e-10  17.173396      25.76012       34.346827      15194.65     
        87   0             -10052.606      1.0170034      2.4626711      0.29416955     0.29416955     4.279924e-09  -3.5440721e-09 -6.2935955e-09  17.173396      25.76012       34.346827      15194.65     
        88   0             -10052.606      1.0170034      2.4626711      0.29416951     0.2941695      5.4938491e-09 -5.9536483e-09 -6.8349427e-09  17.173396      25.76012       34.346827      15194.65     
        89   0             -10052.606      1.0170033      2.462671       0.29416951     0.2941695      3.0731166e-09 -2.6028166e-09 -3.7964893e-09  17.173396      25.76012       34.346827      15194.65     
        90   0             -10052.606      1.0170034      2.462671       0.29416952     0.29416953     5.339135e-10   5.088146e-10  -7.1430012e-10  17.173396      25.76012       34.346827      15194.65     
        91   0             -10052.606      1.0170034      2.462671       0.29416953     0.29416954    -1.1067865e-09  1.7211827e-09  1.4912773e-09  17.173396      25.76012       34.346827      15194.65     
        92   0             -10052.606      1.0170034      2.4626711      0.29416952     0.29416952    -1.4470264e-09  6.6926493e-10  2.0943766e-09  17.173396      25.76012       34.346827      15194.65     
        93   0             -10052.606      1.0170034      2.462671       0.29416952     0.29416951    -1.2791073e-09  2.6130247e-10  1.4936186e-09  17.173396      25.76012       34.346827      15194.65     
        94   0             -10052.606      1.0170034      2.462671       0.29416952     0.29416952    -8.6862791e-10  4.3076686e-10  7.297528e-10   17.173396      25.76012       34.346827      15194.65     
        95   0             -10052.606      1.0170034      2.462671       0.29416953     0.29416953    -1.1154025e-10  4.6874299e-10  7.5167922e-11  17.173396      25.76012       34.346827      15194.65     
Loop time of 0.142543 on 4 procs for 91 steps with 1344 atoms

65.8% CPU use with 4 MPI tasks x 1 OpenMP threads

Minimization stats:
  Stopping criterion = force tolerance
  Energy initial, next-to-last, final = 
     -10052.6062058262  -10052.6062069648  -10052.6062069648
  Force two-norm initial, final = 0.0075876457 8.529245e-11
  Force max component initial, final = 0.0004402017 5.794365e-12
  Final line search alpha, max atom move = 1 5.794365e-12
  Iterations, force evaluations = 91 182

MPI task timing breakdown:
Section |  min time  |  avg time  |  max time  |%varavg| %total
---------------------------------------------------------------
Pair    | 0.1324     | 0.13278    | 0.13319    |   0.1 | 93.15
Neigh   | 0          | 0          | 0          |   0.0 |  0.00
Comm    | 0.006317   | 0.0066925  | 0.007089   |   0.3 |  4.70
Output  | 0.001134   | 0.001214   | 0.001425   |   0.4 |  0.85
Modify  | 0          | 0          | 0          |   0.0 |  0.00
Other   |            | 0.001861   |            |       |  1.31

Nlocal:            336 ave         342 max         333 min
Histogram: 1 1 1 0 0 0 0 0 0 1
Nghost:            981 ave         984 max         975 min
Histogram: 1 0 0 0 0 0 0 1 1 1
Neighs:           7104 ave        7240 max        7034 min
Histogram: 1 1 1 0 0 0 0 0 0 1
FullNghs:        14208 ave       14472 max       14076 min
Histogram: 1 1 1 0 0 0 0 0 0 1

Total # of neighbors = 56832
Ave neighs/atom = 42.285714
Neighbor list builds = 0
Dangerous builds = 0

# Obtain new stress tensor

variable tmp equal pxx
variable pxx1 equal ${tmp}
variable pxx1 equal 2.4626710400831
variable tmp equal pyy
variable pyy1 equal ${tmp}
variable pyy1 equal 0.294169526951662
variable tmp equal pzz
variable pzz1 equal ${tmp}
variable pzz1 equal 0.294169528309063
variable tmp equal pxy
variable pxy1 equal ${tmp}
variable pxy1 equal -1.11540252151089e-10
variable tmp equal pxz
variable pxz1 equal ${tmp}
variable pxz1 equal 4.68742992903207e-10
variable tmp equal pyz
variable pyz1 equal ${tmp}
variable pyz1 equal 7.5167921815926e-11

# Compute elastic constant from pressure tensor

variable C1neg equal ${d1}
variable C1neg equal 246.267104035151
variable C2neg equal ${d2}
variable C2neg equal 29.416952667239
variable C3neg equal ${d3}
variable C3neg equal 29.4169528300447
variable C4neg equal ${d4}
variable C4neg equal 1.27671129139689e-08
variable C5neg equal ${d5}
variable C5neg equal 4.01899976491546e-08
variable C6neg equal ${d6}
variable C6neg equal -1.32705719638956e-08

# Reset box and simulation parameters

clear
  using 1 OpenMP thread(s) per MPI task
Loaded 1 plugins from C:\Program Files\LAMMPS 64-bit 23Jun2022\plugins
Loaded 0 plugins from C:\Program Files\LAMMPS 64-bit 23Jun2022-MPI\plugins
Loaded 1 plugins from C:\Program Files\LAMMPS 64-bit 22Dec2022-MSMPI\plugins
Loaded 1 plugins from C:\Program Files\LAMMPS 64-bit 28Mar2023-MPI\plugins
box tilt large

The 'box' command has been removed and will be ignored

read_restart restart.equil
Reading restart file ...
  restart file = 22 Dec 2022, LAMMPS = 22 Dec 2022
  restoring atom style atomic from restart
  triclinic box = (-0.026677646 -0.026677646 -0.026677646) to (17.146736 25.733443 34.32015) with tilt (0 0 0)
  1 by 2 by 2 MPI processor grid
  pair style meam stores no restart info
  1344 atoms
  read_restart CPU = 0.000 seconds
include potential.mod
# NOTE: This script can be modified for different pair styles
# See in.elastic for more info.

# Choose potential
#-----------------------
#pair_style	sw
#pair_coeff * * Si.sw Si
#-----------------------
#pair_style morse	2.83994742	# D0[eV] a[1/A] r0[A] rc[A], 1NN for BCC
#pair_coeff 1 1	2.1173	1.0202	2.4595	2.6497	#	Fe-Fe
#-----------------------
#pair_style smatb # R0(A)   p       q     A(eV)   xi(eV)  Rcs(A)   Rc(A), 4NN: Rcs=4NN, Rc=(4NN+5NN)/2
#pair_coeff 1 1	2.4802	7.0149	2.3779	0.3144	3.0551	4.033	4.176	#	Co	Co
#-----------------------
#pair_style eam/alloy
#pair_coeff * * AlCrFeCoNi_Zhou04.eam.alloy Fe
#-----------------------
pair_style meam
pair_coeff * * ./../../library.meam Fe Cr Ni O ./../../FeCrNiO.meam Fe O
#-----------------------

# Setup neighbor style
neighbor 1.0 nsq
neigh_modify once no every 1 delay 0 check yes

# Setup minimization style
min_style	     cg
min_modify	     dmax ${dmax} line quadratic
min_modify	     dmax 0.01 line quadratic

# Setup output
thermo		1
thermo_style custom step temp pe press pxx pyy pzz pxy pxz pyz lx ly lz vol
thermo_modify norm no

# Positive deformation

variable delta equal ${up}*${len0}
variable delta equal 1e-06*${len0}
variable delta equal 1e-06*17.173413664453
variable deltaxy equal ${up}*xy
variable deltaxy equal 1e-06*xy
variable deltaxz equal ${up}*xz
variable deltaxz equal 1e-06*xz
variable deltayz equal ${up}*yz
variable deltayz equal 1e-06*yz
if "${dir} == 1" then    "change_box all x delta 0 ${delta} xy delta ${deltaxy} xz delta ${deltaxz} remap units box"
change_box all x delta 0 ${delta} xy delta ${deltaxy} xz delta ${deltaxz} remap units box
change_box all x delta 0 1.7173413664453e-05 xy delta ${deltaxy} xz delta ${deltaxz} remap units box
change_box all x delta 0 1.7173413664453e-05 xy delta 0 xz delta ${deltaxz} remap units box
change_box all x delta 0 1.7173413664453e-05 xy delta 0 xz delta 0 remap units box
Changing box ...
  triclinic box = (-0.026677646 -0.026677646 -0.026677646) to (17.146753 25.733443 34.32015) with tilt (0 0 0)
  triclinic box = (-0.026677646 -0.026677646 -0.026677646) to (17.146753 25.733443 34.32015) with tilt (0 0 0)
  triclinic box = (-0.026677646 -0.026677646 -0.026677646) to (17.146753 25.733443 34.32015) with tilt (0 0 0)
if "${dir} == 2" then    "change_box all y delta 0 ${delta} yz delta ${deltayz} remap units box"
if "${dir} == 3" then    "change_box all z delta 0 ${delta} remap units box"
if "${dir} == 4" then    "change_box all yz delta ${delta} remap units box"
if "${dir} == 5" then    "change_box all xz delta ${delta} remap units box"
if "${dir} == 6" then    "change_box all xy delta ${delta} remap units box"

# Relax atoms positions

minimize ${etol} ${ftol} ${maxiter} ${maxeval}
minimize 0 ${ftol} ${maxiter} ${maxeval}
minimize 0 1e-10 ${maxiter} ${maxeval}
minimize 0 1e-10 100 ${maxeval}
minimize 0 1e-10 100 1000
Neighbor list info ...
  update: every = 1 steps, delay = 0 steps, check = yes
  max neighbors/atom: 2000, page size: 100000
  master list distance cutoff = 5
  ghost atom cutoff = 5
  2 neighbor lists, perpetual/occasional/extra = 2 0 0
  (1) pair meam, perpetual
      attributes: full, newton on
      pair build: full/nsq
      stencil: none
      bin: none
  (2) pair meam, perpetual, half/full from (1)
      attributes: half, newton on
      pair build: halffull/newton
      stencil: none
      bin: none
Per MPI rank memory allocation (min/avg/max) = 10.03 | 10.03 | 10.03 Mbytes
   Step          Temp          PotEng         Press           Pxx            Pyy            Pzz            Pxy            Pxz            Pyz             Lx             Ly             Lz           Volume    
         4   0             -10052.606     -1.5041448     -3.5620225     -0.38215352    -0.5682584      0.045311663    0.015346145    0.028145529    17.173431      25.76012       34.346827      15194.681    
         5   0             -10052.606     -1.2006771     -2.8877062     -0.32046848    -0.39385654     0.026193066    0.0052397416   0.0052034501   17.173431      25.76012       34.346827      15194.681    
         6   0             -10052.606     -1.0030654     -2.4404867     -0.28560777    -0.28310181     0.011179797   -0.0032783951  -0.01038567     17.173431      25.76012       34.346827      15194.681    
         7   0             -10052.606     -0.97971612    -2.3769984     -0.28843027    -0.27371968     0.0046033844  -0.0064892519  -0.011893282    17.173431      25.76012       34.346827      15194.681    
         8   0             -10052.606     -1.0162777     -2.4555294     -0.29762728    -0.29567647     0.0021409688  -0.0046495489  -0.0058198579   17.173431      25.76012       34.346827      15194.681    
         9   0             -10052.606     -1.0295059     -2.4890362     -0.29763324    -0.30184821     0.0010705184  -0.0015100495  -0.0010099109   17.173431      25.76012       34.346827      15194.681    
        10   0             -10052.606     -1.0201179     -2.4725638     -0.29286426    -0.29492566    -0.00021615417  0.0013619018   0.001787255    17.173431      25.76012       34.346827      15194.681    
        11   0             -10052.606     -1.009844      -2.4479619     -0.29193258    -0.2896376     -0.0012421552   0.0017287174   0.0017490099   17.173431      25.76012       34.346827      15194.681    
        12   0             -10052.606     -1.0144124     -2.4558051     -0.29436573    -0.29306631    -0.00106926     0.00068399329  0.00096577086  17.173431      25.76012       34.346827      15194.681    
        13   0             -10052.606     -1.0201175     -2.4683018     -0.29564264    -0.2964081     -0.00049045584 -0.00019347127  0.00031491313  17.173431      25.76012       34.346827      15194.681    
        14   0             -10052.606     -1.0193801     -2.4684833     -0.29430601    -0.29535093     4.611933e-05  -0.00026532712 -2.3158688e-05  17.173431      25.76012       34.346827      15194.681    
        15   0             -10052.606     -1.0145832     -2.4583535     -0.2929863     -0.29240984     0.00029037357  0.00011244632 -0.000218099    17.173431      25.76012       34.346827      15194.681    
        16   0             -10052.606     -1.0151544     -2.4584735     -0.29385172    -0.29313803     0.00034641909  3.9105725e-05 -0.00034328055  17.173431      25.76012       34.346827      15194.681    
        17   0             -10052.606     -1.0175731     -2.4631903     -0.29477203    -0.29475704     0.00031087225 -0.00021000303 -0.00037584117  17.173431      25.76012       34.346827      15194.681    
        18   0             -10052.606     -1.0182651     -2.4654285     -0.29445583    -0.29491095     0.00015567764 -0.00028847231 -0.0002438028   17.173431      25.76012       34.346827      15194.681    
        19   0             -10052.606     -1.0165682     -2.4623257     -0.29367557    -0.29370327    -7.4270366e-05 -1.7040709e-05  3.4359549e-05  17.173431      25.76012       34.346827      15194.681    
        20   0             -10052.606     -1.0162461     -2.4611523     -0.2939085     -0.29367738    -0.00016228029  0.00017472116  0.00019915136  17.173431      25.76012       34.346827      15194.681    
        21   0             -10052.606     -1.0170318     -2.4622339     -0.29450141    -0.29436021    -0.00015493428  0.00021717518  0.00025571636  17.173431      25.76012       34.346827      15194.681    
        22   0             -10052.606     -1.0176206     -2.4637873     -0.29446116    -0.29461326    -7.4433364e-05  6.2364991e-05  0.00013705299  17.173431      25.76012       34.346827      15194.681    
        23   0             -10052.606     -1.0169702     -2.4629719     -0.29391837    -0.2940203     -6.1342849e-06 -6.6088072e-05 -3.2281345e-05  17.173431      25.76012       34.346827      15194.681    
        24   0             -10052.606     -1.0165755     -2.4620524     -0.29386594    -0.2938083      3.818234e-05  -7.9407989e-05 -0.00010813534  17.173431      25.76012       34.346827      15194.681    
        25   0             -10052.606     -1.0168469     -2.4621651     -0.29424074    -0.29413486     7.0182651e-05 -3.0854555e-05 -9.4207034e-05  17.173431      25.76012       34.346827      15194.681    
        26   0             -10052.606     -1.0173051     -2.4630821     -0.29439988    -0.29443347     7.1690594e-05 -5.0843506e-06 -3.9587367e-05  17.173431      25.76012       34.346827      15194.681    
        27   0             -10052.606     -1.0171143     -2.4630365     -0.29411432    -0.29419208     2.7846968e-05 -1.6617479e-05 -1.4142784e-05  17.173431      25.76012       34.346827      15194.681    
        28   0             -10052.606     -1.0168622     -2.4625727     -0.29400032    -0.29401371    -1.5322605e-05 -1.4612661e-05 -1.2596619e-06  17.173431      25.76012       34.346827      15194.681    
        29   0             -10052.606     -1.016831      -2.4622592     -0.29415318    -0.29408073    -5.0039668e-05  1.4038805e-05  2.6361312e-05  17.173431      25.76012       34.346827      15194.681    
        30   0             -10052.606     -1.0170921     -2.4627051     -0.29429366    -0.29427744    -3.9313113e-05  3.8230342e-05  5.4781757e-05  17.173431      25.76012       34.346827      15194.681    
        31   0             -10052.606     -1.0171236     -2.4629447     -0.29418952    -0.29423655    -1.4018073e-05  2.89594e-05    4.5074846e-05  17.173431      25.76012       34.346827      15194.681    
        32   0             -10052.606     -1.0169915     -2.4627755     -0.29408159    -0.29411735     2.8654987e-06  4.302986e-06   9.7801572e-06  17.173431      25.76012       34.346827      15194.681    
        33   0             -10052.606     -1.016881      -2.4624388     -0.29411866    -0.29408562     1.2161586e-05 -2.269541e-05  -3.5366545e-05  17.173431      25.76012       34.346827      15194.681    
        34   0             -10052.606     -1.0170097     -2.4625713     -0.29424481    -0.29421295     2.0762377e-05 -2.5221583e-05 -4.1843561e-05  17.173431      25.76012       34.346827      15194.681    
        35   0             -10052.606     -1.0170944     -2.4628298     -0.29421628    -0.29423723     2.296452e-05  -9.91914e-06   -1.7667303e-05  17.173431      25.76012       34.346827      15194.681    
        36   0             -10052.606     -1.0170379     -2.4628251     -0.29412595    -0.29416267     1.330157e-05   3.8252871e-06  3.4533621e-06  17.173431      25.76012       34.346827      15194.681    
        37   0             -10052.606     -1.0169101     -2.4625466     -0.29409638    -0.29408728    -1.024473e-05   9.3020266e-06  1.1902151e-05  17.173431      25.76012       34.346827      15194.681    
        38   0             -10052.606     -1.0169647     -2.4625284     -0.2941984     -0.29416718    -2.3265962e-05  6.3476632e-06  1.2821246e-05  17.173431      25.76012       34.346827      15194.681    
        39   0             -10052.606     -1.0170664     -2.462734      -0.29423251    -0.29423285    -1.8065023e-05  5.9571281e-06  1.6874665e-05  17.173431      25.76012       34.346827      15194.681    
        40   0             -10052.606     -1.0170782     -2.462854      -0.29417363    -0.29420689    -4.820295e-06   7.8802011e-06  1.7725959e-05  17.173431      25.76012       34.346827      15194.681    
        41   0             -10052.606     -1.016944      -2.4626226     -0.2941029     -0.29410659     4.2285402e-06  5.1675045e-06  2.3746004e-06  17.173431      25.76012       34.346827      15194.681    
        42   0             -10052.606     -1.016942      -2.4625326     -0.29415826    -0.29413521     7.4038623e-06 -5.2829408e-06 -1.4672903e-05  17.173431      25.76012       34.346827      15194.681    
        43   0             -10052.606     -1.0170188     -2.4626482     -0.29420977    -0.2941985      9.3364587e-06 -1.23088e-05   -1.8917749e-05  17.173431      25.76012       34.346827      15194.681    
        44   0             -10052.606     -1.0170607     -2.4627766     -0.29419524    -0.29421028     9.0519004e-06 -1.0738192e-05 -1.1263084e-05  17.173431      25.76012       34.346827      15194.681    
        45   0             -10052.606     -1.0169905     -2.4626925     -0.29413418    -0.29414497     2.9269555e-06  3.8275153e-07  8.662348e-07   17.173431      25.76012       34.346827      15194.681    
        46   0             -10052.606     -1.0169595     -2.462597      -0.29414516    -0.29413635    -3.9315205e-06  6.4875399e-06  5.8887298e-06  17.173431      25.76012       34.346827      15194.681    
        47   0             -10052.606     -1.0169906     -2.462622      -0.29418019    -0.29416954    -6.352702e-06   5.2561154e-06  6.0981299e-06  17.173431      25.76012       34.346827      15194.681    
        48   0             -10052.606     -1.0170328     -2.4627101     -0.29419242    -0.29419574    -4.6925547e-06  4.8285689e-07  4.2804912e-06  17.173431      25.76012       34.346827      15194.681    
        49   0             -10052.606     -1.0170069     -2.4626985     -0.2941572     -0.29416487    -1.5538802e-06 -4.8309199e-07  2.2962226e-06  17.173431      25.76012       34.346827      15194.681    
        50   0             -10052.606     -1.0169803     -2.4626437     -0.29414911    -0.29414818     2.5039875e-07  8.7785873e-07  2.7793532e-07  17.173431      25.76012       34.346827      15194.681    
        51   0             -10052.606     -1.0169883     -2.4626377     -0.29416619    -0.29416101     1.3480926e-06  6.8587039e-07 -1.4659241e-06  17.173431      25.76012       34.346827      15194.681    
        52   0             -10052.606     -1.0170153     -2.4626768     -0.29418535    -0.29418384     2.4130526e-06 -1.5685673e-06 -3.0950699e-06  17.173431      25.76012       34.346827      15194.681    
        53   0             -10052.606     -1.0170073     -2.4626871     -0.29416539    -0.29416944     2.115892e-06  -2.7329532e-06 -2.7351633e-06  17.173431      25.76012       34.346827      15194.681    
        54   0             -10052.606     -1.0169887     -2.4626615     -0.29415142    -0.29415333     5.3421568e-07 -1.0785973e-06 -9.2065443e-07  17.173431      25.76012       34.346827      15194.681    
        55   0             -10052.606     -1.0169885     -2.4626477     -0.29416004    -0.29415784    -9.9052584e-07  1.1477257e-06  1.0410271e-06  17.173431      25.76012       34.346827      15194.681    
        56   0             -10052.606     -1.0170055     -2.462664      -0.29417746    -0.29417506    -1.6096613e-06  2.0250029e-06  2.2641822e-06  17.173431      25.76012       34.346827      15194.681    
        57   0             -10052.606     -1.0170081     -2.4626799     -0.29417132    -0.29417296    -1.0777874e-06  7.2985402e-07  1.7400933e-06  17.173431      25.76012       34.346827      15194.681    
        58   0             -10052.606     -1.0169969     -2.4626697     -0.29415957    -0.2941615     -4.8598131e-07 -2.6344601e-07  4.9040987e-07  17.173431      25.76012       34.346827      15194.681    
        59   0             -10052.606     -1.0169925     -2.4626584     -0.29415966    -0.29415949    -3.6449146e-08 -3.8625433e-07 -4.0672562e-07  17.173431      25.76012       34.346827      15194.681    
        60   0             -10052.606     -1.0170003     -2.46266       -0.29417151    -0.29416946     5.497027e-07  -2.4242818e-08 -8.2371088e-07  17.173431      25.76012       34.346827      15194.681    
        61   0             -10052.606     -1.0170048     -2.4626721     -0.29417099    -0.29417126     9.4997753e-07 -2.6425447e-07 -7.153363e-07   17.173431      25.76012       34.346827      15194.681    
        62   0             -10052.606     -1.0170004     -2.4626718     -0.29416396    -0.29416546     7.5389372e-07 -5.6255361e-07 -6.0469198e-07  17.173431      25.76012       34.346827      15194.681    
        63   0             -10052.606     -1.016996      -2.4626643     -0.29416158    -0.29416214     1.7771904e-07 -4.6038778e-07 -4.1221066e-07  17.173431      25.76012       34.346827      15194.681    
        64   0             -10052.606     -1.0169982     -2.4626605     -0.29416774    -0.29416648    -4.5921376e-07  1.7761365e-07  1.3475801e-07  17.173431      25.76012       34.346827      15194.681    
        65   0             -10052.606     -1.0170021     -2.4626672     -0.29416974    -0.29416934    -4.779184e-07   5.2668173e-07  6.8489737e-07  17.173431      25.76012       34.346827      15194.681    
        66   0             -10052.606     -1.0170013     -2.4626701     -0.29416654    -0.29416726    -2.9289035e-07  4.222207e-07   7.3216419e-07  17.173431      25.76012       34.346827      15194.681    
        67   0             -10052.606     -1.0169984     -2.462667      -0.29416383    -0.29416447    -1.4612062e-07  1.1356046e-07  3.3048191e-07  17.173431      25.76012       34.346827      15194.681    
        68   0             -10052.606     -1.0169981     -2.4626628     -0.29416602    -0.2941655     -4.0649832e-08 -1.4231331e-07 -2.3432717e-07  17.173431      25.76012       34.346827      15194.681    
        69   0             -10052.606     -1.0170004     -2.4626654     -0.29416803    -0.29416761     1.43002e-07   -1.5886649e-07 -3.1809128e-07  17.173431      25.76012       34.346827      15194.681    
        70   0             -10052.606     -1.0170006     -2.4626677     -0.29416703    -0.29416721     2.4501074e-07 -1.0262337e-07 -1.8869076e-07  17.173431      25.76012       34.346827      15194.681    
        71   0             -10052.606     -1.0169995     -2.4626672     -0.29416543    -0.29416581     1.9921283e-07 -5.1817754e-08 -7.9774054e-08  17.173431      25.76012       34.346827      15194.681    
        72   0             -10052.606     -1.0169986     -2.4626648     -0.29416559    -0.2941655     -5.1977092e-11 -1.7773871e-08 -4.3995225e-08  17.173431      25.76012       34.346827      15194.681    
        73   0             -10052.606     -1.0169997     -2.4626654     -0.29416696    -0.29416674    -9.7709908e-08  1.2807951e-08  2.1008977e-08  17.173431      25.76012       34.346827      15194.681    
        74   0             -10052.606     -1.0170002     -2.4626666     -0.29416702    -0.29416701    -9.3243906e-08  4.7609541e-08  1.0313523e-07  17.173431      25.76012       34.346827      15194.681    
        75   0             -10052.606     -1.0169998     -2.4626667     -0.29416624    -0.29416639    -5.7477204e-08  6.7622266e-08  1.3267324e-07  17.173431      25.76012       34.346827      15194.681    
        76   0             -10052.606     -1.016999      -2.4626656     -0.29416574    -0.29416578    -2.4233312e-08  4.5687536e-08  5.7774001e-08  17.173431      25.76012       34.346827      15194.681    
        77   0             -10052.606     -1.0169995     -2.4626656     -0.29416642    -0.29416633     6.7504662e-10 -6.6933617e-09 -2.7686476e-08  17.173431      25.76012       34.346827      15194.681    
        78   0             -10052.606     -1.0169998     -2.4626661     -0.29416673    -0.29416668     2.4490856e-08 -3.7083805e-08 -5.6480883e-08  17.173431      25.76012       34.346827      15194.681    
        79   0             -10052.606     -1.0169998     -2.4626663     -0.29416647    -0.29416651     3.7878469e-08 -3.5927514e-08 -4.3980334e-08  17.173431      25.76012       34.346827      15194.681    
        80   0             -10052.606     -1.0169994     -2.462666      -0.29416612    -0.29416616     2.530994e-08  -9.0972788e-09 -1.6414073e-08  17.173431      25.76012       34.346827      15194.681    
        81   0             -10052.606     -1.0169995     -2.4626658     -0.2941663     -0.29416628     1.5159517e-09  6.2993425e-09 -1.7285427e-09  17.173431      25.76012       34.346827      15194.681    
        82   0             -10052.606     -1.0169996     -2.462666      -0.29416647    -0.29416645    -1.0368821e-08  6.0896782e-09  5.9589277e-09  17.173431      25.76012       34.346827      15194.681    
        83   0             -10052.606     -1.0169997     -2.4626661     -0.29416645    -0.29416645    -1.2463919e-08  3.0310839e-09  1.1475523e-08  17.173431      25.76012       34.346827      15194.681    
        84   0             -10052.606     -1.0169995     -2.462666      -0.29416628    -0.29416629    -8.112547e-09   4.4519433e-09  1.2658166e-08  17.173431      25.76012       34.346827      15194.681    
        85   0             -10052.606     -1.0169995     -2.4626659     -0.29416629    -0.29416629    -3.6770749e-09  5.7550464e-09  6.6162155e-09  17.173431      25.76012       34.346827      15194.681    
        86   0             -10052.606     -1.0169996     -2.462666      -0.29416638    -0.29416637     4.5543171e-10  2.14258e-09   -8.9981243e-10  17.173431      25.76012       34.346827      15194.681    
        87   0             -10052.606     -1.0169996     -2.462666      -0.29416641    -0.2941664      4.1939426e-09 -3.4740715e-09 -6.2455861e-09  17.173431      25.76012       34.346827      15194.681    
        88   0             -10052.606     -1.0169996     -2.462666      -0.29416633    -0.29416634     5.4789474e-09 -5.9433229e-09 -6.7627932e-09  17.173431      25.76012       34.346827      15194.681    
        89   0             -10052.606     -1.0169995     -2.462666      -0.29416632    -0.29416632     3.1266796e-09 -2.5969932e-09 -3.7080387e-09  17.173431      25.76012       34.346827      15194.681    
        90   0             -10052.606     -1.0169996     -2.462666      -0.29416635    -0.29416635     5.3887601e-10  5.0436509e-10 -7.7149691e-10  17.173431      25.76012       34.346827      15194.681    
        91   0             -10052.606     -1.0169996     -2.462666      -0.29416637    -0.29416637    -1.0932047e-09  1.7177492e-09  1.5014824e-09  17.173431      25.76012       34.346827      15194.681    
        92   0             -10052.606     -1.0169996     -2.462666      -0.29416635    -0.29416635    -1.4318518e-09  6.9472534e-10  2.1247743e-09  17.173431      25.76012       34.346827      15194.681    
        93   0             -10052.606     -1.0169996     -2.462666      -0.29416634    -0.29416634    -1.2986781e-09  2.7359383e-10  1.536204e-09   17.173431      25.76012       34.346827      15194.681    
        94   0             -10052.606     -1.0169996     -2.462666      -0.29416635    -0.29416635    -8.7096748e-10  4.2909196e-10  7.3918682e-10  17.173431      25.76012       34.346827      15194.681    
        95   0             -10052.606     -1.0169996     -2.462666      -0.29416636    -0.29416636    -9.8241386e-11  4.4038879e-10 -7.9838686e-12  17.173431      25.76012       34.346827      15194.681    
Loop time of 0.144808 on 4 procs for 91 steps with 1344 atoms

72.8% CPU use with 4 MPI tasks x 1 OpenMP threads

Minimization stats:
  Stopping criterion = force tolerance
  Energy initial, next-to-last, final = 
     -10052.6062058241  -10052.6062069648  -10052.6062069648
  Force two-norm initial, final = 0.0075930116 8.5320333e-11
  Force max component initial, final = 0.0004402022 5.0859317e-12
  Final line search alpha, max atom move = 1 5.0859317e-12
  Iterations, force evaluations = 91 182

MPI task timing breakdown:
Section |  min time  |  avg time  |  max time  |%varavg| %total
---------------------------------------------------------------
Pair    | 0.13408    | 0.13445    | 0.13496    |   0.1 | 92.84
Neigh   | 0          | 0          | 0          |   0.0 |  0.00
Comm    | 0.006908   | 0.007402   | 0.007742   |   0.4 |  5.11
Output  | 0.001173   | 0.0012317  | 0.00137    |   0.2 |  0.85
Modify  | 0          | 0          | 0          |   0.0 |  0.00
Other   |            | 0.001728   |            |       |  1.19

Nlocal:            336 ave         342 max         333 min
Histogram: 1 1 1 0 0 0 0 0 0 1
Nghost:            981 ave         984 max         975 min
Histogram: 1 0 0 0 0 0 0 1 1 1
Neighs:           7104 ave        7240 max        7034 min
Histogram: 1 1 1 0 0 0 0 0 0 1
FullNghs:        14208 ave       14472 max       14076 min
Histogram: 1 1 1 0 0 0 0 0 0 1

Total # of neighbors = 56832
Ave neighs/atom = 42.285714
Neighbor list builds = 0
Dangerous builds = 0

# Obtain new stress tensor

variable tmp equal pe
variable e1 equal ${tmp}
variable e1 equal -10052.6062069648
variable tmp equal press
variable p1 equal ${tmp}
variable p1 equal -1.01699957340095
variable tmp equal pxx
variable pxx1 equal ${tmp}
variable pxx1 equal -2.46266600105472
variable tmp equal pyy
variable pyy1 equal ${tmp}
variable pyy1 equal -0.29416636018608
variable tmp equal pzz
variable pzz1 equal ${tmp}
variable pzz1 equal -0.294166358962043
variable tmp equal pxy
variable pxy1 equal ${tmp}
variable pxy1 equal -9.82413858062782e-11
variable tmp equal pxz
variable pxz1 equal ${tmp}
variable pxz1 equal 4.40388786063677e-10
variable tmp equal pyz
variable pyz1 equal ${tmp}
variable pyz1 equal -7.98386857958553e-12

# Compute elastic constant from pressure tensor

variable C1pos equal ${d1}
variable C1pos equal 246.266600078631
variable C2pos equal ${d2}
variable C2pos equal 29.4166360465352
variable C3pos equal ${d3}
variable C3pos equal 29.4166358970659
variable C4pos equal ${d4}
variable C4pos equal -4.45193387441776e-09
variable C5pos equal ${d5}
variable C5pos equal -3.73545769652016e-08
variable C6pos equal ${d6}
variable C6pos equal 1.19406853294145e-08

# Combine positive and negative

variable C1${dir} equal 0.5*(${C1neg}+${C1pos})
variable C11 equal 0.5*(${C1neg}+${C1pos})
variable C11 equal 0.5*(246.267104035151+${C1pos})
variable C11 equal 0.5*(246.267104035151+246.266600078631)
variable C2${dir} equal 0.5*(${C2neg}+${C2pos})
variable C21 equal 0.5*(${C2neg}+${C2pos})
variable C21 equal 0.5*(29.416952667239+${C2pos})
variable C21 equal 0.5*(29.416952667239+29.4166360465352)
variable C3${dir} equal 0.5*(${C3neg}+${C3pos})
variable C31 equal 0.5*(${C3neg}+${C3pos})
variable C31 equal 0.5*(29.4169528300447+${C3pos})
variable C31 equal 0.5*(29.4169528300447+29.4166358970659)
variable C4${dir} equal 0.5*(${C4neg}+${C4pos})
variable C41 equal 0.5*(${C4neg}+${C4pos})
variable C41 equal 0.5*(1.27671129139689e-08+${C4pos})
variable C41 equal 0.5*(1.27671129139689e-08+-4.45193387441776e-09)
variable C5${dir} equal 0.5*(${C5neg}+${C5pos})
variable C51 equal 0.5*(${C5neg}+${C5pos})
variable C51 equal 0.5*(4.01899976491546e-08+${C5pos})
variable C51 equal 0.5*(4.01899976491546e-08+-3.73545769652016e-08)
variable C6${dir} equal 0.5*(${C6neg}+${C6pos})
variable C61 equal 0.5*(${C6neg}+${C6pos})
variable C61 equal 0.5*(-1.32705719638956e-08+${C6pos})
variable C61 equal 0.5*(-1.32705719638956e-08+1.19406853294145e-08)

# Delete dir to make sure it is not reused

variable dir delete

# uyy Perturbation

variable dir equal 2
include displace.mod
# NOTE: This script should not need to be
# modified. See in.elastic for more info.
#
# Find which reference length to use

if "${dir} == 1" then    "variable len0 equal ${lx0}"
if "${dir} == 2" then    "variable len0 equal ${ly0}"
variable len0 equal ${ly0}
variable len0 equal 25.7601204966795
if "${dir} == 3" then    "variable len0 equal ${lz0}"
if "${dir} == 4" then    "variable len0 equal ${lz0}"
if "${dir} == 5" then    "variable len0 equal ${lz0}"
if "${dir} == 6" then    "variable len0 equal ${ly0}"

# Reset box and simulation parameters

clear
  using 1 OpenMP thread(s) per MPI task
Loaded 1 plugins from C:\Program Files\LAMMPS 64-bit 23Jun2022\plugins
Loaded 0 plugins from C:\Program Files\LAMMPS 64-bit 23Jun2022-MPI\plugins
Loaded 1 plugins from C:\Program Files\LAMMPS 64-bit 22Dec2022-MSMPI\plugins
Loaded 1 plugins from C:\Program Files\LAMMPS 64-bit 28Mar2023-MPI\plugins
box tilt large

The 'box' command has been removed and will be ignored

read_restart restart.equil
Reading restart file ...
  restart file = 22 Dec 2022, LAMMPS = 22 Dec 2022
  restoring atom style atomic from restart
  triclinic box = (-0.026677646 -0.026677646 -0.026677646) to (17.146736 25.733443 34.32015) with tilt (0 0 0)
  1 by 2 by 2 MPI processor grid
  pair style meam stores no restart info
  1344 atoms
  read_restart CPU = 0.000 seconds
include potential.mod
# NOTE: This script can be modified for different pair styles
# See in.elastic for more info.

# Choose potential
#-----------------------
#pair_style	sw
#pair_coeff * * Si.sw Si
#-----------------------
#pair_style morse	2.83994742	# D0[eV] a[1/A] r0[A] rc[A], 1NN for BCC
#pair_coeff 1 1	2.1173	1.0202	2.4595	2.6497	#	Fe-Fe
#-----------------------
#pair_style smatb # R0(A)   p       q     A(eV)   xi(eV)  Rcs(A)   Rc(A), 4NN: Rcs=4NN, Rc=(4NN+5NN)/2
#pair_coeff 1 1	2.4802	7.0149	2.3779	0.3144	3.0551	4.033	4.176	#	Co	Co
#-----------------------
#pair_style eam/alloy
#pair_coeff * * AlCrFeCoNi_Zhou04.eam.alloy Fe
#-----------------------
pair_style meam
pair_coeff * * ./../../library.meam Fe Cr Ni O ./../../FeCrNiO.meam Fe O
#-----------------------

# Setup neighbor style
neighbor 1.0 nsq
neigh_modify once no every 1 delay 0 check yes

# Setup minimization style
min_style	     cg
min_modify	     dmax ${dmax} line quadratic
min_modify	     dmax 0.01 line quadratic

# Setup output
thermo		1
thermo_style custom step temp pe press pxx pyy pzz pxy pxz pyz lx ly lz vol
thermo_modify norm no

# Negative deformation

variable delta equal -${up}*${len0}
variable delta equal -1e-06*${len0}
variable delta equal -1e-06*25.7601204966795
variable deltaxy equal -${up}*xy
variable deltaxy equal -1e-06*xy
variable deltaxz equal -${up}*xz
variable deltaxz equal -1e-06*xz
variable deltayz equal -${up}*yz
variable deltayz equal -1e-06*yz
if "${dir} == 1" then    "change_box all x delta 0 ${delta} xy delta ${deltaxy} xz delta ${deltaxz} remap units box"
if "${dir} == 2" then    "change_box all y delta 0 ${delta} yz delta ${deltayz} remap units box"
change_box all y delta 0 ${delta} yz delta ${deltayz} remap units box
change_box all y delta 0 -2.57601204966795e-05 yz delta ${deltayz} remap units box
change_box all y delta 0 -2.57601204966795e-05 yz delta -0 remap units box
Changing box ...
  triclinic box = (-0.026677646 -0.026677646 -0.026677646) to (17.146736 25.733417 34.32015) with tilt (0 0 0)
  triclinic box = (-0.026677646 -0.026677646 -0.026677646) to (17.146736 25.733417 34.32015) with tilt (0 0 0)
if "${dir} == 3" then    "change_box all z delta 0 ${delta} remap units box"
if "${dir} == 4" then    "change_box all yz delta ${delta} remap units box"
if "${dir} == 5" then    "change_box all xz delta ${delta} remap units box"
if "${dir} == 6" then    "change_box all xy delta ${delta} remap units box"

# Relax atoms positions

minimize ${etol} ${ftol} ${maxiter} ${maxeval}
minimize 0 ${ftol} ${maxiter} ${maxeval}
minimize 0 1e-10 ${maxiter} ${maxeval}
minimize 0 1e-10 100 ${maxeval}
minimize 0 1e-10 100 1000
Neighbor list info ...
  update: every = 1 steps, delay = 0 steps, check = yes
  max neighbors/atom: 2000, page size: 100000
  master list distance cutoff = 5
  ghost atom cutoff = 5
  2 neighbor lists, perpetual/occasional/extra = 2 0 0
  (1) pair meam, perpetual
      attributes: full, newton on
      pair build: full/nsq
      stencil: none
      bin: none
  (2) pair meam, perpetual, half/full from (1)
      attributes: half, newton on
      pair build: halffull/newton
      stencil: none
      bin: none
Per MPI rank memory allocation (min/avg/max) = 10.03 | 10.03 | 10.03 Mbytes
   Step          Temp          PotEng         Press           Pxx            Pyy            Pzz            Pxy            Pxz            Pyz             Lx             Ly             Lz           Volume    
         4   0             -10052.606      1.251121       0.22970302     3.4095958      0.11406428     0.045311747    0.015346046    0.02814564     17.173414      25.760095      34.346827      15194.65     
         5   0             -10052.606      1.1052248      0.26461631     2.8320577      0.21900045     0.026199109    0.0052430913   0.0052109126   17.173414      25.760095      34.346827      15194.65     
         6   0             -10052.606      1.0102569      0.2914796      2.4462387      0.29305224     0.011175552   -0.0032805156  -0.010390015    17.173414      25.760095      34.346827      15194.65     
         7   0             -10052.606      0.99907391     0.29988198     2.3883021      0.30903766     0.0045973713  -0.0064923899  -0.011898585    17.173414      25.760095      34.346827      15194.65     
         8   0             -10052.606      1.0166774      0.29696234     2.4548998      0.29816998     0.0021420412  -0.004648721   -0.0058183758   17.173414      25.760095      34.346827      15194.65     
         9   0             -10052.606      1.0230324      0.29341003     2.4849062      0.29078094     0.0010723261  -0.0015073498  -0.0010048124   17.173414      25.760095      34.346827      15194.65     
        10   0             -10052.606      1.0184958      0.29235506     2.4720581      0.29107441    -0.00021597456  0.0013616536   0.0017870062   17.173414      25.760095      34.346827      15194.65     
        11   0             -10052.606      1.0135504      0.29441779     2.4503822      0.29585126    -0.0012438154   0.0017278259   0.0017464428   17.173414      25.760095      34.346827      15194.65     
        12   0             -10052.606      1.0157593      0.29501412     2.4564409      0.29582299    -0.0010696638   0.00068404201  0.00096544455  17.173414      25.760095      34.346827      15194.65     
        13   0             -10052.606      1.0185122      0.29443812     2.4671408      0.29395774    -0.00048928038 -0.00019374966  0.00031569511  17.173414      25.760095      34.346827      15194.65     
        14   0             -10052.606      1.0181507      0.29363472     2.4678341      0.29298327     4.6624636e-05 -0.00026550093 -2.2766311e-05  17.173414      25.760095      34.346827      15194.65     
        15   0             -10052.606      1.0158324      0.29393483     2.459265       0.29429745     0.00028966709  0.00011300823 -0.00021881506  17.173414      25.760095      34.346827      15194.65     
        16   0             -10052.606      1.0161119      0.29442946     2.4590308      0.2948754      0.00034602764  3.9449915e-05 -0.00034368475  17.173414      25.760095      34.346827      15194.65     
        17   0             -10052.606      1.0172832      0.29446906     2.4629038      0.29447669     0.00031110999 -0.00021030654 -0.00037564056  17.173414      25.760095      34.346827      15194.65     
        18   0             -10052.606      1.0176158      0.29404639     2.4650397      0.2937615      0.00015593505 -0.00028888862 -0.00024352743  17.173414      25.760095      34.346827      15194.65     
        19   0             -10052.606      1.0167924      0.29391793     2.4625572      0.29390218    -7.451585e-05  -1.6669817e-05  3.4304434e-05  17.173414      25.760095      34.346827      15194.65     
        20   0             -10052.606      1.0166378      0.2941788      2.4614107      0.29432398    -0.00016257694  0.00017516949  0.00019914123  17.173414      25.760095      34.346827      15194.65     
        21   0             -10052.606      1.0170206      0.29441167     2.4621513      0.29449878    -0.00015483189  0.00021701732  0.00025573453  17.173414      25.760095      34.346827      15194.65     
        22   0             -10052.606      1.0173053      0.2942235      2.463565       0.29412746    -7.4135568e-05  6.1915573e-05  0.00013704477  17.173414      25.760095      34.346827      15194.65     
        23   0             -10052.606      1.0169879      0.29399181     2.463043       0.29392897    -6.2261517e-06 -6.5956134e-05 -3.2285736e-05  17.173414      25.760095      34.346827      15194.65     
        24   0             -10052.606      1.0167964      0.2940584      2.4622354      0.2940955      3.8000321e-05 -7.912477e-05  -0.00010825395  17.173414      25.760095      34.346827      15194.65     
        25   0             -10052.606      1.0169297      0.29426608     2.4621912      0.29433199     7.0163183e-05 -3.0843279e-05 -9.4236495e-05  17.173414      25.760095      34.346827      15194.65     
        26   0             -10052.606      1.0171528      0.29426241     2.4629554      0.29424053     7.1838971e-05 -5.2595744e-06 -3.9455044e-05  17.173414      25.760095      34.346827      15194.65     
        27   0             -10052.606      1.0170588      0.2940999      2.4630249      0.29405148     2.7876743e-05 -1.6629048e-05 -1.4126754e-05  17.173414      25.760095      34.346827      15194.65     
        28   0             -10052.606      1.0169358      0.29408203     2.4626512      0.2940743     -1.5433519e-05 -1.4515234e-05 -1.3224315e-06  17.173414      25.760095      34.346827      15194.65     
        29   0             -10052.606      1.0169215      0.29420474     2.4623096      0.29425009    -5.0113319e-05  1.4085947e-05  2.6318699e-05  17.173414      25.760095      34.346827      15194.65     
        30   0             -10052.606      1.017049       0.29424003     2.4626573      0.29424966    -3.9223848e-05  3.8171564e-05  5.4840771e-05  17.173414      25.760095      34.346827      15194.65     
        31   0             -10052.606      1.0170637      0.29415371     2.4629133      0.2941242     -1.3957893e-05  2.8932027e-05  4.5123662e-05  17.173414      25.760095      34.346827      15194.65     
        32   0             -10052.606      1.016999       0.29410829     2.4628024      0.29408627     2.8251435e-06  4.3316013e-06  9.7577922e-06  17.173414      25.760095      34.346827      15194.65     
        33   0             -10052.606      1.0169455      0.29416552     2.4624845      0.2941864      1.2102267e-05 -2.2681818e-05 -3.5450047e-05  17.173414      25.760095      34.346827      15194.65     
        34   0             -10052.606      1.0170087      0.29422548     2.4625556      0.29424508     2.0797495e-05 -2.52388e-05   -4.1807215e-05  17.173414      25.760095      34.346827      15194.65     
        35   0             -10052.606      1.0170498      0.29418153     2.4627997      0.2941682      2.3022623e-05 -9.9282889e-06 -1.759148e-05   17.173414      25.760095      34.346827      15194.65     
        36   0             -10052.606      1.0170218      0.2941291      2.46283        0.29410631     1.3304078e-05  3.8269187e-06  3.4482612e-06  17.173414      25.760095      34.346827      15194.65     
        37   0             -10052.606      1.0169594      0.29414109     2.4625899      0.29414711    -1.0327956e-05  9.3214639e-06  1.1831652e-05  17.173414      25.760095      34.346827      15194.65     
        38   0             -10052.606      1.0169865      0.29420276     2.4625347      0.29422215    -2.3266282e-05  6.346982e-06   1.2822427e-05  17.173414      25.760095      34.346827      15194.65     
        39   0             -10052.606      1.0170364      0.29420115     2.4627073      0.29420062    -1.7996666e-05  5.9403547e-06  1.6938078e-05  17.173414      25.760095      34.346827      15194.65     
        40   0             -10052.606      1.0170417      0.29415404     2.4628379      0.29413319    -4.7796698e-06  7.8711845e-06  1.7765683e-05  17.173414      25.760095      34.346827      15194.65     
        41   0             -10052.606      1.0169759      0.2941369      2.4626558      0.29413492     4.1722599e-06  5.1807422e-06  2.3055656e-06  17.173414      25.760095      34.346827      15194.65     
        42   0             -10052.606      1.0169752      0.29417877     2.4625537      0.29419325     7.3762227e-06 -5.2760324e-06 -1.4709639e-05  17.173414      25.760095      34.346827      15194.65     
        43   0             -10052.606      1.017013       0.29419683     2.4626386      0.29420367     9.3676183e-06 -1.231869e-05  -1.8882378e-05  17.173414      25.760095      34.346827      15194.65     
        44   0             -10052.606      1.0170334      0.29417485     2.4627602      0.29416527     9.0936245e-06 -1.0753291e-05 -1.1212526e-05  17.173414      25.760095      34.346827      15194.65     
[...]
        59   0             -10052.606      2.2113741e-06  1.8736583e-06  2.1849929e-06  2.5754712e-06 -0.74782974    -3.751551e-07  -4.1525248e-07  17.173414      25.76012       34.346827      15194.666    
        60   0             -10052.606      1.1004292e-07 -3.7764926e-07 -7.6926013e-07  1.4770381e-06 -0.74783099    -2.1276574e-08 -8.3619144e-07  17.173414      25.76012       34.346827      15194.666    
        61   0             -10052.606     -1.1676185e-06 -1.4553402e-06 -9.1046274e-07 -1.1370527e-06 -0.74783086    -2.7662255e-07 -7.1499792e-07  17.173414      25.76012       34.346827      15194.666    
        62   0             -10052.606      5.980743e-09  -1.8183244e-07  8.3069871e-07 -6.3092404e-07 -0.74783019    -5.7193723e-07 -6.0174448e-07  17.173414      25.76012       34.346827      15194.666    
        63   0             -10052.606      1.2426321e-06  9.7022419e-07  1.5869382e-06  1.1707339e-06 -0.74782978    -4.5785742e-07 -4.1423972e-07  17.173414      25.76012       34.346827      15194.666    
        64   0             -10052.606      6.6920185e-07  2.4439718e-07  1.4776718e-07  1.6154412e-06 -0.7478299      1.868636e-07   1.3137559e-07  17.173414      25.76012       34.346827      15194.666    
        65   0             -10052.606     -4.1531882e-07 -7.6242547e-07 -4.9564402e-07  1.2113016e-08 -0.74783005     5.2706598e-07  6.896512e-07   17.173414      25.76012       34.346827      15194.666    
        66   0             -10052.606     -2.2239062e-07 -4.7568601e-07  2.3041309e-07 -4.2189894e-07 -0.74783        4.1795355e-07  7.3937145e-07  17.173414      25.76012       34.346827      15194.666    
        67   0             -10052.606      5.7175114e-07  3.0931533e-07  9.7272087e-07  4.3321722e-07 -0.74782991     1.1239298e-07  3.3255268e-07  17.173414      25.76012       34.346827      15194.666    
        68   0             -10052.606      6.8656743e-07  3.2446381e-07  5.2137233e-07  1.2138662e-06 -0.74782998    -1.3843975e-07 -2.3898882e-07  17.173414      25.76012       34.346827      15194.666    
        69   0             -10052.606      6.6460161e-08 -2.8407663e-07 -3.3668265e-08  5.1712538e-07 -0.74783015    -1.5835067e-07 -3.2004739e-07  17.173414      25.76012       34.346827      15194.666    
        70   0             -10052.606     -2.8763184e-08 -3.2798486e-07  1.6312778e-07  7.8567526e-08 -0.74783022    -1.0545505e-07 -1.8775431e-07  17.173414      25.76012       34.346827      15194.666    
        71   0             -10052.606      2.9135814e-07  7.7083509e-09  5.7163414e-07  2.9473194e-07 -0.7478302     -5.4247339e-08 -7.9344749e-08  17.173414      25.76012       34.346827      15194.666    
        72   0             -10052.606      5.3720966e-07  2.1294867e-07  5.8678814e-07  8.1189216e-07 -0.74783007    -1.6577806e-08 -4.5859399e-08  17.173414      25.76012       34.346827      15194.666    
        73   0             -10052.606      2.4051126e-07 -9.4086871e-08  2.3157344e-07  5.8404721e-07 -0.74783        1.4138766e-08  2.0871481e-08  17.173414      25.76012       34.346827      15194.666    
        74   0             -10052.606      9.1282291e-08 -2.2482802e-07  1.8749738e-07  3.1117751e-07 -0.74783        4.7642297e-08  1.050418e-07   17.173414      25.76012       34.346827      15194.666    
        75   0             -10052.606      2.0993369e-07 -9.2808234e-08  3.8126911e-07  3.4134018e-07 -0.74783004     6.7113052e-08  1.3447085e-07  17.173414      25.76012       34.346827      15194.666    
        76   0             -10052.606      4.220157e-07   1.0821566e-07  5.3105581e-07  6.2677561e-07 -0.74783008     4.5935714e-08  5.7113e-08     17.173414      25.76012       34.346827      15194.666    
        77   0             -10052.606      3.0706504e-07 -1.6361468e-08  3.6164966e-07  5.7590694e-07 -0.74783008    -6.3083863e-09 -2.8544325e-08  17.173414      25.76012       34.346827      15194.666    
        78   0             -10052.606      1.9720272e-07 -1.2259348e-07  2.7212938e-07  4.4207226e-07 -0.74783007    -3.7263117e-08 -5.6597678e-08  17.173414      25.76012       34.346827      15194.666    
        79   0             -10052.606      2.167593e-07  -9.5856155e-08  3.3232444e-07  4.1380961e-07 -0.74783007    -3.6383041e-08 -4.3733861e-08  17.173414      25.76012       34.346827      15194.666    
        80   0             -10052.606      3.1528233e-07  2.1454854e-09  4.2825926e-07  5.1544226e-07 -0.74783009    -9.1778993e-09 -1.6547111e-08  17.173414      25.76012       34.346827      15194.666    
        81   0             -10052.606      3.0105364e-07 -1.7009825e-08  3.8633702e-07  5.3383374e-07 -0.74783008     6.5100319e-09 -1.9293822e-09  17.173414      25.76012       34.346827      15194.666    
        82   0             -10052.606      2.5468526e-07 -6.3493312e-08  3.3871013e-07  4.8883895e-07 -0.74783007     6.1816862e-09  6.0557235e-09  17.173414      25.76012       34.346827      15194.666    
        83   0             -10052.606      2.4448622e-07 -7.1301309e-08  3.4188936e-07  4.6287061e-07 -0.74783006     2.9629664e-09  1.1794749e-08  17.173414      25.76012       34.346827      15194.666    
        84   0             -10052.606      2.8303587e-07 -3.1615215e-08  3.8738162e-07  4.933412e-07  -0.74783006     4.4858148e-09  1.2829867e-08  17.173414      25.76012       34.346827      15194.666    
        85   0             -10052.606      2.8891428e-07 -2.7268989e-08  3.8475364e-07  5.0925819e-07 -0.74783007     5.8127421e-09  6.5000345e-09  17.173414      25.76012       34.346827      15194.666    
        86   0             -10052.606      2.7020413e-07 -4.6679315e-08  3.6162718e-07  4.9566453e-07 -0.74783007     2.1574261e-09 -1.0326594e-09  17.173414      25.76012       34.346827      15194.666    
        87   0             -10052.606      2.5942938e-07 -5.6938947e-08  3.5385543e-07  4.8137166e-07 -0.74783007    -3.5663344e-09 -6.3172716e-09  17.173414      25.76012       34.346827      15194.666    
        88   0             -10052.606      2.7299532e-07 -4.2431518e-08  3.7281585e-07  4.8860163e-07 -0.74783007    -5.9831194e-09 -6.8156083e-09  17.173414      25.76012       34.346827      15194.666    
        89   0             -10052.606      2.7947629e-07 -3.6309921e-08  3.7721714e-07  4.9752166e-07 -0.74783007    -2.5662661e-09 -3.8211044e-09  17.173414      25.76012       34.346827      15194.666    
        90   0             -10052.606      2.7419326e-07 -4.2097834e-08  3.6913428e-07  4.9554334e-07 -0.74783007     5.521752e-10  -7.7913036e-10  17.173414      25.76012       34.346827      15194.666    
        91   0             -10052.606      2.6838063e-07 -4.7903353e-08  3.6324147e-07  4.8980376e-07 -0.74783007     1.7000038e-09  1.4066958e-09  17.173414      25.76012       34.346827      15194.666    
        92   0             -10052.606      2.7126434e-07 -4.4580375e-08  3.6870095e-07  4.8967246e-07 -0.74783007     6.9885845e-10  2.1243082e-09  17.173414      25.76012       34.346827      15194.666    
        93   0             -10052.606      2.7467738e-07 -4.1211413e-08  3.7212282e-07  4.9312074e-07 -0.74783007     2.6160658e-10  1.4459479e-09  17.173414      25.76012       34.346827      15194.666    
        94   0             -10052.606      2.7372041e-07 -4.2342829e-08  3.6985755e-07  4.9364651e-07 -0.74783007     4.5003544e-10  7.9766185e-10  17.173414      25.76012       34.346827      15194.666    
        95   0             -10052.606      2.7124499e-07 -4.4950396e-08  3.6676655e-07  4.919188e-07  -0.74783007     5.2020458e-10  1.5300479e-11  17.173414      25.76012       34.346827      15194.666    
Loop time of 0.149303 on 4 procs for 91 steps with 1344 atoms

78.5% CPU use with 4 MPI tasks x 1 OpenMP threads

Minimization stats:
  Stopping criterion = force tolerance
  Energy initial, next-to-last, final = 
      -10052.606205838  -10052.6062069729  -10052.6062069729
  Force two-norm initial, final = 0.0075785679 8.5268982e-11
  Force max component initial, final = 0.00044020181 5.4350968e-12
  Final line search alpha, max atom move = 1 5.4350968e-12
  Iterations, force evaluations = 91 182

MPI task timing breakdown:
Section |  min time  |  avg time  |  max time  |%varavg| %total
---------------------------------------------------------------
Pair    | 0.13701    | 0.13819    | 0.13975    |   0.3 | 92.56
Neigh   | 0          | 0          | 0          |   0.0 |  0.00
Comm    | 0.006622   | 0.008157   | 0.009378   |   1.2 |  5.46
Output  | 0.001179   | 0.0012373  | 0.001389   |   0.3 |  0.83
Modify  | 0          | 0          | 0          |   0.0 |  0.00
Other   |            | 0.001719   |            |       |  1.15

Nlocal:            336 ave         342 max         333 min
Histogram: 1 1 1 0 0 0 0 0 0 1
Nghost:            981 ave         984 max         975 min
Histogram: 1 0 0 0 0 0 0 1 1 1
Neighs:           7104 ave        7240 max        7034 min
Histogram: 1 1 1 0 0 0 0 0 0 1
FullNghs:        14208 ave       14472 max       14076 min
Histogram: 1 1 1 0 0 0 0 0 0 1

Total # of neighbors = 56832
Ave neighs/atom = 42.285714
Neighbor list builds = 0
Dangerous builds = 0

# Obtain new stress tensor

variable tmp equal pe
variable e1 equal ${tmp}
variable e1 equal -10052.6062069729
variable tmp equal press
variable p1 equal ${tmp}
variable p1 equal 2.7124498719563e-07
variable tmp equal pxx
variable pxx1 equal ${tmp}
variable pxx1 equal -4.49503957086342e-08
variable tmp equal pyy
variable pyy1 equal ${tmp}
variable pyy1 equal 3.66766552583585e-07
variable tmp equal pzz
variable pzz1 equal ${tmp}
variable pzz1 equal 4.91918804711939e-07
variable tmp equal pxy
variable pxy1 equal ${tmp}
variable pxy1 equal -0.747830069563113
variable tmp equal pxz
variable pxz1 equal ${tmp}
variable pxz1 equal 5.20204578959252e-10
variable tmp equal pyz
variable pyz1 equal ${tmp}
variable pyz1 equal 1.53004789859744e-11

# Compute elastic constant from pressure tensor

variable C1pos equal ${d1}
variable C1pos equal 4.46819876120845e-06
variable C2pos equal ${d2}
variable C2pos equal -3.66487280795758e-05
variable C3pos equal ${d3}
variable C3pos equal -4.91910188680926e-05
variable C4pos equal ${d4}
variable C4pos equal -6.78036863097375e-09
variable C5pos equal ${d5}
variable C5pos equal -4.53361562547591e-08
variable C6pos equal ${d6}
variable C6pos equal 74.7830069584279

# Combine positive and negative

variable C1${dir} equal 0.5*(${C1neg}+${C1pos})
variable C16 equal 0.5*(${C1neg}+${C1pos})
variable C16 equal 0.5*(-4.46562331715573e-06+${C1pos})
variable C16 equal 0.5*(-4.46562331715573e-06+4.46819876120845e-06)
variable C2${dir} equal 0.5*(${C2neg}+${C2pos})
variable C26 equal 0.5*(${C2neg}+${C2pos})
variable C26 equal 0.5*(3.66419289072766e-05+${C2pos})
variable C26 equal 0.5*(3.66419289072766e-05+-3.66487280795758e-05)
variable C3${dir} equal 0.5*(${C3neg}+${C3pos})
variable C36 equal 0.5*(${C3neg}+${C3pos})
variable C36 equal 0.5*(4.92055911988055e-05+${C3pos})
variable C36 equal 0.5*(4.92055911988055e-05+-4.91910188680926e-05)
variable C4${dir} equal 0.5*(${C4neg}+${C4pos})
variable C46 equal 0.5*(${C4neg}+${C4pos})
variable C46 equal 0.5*(1.15636706307206e-08+${C4pos})
variable C46 equal 0.5*(1.15636706307206e-08+-6.78036863097375e-09)
variable C5${dir} equal 0.5*(${C5neg}+${C5pos})
variable C56 equal 0.5*(${C5neg}+${C5pos})
variable C56 equal 0.5*(3.75887522816009e-08+${C5pos})
variable C56 equal 0.5*(3.75887522816009e-08+-4.53361562547591e-08)
variable C6${dir} equal 0.5*(${C6neg}+${C6pos})
variable C66 equal 0.5*(${C6neg}+${C6pos})
variable C66 equal 0.5*(74.7830069321864+${C6pos})
variable C66 equal 0.5*(74.7830069321864+74.7830069584279)

# Delete dir to make sure it is not reused

variable dir delete

# Output final values

variable C11all equal ${C11}
variable C11all equal 246.266852056891
variable C22all equal ${C22}
variable C22all equal 246.266852070593
variable C33all equal ${C33}
variable C33all equal 246.266852057519

variable C12all equal 0.5*(${C12}+${C21})
variable C12all equal 0.5*(29.4167943561097+${C21})
variable C12all equal 0.5*(29.4167943561097+29.4167943568871)
variable C13all equal 0.5*(${C13}+${C31})
variable C13all equal 0.5*(29.4167943519234+${C31})
variable C13all equal 0.5*(29.4167943519234+29.4167943635553)
variable C23all equal 0.5*(${C23}+${C32})
variable C23all equal 0.5*(29.4167943533892+${C32})
variable C23all equal 0.5*(29.4167943533892+29.4167943535344)

variable C44all equal ${C44}
variable C44all equal 74.7830069422511
variable C55all equal ${C55}
variable C55all equal 74.7830069479071
variable C66all equal ${C66}
variable C66all equal 74.7830069453072

variable C14all equal 0.5*(${C14}+${C41})
variable C14all equal 0.5*(-3.4183166518018e-09+${C41})
variable C14all equal 0.5*(-3.4183166518018e-09+4.15758951977557e-09)
variable C15all equal 0.5*(${C15}+${C51})
variable C15all equal 0.5*(-1.01144711889017e-09+${C51})
variable C15all equal 0.5*(-1.01144711889017e-09+1.4177103419765e-09)
variable C16all equal 0.5*(${C16}+${C61})
variable C16all equal 0.5*(1.28772202635969e-09+${C61})
variable C16all equal 0.5*(1.28772202635969e-09+-6.64943317240551e-10)

variable C24all equal 0.5*(${C24}+${C42})
variable C24all equal 0.5*(-9.78668740040177e-10+${C42})
variable C24all equal 0.5*(-9.78668740040177e-10+2.9442046779912e-09)
variable C25all equal 0.5*(${C25}+${C52})
variable C25all equal 0.5*(2.57544405269991e-09+${C52})
variable C25all equal 0.5*(2.57544405269991e-09+-3.79171164933115e-09)
variable C26all equal 0.5*(${C26}+${C62})
variable C26all equal 0.5*(-3.39958614959938e-09+${C62})
variable C26all equal 0.5*(-3.39958614959938e-09+2.669004550146e-10)

variable C34all equal 0.5*(${C34}+${C43})
variable C34all equal 0.5*(-9.04683256340046e-09+${C43})
variable C34all equal 0.5*(-9.04683256340046e-09+-2.99394914398239e-09)
variable C35all equal 0.5*(${C35}+${C53})
variable C35all equal 0.5*(-2.07908574440029e-09+${C53})
variable C35all equal 0.5*(-2.07908574440029e-09+-2.30439131638395e-09)
variable C36all equal 0.5*(${C36}+${C63})
variable C36all equal 0.5*(7.28616535645139e-09+${C63})
variable C36all equal 0.5*(7.28616535645139e-09+-2.94538154354028e-09)

variable C45all equal 0.5*(${C45}+${C54})
variable C45all equal 0.5*(3.24096220907957e-09+${C54})
variable C45all equal 0.5*(3.24096220907957e-09+-1.0243243391528e-09)
variable C46all equal 0.5*(${C46}+${C64})
variable C46all equal 0.5*(2.39165099987343e-09+${C64})
variable C46all equal 0.5*(2.39165099987343e-09+1.8730502201655e-10)
variable C56all equal 0.5*(${C56}+${C65})
variable C56all equal 0.5*(-3.8737019865791e-09+${C65})
variable C56all equal 0.5*(-3.8737019865791e-09+-2.32726489855525e-09)

# Average moduli for cubic crystals

variable C11cubic equal (${C11all}+${C22all}+${C33all})/3.0
variable C11cubic equal (246.266852056891+${C22all}+${C33all})/3.0
variable C11cubic equal (246.266852056891+246.266852070593+${C33all})/3.0
variable C11cubic equal (246.266852056891+246.266852070593+246.266852057519)/3.0
variable C12cubic equal (${C12all}+${C13all}+${C23all})/3.0
variable C12cubic equal (29.4167943564984+${C13all}+${C23all})/3.0
variable C12cubic equal (29.4167943564984+29.4167943577393+${C23all})/3.0
variable C12cubic equal (29.4167943564984+29.4167943577393+29.4167943534618)/3.0
variable C44cubic equal (${C44all}+${C55all}+${C66all})/3.0
variable C44cubic equal (74.7830069422511+${C55all}+${C66all})/3.0
variable C44cubic equal (74.7830069422511+74.7830069479071+${C66all})/3.0
variable C44cubic equal (74.7830069422511+74.7830069479071+74.7830069453072)/3.0

variable bulkmodulus equal (${C11cubic}+2*${C12cubic})/3.0
variable bulkmodulus equal (246.266852061668+2*${C12cubic})/3.0
variable bulkmodulus equal (246.266852061668+2*29.4167943558998)/3.0
variable shearmodulus1 equal ${C44cubic}
variable shearmodulus1 equal 74.7830069451551
variable shearmodulus2 equal (${C11cubic}-${C12cubic})/2.0
variable shearmodulus2 equal (246.266852061668-${C12cubic})/2.0
variable shearmodulus2 equal (246.266852061668-29.4167943558998)/2.0
variable poissonratio equal 1.0/(1.0+${C11cubic}/${C12cubic})
variable poissonratio equal 1.0/(1.0+246.266852061668/${C12cubic})
variable poissonratio equal 1.0/(1.0+246.266852061668/29.4167943558998)

# For Stillinger-Weber silicon, the analytical results
# are known to be (E. R. Cowley, 1988):
#               C11 = 151.4 GPa
#               C12 = 76.4 GPa
#               C44 = 56.4 GPa

print "========================================="
=========================================
print "Components of the Elastic Constant Tensor"
Components of the Elastic Constant Tensor
print "========================================="
=========================================

print "Elastic Constant C11all = ${C11all} ${cunits}"
Elastic Constant C11all = 246.266852056891 GPa
print "Elastic Constant C22all = ${C22all} ${cunits}"
Elastic Constant C22all = 246.266852070593 GPa
print "Elastic Constant C33all = ${C33all} ${cunits}"
Elastic Constant C33all = 246.266852057519 GPa

print "Elastic Constant C12all = ${C12all} ${cunits}"
Elastic Constant C12all = 29.4167943564984 GPa
print "Elastic Constant C13all = ${C13all} ${cunits}"
Elastic Constant C13all = 29.4167943577393 GPa
print "Elastic Constant C23all = ${C23all} ${cunits}"
Elastic Constant C23all = 29.4167943534618 GPa

print "Elastic Constant C44all = ${C44all} ${cunits}"
Elastic Constant C44all = 74.7830069422511 GPa
print "Elastic Constant C55all = ${C55all} ${cunits}"
Elastic Constant C55all = 74.7830069479071 GPa
print "Elastic Constant C66all = ${C66all} ${cunits}"
Elastic Constant C66all = 74.7830069453072 GPa

print "Elastic Constant C14all = ${C14all} ${cunits}"
Elastic Constant C14all = 3.69636433986885e-10 GPa
print "Elastic Constant C15all = ${C15all} ${cunits}"
Elastic Constant C15all = 2.03131611543165e-10 GPa
print "Elastic Constant C16all = ${C16all} ${cunits}"
Elastic Constant C16all = 3.11389354559569e-10 GPa

print "Elastic Constant C24all = ${C24all} ${cunits}"
Elastic Constant C24all = 9.82767968975512e-10 GPa
print "Elastic Constant C25all = ${C25all} ${cunits}"
Elastic Constant C25all = -6.0813379831562e-10 GPa
print "Elastic Constant C26all = ${C26all} ${cunits}"
Elastic Constant C26all = -1.56634284729239e-09 GPa

print "Elastic Constant C34all = ${C34all} ${cunits}"
Elastic Constant C34all = -6.02039085369142e-09 GPa
print "Elastic Constant C35all = ${C35all} ${cunits}"
Elastic Constant C35all = -2.19173853039212e-09 GPa
print "Elastic Constant C36all = ${C36all} ${cunits}"
Elastic Constant C36all = 2.17039190645555e-09 GPa

print "Elastic Constant C45all = ${C45all} ${cunits}"
Elastic Constant C45all = 1.10831893496338e-09 GPa
print "Elastic Constant C46all = ${C46all} ${cunits}"
Elastic Constant C46all = 1.28947801094499e-09 GPa
print "Elastic Constant C56all = ${C56all} ${cunits}"
Elastic Constant C56all = -3.10048344256717e-09 GPa

print "========================================="
=========================================
print "Average properties for a cubic crystal"
Average properties for a cubic crystal
print "========================================="
=========================================

print "Bulk Modulus = ${bulkmodulus} ${cunits}"
Bulk Modulus = 101.700146924489 GPa
print "Shear Modulus 1 = ${shearmodulus1} ${cunits}"
Shear Modulus 1 = 74.7830069451551 GPa
print "Shear Modulus 2 = ${shearmodulus2} ${cunits}"
Shear Modulus 2 = 108.425028852884 GPa
print "Poisson Ratio = ${poissonratio}"
Poisson Ratio = 0.106704894316957
Total wall time: 0:00:01
