LAMMPS (22 Dec 2022)
  using 1 OpenMP thread(s) per MPI task
Loaded 1 plugins from C:\Program Files\LAMMPS 64-bit 23Jun2022\plugins
Loaded 0 plugins from C:\Program Files\LAMMPS 64-bit 23Jun2022-MPI\plugins
Loaded 1 plugins from C:\Program Files\LAMMPS 64-bit 22Dec2022-MSMPI\plugins
Loaded 1 plugins from C:\Program Files\LAMMPS 64-bit 28Mar2023-MPI\plugins
# Compute elastic constant tensor for a crystal
#
# Written by Aidan Thompson (Sandia, athomps@sandia.gov)
#
#  This script uses the following three include files.
#
#   init.mod      (must be modified for different crystal structures)
# 	       	  Define units, deformation parameters and initial
#		  configuration of the atoms and simulation cell.
#
#
#   potential.mod    (must be modified for different pair styles)
# 		     Define pair style and other attributes
#		     not stored in restart file
#
#
#   displace.mod    (displace.mod should not need to be modified)
# 		    Perform positive and negative box displacements
# 		    in direction ${dir} and size ${up}.
# 		    It uses the resultant changes
#		    in stress to compute one
# 		    row of the elastic stiffness tensor
#
#		    Inputs variables:
#		    	   dir = the Voigt deformation component
#		    		    (1,2,3,4,5,6)
#		    Global constants:
#       	    	   up = the deformation magnitude (strain units)
#       		   cfac = conversion from LAMMPS pressure units to
#               	   output units for elastic constants
#
#
#  To run this on a different system, it should only be necessary to
#  modify the files init.mod and potential.mod. In order to calculate
#  the elastic constants correctly, care must be taken to specify
#  the correct units in init.mod (units, cfac and cunits). It is also
#  important to verify that the minimization of energy w.r.t atom
#  positions in the deformed cell is fully converged.
#  One indication of this is that the elastic constants are insensitive
#  to the choice of the variable ${up} in init.mod. Another is to check
#  the final max and two-norm forces reported in the log file. If you know
#  that minimization is not required, you can set maxiter = 0.0 in
#  init.mod.
#

include init.mod
# NOTE: This script can be modified for different atomic structures,
# units, etc. See in.elastic for more info.
#

# Define the finite deformation size. Try several values of this
# variable to verify that results do not depend on it.
variable up equal 1.0e-6

# Define the amount of random jiggle for atoms
# This prevents atoms from staying on saddle points
variable atomjiggle equal 1.0e-5

# Uncomment one of these blocks, depending on what units
# you are using in LAMMPS and for output

# metal units, elastic constants in eV/A^3
#units		metal
#variable cfac equal 6.2414e-7
#variable cunits string eV/A^3

# metal units, elastic constants in GPa
units		metal
variable cfac equal 1.0e-4
variable cunits string GPa

# real units, elastic constants in GPa
#units		real
#variable cfac equal 1.01325e-4
#variable cunits string GPa

# Define minimization parameters
variable etol equal 0.0
variable ftol equal 1.0e-10
variable maxiter equal 100
variable maxeval equal 1000
variable dmax equal 1.0e-2

# generate the box and atom positions using a diamond lattice

dimension    3
boundary     p p p
read_data    data.in
Reading data file ...
  orthogonal box = (0 0 0) to (8.5333515 8.5333515 8.5333515)
  1 by 2 by 2 MPI processor grid
  reading atoms ...
  56 atoms
  read_data CPU = 0.001 seconds
replicate    2 3 4
Replication is creating a 2x3x4 = 24 times larger system...
  orthogonal box = (0 0 0) to (17.066703 25.600055 34.133406)
  1 by 2 by 2 MPI processor grid
  1344 atoms
  replicate CPU = 0.000 seconds
change_box   all triclinic
Changing box ...
  triclinic box = (0 0 0) to (17.066703 25.600055 34.133406) with tilt (0 0 0)

# Need to set mass to something, just to satisfy LAMMPS
mass 1 1.0e-20

include potential.mod
# NOTE: This script can be modified for different pair styles
# See in.elastic for more info.

# Choose potential
#-----------------------
#pair_style	sw
#pair_coeff * * Si.sw Si
#-----------------------
#pair_style morse	2.83994742	# D0[eV] a[1/A] r0[A] rc[A], 1NN for BCC
#pair_coeff 1 1	2.1173	1.0202	2.4595	2.6497	#	Fe-Fe
#-----------------------
#pair_style smatb # R0(A)   p       q     A(eV)   xi(eV)  Rcs(A)   Rc(A), 4NN: Rcs=4NN, Rc=(4NN+5NN)/2
#pair_coeff 1 1	2.4802	7.0149	2.3779	0.3144	3.0551	4.033	4.176	#	Co	Co
#-----------------------
#pair_style eam/alloy
#pair_coeff * * AlCrFeCoNi_Zhou04.eam.alloy Fe
#-----------------------
pair_style meam
pair_coeff * * ./../../library.meam Fe Cr Ni O ./../../FeCrNiO.meam Fe O
#-----------------------

# Setup neighbor style
neighbor 1.0 nsq
neigh_modify once no every 1 delay 0 check yes

# Setup minimization style
min_style	     cg
min_modify	     dmax ${dmax} line quadratic
min_modify	     dmax 0.01 line quadratic

# Setup output
thermo		1
thermo_style custom step temp pe press pxx pyy pzz pxy pxz pyz lx ly lz vol
thermo_modify norm no

# Compute initial state
fix 3 all box/relax  aniso 0.0
minimize ${etol} ${ftol} ${maxiter} ${maxeval}
minimize 0 ${ftol} ${maxiter} ${maxeval}
minimize 0 1e-10 ${maxiter} ${maxeval}
minimize 0 1e-10 100 ${maxeval}
minimize 0 1e-10 100 1000
Neighbor list info ...
  update: every = 1 steps, delay = 0 steps, check = yes
  max neighbors/atom: 2000, page size: 100000
  master list distance cutoff = 5
  ghost atom cutoff = 5
  2 neighbor lists, perpetual/occasional/extra = 2 0 0
  (1) pair meam, perpetual
      attributes: full, newton on
      pair build: full/nsq
      stencil: none
      bin: none
  (2) pair meam, perpetual, half/full from (1)
      attributes: half, newton on
      pair build: halffull/newton
      stencil: none
      bin: none
Per MPI rank memory allocation (min/avg/max) = 10.05 | 10.05 | 10.06 Mbytes
   Step          Temp          PotEng         Press           Pxx            Pyy            Pzz            Pxy            Pxz            Pyz             Lx             Ly             Lz           Volume    
         0   0             -8217.7829      9944.3899      9944.3899      9944.3899      9944.3899     -4.2175738e-11 -9.8235118e-11  2.8287325e-10  17.066703      25.600055      34.133406      14913.176    
         1   0             -8217.8283      9533.342       9533.342       9533.342       9533.342      -6.5057072e-11  8.6138616e-11  9.0622021e-11  17.06841       25.602615      34.13682       14917.651    
         2   0             -8217.8733      9122.7485      9122.7485      9122.7485      9122.7485     -1.5448805e-10  9.9654327e-11 -3.3806181e-11  17.070116      25.605175      34.140233      14922.126    
         3   0             -8217.9181      8712.6084      8712.6084      8712.6084      8712.6084     -1.2431605e-10  3.6274737e-11 -8.8851656e-11  17.071823      25.607735      34.143646      14926.602    
         4   0             -8217.9626      8302.9202      8302.9202      8302.9202      8302.9202     -9.8736818e-11 -9.9403959e-11  2.476998e-10   17.07353       25.610295      34.14706       14931.079    
         5   0             -8218.007       7893.6826      7893.6826      7893.6826      7893.6826     -4.9163053e-11 -1.7497664e-10  5.7452172e-11  17.075236      25.612855      34.150473      14935.557    
         6   0             -8218.0514      7484.8939      7484.8939      7484.8939      7484.8939     -5.1434282e-11 -2.5193274e-11 -3.295604e-11   17.076943      25.615415      34.153886      14940.036    
         7   0             -8218.0959      7076.5522      7076.5522      7076.5522      7076.5522      1.0340905e-10 -1.4268735e-10  1.4368716e-10  17.07865       25.617975      34.1573        14944.516    
         8   0             -8218.1407      6668.6554      6668.6554      6668.6554      6668.6554      5.5020733e-11 -8.8861339e-11  1.548291e-10   17.080356      25.620535      34.160713      14948.997    
         9   0             -8218.1858      6261.201       6261.201       6261.201       6261.201       3.8636198e-11  3.0975573e-11  2.9138926e-10  17.082063      25.623095      34.164126      14953.478    
        10   0             -8218.2316      5854.1859      5854.1859      5854.1859      5854.1859      5.9934755e-11 -1.8551234e-12  4.3809452e-11  17.08377       25.625655      34.16754       14957.961    
        11   0             -8218.2782      5447.6052      5447.6052      5447.6052      5447.6052      2.3396082e-11  1.6082429e-10  1.0133547e-10  17.085476      25.628215      34.170953      14962.444    
        12   0             -8218.3259      5041.4544      5041.4544      5041.4544      5041.4544     -2.0917057e-11  3.4132834e-11  1.0914901e-10  17.087183      25.630775      34.174366      14966.928    
        13   0             -8218.3752      4635.7278      4635.7278      4635.7278      4635.7278     -8.8965909e-11  2.8514714e-11  6.5108598e-11  17.08889       25.633335      34.17778       14971.413    
        14   0             -8218.4264      4230.4194      4230.4194      4230.4194      4230.4194     -1.5963457e-11  9.1362284e-11  1.1445228e-10  17.090596      25.635895      34.181193      14975.899    
        15   0             -8218.4802      3825.5213      3825.5213      3825.5213      3825.5213     -3.2487304e-11 -2.8972595e-11  6.8299331e-11  17.092303      25.638455      34.184606      14980.386    
        16   0             -8218.5374      3421.0232      3421.0232      3421.0232      3421.0232     -5.4319217e-11 -2.3171135e-11  3.1437722e-10  17.09401       25.641015      34.18802       14984.874    
        17   0             -8218.5989      3016.9115      3016.9115      3016.9115      3016.9115     -1.0404901e-10 -6.9350184e-11  4.9461254e-11  17.095716      25.643575      34.191433      14989.363    
        18   0             -8218.6663      2613.167       2613.167       2613.167       2613.167      -5.9981099e-11 -1.4648865e-10 -6.4109545e-11  17.097423      25.646135      34.194846      14993.853    
        19   0             -8218.7418      2209.7622      2209.7622      2209.7622      2209.7622     -9.2221792e-11  7.1965256e-11 -6.5228891e-11  17.09913       25.648695      34.19826       14998.343    
        20   0             -8218.8286      1806.6545      1806.6545      1806.6545      1806.6545     -8.9158984e-11  1.6456472e-11  1.0969401e-10  17.100836      25.651255      34.201673      15002.834    
        21   0             -8218.9323      1403.7734      1403.7734      1403.7734      1403.7734     -2.446397e-11   1.6551109e-10  2.3411451e-10  17.102543      25.653815      34.205086      15007.327    
        22   0             -8219.0632      1000.9882      1000.9882      1000.9882      1000.9882     -1.0901219e-10  8.4460749e-11 -7.370172e-11   17.10425       25.656375      34.2085        15011.82     
        23   0             -8219.2442      598.01183      598.01183      598.01183      598.01183      1.0499944e-10 -9.6612754e-11  1.7635737e-10  17.105956      25.658935      34.211913      15016.314    
        24   0             -8219.5443      193.98035      193.98035      193.98035      193.98035      4.7936659e-11 -1.1259431e-10  4.3559834e-10  17.107663      25.661495      34.215326      15020.809    
        25   0             -8220.4643     -217.32495     -217.32495     -217.32495     -217.32495      1.2122641e-10 -1.2605653e-10  3.2106057e-11  17.10937       25.664055      34.21874       15025.305    
        26   0             -8221.2839      172.48383      172.48383      172.48383      172.48383      8.0715481e-11 -7.1999725e-11  2.2713071e-10  17.107663      25.661495      34.215326      15020.809    
        27   0             -8222.3146     -239.93042     -239.93042     -239.93042     -239.93042      1.5475309e-10 -7.3067325e-11  1.2354676e-10  17.10937       25.664055      34.21874       15025.305    
        28   0             -8223.0537      151.16621      151.16621      151.16621      151.16621      1.5100995e-10 -1.6720989e-11  8.6210197e-11  17.107663      25.661495      34.215326      15020.809    
        29   0             -8224.2245     -262.62428     -262.62428     -262.62428     -262.62428      2.0741081e-10 -9.9585602e-11  1.0640459e-10  17.10937       25.664055      34.21874       15025.305    
        30   0             -8224.8967      129.56274      129.56274      129.56274      129.56274      1.7696775e-10  5.0210335e-12  8.5689147e-11  17.107663      25.661495      34.215326      15020.809    
        31   0             -8226.2561     -286.0483      -286.0483      -286.0483      -286.0483       1.8411261e-10 -1.3765827e-10  1.548478e-10   17.10937       25.664055      34.21874       15025.305    
        32   0             -8226.8702      107.10379      107.10379      107.10379      107.10379      2.06715e-10   -2.0354133e-10  3.5549864e-10  17.107663      25.661495      34.215326      15020.809    
        33   0             -8228.5062     -311.12672     -311.12672     -311.12672     -311.12672      2.8980689e-10 -3.0150334e-10  4.1212244e-10  17.10937       25.664055      34.21874       15025.305    
        34   0             -8229.0676      82.920394      82.920394      82.920394      82.920394      2.3722015e-10 -1.8843086e-10  5.5847155e-11  17.107663      25.661495      34.215326      15020.809    
        35   0             -8231.1682     -339.6158      -339.6158      -339.6158      -339.6158       3.3602446e-10 -1.6564453e-10  1.0095887e-10  17.10937       25.664055      34.21874       15025.305    
        36   0             -8231.6793      55.31542       55.31542       55.31542       55.31542       3.9126166e-10 -2.5450956e-10  1.2467321e-10  17.107663      25.661495      34.215326      15020.809    
        37   0             -8234.8058     -376.44993     -376.44993     -376.44993     -376.44993      4.8452681e-10 -1.163963e-10   6.1560287e-11  17.10937       25.664055      34.21874       15025.305    
        38   0             -8235.2628      19.47137       19.47137       19.47137       19.47137       2.5180957e-10 -2.848726e-10   1.9122559e-10  17.107663      25.661495      34.215326      15020.809    
        39   0             -8244.0339     -458.8201      -458.8201      -458.8201      -458.8201       3.9625883e-10 -2.1441921e-10  2.7972047e-10  17.10937       25.664055      34.21874       15025.305    
        40   0             -8244.4005     -61.054789     -61.054789     -61.054789     -61.054789      2.9036731e-10 -1.9548873e-10  2.4323591e-10  17.107663      25.661495      34.215326      15020.809    
        41   0             -8247.1442      319.12548      319.12548      319.12548      319.12548      3.2030516e-10 -2.4368778e-10  1.7360919e-10  17.105956      25.658935      34.211913      15016.314    
        42   0             -8247.6666     -85.976468     -85.976468     -85.976468     -85.976468      2.105992e-10  -2.4001487e-10  2.4984378e-10  17.107663      25.661495      34.215326      15020.809    
        43   0             -8249.5995      301.59373      301.59373      301.59373      301.59373      2.6496249e-10 -4.0796263e-10  1.722351e-11   17.105956      25.658935      34.211913      15016.314    
        44   0             -8250.1488     -103.53237     -103.53237     -103.53237     -103.53237      3.0154622e-10 -1.4006789e-10  2.1483865e-10  17.107663      25.661495      34.215326      15020.809    
        45   0             -8251.7439      287.24719      287.24719      287.24719      287.24719      2.1691672e-10 -1.557934e-10   1.7581247e-10  17.105956      25.658935      34.211913      15016.314    
        46   0             -8252.3173     -117.88147     -117.88147     -117.88147     -117.88147      2.3703067e-10 -2.2859913e-10  3.4867762e-10  17.107663      25.661495      34.215326      15020.809    
        47   0             -8253.7105      274.88768      274.88768      274.88768      274.88768      1.6365888e-10 -3.0969149e-10  3.1175263e-10  17.105956      25.658935      34.211913      15016.314    
        48   0             -8254.3066     -130.22693     -130.22693     -130.22693     -130.22693      2.1353603e-10 -2.135834e-10   2.7653579e-10  17.107663      25.661495      34.215326      15020.809    
        49   0             -8255.5613      263.9586       263.9586       263.9586       263.9586       1.9824804e-10 -2.7259106e-10  2.0568708e-10  17.105956      25.658935      34.211913      15016.314    
        50   0             -8256.1791     -141.12643     -141.12643     -141.12643     -141.12643      3.352724e-10  -2.9065152e-10  6.3426074e-11  17.107663      25.661495      34.215326      15020.809    
        51   0             -8257.3314      254.14774      254.14774      254.14774      254.14774      3.3395129e-10 -3.8318163e-10  3.7616903e-10  17.105956      25.658935      34.211913      15016.314    
        52   0             -8257.9701     -150.8958      -150.8958      -150.8958      -150.8958       4.4204042e-10 -3.4266185e-10  2.0131502e-10  17.107663      25.661495      34.215326      15020.809    
        53   0             -8259.0429      245.25905      245.25905      245.25905      245.25905      3.7062529e-10 -4.9803661e-10  2.0168327e-10  17.105956      25.658935      34.211913      15016.314    
        54   0             -8259.7018     -159.72962     -159.72962     -159.72962     -159.72962      3.4370395e-10 -2.569727e-10   3.9609323e-10  17.107663      25.661495      34.215326      15020.809    
        55   0             -8260.7107      237.16494      237.16494      237.16494      237.16494      4.0606734e-10 -4.6363698e-10  2.5543862e-10  17.105956      25.658935      34.211913      15016.314    
        56   0             -8261.389      -167.75437     -167.75437     -167.75437     -167.75437      4.5681931e-10 -4.8268237e-10  3.187172e-10   17.107663      25.661495      34.215326      15020.809    
        57   0             -8262.3455      229.7786       229.7786       229.7786       229.7786       5.0547565e-10 -2.6221431e-10  3.3710222e-10  17.105956      25.658935      34.211913      15016.314    
        58   0             -8263.0426     -175.05683     -175.05683     -175.05683     -175.05683      5.2825062e-10 -2.8065682e-10  4.0788792e-10  17.107663      25.661495      34.215326      15020.809    
        59   0             -8263.9551      223.03901      223.03901      223.03901      223.03901      4.9704158e-10 -2.7548139e-10  3.3913967e-10  17.105956      25.658935      34.211913      15016.314    
        60   0             -8264.6702     -181.69795     -181.69795     -181.69795     -181.69795      4.1816683e-10 -2.4631485e-10  3.6798017e-10  17.107663      25.661495      34.215326      15020.809    
        61   0             -8265.5456      216.90454      216.90454      216.90454      216.90454      5.1220396e-10 -1.3371319e-10  3.802913e-10   17.105956      25.658935      34.211913      15016.314    
        62   0             -8266.2777     -187.72026     -187.72026     -187.72026     -187.72026      4.3010362e-10 -1.1870481e-10  5.7201887e-10  17.107663      25.661495      34.215326      15020.809    
        63   0             -8267.1214      211.34595      211.34595      211.34595      211.34595      5.0149553e-10 -2.4681502e-10  4.3165384e-10  17.105956      25.658935      34.211913      15016.314    
        64   0             -8267.8696     -193.15223     -193.15223     -193.15223     -193.15223      3.8785115e-10 -1.2727846e-10  4.9682179e-10  17.107663      25.661495      34.215326      15020.809    
        65   0             -8268.6861      206.34171      206.34171      206.34171      206.34171      4.7552996e-10 -1.0220388e-10  3.3660471e-10  17.105956      25.658935      34.211913      15016.314    
        66   0             -8269.4491     -198.01548     -198.01548     -198.01548     -198.01548      5.045665e-10  -1.6602568e-10  1.7071514e-10  17.107663      25.661495      34.215326      15020.809    
        67   0             -8270.2422      201.87707      201.87707      201.87707      201.87707      4.7098125e-10 -2.6491511e-10  2.897198e-10   17.105956      25.658935      34.211913      15016.314    
        68   0             -8271.0188     -202.32522     -202.32522     -202.32522     -202.32522      4.1693525e-10 -2.6161479e-10  3.0846198e-10  17.107663      25.661495      34.215326      15020.809    
        69   0             -8271.7916      197.94232      197.94232      197.94232      197.94232      4.99695e-10   -2.6377793e-10  3.6974871e-10  17.105956      25.658935      34.211913      15016.314    
        70   0             -8272.5803     -206.09444     -206.09444     -206.09444     -206.09444      4.41472e-10   -1.2846267e-10  4.3739833e-10  17.107663      25.661495      34.215326      15020.809    
        71   0             -8273.3358      194.52861      194.52861      194.52861      194.52861      4.7107602e-10 -1.0097194e-10  4.5859075e-10  17.105956      25.658935      34.211913      15016.314    
        72   0             -8274.135      -209.33219     -209.33219     -209.33219     -209.33219      4.0897739e-10 -5.3431375e-11  4.1305106e-10  17.107663      25.661495      34.215326      15020.809    
        73   0             -8274.8756      191.63085      191.63085      191.63085      191.63085      4.5079634e-10 -2.056397e-11   5.3705603e-10  17.105956      25.658935      34.211913      15016.314    
        74   0             -8275.6834     -212.04307     -212.04307     -212.04307     -212.04307      5.2389274e-10  4.2915626e-11  2.5012799e-10  17.107663      25.661495      34.215326      15020.809    
        75   0             -8276.4114      189.24734      189.24734      189.24734      189.24734      5.3049357e-10 -6.3539825e-11  3.7003301e-10  17.105956      25.658935      34.211913      15016.314    
        76   0             -8277.2259     -214.23031     -214.23031     -214.23031     -214.23031      5.3687164e-10  4.3531413e-11  5.1385067e-10  17.107663      25.661495      34.215326      15020.809    
        77   0             -8277.9434      187.37736      187.37736      187.37736      187.37736      6.0270438e-10 -3.212528e-11   5.5290545e-10  17.105956      25.658935      34.211913      15016.314    
        78   0             -8278.7625     -215.89639     -215.89639     -215.89639     -215.89639      5.7220834e-10  1.1216799e-10  4.9812442e-10  17.107663      25.661495      34.215326      15020.809    
        79   0             -8279.4715      186.02055      186.02055      186.02055      186.02055      5.083186e-10   2.1132559e-11  2.875639e-10   17.105956      25.658935      34.211913      15016.314    
        80   0             -8280.293      -217.04368     -217.04368     -217.04368     -217.04368      5.7173466e-10  9.0331234e-11  3.9185377e-10  17.107663      25.661495      34.215326      15020.809    
        81   0             -8280.9952      185.17645      185.17645      185.17645      185.17645      6.2544794e-10  8.3393058e-12  3.8007808e-10  17.105956      25.658935      34.211913      15016.314    
        82   0             -8281.817      -217.67486     -217.67486     -217.67486     -217.67486      6.8551317e-10 -2.6123585e-11  1.9664925e-10  17.107663      25.661495      34.215326      15020.809    
        83   0             -8282.5142      184.84412      184.84412      184.84412      184.84412      6.5037109e-10 -3.6650302e-11  2.7176187e-10  17.105956      25.658935      34.211913      15016.314    
        84   0             -8283.334      -217.79317     -217.79317     -217.79317     -217.79317      6.1853448e-10 -1.3878894e-11  3.4943551e-10  17.107663      25.661495      34.215326      15020.809    
        85   0             -8284.0278      185.02192      185.02192      185.02192      185.02192      5.8043464e-10 -1.4181558e-10  1.7062409e-10  17.105956      25.658935      34.211913      15016.314    
        86   0             -8284.8433     -217.40262     -217.40262     -217.40262     -217.40262      6.9564998e-10  1.023154e-11   1.8940191e-10  17.107663      25.661495      34.215326      15020.809    
        87   0             -8285.5354      185.70739      185.70739      185.70739      185.70739      7.2495102e-10  6.4534855e-11  4.8614362e-10  17.105956      25.658935      34.211913      15016.314    
        88   0             -8286.3444     -216.50868     -216.50868     -216.50868     -216.50868      7.4169191e-10 -2.368412e-14   3.5057235e-10  17.107663      25.661495      34.215326      15020.809    
        89   0             -8287.0364      186.89648      186.89648      186.89648      186.89648      7.3196362e-10 -1.0826883e-11  3.1388484e-10  17.105956      25.658935      34.211913      15016.314    
        90   0             -8287.8368     -215.12018     -215.12018     -215.12018     -215.12018      7.6812338e-10 -1.3054687e-10  2.642911e-10   17.107663      25.661495      34.215326      15020.809    
        91   0             -8288.5304      188.58187      188.58187      188.58187      188.58187      8.4094318e-10 -8.7254726e-11  3.7699822e-10  17.105956      25.658935      34.211913      15016.314    
        92   0             -8289.3203     -213.24353     -213.24353     -213.24353     -213.24353      7.5059714e-10  7.0981308e-11  3.5815126e-10  17.107663      25.661495      34.215326      15020.809    
        93   0             -8290.0169      190.75883      190.75883      190.75883      190.75883      7.3063691e-10 -1.7555186e-11  3.9381898e-10  17.105956      25.658935      34.211913      15016.314    
        94   0             -8290.7945     -210.88484     -210.88484     -210.88484     -210.88484      6.7954478e-10 -6.944184e-11   3.1833826e-10  17.107663      25.661495      34.215326      15020.809    
        95   0             -8291.496       193.42365      193.42365      193.42365      193.42365      6.6591252e-10  1.1781639e-10  4.0933672e-10  17.105956      25.658935      34.211913      15016.314    
        96   0             -8292.2596     -208.04984     -208.04984     -208.04984     -208.04984      6.7992372e-10  1.0397329e-11  2.6642267e-10  17.107663      25.661495      34.215326      15020.809    
        97   0             -8292.9676      196.57431      196.57431      196.57431      196.57431      7.2646726e-10  1.5607769e-10  2.7877447e-10  17.105956      25.658935      34.211913      15016.314    
        98   0             -8293.7158     -204.7417      -204.7417      -204.7417      -204.7417       7.0341837e-10  9.2131227e-11  2.0344659e-10  17.107663      25.661495      34.215326      15020.809    
        99   0             -8294.4322      200.2077       200.2077       200.2077       200.2077       6.9462627e-10  4.5273902e-11  2.9391315e-10  17.105956      25.658935      34.211913      15016.314    
       100   0             -8295.1638     -200.96406     -200.96406     -200.96406     -200.96406      6.9896575e-10  1.1155221e-11  2.9432256e-10  17.107663      25.661495      34.215326      15020.809    
Loop time of 0.088469 on 4 procs for 100 steps with 1344 atoms

83.9% CPU use with 4 MPI tasks x 1 OpenMP threads

Minimization stats:
  Stopping criterion = max iterations
  Energy initial, next-to-last, final = 
     -8217.78285075644  -8294.43223663315  -8295.16378931036
  Force two-norm initial, final = 206.33708 116.90379
  Force max component initial, final = 92.563111 2.434551
  Final line search alpha, max atom move = 5.3447942e-05 0.00013012174
  Iterations, force evaluations = 100 100

MPI task timing breakdown:
Section |  min time  |  avg time  |  max time  |%varavg| %total
---------------------------------------------------------------
Pair    | 0.078351   | 0.078821   | 0.079197   |   0.1 | 89.09
Neigh   | 0          | 0          | 0          |   0.0 |  0.00
Comm    | 0.003381   | 0.0037328  | 0.00417    |   0.6 |  4.22
Output  | 0.001204   | 0.0012667  | 0.001432   |   0.3 |  1.43
Modify  | 0          | 0          | 0          |   0.0 |  0.00
Other   |            | 0.004649   |            |       |  5.25

Nlocal:            336 ave         344 max         328 min
Histogram: 2 0 0 0 0 0 0 0 0 2
Nghost:            981 ave         989 max         973 min
Histogram: 2 0 0 0 0 0 0 0 0 2
Neighs:           7680 ave        7856 max        7504 min
Histogram: 2 0 0 0 0 0 0 0 0 2
FullNghs:        15360 ave       15712 max       15008 min
Histogram: 2 0 0 0 0 0 0 0 0 2

Total # of neighbors = 61440
Ave neighs/atom = 45.714286
Neighbor list builds = 0
Dangerous builds = 0

variable tmp equal pxx
variable pxx0 equal ${tmp}
variable pxx0 equal -200.964061274349
variable tmp equal pyy
variable pyy0 equal ${tmp}
variable pyy0 equal -200.964061273902
variable tmp equal pzz
variable pzz0 equal ${tmp}
variable pzz0 equal -200.964061274532
variable tmp equal pyz
variable pyz0 equal ${tmp}
variable pyz0 equal 2.94322561116172e-10
variable tmp equal pxz
variable pxz0 equal ${tmp}
variable pxz0 equal 1.11552205911094e-11
variable tmp equal pxy
variable pxy0 equal ${tmp}
variable pxy0 equal 6.98965753895588e-10

variable tmp equal lx
variable lx0 equal ${tmp}
variable lx0 equal 17.107663167392
variable tmp equal ly
variable ly0 equal ${tmp}
variable ly0 equal 25.661494751088
variable tmp equal lz
variable lz0 equal ${tmp}
variable lz0 equal 34.215326334784

# These formulas define the derivatives w.r.t. strain components
# Constants uses $, variables use v_
variable d1 equal -(v_pxx1-${pxx0})/(v_delta/v_len0)*${cfac}
variable d1 equal -(v_pxx1--200.964061274349)/(v_delta/v_len0)*${cfac}
variable d1 equal -(v_pxx1--200.964061274349)/(v_delta/v_len0)*0.0001
variable d2 equal -(v_pyy1-${pyy0})/(v_delta/v_len0)*${cfac}
variable d2 equal -(v_pyy1--200.964061273902)/(v_delta/v_len0)*${cfac}
variable d2 equal -(v_pyy1--200.964061273902)/(v_delta/v_len0)*0.0001
variable d3 equal -(v_pzz1-${pzz0})/(v_delta/v_len0)*${cfac}
variable d3 equal -(v_pzz1--200.964061274532)/(v_delta/v_len0)*${cfac}
variable d3 equal -(v_pzz1--200.964061274532)/(v_delta/v_len0)*0.0001
variable d4 equal -(v_pyz1-${pyz0})/(v_delta/v_len0)*${cfac}
variable d4 equal -(v_pyz1-2.94322561116172e-10)/(v_delta/v_len0)*${cfac}
variable d4 equal -(v_pyz1-2.94322561116172e-10)/(v_delta/v_len0)*0.0001
variable d5 equal -(v_pxz1-${pxz0})/(v_delta/v_len0)*${cfac}
variable d5 equal -(v_pxz1-1.11552205911094e-11)/(v_delta/v_len0)*${cfac}
variable d5 equal -(v_pxz1-1.11552205911094e-11)/(v_delta/v_len0)*0.0001
variable d6 equal -(v_pxy1-${pxy0})/(v_delta/v_len0)*${cfac}
variable d6 equal -(v_pxy1-6.98965753895588e-10)/(v_delta/v_len0)*${cfac}
variable d6 equal -(v_pxy1-6.98965753895588e-10)/(v_delta/v_len0)*0.0001

displace_atoms all random ${atomjiggle} ${atomjiggle} ${atomjiggle} 87287 units box
displace_atoms all random 1e-05 ${atomjiggle} ${atomjiggle} 87287 units box
displace_atoms all random 1e-05 1e-05 ${atomjiggle} 87287 units box
displace_atoms all random 1e-05 1e-05 1e-05 87287 units box
Displacing atoms ...

# Write restart
unfix 3
write_restart restart.equil
System init for write_restart ...

# uxx Perturbation

variable dir equal 1
include displace.mod
# NOTE: This script should not need to be
# modified. See in.elastic for more info.
#
# Find which reference length to use

if "${dir} == 1" then    "variable len0 equal ${lx0}"
variable len0 equal ${lx0}
variable len0 equal 17.107663167392
if "${dir} == 2" then    "variable len0 equal ${ly0}"
if "${dir} == 3" then    "variable len0 equal ${lz0}"
if "${dir} == 4" then    "variable len0 equal ${lz0}"
if "${dir} == 5" then    "variable len0 equal ${lz0}"
if "${dir} == 6" then    "variable len0 equal ${ly0}"

# Reset box and simulation parameters

clear
  using 1 OpenMP thread(s) per MPI task
Loaded 1 plugins from C:\Program Files\LAMMPS 64-bit 23Jun2022\plugins
Loaded 0 plugins from C:\Program Files\LAMMPS 64-bit 23Jun2022-MPI\plugins
Loaded 1 plugins from C:\Program Files\LAMMPS 64-bit 22Dec2022-MSMPI\plugins
Loaded 1 plugins from C:\Program Files\LAMMPS 64-bit 28Mar2023-MPI\plugins
box tilt large

The 'box' command has been removed and will be ignored

read_restart restart.equil
Reading restart file ...
  restart file = 22 Dec 2022, LAMMPS = 22 Dec 2022
  restoring atom style atomic from restart
  triclinic box = (-0.020480044 -0.030720066 -0.040960087) to (17.087183 25.630775 34.174366) with tilt (0 0 0)
  1 by 2 by 2 MPI processor grid
  pair style meam stores no restart info
  1344 atoms
  read_restart CPU = 0.000 seconds
include potential.mod
# NOTE: This script can be modified for different pair styles
# See in.elastic for more info.

# Choose potential
#-----------------------
#pair_style	sw
#pair_coeff * * Si.sw Si
#-----------------------
#pair_style morse	2.83994742	# D0[eV] a[1/A] r0[A] rc[A], 1NN for BCC
#pair_coeff 1 1	2.1173	1.0202	2.4595	2.6497	#	Fe-Fe
#-----------------------
#pair_style smatb # R0(A)   p       q     A(eV)   xi(eV)  Rcs(A)   Rc(A), 4NN: Rcs=4NN, Rc=(4NN+5NN)/2
#pair_coeff 1 1	2.4802	7.0149	2.3779	0.3144	3.0551	4.033	4.176	#	Co	Co
#-----------------------
#pair_style eam/alloy
#pair_coeff * * AlCrFeCoNi_Zhou04.eam.alloy Fe
#-----------------------
pair_style meam
pair_coeff * * ./../../library.meam Fe Cr Ni O ./../../FeCrNiO.meam Fe O
#-----------------------

# Setup neighbor style
neighbor 1.0 nsq
neigh_modify once no every 1 delay 0 check yes

# Setup minimization style
min_style	     cg
min_modify	     dmax ${dmax} line quadratic
min_modify	     dmax 0.01 line quadratic

# Setup output
thermo		1
thermo_style custom step temp pe press pxx pyy pzz pxy pxz pyz lx ly lz vol
thermo_modify norm no

# Negative deformation

variable delta equal -${up}*${len0}
variable delta equal -1e-06*${len0}
variable delta equal -1e-06*17.107663167392
variable deltaxy equal -${up}*xy
variable deltaxy equal -1e-06*xy
variable deltaxz equal -${up}*xz
variable deltaxz equal -1e-06*xz
variable deltayz equal -${up}*yz
variable deltayz equal -1e-06*yz
if "${dir} == 1" then    "change_box all x delta 0 ${delta} xy delta ${deltaxy} xz delta ${deltaxz} remap units box"
change_box all x delta 0 ${delta} xy delta ${deltaxy} xz delta ${deltaxz} remap units box
change_box all x delta 0 -1.7107663167392e-05 xy delta ${deltaxy} xz delta ${deltaxz} remap units box
change_box all x delta 0 -1.7107663167392e-05 xy delta -0 xz delta ${deltaxz} remap units box
change_box all x delta 0 -1.7107663167392e-05 xy delta -0 xz delta -0 remap units box
Changing box ...
  triclinic box = (-0.020480044 -0.030720066 -0.040960087) to (17.087166 25.630775 34.174366) with tilt (0 0 0)
  triclinic box = (-0.020480044 -0.030720066 -0.040960087) to (17.087166 25.630775 34.174366) with tilt (0 0 0)
  triclinic box = (-0.020480044 -0.030720066 -0.040960087) to (17.087166 25.630775 34.174366) with tilt (0 0 0)
if "${dir} == 2" then    "change_box all y delta 0 ${delta} yz delta ${deltayz} remap units box"
if "${dir} == 3" then    "change_box all z delta 0 ${delta} remap units box"
if "${dir} == 4" then    "change_box all yz delta ${delta} remap units box"
if "${dir} == 5" then    "change_box all xz delta ${delta} remap units box"
if "${dir} == 6" then    "change_box all xy delta ${delta} remap units box"

# Relax atoms positions

minimize ${etol} ${ftol} ${maxiter} ${maxeval}
minimize 0 ${ftol} ${maxiter} ${maxeval}
minimize 0 1e-10 ${maxiter} ${maxeval}
minimize 0 1e-10 100 ${maxeval}
minimize 0 1e-10 100 1000
Neighbor list info ...
  update: every = 1 steps, delay = 0 steps, check = yes
  max neighbors/atom: 2000, page size: 100000
  master list distance cutoff = 5
  ghost atom cutoff = 5
  2 neighbor lists, perpetual/occasional/extra = 2 0 0
  (1) pair meam, perpetual
      attributes: full, newton on
      pair build: full/nsq
      stencil: none
      bin: none
  (2) pair meam, perpetual, half/full from (1)
      attributes: half, newton on
      pair build: halffull/newton
      stencil: none
      bin: none
Per MPI rank memory allocation (min/avg/max) = 10.04 | 10.04 | 10.04 Mbytes
   Step          Temp          PotEng         Press           Pxx            Pyy            Pzz            Pxy            Pxz            Pyz             Lx             Ly             Lz           Volume    
       100   0             -8295.1649     -199.61458     -197.99304     -200.42842     -200.42229      0.057448482    0.023420305   -0.025299219    17.107646      25.661495      34.215326      15020.794    
       101   0             -8348.9665      314.22242      315.87407      313.39364      313.39956      0.028503663    0.021506027   -0.022485213    17.107646      25.661495      34.215326      15020.794    
       102   0             -8398.2467      1535.9446      1537.6221      1535.1029      1535.1086      0.0059256449   0.01974056    -0.019777064    17.107646      25.661495      34.215326      15020.794    
       103   0             -8443.072       3453.7587      3455.4574      3452.9067      3452.9121     -0.011168456    0.018082839   -0.017187484    17.107646      25.661495      34.215326      15020.794    
       104   0             -8483.5042      6056.0628      6057.777       6055.2032      6055.2083     -0.023538276    0.016497227   -0.014730889    17.107646      25.661495      34.215326      15020.794    
       105   0             -8519.6002      9331.4188      9333.142       9330.5549      9330.5597     -0.031836636    0.014952585   -0.012423526    17.107646      25.661495      34.215326      15020.794    
       106   0             -8551.4128      13268.517      13270.242      13267.653      13267.657     -0.036623628    0.01342143    -0.010283486    17.107646      25.661495      34.215326      15020.794    
       107   0             -8578.9907      17856.138      17857.855      17855.277      17855.281     -0.038378742    0.011879148   -0.0083305075   17.107646      25.661495      34.215326      15020.794    
       108   0             -8602.379       23083.093      23084.793      23082.241      23082.245     -0.037511274    0.010303239   -0.0065854547   17.107646      25.661495      34.215326      15020.794    
       109   0             -8621.6195      28938.193      28939.864      28937.356      28937.359     -0.034369163    0.0086724922  -0.0050691236   17.107646      25.661495      34.215326      15020.794    
       110   0             -8636.751       35410.177      35411.804      35409.362      35409.365     -0.029246134    0.0069659748  -0.0037996103   17.107646      25.661495      34.215326      15020.794    
       111   0             -8647.8097      42487.641      42489.207      42486.858      42486.86      -0.022386095    0.0051613859  -0.0027859025   17.107646      25.661495      34.215326      15020.794    
       112   0             -8654.8296      50159.043      50160.524      50158.301      50158.303     -0.013980338    0.0032306735  -0.002008724    17.107646      25.661495      34.215326      15020.794    
       113   0             -8657.8429      58412.536      58413.899      58411.854      58411.855     -0.0041198357   0.0011213654  -0.0013351583   17.107646      25.661495      34.215326      15020.794    
       114   0             -8657.9739      60631.189      60632.492      60630.538      60630.538     -0.00082274356  0.00032933579 -0.00058938615  17.107646      25.661495      34.215326      15020.794    
       115   0             -8657.9739      60625.093      60626.389      60624.445      60624.445     -0.00039101129  0.00019284834 -0.00025361169  17.107646      25.661495      34.215326      15020.794    
       116   0             -8657.9739      60625.102      60626.397      60624.454      60624.454      0.00035025044 -9.1137221e-05  0.00018300891  17.107646      25.661495      34.215326      15020.794    
       117   0             -8657.9739      60625.103      60626.398      60624.455      60624.455      0.00030297369 -9.7615453e-05  0.00017114885  17.107646      25.661495      34.215326      15020.794    
       118   0             -8657.9739      60625.102      60626.398      60624.454      60624.454     -0.00014849588 -1.0572167e-05 -4.4710098e-05  17.107646      25.661495      34.215326      15020.794    
       119   0             -8657.9739      60625.101      60626.397      60624.453      60624.453     -0.00023455093  2.2582373e-05 -0.00010484574  17.107646      25.661495      34.215326      15020.794    
       120   0             -8657.9739      60625.102      60626.397      60624.454      60624.454      3.9288513e-05 -6.6162546e-06  9.0735067e-06  17.107646      25.661495      34.215326      15020.794    
       121   0             -8657.9739      60625.102      60626.397      60624.455      60624.455      0.00031984955 -3.5549162e-05  0.00013576487  17.107646      25.661495      34.215326      15020.794    
       122   0             -8657.9739      60625.102      60626.397      60624.454      60624.454      8.0963248e-05  1.1553715e-06  4.431965e-05   17.107646      25.661495      34.215326      15020.794    
       123   0             -8657.9739      60625.101      60626.398      60624.453      60624.453     -0.00026776573  4.9543514e-05 -0.00011707128  17.107646      25.661495      34.215326      15020.794    
       124   0             -8657.9739      60625.102      60626.397      60624.454      60624.454     -0.00018284869  3.3786941e-05 -9.13885e-05    17.107646      25.661495      34.215326      15020.794    
       125   0             -8657.9739      60625.102      60626.397      60624.455      60624.455      0.0001492439  -2.4118658e-05  4.5718539e-05  17.107646      25.661495      34.215326      15020.794    
       126   0             -8657.9739      60625.102      60626.397      60624.454      60624.454      0.00015976437 -3.1426067e-05  8.0678552e-05  17.107646      25.661495      34.215326      15020.794    
       127   0             -8657.9739      60625.101      60626.398      60624.453      60624.453     -3.9700399e-05 -2.0826324e-06  1.4133664e-05  17.107646      25.661495      34.215326      15020.794    
       128   0             -8657.9739      60625.102      60626.398      60624.453      60624.453     -8.3929138e-05  7.8140682e-06 -2.1378773e-05  17.107646      25.661495      34.215326      15020.794    
       129   0             -8657.9739      60625.102      60626.397      60624.455      60624.455      1.7828557e-06  4.3269603e-06 -3.9384197e-05  17.107646      25.661495      34.215326      15020.794    
       130   0             -8657.9739      60625.102      60626.397      60624.455      60624.455      2.7431661e-05 -5.8528909e-07 -9.9786009e-07  17.107646      25.661495      34.215326      15020.794    
       131   0             -8657.9739      60625.101      60626.398      60624.453      60624.453      3.810496e-06  -1.6803848e-06  4.0471258e-05  17.107646      25.661495      34.215326      15020.794    
       132   0             -8657.9739      60625.101      60626.398      60624.453      60624.453     -4.4189322e-06 -2.7807622e-07  3.1722559e-05  17.107646      25.661495      34.215326      15020.794    
       133   0             -8657.9739      60625.102      60626.397      60624.455      60624.455      9.7929829e-06  4.3970646e-06 -5.1030755e-05  17.107646      25.661495      34.215326      15020.794    
       134   0             -8657.9739      60625.102      60626.397      60624.455      60624.455     -1.2755534e-05  3.8278533e-06 -3.4264485e-05  17.107646      25.661495      34.215326      15020.794    
       135   0             -8657.9739      60625.102      60626.397      60624.454      60624.454     -2.8446477e-05 -1.6129433e-06  2.8955555e-05  17.107646      25.661495      34.215326      15020.794    
       136   0             -8657.9739      60625.101      60626.398      60624.453      60624.453     -6.8151965e-06 -7.0504705e-06  5.8094303e-05  17.107646      25.661495      34.215326      15020.794    
       137   0             -8657.9739      60625.102      60626.397      60624.455      60624.455      7.4481615e-05 -5.4533673e-06 -3.2584942e-05  17.107646      25.661495      34.215326      15020.794    
       138   0             -8657.9739      60625.102      60626.397      60624.455      60624.455      1.7445852e-05  2.4381154e-06 -3.7967849e-05  17.107646      25.661495      34.215326      15020.794    
       139   0             -8657.9739      60625.102      60626.397      60624.454      60624.454     -6.8450188e-05  8.4894297e-06  2.9176348e-06  17.107646      25.661495      34.215326      15020.794    
       140   0             -8657.9739      60625.101      60626.397      60624.453      60624.453     -7.5825729e-05  6.9718057e-06  2.8315667e-05  17.107646      25.661495      34.215326      15020.794    
       141   0             -8657.9739      60625.102      60626.397      60624.454      60624.454      9.3393298e-05 -7.2399798e-06 -2.2413434e-05  17.107646      25.661495      34.215326      15020.794    
       142   0             -8657.9739      60625.102      60626.397      60624.455      60624.455      6.7647011e-05 -6.0149397e-06 -1.3875334e-05  17.107646      25.661495      34.215326      15020.794    
       143   0             -8657.9739      60625.102      60626.397      60624.454      60624.454     -4.5299859e-05  2.1107617e-06  1.9701516e-05  17.107646      25.661495      34.215326      15020.794    
       144   0             -8657.9739      60625.102      60626.397      60624.454      60624.454     -8.6503781e-05  5.9831482e-06  2.1771543e-05  17.107646      25.661495      34.215326      15020.794    
       145   0             -8657.9739      60625.102      60626.397      60624.454      60624.454      4.9795429e-05 -3.2110849e-06 -3.1086768e-05  17.107646      25.661495      34.215326      15020.794    
       146   0             -8657.9739      60625.102      60626.397      60624.454      60624.454      5.025556e-05  -4.237352e-06  -1.6929028e-05  17.107646      25.661495      34.215326      15020.794    
       147   0             -8657.9739      60625.102      60626.397      60624.454      60624.454     -1.3434413e-05 -9.2891209e-07  2.6566717e-05  17.107646      25.661495      34.215326      15020.794    
       148   0             -8657.9739      60625.102      60626.397      60624.454      60624.454     -2.563875e-05   1.6114173e-06  1.8003589e-05  17.107646      25.661495      34.215326      15020.794    
       149   0             -8657.9739      60625.102      60626.397      60624.454      60624.454      1.5504359e-05  1.6208951e-06 -2.6902596e-05  17.107646      25.661495      34.215326      15020.794    
       150   0             -8657.9739      60625.102      60626.397      60624.454      60624.454      1.3519812e-05  1.2342365e-06 -2.3049816e-05  17.107646      25.661495      34.215326      15020.794    
       151   0             -8657.9739      60625.102      60626.397      60624.454      60624.454     -1.8851714e-05  2.013225e-07   1.7032463e-05  17.107646      25.661495      34.215326      15020.794    
       152   0             -8657.9739      60625.102      60626.397      60624.454      60624.454     -3.9401984e-06 -1.3399984e-06  1.3883989e-05  17.107646      25.661495      34.215326      15020.794    
       153   0             -8657.9739      60625.102      60626.397      60624.454      60624.454      2.4828804e-05 -1.9327465e-06 -1.1659233e-05  17.107646      25.661495      34.215326      15020.794    
       154   0             -8657.9739      60625.102      60626.397      60624.454      60624.454      1.7160657e-05 -8.8715616e-07 -1.2838541e-05  17.107646      25.661495      34.215326      15020.794    
       155   0             -8657.9739      60625.102      60626.397      60624.454      60624.454     -2.543124e-05   1.8251811e-06  9.0786425e-06  17.107646      25.661495      34.215326      15020.794    
       156   0             -8657.9739      60625.102      60626.397      60624.454      60624.454     -7.6423223e-06  5.3468216e-07  4.2800795e-06  17.107646      25.661495      34.215326      15020.794    
       157   0             -8657.9739      60625.102      60626.397      60624.454      60624.454      2.0183185e-05 -1.2808563e-06 -6.885637e-06   17.107646      25.661495      34.215326      15020.794    
       158   0             -8657.9739      60625.102      60626.397      60624.454      60624.454      1.9660966e-05 -1.2142983e-06 -6.9720751e-06  17.107646      25.661495      34.215326      15020.794    
       159   0             -8657.9739      60625.102      60626.397      60624.454      60624.454     -2.0046857e-05  1.4389331e-06  8.3898562e-06  17.107646      25.661495      34.215326      15020.794    
       160   0             -8657.9739      60625.102      60626.397      60624.454      60624.454     -7.735472e-06   7.2278866e-07  9.5984828e-07  17.107646      25.661495      34.215326      15020.794    
       161   0             -8657.9739      60625.102      60626.397      60624.454      60624.454      1.0282984e-05 -5.6703514e-07 -6.6444295e-06  17.107646      25.661495      34.215326      15020.794    
       162   0             -8657.9739      60625.102      60626.397      60624.454      60624.454      1.1328718e-05 -9.1910911e-07 -4.5586454e-06  17.107646      25.661495      34.215326      15020.794    
       163   0             -8657.9739      60625.102      60626.397      60624.454      60624.454     -1.0590879e-05  1.8716976e-07  8.7437792e-06  17.107646      25.661495      34.215326      15020.794    
       164   0             -8657.9739      60625.102      60626.397      60624.454      60624.454     -2.3806348e-06  1.3612455e-07  1.1527969e-06  17.107646      25.661495      34.215326      15020.794    
       165   0             -8657.9739      60625.102      60626.397      60624.454      60624.454      7.0714446e-06 -5.5577228e-08 -6.4962799e-06  17.107646      25.661495      34.215326      15020.794    
       166   0             -8657.9739      60625.102      60626.397      60624.454      60624.454      4.3716763e-06  6.450817e-08  -4.4856871e-06  17.107646      25.661495      34.215326      15020.794    
       167   0             -8657.9739      60625.102      60626.397      60624.454      60624.454     -8.8416157e-06  3.9085058e-07  6.3335469e-06  17.107646      25.661495      34.215326      15020.794    
       168   0             -8657.9739      60625.102      60626.397      60624.454      60624.454     -1.0460164e-06 -7.2494378e-08  2.057148e-06   17.107646      25.661495      34.215326      15020.794    
       169   0             -8657.9739      60625.102      60626.397      60624.454      60624.454      8.3221592e-06 -5.01429e-07   -4.3174415e-06  17.107646      25.661495      34.215326      15020.794    
       170   0             -8657.9739      60625.102      60626.397      60624.454      60624.454      2.6614077e-06 -1.1422596e-07 -2.2865918e-06  17.107646      25.661495      34.215326      15020.794    
       171   0             -8657.9739      60625.102      60626.397      60624.454      60624.454     -7.1951446e-06  3.9235021e-07  3.3949436e-06  17.107646      25.661495      34.215326      15020.794    
       172   0             -8657.9739      60625.102      60626.397      60624.454      60624.454     -1.3521084e-06  2.8980732e-08  9.0667521e-07  17.107646      25.661495      34.215326      15020.794    
       173   0             -8657.9739      60625.102      60626.397      60624.454      60624.454      5.5434271e-06 -3.6796857e-07 -2.3219252e-06  17.107646      25.661495      34.215326      15020.794    
       174   0             -8657.9739      60625.102      60626.397      60624.454      60624.454      1.5460408e-06 -8.7484726e-08 -5.3299296e-07  17.107646      25.661495      34.215326      15020.794    
       175   0             -8657.9739      60625.102      60626.397      60624.454      60624.454     -3.0939623e-06  2.2806996e-07  1.4073536e-06  17.107646      25.661495      34.215326      15020.794    
       176   0             -8657.9739      60625.102      60626.397      60624.454      60624.454     -1.4774819e-06  1.412931e-07   4.2428489e-07  17.107646      25.661495      34.215326      15020.794    
       177   0             -8657.9739      60625.102      60626.397      60624.454      60624.454      1.6482767e-06 -6.1813932e-08 -1.113304e-06   17.107646      25.661495      34.215326      15020.794    
       178   0             -8657.9739      60625.102      60626.397      60624.454      60624.454      9.2026257e-08 -3.2516502e-08  1.5034509e-07  17.107646      25.661495      34.215326      15020.794    
       179   0             -8657.9739      60625.102      60626.397      60624.454      60624.454     -8.1966909e-07  7.564967e-09   6.966736e-07   17.107646      25.661495      34.215326      15020.794    
       180   0             -8657.9739      60625.102      60626.397      60624.454      60624.454     -2.3082131e-07 -2.4611659e-09  1.7786431e-07  17.107646      25.661495      34.215326      15020.794    
       181   0             -8657.9739      60625.102      60626.397      60624.454      60624.454      7.1440416e-07 -2.3042865e-08 -5.8624132e-07  17.107646      25.661495      34.215326      15020.794    
       182   0             -8657.9739      60625.102      60626.397      60624.454      60624.454     -3.0306515e-07  2.2843815e-08  1.3061623e-07  17.107646      25.661495      34.215326      15020.794    
       183   0             -8657.9739      60625.102      60626.397      60624.454      60624.454     -4.4299315e-07  2.2507764e-08  3.0869466e-07  17.107646      25.661495      34.215326      15020.794    
       184   0             -8657.9739      60625.102      60626.397      60624.454      60624.454      5.2115537e-09 -1.6203653e-09  6.1391425e-08  17.107646      25.661495      34.215326      15020.794    
       185   0             -8657.9739      60625.102      60626.397      60624.454      60624.454      4.7336892e-07 -2.1493744e-08 -2.6829474e-07  17.107646      25.661495      34.215326      15020.794    
       186   0             -8657.9739      60625.102      60626.397      60624.454      60624.454     -2.3531523e-07  1.728714e-08   7.4797588e-08  17.107646      25.661495      34.215326      15020.794    
       187   0             -8657.9739      60625.102      60626.397      60624.454      60624.454     -2.7758196e-07  1.556184e-08   1.2417534e-07  17.107646      25.661495      34.215326      15020.794    
       188   0             -8657.9739      60625.102      60626.397      60624.454      60624.454      3.5479132e-08 -6.4982345e-09 -1.7385272e-10  17.107646      25.661495      34.215326      15020.794    
       189   0             -8657.9739      60625.102      60626.397      60624.454      60624.454      2.7214067e-07 -2.1486415e-08 -1.0189939e-07  17.107646      25.661495      34.215326      15020.794    
       190   0             -8657.9739      60625.102      60626.397      60624.454      60624.454     -1.3433514e-07  6.8840588e-09  7.5181135e-08  17.107646      25.661495      34.215326      15020.794    
       191   0             -8657.9739      60625.102      60626.397      60624.454      60624.454     -1.6036401e-07  1.1488114e-08  6.691212e-08   17.107646      25.661495      34.215326      15020.794    
       192   0             -8657.9739      60625.102      60626.397      60624.454      60624.454      3.9275889e-09  3.4540206e-09 -2.7200593e-08  17.107646      25.661495      34.215326      15020.794    
       193   0             -8657.9739      60625.102      60626.397      60624.454      60624.454      1.1252431e-07 -4.4572822e-09 -6.6918602e-08  17.107646      25.661495      34.215326      15020.794    
       194   0             -8657.9739      60625.102      60626.397      60624.454      60624.454     -5.7478954e-08  1.3221621e-09  5.1426032e-08  17.107646      25.661495      34.215326      15020.794    
       195   0             -8657.9739      60625.102      60626.397      60624.454      60624.454     -5.0511174e-08  1.347004e-09   3.9816286e-08  17.107646      25.661495      34.215326      15020.794    
       196   0             -8657.9739      60625.102      60626.397      60624.454      60624.454      2.5014624e-08 -1.0601278e-09 -2.1187066e-08  17.107646      25.661495      34.215326      15020.794    
       197   0             -8657.9739      60625.102      60626.397      60624.454      60624.454      3.7022864e-08 -1.2824779e-09 -3.1980368e-08  17.107646      25.661495      34.215326      15020.794    
       198   0             -8657.9739      60625.102      60626.397      60624.454      60624.454     -2.8506236e-08  9.2227869e-10  1.8397079e-08  17.107646      25.661495      34.215326      15020.794    
       199   0             -8657.9739      60625.102      60626.397      60624.454      60624.454     -2.0101112e-08  4.0686935e-10  1.6604992e-08  17.107646      25.661495      34.215326      15020.794    
       200   0             -8657.9739      60625.102      60626.397      60624.454      60624.454      1.5035642e-08 -1.1399721e-09 -4.9892903e-09  17.107646      25.661495      34.215326      15020.794    
Loop time of 0.153737 on 4 procs for 100 steps with 1344 atoms

68.6% CPU use with 4 MPI tasks x 1 OpenMP threads

Minimization stats:
  Stopping criterion = max iterations
  Energy initial, next-to-last, final = 
     -8295.16486134319  -8657.97387712523  -8657.97387712523
  Force two-norm initial, final = 116.8583 4.2515121e-10
  Force max component initial, final = 2.4348084 2.6122882e-11
  Final line search alpha, max atom move = 1 2.6122882e-11
  Iterations, force evaluations = 100 187

MPI task timing breakdown:
Section |  min time  |  avg time  |  max time  |%varavg| %total
---------------------------------------------------------------
Pair    | 0.14187    | 0.14234    | 0.14322    |   0.1 | 92.58
Neigh   | 0          | 0          | 0          |   0.0 |  0.00
Comm    | 0.007032   | 0.0078427  | 0.0084     |   0.6 |  5.10
Output  | 0.001514   | 0.0016005  | 0.001729   |   0.2 |  1.04
Modify  | 0          | 0          | 0          |   0.0 |  0.00
Other   |            | 0.001957   |            |       |  1.27

Nlocal:            336 ave         340 max         334 min
Histogram: 2 0 0 1 0 0 0 0 0 1
Nghost:            981 ave         983 max         977 min
Histogram: 1 0 0 0 0 0 1 0 0 2
Neighs:           7680 ave        7765 max        7635 min
Histogram: 2 0 0 1 0 0 0 0 0 1
FullNghs:        15360 ave       15536 max       15272 min
Histogram: 2 0 0 1 0 0 0 0 0 1

Total # of neighbors = 61440
Ave neighs/atom = 45.714286
Neighbor list builds = 0
Dangerous builds = 0

# Obtain new stress tensor

variable tmp equal pxx
variable pxx1 equal ${tmp}
variable pxx1 equal 60626.3972358653
variable tmp equal pyy
variable pyy1 equal ${tmp}
variable pyy1 equal 60624.4541334397
variable tmp equal pzz
variable pzz1 equal ${tmp}
variable pzz1 equal 60624.4541334411
variable tmp equal pxy
variable pxy1 equal ${tmp}
variable pxy1 equal 1.50356418722871e-08
variable tmp equal pxz
variable pxz1 equal ${tmp}
variable pxz1 equal -1.13997205726979e-09
variable tmp equal pyz
variable pyz1 equal ${tmp}
variable pyz1 equal -4.98929026829906e-09

# Compute elastic constant from pressure tensor

variable C1neg equal ${d1}
variable C1neg equal 6082736.12971397
variable C2neg equal ${d2}
variable C2neg equal 6082541.81947136
variable C3neg equal ${d3}
variable C3neg equal 6082541.81947156
variable C4neg equal ${d4}
variable C4neg equal -5.28361282941523e-07
variable C5neg equal ${d5}
variable C5neg equal -1.1511272778609e-07
variable C6neg equal ${d6}
variable C6neg equal 1.43366761183915e-06

# Reset box and simulation parameters

clear
  using 1 OpenMP thread(s) per MPI task
Loaded 1 plugins from C:\Program Files\LAMMPS 64-bit 23Jun2022\plugins
Loaded 0 plugins from C:\Program Files\LAMMPS 64-bit 23Jun2022-MPI\plugins
Loaded 1 plugins from C:\Program Files\LAMMPS 64-bit 22Dec2022-MSMPI\plugins
Loaded 1 plugins from C:\Program Files\LAMMPS 64-bit 28Mar2023-MPI\plugins
box tilt large

The 'box' command has been removed and will be ignored

read_restart restart.equil
Reading restart file ...
  restart file = 22 Dec 2022, LAMMPS = 22 Dec 2022
  restoring atom style atomic from restart
  triclinic box = (-0.020480044 -0.030720066 -0.040960087) to (17.087183 25.630775 34.174366) with tilt (0 0 0)
  1 by 2 by 2 MPI processor grid
  pair style meam stores no restart info
  1344 atoms
  read_restart CPU = 0.000 seconds
include potential.mod
# NOTE: This script can be modified for different pair styles
# See in.elastic for more info.

# Choose potential
#-----------------------
#pair_style	sw
#pair_coeff * * Si.sw Si
#-----------------------
#pair_style morse	2.83994742	# D0[eV] a[1/A] r0[A] rc[A], 1NN for BCC
#pair_coeff 1 1	2.1173	1.0202	2.4595	2.6497	#	Fe-Fe
#-----------------------
#pair_style smatb # R0(A)   p       q     A(eV)   xi(eV)  Rcs(A)   Rc(A), 4NN: Rcs=4NN, Rc=(4NN+5NN)/2
#pair_coeff 1 1	2.4802	7.0149	2.3779	0.3144	3.0551	4.033	4.176	#	Co	Co
#-----------------------
#pair_style eam/alloy
#pair_coeff * * AlCrFeCoNi_Zhou04.eam.alloy Fe
#-----------------------
pair_style meam
pair_coeff * * ./../../library.meam Fe Cr Ni O ./../../FeCrNiO.meam Fe O
#-----------------------

# Setup neighbor style
neighbor 1.0 nsq
neigh_modify once no every 1 delay 0 check yes

# Setup minimization style
min_style	     cg
min_modify	     dmax ${dmax} line quadratic
min_modify	     dmax 0.01 line quadratic

# Setup output
thermo		1
thermo_style custom step temp pe press pxx pyy pzz pxy pxz pyz lx ly lz vol
thermo_modify norm no

# Positive deformation

variable delta equal ${up}*${len0}
variable delta equal 1e-06*${len0}
variable delta equal 1e-06*17.107663167392
variable deltaxy equal ${up}*xy
variable deltaxy equal 1e-06*xy
variable deltaxz equal ${up}*xz
variable deltaxz equal 1e-06*xz
variable deltayz equal ${up}*yz
variable deltayz equal 1e-06*yz
if "${dir} == 1" then    "change_box all x delta 0 ${delta} xy delta ${deltaxy} xz delta ${deltaxz} remap units box"
change_box all x delta 0 ${delta} xy delta ${deltaxy} xz delta ${deltaxz} remap units box
change_box all x delta 0 1.7107663167392e-05 xy delta ${deltaxy} xz delta ${deltaxz} remap units box
change_box all x delta 0 1.7107663167392e-05 xy delta 0 xz delta ${deltaxz} remap units box
change_box all x delta 0 1.7107663167392e-05 xy delta 0 xz delta 0 remap units box
Changing box ...
  triclinic box = (-0.020480044 -0.030720066 -0.040960087) to (17.0872 25.630775 34.174366) with tilt (0 0 0)
  triclinic box = (-0.020480044 -0.030720066 -0.040960087) to (17.0872 25.630775 34.174366) with tilt (0 0 0)
  triclinic box = (-0.020480044 -0.030720066 -0.040960087) to (17.0872 25.630775 34.174366) with tilt (0 0 0)
if "${dir} == 2" then    "change_box all y delta 0 ${delta} yz delta ${deltayz} remap units box"
if "${dir} == 3" then    "change_box all z delta 0 ${delta} remap units box"
if "${dir} == 4" then    "change_box all yz delta ${delta} remap units box"
if "${dir} == 5" then    "change_box all xz delta ${delta} remap units box"
if "${dir} == 6" then    "change_box all xy delta ${delta} remap units box"

# Relax atoms positions

minimize ${etol} ${ftol} ${maxiter} ${maxeval}
minimize 0 ${ftol} ${maxiter} ${maxeval}
minimize 0 1e-10 ${maxiter} ${maxeval}
minimize 0 1e-10 100 ${maxeval}
minimize 0 1e-10 100 1000
Neighbor list info ...
  update: every = 1 steps, delay = 0 steps, check = yes
  max neighbors/atom: 2000, page size: 100000
  master list distance cutoff = 5
  ghost atom cutoff = 5
  2 neighbor lists, perpetual/occasional/extra = 2 0 0
  (1) pair meam, perpetual
      attributes: full, newton on
      pair build: full/nsq
      stencil: none
      bin: none
  (2) pair meam, perpetual, half/full from (1)
      attributes: half, newton on
      pair build: halffull/newton
      stencil: none
      bin: none
Per MPI rank memory allocation (min/avg/max) = 10.04 | 10.04 | 10.04 Mbytes
   Step          Temp          PotEng         Press           Pxx            Pyy            Pzz            Pxy            Pxz            Pyz             Lx             Ly             Lz           Volume    
       100   0             -8295.1649     -202.30732     -203.64837     -201.63987     -201.63374      0.057446564    0.02342007    -0.025299269    17.10768       25.661495      34.215326      15020.824    
       101   0             -8348.9666      311.51412      310.13326      312.20159      312.20751      0.028502063    0.021505813   -0.022485248    17.10768       25.661495      34.215326      15020.824    
       102   0             -8398.2469      1533.222       1531.8046      1533.9278      1533.9335      0.0059243255   0.019740366   -0.019777086    17.10768       25.661495      34.215326      15020.824    
       103   0             -8443.0724      3451.0236      3449.5735      3451.7459      3451.7514     -0.011169528    0.018082662   -0.017187496    17.10768       25.661495      34.215326      15020.824    
       104   0             -8483.5047      6053.3176      6051.8392      6054.0542      6054.0594     -0.023539127    0.016497065   -0.014730893    17.10768       25.661495      34.215326      15020.824    
       105   0             -8519.6008      9328.6665      9327.1648      9329.415       9329.4198     -0.031837291    0.014952437   -0.012423523    17.10768       25.661495      34.215326      15020.824    
       106   0             -8551.4135      13265.762      13264.242      13266.519      13266.524     -0.036624107    0.013421294   -0.010283478    17.10768       25.661495      34.215326      15020.824    
       107   0             -8578.9915      17853.384      17851.854      17854.147      17854.151     -0.038379063    0.011879022   -0.0083304952   17.10768       25.661495      34.215326      15020.824    
       108   0             -8602.3799      23080.331      23078.798      23081.096      23081.099     -0.037511459    0.010303125   -0.0065854435   17.10768       25.661495      34.215326      15020.824    
       109   0             -8621.6204      28935.396      28933.869      28936.158      28936.161     -0.03436926     0.0086723963  -0.0050691199   17.10768       25.661495      34.215326      15020.824    
       110   0             -8636.7519      35407.325      35405.815      35408.078      35408.081     -0.029246201    0.0069659007  -0.0037996136   17.10768       25.661495      34.215326      15020.824    
       111   0             -8647.8107      42484.777      42483.3        42485.515      42485.517     -0.022386134    0.0051613214  -0.0027859016   17.10768       25.661495      34.215326      15020.824    
       112   0             -8654.8307      50156.172      50154.745      50156.885      50156.887     -0.013980375    0.0032306194  -0.0020087157   17.10768       25.661495      34.215326      15020.824    
       113   0             -8657.844       58409.678      58408.329      58410.352      58410.352     -0.004119893    0.001121323   -0.0013351392   17.10768       25.661495      34.215326      15020.824    
       114   0             -8657.975       60628.48       60627.178      60629.131      60629.131     -0.00082266459  0.00032927794 -0.00058935915  17.10768       25.661495      34.215326      15020.824    
       115   0             -8657.975       60622.384      60621.088      60623.032      60623.032     -0.00039094723  0.00019280478 -0.00025358162  17.10768       25.661495      34.215326      15020.824    
       116   0             -8657.975       60622.392      60621.097      60623.04       60623.04       0.00035025197 -9.112956e-05   0.00018300855  17.10768       25.661495      34.215326      15020.824    
       117   0             -8657.975       60622.393      60621.098      60623.041      60623.041      0.00030295637 -9.759997e-05   0.00017114005  17.10768       25.661495      34.215326      15020.824    
       118   0             -8657.975       60622.392      60621.097      60623.04       60623.04      -0.00014853724 -1.0555554e-05 -4.4728574e-05  17.10768       25.661495      34.215326      15020.824    
       119   0             -8657.975       60622.392      60621.096      60623.04       60623.04      -0.00023457672  2.2591297e-05 -0.0001048573   17.10768       25.661495      34.215326      15020.824    
       120   0             -8657.975       60622.392      60621.097      60623.04       60623.04       3.930305e-05  -6.6181391e-06  9.0787798e-06  17.10768       25.661495      34.215326      15020.824    
       121   0             -8657.975       60622.393      60621.098      60623.04       60623.04       0.0003198849  -3.5560487e-05  0.00013578017  17.10768       25.661495      34.215326      15020.824    
       122   0             -8657.975       60622.392      60621.097      60623.04       60623.04       8.0968938e-05  1.1493386e-06  4.4324788e-05  17.10768       25.661495      34.215326      15020.824    
       123   0             -8657.975       60622.392      60621.096      60623.04       60623.04      -0.00026778477  4.9545423e-05 -0.00011707796  17.10768       25.661495      34.215326      15020.824    
       124   0             -8657.975       60622.392      60621.096      60623.04       60623.04      -0.00018285568  3.3788023e-05 -9.1392472e-05  17.10768       25.661495      34.215326      15020.824    
       125   0             -8657.975       60622.393      60621.098      60623.04       60623.04       0.00014927987 -2.4123703e-05  4.5729744e-05  17.10768       25.661495      34.215326      15020.824    
       126   0             -8657.975       60622.392      60621.097      60623.04       60623.04       0.00015977554 -3.1427164e-05  8.0683387e-05  17.10768       25.661495      34.215326      15020.824    
       127   0             -8657.975       60622.392      60621.096      60623.04       60623.04      -3.974483e-05  -2.074976e-06   1.412113e-05   17.10768       25.661495      34.215326      15020.824    
       128   0             -8657.975       60622.392      60621.096      60623.04       60623.04      -8.3964561e-05  7.8204699e-06 -2.138981e-05   17.10768       25.661495      34.215326      15020.824    
       129   0             -8657.975       60622.393      60621.098      60623.04       60623.04       1.8374614e-06  4.3209635e-06 -3.9378564e-05  17.10768       25.661495      34.215326      15020.824    
       130   0             -8657.975       60622.393      60621.098      60623.04       60623.04       2.7464886e-05 -5.8979395e-07 -9.9343496e-07  17.10768       25.661495      34.215326      15020.824    
       131   0             -8657.975       60622.392      60621.096      60623.04       60623.04       3.7608881e-06 -1.6771681e-06  4.0479687e-05  17.10768       25.661495      34.215326      15020.824    
       132   0             -8657.975       60622.392      60621.096      60623.04       60623.04      -4.4751373e-06 -2.7385104e-07  3.1730439e-05  17.10768       25.661495      34.215326      15020.824    
       133   0             -8657.975       60622.393      60621.098      60623.04       60623.04       9.8668032e-06  4.3942732e-06 -5.1089162e-05  17.10768       25.661495      34.215326      15020.824    
       134   0             -8657.975       60622.393      60621.098      60623.04       60623.04      -1.2698733e-05  3.8264101e-06 -3.4312403e-05  17.10768       25.661495      34.215326      15020.824    
       135   0             -8657.975       60622.392      60621.096      60623.04       60623.04      -2.8501356e-05 -1.6129994e-06  2.9019793e-05  17.10768       25.661495      34.215326      15020.824    
       136   0             -8657.975       60622.392      60621.095      60623.04       60623.04      -6.9145401e-06 -7.0553552e-06  5.8252746e-05  17.10768       25.661495      34.215326      15020.824    
       137   0             -8657.975       60622.393      60621.098      60623.04       60623.04       7.4633983e-05 -5.4488204e-06 -3.278008e-05   17.10768       25.661495      34.215326      15020.824    
       138   0             -8657.975       60622.393      60621.098      60623.04       60623.04       1.7616627e-05  2.4454968e-06 -3.8208497e-05  17.10768       25.661495      34.215326      15020.824    
       139   0             -8657.975       60622.392      60621.097      60623.04       60623.04      -6.8469435e-05  8.4895062e-06  2.9341794e-06  17.10768       25.661495      34.215326      15020.824    
       140   0             -8657.975       60622.392      60621.096      60623.04       60623.04      -7.6079672e-05  6.9692447e-06  2.86039e-05    17.10768       25.661495      34.215326      15020.824    
       141   0             -8657.975       60622.393      60621.097      60623.04       60623.04       9.3488215e-05 -7.2431344e-06 -2.2486523e-05  17.10768       25.661495      34.215326      15020.824    
       142   0             -8657.975       60622.393      60621.098      60623.04       60623.04       6.7901131e-05 -6.0224723e-06 -1.4080378e-05  17.10768       25.661495      34.215326      15020.824    
       143   0             -8657.975       60622.392      60621.097      60623.04       60623.04      -4.5152512e-05  2.1059993e-06  1.9588826e-05  17.10768       25.661495      34.215326      15020.824    
       144   0             -8657.975       60622.392      60621.096      60623.04       60623.04      -8.6695191e-05  5.990954e-06   2.1905647e-05  17.10768       25.661495      34.215326      15020.824    
       145   0             -8657.975       60622.392      60621.097      60623.04       60623.04       4.9625077e-05 -3.2035486e-06 -3.0971425e-05  17.10768       25.661495      34.215326      15020.824    
       146   0             -8657.975       60622.392      60621.097      60623.04       60623.04       5.0275011e-05 -4.2377116e-06 -1.6943961e-05  17.10768       25.661495      34.215326      15020.824    
       147   0             -8657.975       60622.392      60621.097      60623.04       60623.04      -1.3236717e-05 -9.3727501e-07  2.6438657e-05  17.10768       25.661495      34.215326      15020.824    
       148   0             -8657.975       60622.392      60621.097      60623.04       60623.04      -2.5584191e-05  1.6084e-06     1.7973002e-05  17.10768       25.661495      34.215326      15020.824    
       149   0             -8657.975       60622.392      60621.096      60623.04       60623.04       1.535655e-05   1.6299027e-06 -2.6835114e-05  17.10768       25.661495      34.215326      15020.824    
       150   0             -8657.975       60622.392      60621.097      60623.04       60623.04       1.3423807e-05  1.2404882e-06 -2.3007764e-05  17.10768       25.661495      34.215326      15020.824    
       151   0             -8657.975       60622.392      60621.097      60623.04       60623.04      -1.8774659e-05  1.9203552e-07  1.7035217e-05  17.10768       25.661495      34.215326      15020.824    
       152   0             -8657.975       60622.392      60621.097      60623.04       60623.04      -3.9023835e-06 -1.3444777e-06  1.3885614e-05  17.10768       25.661495      34.215326      15020.824    
       153   0             -8657.975       60622.392      60621.097      60623.04       60623.04       2.4818638e-05 -1.9265143e-06 -1.1704639e-05  17.10768       25.661495      34.215326      15020.824    
       154   0             -8657.975       60622.392      60621.097      60623.04       60623.04       1.7150373e-05 -8.8127478e-07 -1.2881929e-05  17.10768       25.661495      34.215326      15020.824    
       155   0             -8657.975       60622.392      60621.097      60623.04       60623.04      -2.5504785e-05  1.8259864e-06  9.1518434e-06  17.10768       25.661495      34.215326      15020.824    
       156   0             -8657.975       60622.392      60621.097      60623.04       60623.04      -7.7010367e-06  5.3559848e-07  4.3358909e-06  17.10768       25.661495      34.215326      15020.824    
       157   0             -8657.975       60622.392      60621.097      60623.04       60623.04       2.0253427e-05 -1.2834407e-06 -6.9364448e-06  17.10768       25.661495      34.215326      15020.824    
       158   0             -8657.975       60622.392      60621.097      60623.04       60623.04       1.9783831e-05 -1.2188415e-06 -7.0612671e-06  17.10768       25.661495      34.215326      15020.824    
       159   0             -8657.975       60622.392      60621.097      60623.04       60623.04      -2.0106368e-05  1.441565e-06   8.4263954e-06  17.10768       25.661495      34.215326      15020.824    
       160   0             -8657.975       60622.392      60621.097      60623.04       60623.04      -7.8335029e-06  7.2727381e-07  1.0188452e-06  17.10768       25.661495      34.215326      15020.824    
       161   0             -8657.975       60622.392      60621.097      60623.04       60623.04       1.0257076e-05 -5.6562729e-07 -6.630082e-06   17.10768       25.661495      34.215326      15020.824    
       162   0             -8657.975       60622.392      60621.097      60623.04       60623.04       1.1388483e-05 -9.2215081e-07 -4.5926259e-06  17.10768       25.661495      34.215326      15020.824    
       163   0             -8657.975       60622.392      60621.097      60623.04       60623.04      -1.0541521e-05  1.845341e-07   8.7164486e-06  17.10768       25.661495      34.215326      15020.824    
       164   0             -8657.975       60622.392      60621.097      60623.04       60623.04      -2.4140261e-06  1.3790468e-07  1.1703462e-06  17.10768       25.661495      34.215326      15020.824    
       165   0             -8657.975       60622.392      60621.097      60623.04       60623.04       7.0113229e-06 -5.1980301e-08 -6.4661723e-06  17.10768       25.661495      34.215326      15020.824    
       166   0             -8657.975       60622.392      60621.097      60623.04       60623.04       4.3602185e-06  6.5343317e-08 -4.4801558e-06  17.10768       25.661495      34.215326      15020.824    
       167   0             -8657.975       60622.392      60621.097      60623.04       60623.04      -8.7985909e-06  3.8768992e-07  6.3184468e-06  17.10768       25.661495      34.215326      15020.824    
       168   0             -8657.975       60622.392      60621.097      60623.04       60623.04      -1.0418083e-06 -7.2884913e-08  2.0559984e-06  17.10768       25.661495      34.215326      15020.824    
       169   0             -8657.975       60622.392      60621.097      60623.04       60623.04       8.3129137e-06 -4.9997822e-07 -4.3218981e-06  17.10768       25.661495      34.215326      15020.824    
       170   0             -8657.975       60622.392      60621.097      60623.04       60623.04       2.6594172e-06 -1.1367738e-07 -2.2895129e-06  17.10768       25.661495      34.215326      15020.824    
       171   0             -8657.975       60622.392      60621.097      60623.04       60623.04      -7.2117151e-06  3.9266194e-07  3.4106609e-06  17.10768       25.661495      34.215326      15020.824    
[...]
       163   0             -8657.9744      60623.747      60623.747      60623.747      60623.747     -0.58848587     3.2260563e-07  8.7777504e-06  17.107663      25.661495      34.215326      15020.809    
       164   0             -8657.9744      60623.747      60623.747      60623.747      60623.747     -0.5884842      1.4921979e-07  1.4341718e-06  17.107663      25.661495      34.215326      15020.809    
       165   0             -8657.9744      60623.747      60623.747      60623.747      60623.747     -0.58848019    -1.6146464e-07 -6.3086806e-06  17.107663      25.661495      34.215326      15020.809    
       166   0             -8657.9744      60623.747      60623.747      60623.747      60623.747     -0.58848093    -3.042834e-08  -4.4628911e-06  17.107663      25.661495      34.215326      15020.809    
       167   0             -8657.9744      60623.747      60623.747      60623.747      60623.747     -0.58848552     4.6625358e-07  6.4163981e-06  17.107663      25.661495      34.215326      15020.809    
       168   0             -8657.9744      60623.747      60623.747      60623.747      60623.747     -0.58847977    -4.729321e-10   1.8567061e-06  17.107663      25.661495      34.215326      15020.809    
       169   0             -8657.9744      60623.747      60623.747      60623.747      60623.747     -0.58847467    -5.1568342e-07 -4.9455899e-06  17.107663      25.661495      34.215326      15020.809    
       170   0             -8657.9744      60623.747      60623.747      60623.747      60623.747     -0.58848134    -1.6715118e-07 -2.3239849e-06  17.107663      25.661495      34.215326      15020.809    
       171   0             -8657.9744      60623.747      60623.747      60623.747      60623.747     -0.5884892      3.9935361e-07  4.2408633e-06  17.107663      25.661495      34.215326      15020.809    
       172   0             -8657.9744      60623.747      60623.747      60623.747      60623.747     -0.58848283     4.5410251e-08  1.095372e-06   17.107663      25.661495      34.215326      15020.809    
       173   0             -8657.9744      60623.747      60623.747      60623.747      60623.747     -0.58847551    -3.7093216e-07 -3.0451056e-06  17.107663      25.661495      34.215326      15020.809    
       174   0             -8657.9744      60623.747      60623.747      60623.747      60623.747     -0.58847947    -8.4789904e-08 -8.469637e-07   17.107663      25.661495      34.215326      15020.809    
       175   0             -8657.9744      60623.747      60623.747      60623.747      60623.747     -0.58848467     2.4153832e-07  1.7789376e-06  17.107663      25.661495      34.215326      15020.809    
       176   0             -8657.9744      60623.747      60623.747      60623.747      60623.747     -0.58848348     1.3913227e-07  6.7552544e-07  17.107663      25.661495      34.215326      15020.809    
       177   0             -8657.9744      60623.747      60623.747      60623.747      60623.747     -0.58848045    -8.484672e-08  -1.2621257e-06  17.107663      25.661495      34.215326      15020.809    
       178   0             -8657.9744      60623.747      60623.747      60623.747      60623.747     -0.58848127    -2.6857295e-08  7.9042268e-08  17.107663      25.661495      34.215326      15020.809    
       179   0             -8657.9744      60623.747      60623.747      60623.747      60623.747     -0.58848211     2.5239468e-08  7.5530443e-07  17.107663      25.661495      34.215326      15020.809    
       180   0             -8657.9744      60623.747      60623.747      60623.747      60623.747     -0.5884819      3.1348294e-09  2.2658425e-07  17.107663      25.661495      34.215326      15020.809    
       181   0             -8657.9744      60623.747      60623.747      60623.747      60623.747     -0.58848139    -3.7267035e-08 -6.1640874e-07  17.107663      25.661495      34.215326      15020.809    
       182   0             -8657.9744      60623.747      60623.747      60623.747      60623.747     -0.58848193     2.171747e-08   1.5815564e-07  17.107663      25.661495      34.215326      15020.809    
       183   0             -8657.9744      60623.747      60623.747      60623.747      60623.747     -0.58848189     2.9040165e-08  3.4203792e-07  17.107663      25.661495      34.215326      15020.809    
       184   0             -8657.9744      60623.747      60623.747      60623.747      60623.747     -0.58848152     3.0965527e-09  5.1295082e-08  17.107663      25.661495      34.215326      15020.809    
       185   0             -8657.9744      60623.747      60623.747      60623.747      60623.747     -0.58848123    -2.5484067e-08 -3.3995406e-07  17.107663      25.661495      34.215326      15020.809    
       186   0             -8657.9744      60623.747      60623.747      60623.747      60623.747     -0.58848197     1.6611167e-08  1.2215879e-07  17.107663      25.661495      34.215326      15020.809    
       187   0             -8657.9744      60623.747      60623.747      60623.747      60623.747     -0.58848199     1.7029756e-08  1.8404282e-07  17.107663      25.661495      34.215326      15020.809    
       188   0             -8657.9744      60623.747      60623.747      60623.747      60623.747     -0.58848163    -5.715542e-09  -1.3285622e-09  17.107663      25.661495      34.215326      15020.809    
       189   0             -8657.9744      60623.747      60623.747      60623.747      60623.747     -0.58848134    -2.277935e-08  -1.6234676e-07  17.107663      25.661495      34.215326      15020.809    
       190   0             -8657.9744      60623.747      60623.747      60623.747      60623.747     -0.58848179     8.8631468e-09  9.9730731e-08  17.107663      25.661495      34.215326      15020.809    
       191   0             -8657.9744      60623.747      60623.747      60623.747      60623.747     -0.58848185     1.2972352e-08  1.04112e-07    17.107663      25.661495      34.215326      15020.809    
       192   0             -8657.9744      60623.747      60623.747      60623.747      60623.747     -0.58848169     2.3974832e-09 -2.1861915e-08  17.107663      25.661495      34.215326      15020.809    
       193   0             -8657.9744      60623.747      60623.747      60623.747      60623.747     -0.58848154    -6.6214888e-09 -9.3132967e-08  17.107663      25.661495      34.215326      15020.809    
       194   0             -8657.9744      60623.747      60623.747      60623.747      60623.747     -0.58848169     3.3709778e-09  5.7706515e-08  17.107663      25.661495      34.215326      15020.809    
       195   0             -8657.9744      60623.747      60623.747      60623.747      60623.747     -0.5884817      3.1050773e-09  5.0321145e-08  17.107663      25.661495      34.215326      15020.809    
       196   0             -8657.9744      60623.747      60623.747      60623.747      60623.747     -0.58848166    -1.4588463e-09 -2.1332223e-08  17.107663      25.661495      34.215326      15020.809    
       197   0             -8657.9744      60623.747      60623.747      60623.747      60623.747     -0.58848164    -2.6279633e-09 -3.735792e-08   17.107663      25.661495      34.215326      15020.809    
       198   0             -8657.9744      60623.747      60623.747      60623.747      60623.747     -0.58848168     1.3203558e-09  2.2112494e-08  17.107663      25.661495      34.215326      15020.809    
       199   0             -8657.9744      60623.747      60623.747      60623.747      60623.747     -0.58848167     9.3300002e-10  1.9274795e-08  17.107663      25.661495      34.215326      15020.809    
       200   0             -8657.9744      60623.747      60623.747      60623.747      60623.747     -0.58848164    -9.3860834e-10 -8.0571575e-09  17.107663      25.661495      34.215326      15020.809    
Loop time of 0.148667 on 4 procs for 100 steps with 1344 atoms

65.7% CPU use with 4 MPI tasks x 1 OpenMP threads

Minimization stats:
  Stopping criterion = max iterations
  Energy initial, next-to-last, final = 
      -8295.1648594704  -8657.97444549782  -8657.97444549782
  Force two-norm initial, final = 116.85827 4.3185511e-10
  Force max component initial, final = 2.4348049 2.5741187e-11
  Final line search alpha, max atom move = 1 2.5741187e-11
  Iterations, force evaluations = 100 187

MPI task timing breakdown:
Section |  min time  |  avg time  |  max time  |%varavg| %total
---------------------------------------------------------------
Pair    | 0.13785    | 0.13811    | 0.13832    |   0.0 | 92.90
Neigh   | 0          | 0          | 0          |   0.0 |  0.00
Comm    | 0.007068   | 0.0073183  | 0.007569   |   0.2 |  4.92
Output  | 0.00123    | 0.00128    | 0.00141    |   0.2 |  0.86
Modify  | 0          | 0          | 0          |   0.0 |  0.00
Other   |            | 0.001958   |            |       |  1.32

Nlocal:            336 ave         340 max         334 min
Histogram: 2 0 0 1 0 0 0 0 0 1
Nghost:            981 ave         983 max         977 min
Histogram: 1 0 0 0 0 0 1 0 0 2
Neighs:           7680 ave        7765 max        7635 min
Histogram: 2 0 0 1 0 0 0 0 0 1
FullNghs:        15360 ave       15536 max       15272 min
Histogram: 2 0 0 1 0 0 0 0 0 1

Total # of neighbors = 61440
Ave neighs/atom = 45.714286
Neighbor list builds = 0
Dangerous builds = 0

# Obtain new stress tensor

variable tmp equal pe
variable e1 equal ${tmp}
variable e1 equal -8657.97444549782
variable tmp equal press
variable p1 equal ${tmp}
variable p1 equal 60623.7470554179
variable tmp equal pxx
variable pxx1 equal ${tmp}
variable pxx1 equal 60623.7470550423
variable tmp equal pyy
variable pyy1 equal ${tmp}
variable pyy1 equal 60623.7470552653
variable tmp equal pzz
variable pzz1 equal ${tmp}
variable pzz1 equal 60623.7470559462
variable tmp equal pxy
variable pxy1 equal ${tmp}
variable pxy1 equal -0.588481643493662
variable tmp equal pxz
variable pxz1 equal ${tmp}
variable pxz1 equal -9.3860834274195e-10
variable tmp equal pyz
variable pyz1 equal ${tmp}
variable pyz1 equal -8.05715745401008e-09

# Compute elastic constant from pressure tensor

variable C1pos equal ${d1}
variable C1pos equal -6082471.11163167
variable C2pos equal ${d2}
variable C2pos equal -6082471.11165392
variable C3pos equal ${d3}
variable C3pos equal -6082471.11172207
variable C4pos equal ${d4}
variable C4pos equal 8.35148001512625e-07
variable C5pos equal ${d5}
variable C5pos equal 9.4976356333306e-08
variable C6pos equal ${d6}
variable C6pos equal 58.8481644192628

# Combine positive and negative

variable C1${dir} equal 0.5*(${C1neg}+${C1pos})
variable C16 equal 0.5*(${C1neg}+${C1pos})
variable C16 equal 0.5*(6082471.11163182+${C1pos})
variable C16 equal 0.5*(6082471.11163182+-6082471.11163167)
variable C2${dir} equal 0.5*(${C2neg}+${C2pos})
variable C26 equal 0.5*(${C2neg}+${C2pos})
variable C26 equal 0.5*(6082471.11165405+${C2pos})
variable C26 equal 0.5*(6082471.11165405+-6082471.11165392)
variable C3${dir} equal 0.5*(${C3neg}+${C3pos})
variable C36 equal 0.5*(${C3neg}+${C3pos})
variable C36 equal 0.5*(6082471.11172221+${C3pos})
variable C36 equal 0.5*(6082471.11172221+-6082471.11172207)
variable C4${dir} equal 0.5*(${C4neg}+${C4pos})
variable C46 equal 0.5*(${C4neg}+${C4pos})
variable C46 equal 0.5*(-3.32155722671091e-07+${C4pos})
variable C46 equal 0.5*(-3.32155722671091e-07+8.35148001512625e-07)
variable C5${dir} equal 0.5*(${C5neg}+${C5pos})
variable C56 equal 0.5*(${C5neg}+${C5pos})
variable C56 equal 0.5*(-8.00911828699197e-08+${C5pos})
variable C56 equal 0.5*(-8.00911828699197e-08+9.4976356333306e-08)
variable C6${dir} equal 0.5*(${C6neg}+${C6pos})
variable C66 equal 0.5*(${C6neg}+${C6pos})
variable C66 equal 0.5*(58.8481665378546+${C6pos})
variable C66 equal 0.5*(58.8481665378546+58.8481644192628)

# Delete dir to make sure it is not reused

variable dir delete

# Output final values

variable C11all equal ${C11}
variable C11all equal 265.017750425264
variable C22all equal ${C22}
variable C22all equal 265.017750469968
variable C33all equal ${C33}
variable C33all equal 265.017750510015

variable C12all equal 0.5*(${C12}+${C21})
variable C12all equal 0.5*(70.7075727903284+${C21})
variable C12all equal 0.5*(70.7075727903284+70.7075727200136)
variable C13all equal 0.5*(${C13}+${C31})
variable C13all equal 0.5*(70.7075727903284+${C31})
variable C13all equal 0.5*(70.7075727903284+70.7075727302581)
variable C23all equal 0.5*(${C23}+${C32})
variable C23all equal 0.5*(70.7075728150085+${C32})
variable C23all equal 0.5*(70.7075728150085+70.7075728196651)

variable C44all equal ${C44}
variable C44all equal 58.8481657098547
variable C55all equal ${C55}
variable C55all equal 58.8481658072856
variable C66all equal ${C66}
variable C66all equal 58.8481654785587

variable C14all equal 0.5*(${C14}+${C41})
variable C14all equal 0.5*(0+${C41})
variable C14all equal 0.5*(0+3.39637410403351e-09)
variable C15all equal 0.5*(${C15}+${C51})
variable C15all equal 0.5*(-5.12227416038513e-09+${C51})
variable C15all equal 0.5*(-5.12227416038513e-09+-4.06235286317e-09)
variable C16all equal 0.5*(${C16}+${C61})
variable C16all equal 0.5*(7.4971467256546e-08+${C61})
variable C16all equal 0.5*(7.4971467256546e-08+5.71884444978505e-09)

variable C24all equal 0.5*(${C24}+${C42})
variable C24all equal 0.5*(-2.00234353542328e-08+${C42})
variable C24all equal 0.5*(-2.00234353542328e-08+-1.117169678125e-09)
variable C25all equal 0.5*(${C25}+${C52})
variable C25all equal 0.5*(-9.77888703346252e-09+${C52})
variable C25all equal 0.5*(-9.77888703346252e-09+-3.3686294614485e-09)
variable C26all equal 0.5*(${C26}+${C62})
variable C26all equal 0.5*(6.47269189357758e-08+${C62})
variable C26all equal 0.5*(6.47269189357758e-08+-1.31533815980001e-09)

variable C34all equal 0.5*(${C34}+${C43})
variable C34all equal 0.5*(-1.49011611938477e-08+${C43})
variable C34all equal 0.5*(-1.49011611938477e-08+7.72493763158946e-09)
variable C35all equal 0.5*(${C35}+${C53})
variable C35all equal 0.5*(-4.65661287307739e-09+${C53})
variable C35all equal 0.5*(-4.65661287307739e-09+-3.840516289369e-09)
variable C36all equal 0.5*(${C36}+${C63})
variable C36all equal 0.5*(7.03148543834686e-08+${C63})
variable C36all equal 0.5*(7.03148543834686e-08+-1.76533496003991e-09)

variable C45all equal 0.5*(${C45}+${C54})
variable C45all equal 0.5*(-1.47461402768125e-08+${C54})
variable C45all equal 0.5*(-1.47461402768125e-08+-1.25028285244811e-08)
variable C46all equal 0.5*(${C46}+${C64})
variable C46all equal 0.5*(2.51496139420767e-07+${C64})
variable C46all equal 0.5*(2.51496139420767e-07+2.17661801011495e-07)
variable C56all equal 0.5*(${C56}+${C65})
variable C56all equal 0.5*(7.44258673169316e-09+${C65})
variable C56all equal 0.5*(7.44258673169316e-09+1.013206660059e-08)

# Average moduli for cubic crystals

variable C11cubic equal (${C11all}+${C22all}+${C33all})/3.0
variable C11cubic equal (265.017750425264+${C22all}+${C33all})/3.0
variable C11cubic equal (265.017750425264+265.017750469968+${C33all})/3.0
variable C11cubic equal (265.017750425264+265.017750469968+265.017750510015)/3.0
variable C12cubic equal (${C12all}+${C13all}+${C23all})/3.0
variable C12cubic equal (70.707572755171+${C13all}+${C23all})/3.0
variable C12cubic equal (70.707572755171+70.7075727602932+${C23all})/3.0
variable C12cubic equal (70.707572755171+70.7075727602932+70.7075728173368)/3.0
variable C44cubic equal (${C44all}+${C55all}+${C66all})/3.0
variable C44cubic equal (58.8481657098547+${C55all}+${C66all})/3.0
variable C44cubic equal (58.8481657098547+58.8481658072856+${C66all})/3.0
variable C44cubic equal (58.8481657098547+58.8481658072856+58.8481654785587)/3.0

variable bulkmodulus equal (${C11cubic}+2*${C12cubic})/3.0
variable bulkmodulus equal (265.017750468416+2*${C12cubic})/3.0
variable bulkmodulus equal (265.017750468416+2*70.7075727776003)/3.0
variable shearmodulus1 equal ${C44cubic}
variable shearmodulus1 equal 58.848165665233
variable shearmodulus2 equal (${C11cubic}-${C12cubic})/2.0
variable shearmodulus2 equal (265.017750468416-${C12cubic})/2.0
variable shearmodulus2 equal (265.017750468416-70.7075727776003)/2.0
variable poissonratio equal 1.0/(1.0+${C11cubic}/${C12cubic})
variable poissonratio equal 1.0/(1.0+265.017750468416/${C12cubic})
variable poissonratio equal 1.0/(1.0+265.017750468416/70.7075727776003)

# For Stillinger-Weber silicon, the analytical results
# are known to be (E. R. Cowley, 1988):
#               C11 = 151.4 GPa
#               C12 = 76.4 GPa
#               C44 = 56.4 GPa

print "========================================="
=========================================
print "Components of the Elastic Constant Tensor"
Components of the Elastic Constant Tensor
print "========================================="
=========================================

print "Elastic Constant C11all = ${C11all} ${cunits}"
Elastic Constant C11all = 265.017750425264 GPa
print "Elastic Constant C22all = ${C22all} ${cunits}"
Elastic Constant C22all = 265.017750469968 GPa
print "Elastic Constant C33all = ${C33all} ${cunits}"
Elastic Constant C33all = 265.017750510015 GPa

print "Elastic Constant C12all = ${C12all} ${cunits}"
Elastic Constant C12all = 70.707572755171 GPa
print "Elastic Constant C13all = ${C13all} ${cunits}"
Elastic Constant C13all = 70.7075727602932 GPa
print "Elastic Constant C23all = ${C23all} ${cunits}"
Elastic Constant C23all = 70.7075728173368 GPa

print "Elastic Constant C44all = ${C44all} ${cunits}"
Elastic Constant C44all = 58.8481657098547 GPa
print "Elastic Constant C55all = ${C55all} ${cunits}"
Elastic Constant C55all = 58.8481658072856 GPa
print "Elastic Constant C66all = ${C66all} ${cunits}"
Elastic Constant C66all = 58.8481654785587 GPa

print "Elastic Constant C14all = ${C14all} ${cunits}"
Elastic Constant C14all = 1.69818705201676e-09 GPa
print "Elastic Constant C15all = ${C15all} ${cunits}"
Elastic Constant C15all = -4.59231351177757e-09 GPa
print "Elastic Constant C16all = ${C16all} ${cunits}"
Elastic Constant C16all = 4.03451558531655e-08 GPa

print "Elastic Constant C24all = ${C24all} ${cunits}"
Elastic Constant C24all = -1.05703025161789e-08 GPa
print "Elastic Constant C25all = ${C25all} ${cunits}"
Elastic Constant C25all = -6.57375824745551e-09 GPa
print "Elastic Constant C26all = ${C26all} ${cunits}"
Elastic Constant C26all = 3.17057903879879e-08 GPa

print "Elastic Constant C34all = ${C34all} ${cunits}"
Elastic Constant C34all = -3.58811178112912e-09 GPa
print "Elastic Constant C35all = ${C35all} ${cunits}"
Elastic Constant C35all = -4.2485645812232e-09 GPa
print "Elastic Constant C36all = ${C36all} ${cunits}"
Elastic Constant C36all = 3.42747597117143e-08 GPa

print "Elastic Constant C45all = ${C45all} ${cunits}"
Elastic Constant C45all = -1.36244844006468e-08 GPa
print "Elastic Constant C46all = ${C46all} ${cunits}"
Elastic Constant C46all = 2.34578970216131e-07 GPa
print "Elastic Constant C56all = ${C56all} ${cunits}"
Elastic Constant C56all = 8.78732666614158e-09 GPa

print "========================================="
=========================================
print "Average properties for a cubic crystal"
Average properties for a cubic crystal
print "========================================="
=========================================

print "Bulk Modulus = ${bulkmodulus} ${cunits}"
Bulk Modulus = 135.477632007872 GPa
print "Shear Modulus 1 = ${shearmodulus1} ${cunits}"
Shear Modulus 1 = 58.848165665233 GPa
print "Shear Modulus 2 = ${shearmodulus2} ${cunits}"
Shear Modulus 2 = 97.1550888454078 GPa
print "Poisson Ratio = ${poissonratio}"
Poisson Ratio = 0.210611377461647
Total wall time: 0:00:02
