LAMMPS (22 Dec 2022)
  using 1 OpenMP thread(s) per MPI task
Loaded 1 plugins from C:\Program Files\LAMMPS 64-bit 23Jun2022\plugins
Loaded 0 plugins from C:\Program Files\LAMMPS 64-bit 23Jun2022-MPI\plugins
Loaded 1 plugins from C:\Program Files\LAMMPS 64-bit 22Dec2022-MSMPI\plugins
Loaded 1 plugins from C:\Program Files\LAMMPS 64-bit 28Mar2023-MPI\plugins
# Compute elastic constant tensor for a crystal
#
# Written by Aidan Thompson (Sandia, athomps@sandia.gov)
#
#  This script uses the following three include files.
#
#   init.mod      (must be modified for different crystal structures)
# 	       	  Define units, deformation parameters and initial
#		  configuration of the atoms and simulation cell.
#
#
#   potential.mod    (must be modified for different pair styles)
# 		     Define pair style and other attributes
#		     not stored in restart file
#
#
#   displace.mod    (displace.mod should not need to be modified)
# 		    Perform positive and negative box displacements
# 		    in direction ${dir} and size ${up}.
# 		    It uses the resultant changes
#		    in stress to compute one
# 		    row of the elastic stiffness tensor
#
#		    Inputs variables:
#		    	   dir = the Voigt deformation component
#		    		    (1,2,3,4,5,6)
#		    Global constants:
#       	    	   up = the deformation magnitude (strain units)
#       		   cfac = conversion from LAMMPS pressure units to
#               	   output units for elastic constants
#
#
#  To run this on a different system, it should only be necessary to
#  modify the files init.mod and potential.mod. In order to calculate
#  the elastic constants correctly, care must be taken to specify
#  the correct units in init.mod (units, cfac and cunits). It is also
#  important to verify that the minimization of energy w.r.t atom
#  positions in the deformed cell is fully converged.
#  One indication of this is that the elastic constants are insensitive
#  to the choice of the variable ${up} in init.mod. Another is to check
#  the final max and two-norm forces reported in the log file. If you know
#  that minimization is not required, you can set maxiter = 0.0 in
#  init.mod.
#

include init.mod
# NOTE: This script can be modified for different atomic structures,
# units, etc. See in.elastic for more info.
#

# Define the finite deformation size. Try several values of this
# variable to verify that results do not depend on it.
variable up equal 1.0e-6

# Define the amount of random jiggle for atoms
# This prevents atoms from staying on saddle points
variable atomjiggle equal 1.0e-5

# Uncomment one of these blocks, depending on what units
# you are using in LAMMPS and for output

# metal units, elastic constants in eV/A^3
#units		metal
#variable cfac equal 6.2414e-7
#variable cunits string eV/A^3

# metal units, elastic constants in GPa
units		metal
variable cfac equal 1.0e-4
variable cunits string GPa

# real units, elastic constants in GPa
#units		real
#variable cfac equal 1.01325e-4
#variable cunits string GPa

# Define minimization parameters
variable etol equal 0.0
variable ftol equal 1.0e-10
variable maxiter equal 100
variable maxeval equal 1000
variable dmax equal 1.0e-2

# generate the box and atom positions using a diamond lattice

dimension    3
boundary     p p p
read_data    data.in
Reading data file ...
  orthogonal box = (-0.079185415 -0.079185415 -0.079185415) to (8.612537 8.612537 8.612537)
  2 by 1 by 2 MPI processor grid
  reading atoms ...
  56 atoms
  reading velocities ...
  56 velocities
  read_data CPU = 0.001 seconds
replicate    2 3 4
Replication is creating a 2x3x4 = 24 times larger system...
  orthogonal box = (-0.079185415 -0.079185415 -0.079185415) to (17.304259 25.995982 34.687704)
  1 by 2 by 2 MPI processor grid
  1344 atoms
  replicate CPU = 0.000 seconds
change_box   all triclinic
Changing box ...
  triclinic box = (-0.079185415 -0.079185415 -0.079185415) to (17.304259 25.995982 34.687704) with tilt (0 0 0)

# Need to set mass to something, just to satisfy LAMMPS
mass 1 1.0e-20

include potential.mod
# NOTE: This script can be modified for different pair styles
# See in.elastic for more info.

# Choose potential
#-----------------------
#pair_style	sw
#pair_coeff * * Si.sw Si
#-----------------------
#pair_style morse	2.83994742	# D0[eV] a[1/A] r0[A] rc[A], 1NN for BCC
#pair_coeff 1 1	2.1173	1.0202	2.4595	2.6497	#	Fe-Fe
#-----------------------
#pair_style smatb # R0(A)   p       q     A(eV)   xi(eV)  Rcs(A)   Rc(A), 4NN: Rcs=4NN, Rc=(4NN+5NN)/2
#pair_coeff 1 1	2.4802	7.0149	2.3779	0.3144	3.0551	4.033	4.176	#	Co	Co
#-----------------------
#pair_style eam/alloy
#pair_coeff * * AlCrFeCoNi_Zhou04.eam.alloy Fe
#-----------------------
pair_style meam
pair_coeff * * ./../../library.meam Fe Cr Ni O ./../../FeCrNiO.meam Fe O
#-----------------------

# Setup neighbor style
neighbor 1.0 nsq
neigh_modify once no every 1 delay 0 check yes

# Setup minimization style
min_style	     cg
min_modify	     dmax ${dmax} line quadratic
min_modify	     dmax 0.01 line quadratic

# Setup output
thermo		1
thermo_style custom step temp pe press pxx pyy pzz pxy pxz pyz lx ly lz vol
thermo_modify norm no

# Compute initial state
fix 3 all box/relax  aniso 0.0
minimize ${etol} ${ftol} ${maxiter} ${maxeval}
minimize 0 ${ftol} ${maxiter} ${maxeval}
minimize 0 1e-10 ${maxiter} ${maxeval}
minimize 0 1e-10 100 ${maxeval}
minimize 0 1e-10 100 1000
Neighbor list info ...
  update: every = 1 steps, delay = 0 steps, check = yes
  max neighbors/atom: 2000, page size: 100000
  master list distance cutoff = 5
  ghost atom cutoff = 5
  2 neighbor lists, perpetual/occasional/extra = 2 0 0
  (1) pair meam, perpetual
      attributes: full, newton on
      pair build: full/nsq
      stencil: none
      bin: none
  (2) pair meam, perpetual, half/full from (1)
      attributes: half, newton on
      pair build: halffull/newton
      stencil: none
      bin: none
Per MPI rank memory allocation (min/avg/max) = 10.02 | 10.02 | 10.02 Mbytes
   Step          Temp          PotEng         Press           Pxx            Pyy            Pzz            Pxy            Pxz            Pyz             Lx             Ly             Lz           Volume    
         0   0             -7302.5766      3.6613138e-10  3.3880095e-10  6.2396444e-11  6.9719674e-10  2.6728434e-11  4.0544144e-11  1.6705271e-11  17.383445      26.075167      34.766889      15759.004    
         1   0             -7302.5766     -1.9564732e-12  3.6173684e-10 -2.4254247e-10 -1.2506379e-10  2.1039612e-11  5.0386709e-11 -1.6253777e-12  17.383445      26.075167      34.766889      15759.004    
Loop time of 0.00234 on 4 procs for 1 steps with 1344 atoms

0.0% CPU use with 4 MPI tasks x 1 OpenMP threads

Minimization stats:
  Stopping criterion = force tolerance
  Energy initial, next-to-last, final = 
     -7302.57660876464  -7302.57660876464  -7302.57660876464
  Force two-norm initial, final = 8.3584766e-12 5.597782e-12
  Force max component initial, final = 6.8576256e-12 3.5580427e-12
  Final line search alpha, max atom move = 1 3.5580427e-12
  Iterations, force evaluations = 1 2

MPI task timing breakdown:
Section |  min time  |  avg time  |  max time  |%varavg| %total
---------------------------------------------------------------
Pair    | 0.002111   | 0.0021133  | 0.002116   |   0.0 | 90.31
Neigh   | 0          | 0          | 0          |   0.0 |  0.00
Comm    | 0.0001     | 0.000103   | 0.000106   |   0.0 |  4.40
Output  | 0          | 0          | 0          |   0.0 |  0.00
Modify  | 0          | 0          | 0          |   0.0 |  0.00
Other   |            | 0.0001237  |            |       |  5.29

Nlocal:            336 ave         336 max         336 min
Histogram: 4 0 0 0 0 0 0 0 0 0
Nghost:            981 ave         981 max         981 min
Histogram: 4 0 0 0 0 0 0 0 0 0
Neighs:           6528 ave        6532 max        6524 min
Histogram: 1 0 1 0 0 0 0 1 0 1
FullNghs:        13056 ave       13056 max       13056 min
Histogram: 4 0 0 0 0 0 0 0 0 0

Total # of neighbors = 52224
Ave neighs/atom = 38.857143
Neighbor list builds = 0
Dangerous builds = 0

variable tmp equal pxx
variable pxx0 equal ${tmp}
variable pxx0 equal 3.61736840060146e-10
variable tmp equal pyy
variable pyy0 equal ${tmp}
variable pyy0 equal -2.42542474388805e-10
variable tmp equal pzz
variable pzz0 equal ${tmp}
variable pzz0 equal -1.25063785193036e-10
variable tmp equal pyz
variable pyz0 equal ${tmp}
variable pyz0 equal -1.62537771370011e-12
variable tmp equal pxz
variable pxz0 equal ${tmp}
variable pxz0 equal 5.03867091247033e-11
variable tmp equal pxy
variable pxy0 equal ${tmp}
variable pxy0 equal 2.10396115162292e-11

variable tmp equal lx
variable lx0 equal ${tmp}
variable lx0 equal 17.3834447386905
variable tmp equal ly
variable ly0 equal ${tmp}
variable ly0 equal 26.0751671080358
variable tmp equal lz
variable lz0 equal ${tmp}
variable lz0 equal 34.766889477381

# These formulas define the derivatives w.r.t. strain components
# Constants uses $, variables use v_
variable d1 equal -(v_pxx1-${pxx0})/(v_delta/v_len0)*${cfac}
variable d1 equal -(v_pxx1-3.61736840060146e-10)/(v_delta/v_len0)*${cfac}
variable d1 equal -(v_pxx1-3.61736840060146e-10)/(v_delta/v_len0)*0.0001
variable d2 equal -(v_pyy1-${pyy0})/(v_delta/v_len0)*${cfac}
variable d2 equal -(v_pyy1--2.42542474388805e-10)/(v_delta/v_len0)*${cfac}
variable d2 equal -(v_pyy1--2.42542474388805e-10)/(v_delta/v_len0)*0.0001
variable d3 equal -(v_pzz1-${pzz0})/(v_delta/v_len0)*${cfac}
variable d3 equal -(v_pzz1--1.25063785193036e-10)/(v_delta/v_len0)*${cfac}
variable d3 equal -(v_pzz1--1.25063785193036e-10)/(v_delta/v_len0)*0.0001
variable d4 equal -(v_pyz1-${pyz0})/(v_delta/v_len0)*${cfac}
variable d4 equal -(v_pyz1--1.62537771370011e-12)/(v_delta/v_len0)*${cfac}
variable d4 equal -(v_pyz1--1.62537771370011e-12)/(v_delta/v_len0)*0.0001
variable d5 equal -(v_pxz1-${pxz0})/(v_delta/v_len0)*${cfac}
variable d5 equal -(v_pxz1-5.03867091247033e-11)/(v_delta/v_len0)*${cfac}
variable d5 equal -(v_pxz1-5.03867091247033e-11)/(v_delta/v_len0)*0.0001
variable d6 equal -(v_pxy1-${pxy0})/(v_delta/v_len0)*${cfac}
variable d6 equal -(v_pxy1-2.10396115162292e-11)/(v_delta/v_len0)*${cfac}
variable d6 equal -(v_pxy1-2.10396115162292e-11)/(v_delta/v_len0)*0.0001

displace_atoms all random ${atomjiggle} ${atomjiggle} ${atomjiggle} 87287 units box
displace_atoms all random 1e-05 ${atomjiggle} ${atomjiggle} 87287 units box
displace_atoms all random 1e-05 1e-05 ${atomjiggle} 87287 units box
displace_atoms all random 1e-05 1e-05 1e-05 87287 units box
Displacing atoms ...

# Write restart
unfix 3
write_restart restart.equil
System init for write_restart ...

# uxx Perturbation

variable dir equal 1
include displace.mod
# NOTE: This script should not need to be
# modified. See in.elastic for more info.
#
# Find which reference length to use

if "${dir} == 1" then    "variable len0 equal ${lx0}"
variable len0 equal ${lx0}
variable len0 equal 17.3834447386905
if "${dir} == 2" then    "variable len0 equal ${ly0}"
if "${dir} == 3" then    "variable len0 equal ${lz0}"
if "${dir} == 4" then    "variable len0 equal ${lz0}"
if "${dir} == 5" then    "variable len0 equal ${lz0}"
if "${dir} == 6" then    "variable len0 equal ${ly0}"

# Reset box and simulation parameters

clear
  using 1 OpenMP thread(s) per MPI task
Loaded 1 plugins from C:\Program Files\LAMMPS 64-bit 23Jun2022\plugins
Loaded 0 plugins from C:\Program Files\LAMMPS 64-bit 23Jun2022-MPI\plugins
Loaded 1 plugins from C:\Program Files\LAMMPS 64-bit 22Dec2022-MSMPI\plugins
Loaded 1 plugins from C:\Program Files\LAMMPS 64-bit 28Mar2023-MPI\plugins
box tilt large

The 'box' command has been removed and will be ignored

read_restart restart.equil
Reading restart file ...
  restart file = 22 Dec 2022, LAMMPS = 22 Dec 2022
  restoring atom style atomic from restart
  triclinic box = (-0.079185415 -0.079185415 -0.079185415) to (17.304259 25.995982 34.687704) with tilt (0 0 0)
  1 by 2 by 2 MPI processor grid
  pair style meam stores no restart info
  1344 atoms
  read_restart CPU = 0.000 seconds
include potential.mod
# NOTE: This script can be modified for different pair styles
# See in.elastic for more info.

# Choose potential
#-----------------------
#pair_style	sw
#pair_coeff * * Si.sw Si
#-----------------------
#pair_style morse	2.83994742	# D0[eV] a[1/A] r0[A] rc[A], 1NN for BCC
#pair_coeff 1 1	2.1173	1.0202	2.4595	2.6497	#	Fe-Fe
#-----------------------
#pair_style smatb # R0(A)   p       q     A(eV)   xi(eV)  Rcs(A)   Rc(A), 4NN: Rcs=4NN, Rc=(4NN+5NN)/2
#pair_coeff 1 1	2.4802	7.0149	2.3779	0.3144	3.0551	4.033	4.176	#	Co	Co
#-----------------------
#pair_style eam/alloy
#pair_coeff * * AlCrFeCoNi_Zhou04.eam.alloy Fe
#-----------------------
pair_style meam
pair_coeff * * ./../../library.meam Fe Cr Ni O ./../../FeCrNiO.meam Fe O
#-----------------------

# Setup neighbor style
neighbor 1.0 nsq
neigh_modify once no every 1 delay 0 check yes

# Setup minimization style
min_style	     cg
min_modify	     dmax ${dmax} line quadratic
min_modify	     dmax 0.01 line quadratic

# Setup output
thermo		1
thermo_style custom step temp pe press pxx pyy pzz pxy pxz pyz lx ly lz vol
thermo_modify norm no

# Negative deformation

variable delta equal -${up}*${len0}
variable delta equal -1e-06*${len0}
variable delta equal -1e-06*17.3834447386905
variable deltaxy equal -${up}*xy
variable deltaxy equal -1e-06*xy
variable deltaxz equal -${up}*xz
variable deltaxz equal -1e-06*xz
variable deltayz equal -${up}*yz
variable deltayz equal -1e-06*yz
if "${dir} == 1" then    "change_box all x delta 0 ${delta} xy delta ${deltaxy} xz delta ${deltaxz} remap units box"
change_box all x delta 0 ${delta} xy delta ${deltaxy} xz delta ${deltaxz} remap units box
change_box all x delta 0 -1.73834447386905e-05 xy delta ${deltaxy} xz delta ${deltaxz} remap units box
change_box all x delta 0 -1.73834447386905e-05 xy delta -0 xz delta ${deltaxz} remap units box
change_box all x delta 0 -1.73834447386905e-05 xy delta -0 xz delta -0 remap units box
Changing box ...
  triclinic box = (-0.079185415 -0.079185415 -0.079185415) to (17.304242 25.995982 34.687704) with tilt (0 0 0)
  triclinic box = (-0.079185415 -0.079185415 -0.079185415) to (17.304242 25.995982 34.687704) with tilt (0 0 0)
  triclinic box = (-0.079185415 -0.079185415 -0.079185415) to (17.304242 25.995982 34.687704) with tilt (0 0 0)
if "${dir} == 2" then    "change_box all y delta 0 ${delta} yz delta ${deltayz} remap units box"
if "${dir} == 3" then    "change_box all z delta 0 ${delta} remap units box"
if "${dir} == 4" then    "change_box all yz delta ${delta} remap units box"
if "${dir} == 5" then    "change_box all xz delta ${delta} remap units box"
if "${dir} == 6" then    "change_box all xy delta ${delta} remap units box"

# Relax atoms positions

minimize ${etol} ${ftol} ${maxiter} ${maxeval}
minimize 0 ${ftol} ${maxiter} ${maxeval}
minimize 0 1e-10 ${maxiter} ${maxeval}
minimize 0 1e-10 100 ${maxeval}
minimize 0 1e-10 100 1000
Neighbor list info ...
  update: every = 1 steps, delay = 0 steps, check = yes
  max neighbors/atom: 2000, page size: 100000
  master list distance cutoff = 5
  ghost atom cutoff = 5
  2 neighbor lists, perpetual/occasional/extra = 2 0 0
  (1) pair meam, perpetual
      attributes: full, newton on
      pair build: full/nsq
      stencil: none
      bin: none
  (2) pair meam, perpetual, half/full from (1)
      attributes: half, newton on
      pair build: halffull/newton
      stencil: none
      bin: none
Per MPI rank memory allocation (min/avg/max) = 10.02 | 10.02 | 10.02 Mbytes
   Step          Temp          PotEng         Press           Pxx            Pyy            Pzz            Pxy            Pxz            Pyz             Lx             Ly             Lz           Volume    
         1   0             -7302.5766      0.9559128      2.3173982      0.034431391    0.51590877    -0.025410689    0.052458089   -0.015118582    17.383427      26.075167      34.766889      15758.989    
         2   0             -7302.5766      0.92126349     1.7938347      0.37102528     0.59893045    -0.018379707    0.016545607   -0.0097727361   17.383427      26.075167      34.766889      15758.989    
         3   0             -7302.5766      0.90270473     1.4095943      0.63014545     0.66837442    -0.012377314   -0.0045950888  -0.0058294981   17.383427      26.075167      34.766889      15758.989    
         4   0             -7302.5766      0.90206102     1.2626758      0.74057713     0.70293018    -0.0076115389  -0.0069268035  -0.0035078029   17.383427      26.075167      34.766889      15758.989    
         5   0             -7302.5766      0.90854349     1.3114163      0.7149718      0.69924235    -0.001756985    0.0014303153  -0.0010643706   17.383427      26.075167      34.766889      15758.989    
         6   0             -7302.5766      0.90794192     1.3512875      0.68363706     0.68890116     0.0015917805   0.0029003777   0.0006156569   17.383427      26.075167      34.766889      15758.989    
         7   0             -7302.5766      0.90363954     1.3631432      0.66706444     0.68071097     0.0037548551  -7.1392083e-05  0.0019757271   17.383427      26.075167      34.766889      15758.989    
         8   0             -7302.5766      0.90472446     1.3413399      0.68552952     0.68730401     0.0024533796  -0.00044542278  0.0012914836   17.383427      26.075167      34.766889      15758.989    
         9   0             -7302.5766      0.90676927     1.3295219      0.69810134     0.69268457     0.00035238571  0.00073226724  0.00010274324  17.383427      26.075167      34.766889      15758.989    
        10   0             -7302.5766      0.90632455     1.3330162      0.69466561     0.69129181    -0.00057356031  0.00051160674 -0.00034362895  17.383427      26.075167      34.766889      15758.989    
        11   0             -7302.5766      0.90506731     1.3419904      0.68563902     0.68757246    -0.00081479783 -0.00045787534 -0.00037222394  17.383427      26.075167      34.766889      15758.989    
        12   0             -7302.5766      0.90576251     1.3418146      0.68699553     0.68847744    -0.00057419787 -0.00036842901 -0.00026062008  17.383427      26.075167      34.766889      15758.989    
        13   0             -7302.5766      0.90607856     1.3380259      0.69042852     0.68978128    -0.00023032265  6.9611501e-05 -0.0001269757   17.383427      26.075167      34.766889      15758.989    
        14   0             -7302.5766      0.90571874     1.3368389      0.69069689     0.68962044     9.3787174e-05  0.00016024622  3.1452636e-05  17.383427      26.075167      34.766889      15758.989    
        15   0             -7302.5766      0.90538511     1.3383304      0.68897741     0.68884752     0.00037515428  3.3397892e-05  0.00018984928  17.383427      26.075167      34.766889      15758.989    
        16   0             -7302.5766      0.90576591     1.3405513      0.68796086     0.68878557     0.00032876126  1.4745293e-06  0.00017127402  17.383427      26.075167      34.766889      15758.989    
        17   0             -7302.5766      0.90583656     1.3392443      0.68907758     0.68918779     4.6406567e-05  8.8452633e-05  1.6602166e-05  17.383427      26.075167      34.766889      15758.989    
        18   0             -7302.5766      0.90569684     1.337832       0.68990418     0.6893543     -0.0001693702   5.8340338e-05 -9.3850307e-05  17.383427      26.075167      34.766889      15758.989    
        19   0             -7302.5766      0.90559872     1.3382461      0.68941721     0.68913289    -0.0001768065  -9.3814409e-05 -8.3981997e-05  17.383427      26.075167      34.766889      15758.989    
        20   0             -7302.5766      0.90570276     1.3395447      0.68861416     0.68894944    -8.8700914e-05 -0.00010528615 -3.5316395e-05  17.383427      26.075167      34.766889      15758.989    
        21   0             -7302.5766      0.90574589     1.3393429      0.68884319     0.68905153    -2.5050514e-05  4.3459939e-05 -1.5454011e-05  17.383427      26.075167      34.766889      15758.989    
        22   0             -7302.5766      0.90570695     1.3387767      0.68920467     0.68913951     3.0514703e-05  8.134447e-05   8.6229723e-06  17.383427      26.075167      34.766889      15758.989    
        23   0             -7302.5766      0.90563702     1.3383841      0.68937973     0.6891472      9.9503693e-05 -2.6696879e-05  5.1964301e-05  17.383427      26.075167      34.766889      15758.989    
        24   0             -7302.5766      0.90569925     1.3389005      0.6890971      0.68910011     7.5457783e-05 -1.7388813e-05  4.0212044e-05  17.383427      26.075167      34.766889      15758.989    
        25   0             -7302.5766      0.90573811     1.3393057      0.68885784     0.68905084    -1.7107285e-06  4.3151226e-05 -3.3028354e-06  17.383427      26.075167      34.766889      15758.989    
        26   0             -7302.5766      0.90570238     1.3391198      0.68893608     0.68905124    -4.1786175e-05  2.8113621e-05 -2.3169374e-05  17.383427      26.075167      34.766889      15758.989    
        27   0             -7302.5766      0.90563649     1.3384829      0.68930383     0.6891228     -4.9336479e-05 -6.4428985e-05 -2.1180612e-05  17.383427      26.075167      34.766889      15758.989    
        28   0             -7302.5766      0.90571397     1.3387507      0.68923676     0.68915445    -3.2812942e-05 -1.8580513e-05 -1.5579291e-05  17.383427      26.075167      34.766889      15758.989    
        29   0             -7302.5766      0.90572648     1.3390751      0.68901247     0.68909191    -7.8275746e-06  2.7589734e-05 -5.6470122e-06  17.383427      26.075167      34.766889      15758.989    
        30   0             -7302.5766      0.90568184     1.3391133      0.6889049      0.68902732     2.3332115e-05  2.5090795e-05  1.0498455e-05  17.383427      26.075167      34.766889      15758.989    
        31   0             -7302.5766      0.90566161     1.3388671      0.68905625     0.68906148     4.0116497e-05 -8.0007803e-06  2.100641e-05   17.383427      26.075167      34.766889      15758.989    
        32   0             -7302.5766      0.9057233      1.338703       0.68928937     0.6891775      1.6786447e-05 -2.0409375e-06  8.2823297e-06  17.383427      26.075167      34.766889      15758.989    
        33   0             -7302.5766      0.90570953     1.3388186      0.68917738     0.6891326     -2.0785004e-06  8.3053075e-06 -1.8090245e-06  17.383427      26.075167      34.766889      15758.989    
        34   0             -7302.5766      0.90567076     1.3389987      0.68897241     0.68904115    -1.4947879e-05  5.4066385e-06 -7.7230642e-06  17.383427      26.075167      34.766889      15758.989    
        35   0             -7302.5766      0.90568141     1.3389917      0.68899645     0.68905605    -1.6127223e-05 -1.1427808e-05 -7.1667346e-06  17.383427      26.075167      34.766889      15758.989    
        36   0             -7302.5766      0.90571025     1.3388407      0.68916183     0.68912816    -1.146082e-05  -8.9705446e-06 -5.3547216e-06  17.383427      26.075167      34.766889      15758.989    
        37   0             -7302.5766      0.90569328     1.3388055      0.68915878     0.6891156     -1.7240577e-06  5.4502552e-06 -1.4470404e-06  17.383427      26.075167      34.766889      15758.989    
        38   0             -7302.5766      0.9056813      1.3388602      0.68909613     0.68908756     7.2972755e-06  8.5373012e-06  3.0928501e-06  17.383427      26.075167      34.766889      15758.989    
        39   0             -7302.5766      0.90569579     1.33898        0.68903068     0.68907672     1.4450746e-05 -3.975645e-06   7.8580462e-06  17.383427      26.075167      34.766889      15758.989    
        40   0             -7302.5766      0.90570092     1.3389332      0.68907523     0.68909434     7.3442601e-06 -2.0298008e-06  3.9348502e-06  17.383427      26.075167      34.766889      15758.989    
        41   0             -7302.5766      0.90569        1.3388333      0.68913188     0.68910484    -3.3452832e-06  4.8453437e-06 -2.1984874e-06  17.383427      26.075167      34.766889      15758.989    
        42   0             -7302.5766      0.90568419     1.3388104      0.689139       0.68910312    -9.1539937e-06  3.2248411e-06 -5.0266626e-06  17.383427      26.075167      34.766889      15758.989    
        43   0             -7302.5766      0.90569504     1.3389119      0.68908108     0.68909218    -7.1393005e-06 -7.7955024e-06 -2.9695993e-06  17.383427      26.075167      34.766889      15758.989    
        44   0             -7302.5766      0.90569763     1.3389467      0.68905915     0.689087      -3.250931e-06  -1.6748358e-06 -1.4646841e-06  17.383427      26.075167      34.766889      15758.989    
        45   0             -7302.5766      0.9056917      1.3388994      0.68908466     0.68909103     2.5981869e-08  3.5399137e-06 -2.7667475e-07  17.383427      26.075167      34.766889      15758.989    
        46   0             -7302.5766      0.90568829     1.3388471      0.68911834     0.68909938     3.7715372e-06  2.7147445e-06  1.6529182e-06  17.383427      26.075167      34.766889      15758.989    
        47   0             -7302.5766      0.90569314     1.3388562      0.68912        0.68910322     6.45734e-06   -1.5968424e-06  3.4059522e-06  17.383427      26.075167      34.766889      15758.989    
        48   0             -7302.5766      0.90569612     1.3389206      0.6890763      0.6890914      3.0611592e-06  5.2596757e-07  1.5798928e-06  17.383427      26.075167      34.766889      15758.989    
        49   0             -7302.5766      0.90569196     1.3389137      0.68907426     0.68908791    -7.8931279e-07  1.7293061e-06 -5.1138315e-07  17.383427      26.075167      34.766889      15758.989    
        50   0             -7302.5766      0.90568852     1.338875       0.68909758     0.68909295    -4.1636088e-06  2.981181e-07  -2.1897121e-06  17.383427      26.075167      34.766889      15758.989    
        51   0             -7302.5766      0.90569406     1.3388699      0.68911118     0.68910105    -3.2338939e-06 -2.5044662e-06 -1.4839886e-06  17.383427      26.075167      34.766889      15758.989    
        52   0             -7302.5766      0.90569623     1.3388944      0.68909643     0.68909786    -5.9597333e-07 -1.4612723e-06 -1.6118991e-07  17.383427      26.075167      34.766889      15758.989    
        53   0             -7302.5766      0.90569141     1.3388983      0.68908498     0.68909094     5.7247585e-07  1.1058776e-06  2.2898088e-07  17.383427      26.075167      34.766889      15758.989    
        54   0             -7302.5766      0.90568906     1.3388907      0.68908661     0.68908985     1.4134483e-06  1.9610648e-06  5.6127069e-07  17.383427      26.075167      34.766889      15758.989    
        55   0             -7302.5766      0.9056953      1.3388792      0.68910632     0.68910036     2.0524959e-06 -9.1292275e-07  1.0934969e-06  17.383427      26.075167      34.766889      15758.989    
        56   0             -7302.5766      0.90569439     1.3388831      0.6891018      0.6890983      9.9162655e-07 -6.3302357e-07  5.5762256e-07  17.383427      26.075167      34.766889      15758.989    
        57   0             -7302.5766      0.90569011     1.3388931      0.68908668     0.68909059    -8.9199057e-07  1.0293671e-06 -5.0976079e-07  17.383427      26.075167      34.766889      15758.989    
        58   0             -7302.5766      0.90569047     1.3388957      0.68908533     0.6890904     -1.6936973e-06  7.2971162e-07 -9.0650688e-07  17.383427      26.075167      34.766889      15758.989    
        59   0             -7302.5766      0.90569617     1.3388852      0.68910328     0.68909999    -9.5697735e-07 -1.9657178e-06 -3.6306975e-07  17.383427      26.075167      34.766889      15758.989    
        60   0             -7302.5766      0.90569274     1.3388794      0.68910167     0.68909713    -1.0983365e-07 -5.0644178e-07 -3.1589917e-08  17.383427      26.075167      34.766889      15758.989    
        61   0             -7302.5766      0.90569032     1.3388856      0.68909271     0.68909264     4.469981e-07   1.0999216e-06  1.5320106e-07  17.383427      26.075167      34.766889      15758.989    
        62   0             -7302.5766      0.90569176     1.3388971      0.6890865      0.68909165     1.0756557e-06  1.2430557e-06  4.7741868e-07  17.383427      26.075167      34.766889      15758.989    
        63   0             -7302.5766      0.90569447     1.338894       0.68909362     0.68909576     1.1147243e-06 -3.8554218e-07  6.0084513e-07  17.383427      26.075167      34.766889      15758.989    
        64   0             -7302.5766      0.90569224     1.3388781      0.68910176     0.68909682    -3.4187687e-08 -5.6553484e-07  3.7155477e-09  17.383427      26.075167      34.766889      15758.989    
        65   0             -7302.5766      0.90569153     1.3388801      0.68909898     0.68909545    -6.502154e-07   4.7856327e-08 -3.4722866e-07  17.383427      26.075167      34.766889      15758.989    
        66   0             -7302.5766      0.90569262     1.3388927      0.6890914      0.6890938     -7.859129e-07   4.0322287e-07 -4.1836932e-07  17.383427      26.075167      34.766889      15758.989    
        67   0             -7302.5766      0.90569364     1.3388963      0.68909043     0.68909419    -2.1470552e-07 -4.7601329e-07 -6.0559936e-08  17.383427      26.075167      34.766889      15758.989    
        68   0             -7302.5766      0.90569245     1.3388867      0.68909566     0.68909503     1.1913683e-07 -4.2018469e-07  8.6086876e-08  17.383427      26.075167      34.766889      15758.989    
        69   0             -7302.5766      0.90569188     1.3388818      0.68909831     0.68909548     1.9239886e-07  3.9694981e-07  5.724854e-08   17.383427      26.075167      34.766889      15758.989    
        70   0             -7302.5766      0.90569235     1.3388843      0.68909724     0.68909546     3.0307974e-07  6.1586984e-07  1.0462311e-07  17.383427      26.075167      34.766889      15758.989    
        71   0             -7302.5766      0.90569329     1.338893       0.68909234     0.68909456     4.1697287e-07 -3.8160897e-07  2.5080069e-07  17.383427      26.075167      34.766889      15758.989    
        72   0             -7302.5766      0.90569268     1.3388917      0.68909224     0.68909411     5.9993203e-08 -3.1469636e-07  5.9252655e-08  17.383427      26.075167      34.766889      15758.989    
        73   0             -7302.5766      0.90569213     1.3388866      0.68909518     0.68909466    -3.2145055e-07  1.6969233e-07 -1.8072262e-07  17.383427      26.075167      34.766889      15758.989    
        74   0             -7302.5766      0.90569243     1.3388848      0.68909707     0.68909546    -3.5961911e-07  2.052153e-07  -2.045184e-07   17.383427      26.075167      34.766889      15758.989    
        75   0             -7302.5766      0.90569306     1.3388886      0.68909528     0.68909533    -2.2508343e-09 -2.9123672e-07  2.3149716e-08  17.383427      26.075167      34.766889      15758.989    
        76   0             -7302.5766      0.9056924      1.3388893      0.68909354     0.68909433     5.6150129e-08  6.821425e-09   3.0384641e-08  17.383427      26.075167      34.766889      15758.989    
        77   0             -7302.5766      0.90569219     1.3388885      0.6890938      0.68909426     5.9971757e-08  2.3136586e-07  1.281587e-08   17.383427      26.075167      34.766889      15758.989    
        78   0             -7302.5766      0.90569264     1.3388875      0.68909536     0.68909507     9.0640814e-08  9.3360737e-08  3.7569675e-08  17.383427      26.075167      34.766889      15758.989    
        79   0             -7302.5766      0.90569288     1.3388875      0.6890958      0.68909537     9.5455729e-08 -1.3777174e-07  5.8949666e-08  17.383427      26.075167      34.766889      15758.989    
        80   0             -7302.5766      0.90569243     1.3388882      0.68909446     0.68909464    -2.0966581e-08 -2.3854636e-09 -9.396973e-09   17.383427      26.075167      34.766889      15758.989    
        81   0             -7302.5766      0.90569244     1.3388884      0.68909431     0.6890946     -7.305579e-08   5.9657485e-08 -4.1215722e-08  17.383427      26.075167      34.766889      15758.989    
        82   0             -7302.5766      0.9056927      1.3388882      0.68909496     0.68909498    -6.8424046e-08  9.5068166e-09 -3.6301494e-08  17.383427      26.075167      34.766889      15758.989    
        83   0             -7302.5766      0.90569266     1.3388877      0.68909521     0.68909503    -1.1054792e-08 -6.0999549e-08 -1.4791294e-09  17.383427      26.075167      34.766889      15758.989    
        84   0             -7302.5766      0.9056925      1.3388878      0.68909488     0.68909482     2.228526e-08  -8.4003498e-09  1.2368248e-08  17.383427      26.075167      34.766889      15758.989    
        85   0             -7302.5766      0.90569256     1.3388881      0.68909472     0.68909481     2.5210672e-08  4.112493e-08   1.0178475e-08  17.383427      26.075167      34.766889      15758.989    
        86   0             -7302.5766      0.90569265     1.3388883      0.68909479     0.68909489     2.2704518e-08  3.2387419e-08  9.1480448e-09  17.383427      26.075167      34.766889      15758.989    
        87   0             -7302.5766      0.90569261     1.3388879      0.68909499     0.68909493     1.4295708e-08 -3.5291928e-08  9.6205752e-09  17.383427      26.075167      34.766889      15758.989    
        88   0             -7302.5766      0.90569257     1.3388879      0.68909494     0.68909489    -4.8227262e-09 -8.170511e-09  -1.9254371e-09  17.383427      26.075167      34.766889      15758.989    
        89   0             -7302.5766      0.90569258     1.338888       0.68909485     0.68909486    -1.7209787e-08  2.1209416e-08 -1.0199284e-08  17.383427      26.075167      34.766889      15758.989    
        90   0             -7302.5766      0.90569261     1.3388881      0.68909483     0.68909488    -1.3392584e-08  1.0415301e-08 -7.4719792e-09  17.383427      26.075167      34.766889      15758.989    
        91   0             -7302.5766      0.9056926      1.338888       0.6890949      0.68909489     1.0271043e-09 -2.1526415e-08  2.0443921e-09  17.383427      26.075167      34.766889      15758.989    
        92   0             -7302.5766      0.90569258     1.338888       0.68909491     0.68909489     1.4824814e-09  1.9619613e-09  5.2973822e-10  17.383427      26.075167      34.766889      15758.989    
        93   0             -7302.5766      0.90569259     1.338888       0.6890949      0.68909488     2.0095107e-09  1.2615051e-08  1.1147887e-10  17.383427      26.075167      34.766889      15758.989    
        94   0             -7302.5766      0.9056926      1.338888       0.68909487     0.68909489     4.7192889e-09  2.9090343e-09  2.2524699e-09  17.383427      26.075167      34.766889      15758.989    
        95   0             -7302.5766      0.9056926      1.338888       0.68909487     0.68909488     4.0281866e-09 -5.855374e-09   2.4970109e-09  17.383427      26.075167      34.766889      15758.989    
        96   0             -7302.5766      0.90569259     1.338888       0.68909489     0.68909488    -2.8361966e-09  2.8156159e-09 -1.7448595e-09  17.383427      26.075167      34.766889      15758.989    
        97   0             -7302.5766      0.90569259     1.338888       0.6890949      0.68909489    -3.7256855e-09  2.9019236e-09 -2.1696454e-09  17.383427      26.075167      34.766889      15758.989    
        98   0             -7302.5766      0.9056926      1.338888       0.68909489     0.68909489    -1.4502899e-09 -2.0790154e-09 -5.4017832e-10  17.383427      26.075167      34.766889      15758.989    
Loop time of 0.151404 on 4 procs for 97 steps with 1344 atoms

51.6% CPU use with 4 MPI tasks x 1 OpenMP threads

Minimization stats:
  Stopping criterion = force tolerance
  Energy initial, next-to-last, final = 
     -7302.57660806353  -7302.57660875814  -7302.57660875814
  Force two-norm initial, final = 0.0046738642 8.9593728e-11
  Force max component initial, final = 0.0002521689 6.0661476e-12
  Final line search alpha, max atom move = 1 6.0661476e-12
  Iterations, force evaluations = 97 194

MPI task timing breakdown:
Section |  min time  |  avg time  |  max time  |%varavg| %total
---------------------------------------------------------------
Pair    | 0.14034    | 0.14062    | 0.14101    |   0.1 | 92.88
Neigh   | 0          | 0          | 0          |   0.0 |  0.00
Comm    | 0.006985   | 0.0074357  | 0.007779   |   0.3 |  4.91
Output  | 0.001267   | 0.0013355  | 0.001527   |   0.3 |  0.88
Modify  | 0          | 0          | 0          |   0.0 |  0.00
Other   |            | 0.002014   |            |       |  1.33

Nlocal:            336 ave         339 max         333 min
Histogram: 1 0 0 0 0 2 0 0 0 1
Nghost:            981 ave         984 max         978 min
Histogram: 1 0 0 0 0 2 0 0 0 1
Neighs:           6528 ave        6591 max        6465 min
Histogram: 1 0 0 0 1 1 0 0 0 1
FullNghs:        13056 ave       13188 max       12924 min
Histogram: 1 0 0 0 0 2 0 0 0 1

Total # of neighbors = 52224
Ave neighs/atom = 38.857143
Neighbor list builds = 0
Dangerous builds = 0

# Obtain new stress tensor

variable tmp equal pxx
variable pxx1 equal ${tmp}
variable pxx1 equal 1.33888802533912
variable tmp equal pyy
variable pyy1 equal ${tmp}
variable pyy1 equal 0.689094886662847
variable tmp equal pzz
variable pzz1 equal ${tmp}
variable pzz1 equal 0.689094889600269
variable tmp equal pxy
variable pxy1 equal ${tmp}
variable pxy1 equal -1.45028986471972e-09
variable tmp equal pxz
variable pxz1 equal ${tmp}
variable pxz1 equal -2.07901537583478e-09
variable tmp equal pyz
variable pyz1 equal ${tmp}
variable pyz1 equal -5.40178315584141e-10

# Compute elastic constant from pressure tensor

variable C1neg equal ${d1}
variable C1neg equal 133.888802497738
variable C2neg equal ${d2}
variable C2neg equal 68.909488690539
variable C3neg equal ${d3}
variable C3neg equal 68.9094889725333
variable C4neg equal ${d4}
variable C4neg equal -5.38552937870441e-08
variable C5neg equal ${d5}
variable C5neg equal -2.12940208495948e-07
variable C6neg equal ${d6}
variable C6neg equal -1.47132947623595e-07

# Reset box and simulation parameters

clear
  using 1 OpenMP thread(s) per MPI task
Loaded 1 plugins from C:\Program Files\LAMMPS 64-bit 23Jun2022\plugins
Loaded 0 plugins from C:\Program Files\LAMMPS 64-bit 23Jun2022-MPI\plugins
Loaded 1 plugins from C:\Program Files\LAMMPS 64-bit 22Dec2022-MSMPI\plugins
Loaded 1 plugins from C:\Program Files\LAMMPS 64-bit 28Mar2023-MPI\plugins
box tilt large

The 'box' command has been removed and will be ignored

read_restart restart.equil
Reading restart file ...
  restart file = 22 Dec 2022, LAMMPS = 22 Dec 2022
  restoring atom style atomic from restart
  triclinic box = (-0.079185415 -0.079185415 -0.079185415) to (17.304259 25.995982 34.687704) with tilt (0 0 0)
  1 by 2 by 2 MPI processor grid
  pair style meam stores no restart info
  1344 atoms
  read_restart CPU = 0.000 seconds
include potential.mod
# NOTE: This script can be modified for different pair styles
# See in.elastic for more info.

# Choose potential
#-----------------------
#pair_style	sw
#pair_coeff * * Si.sw Si
#-----------------------
#pair_style morse	2.83994742	# D0[eV] a[1/A] r0[A] rc[A], 1NN for BCC
#pair_coeff 1 1	2.1173	1.0202	2.4595	2.6497	#	Fe-Fe
#-----------------------
#pair_style smatb # R0(A)   p       q     A(eV)   xi(eV)  Rcs(A)   Rc(A), 4NN: Rcs=4NN, Rc=(4NN+5NN)/2
#pair_coeff 1 1	2.4802	7.0149	2.3779	0.3144	3.0551	4.033	4.176	#	Co	Co
#-----------------------
#pair_style eam/alloy
#pair_coeff * * AlCrFeCoNi_Zhou04.eam.alloy Fe
#-----------------------
pair_style meam
pair_coeff * * ./../../library.meam Fe Cr Ni O ./../../FeCrNiO.meam Fe O
#-----------------------

# Setup neighbor style
neighbor 1.0 nsq
neigh_modify once no every 1 delay 0 check yes

# Setup minimization style
min_style	     cg
min_modify	     dmax ${dmax} line quadratic
min_modify	     dmax 0.01 line quadratic

# Setup output
thermo		1
thermo_style custom step temp pe press pxx pyy pzz pxy pxz pyz lx ly lz vol
thermo_modify norm no

# Positive deformation

variable delta equal ${up}*${len0}
variable delta equal 1e-06*${len0}
variable delta equal 1e-06*17.3834447386905
variable deltaxy equal ${up}*xy
variable deltaxy equal 1e-06*xy
variable deltaxz equal ${up}*xz
variable deltaxz equal 1e-06*xz
variable deltayz equal ${up}*yz
variable deltayz equal 1e-06*yz
if "${dir} == 1" then    "change_box all x delta 0 ${delta} xy delta ${deltaxy} xz delta ${deltaxz} remap units box"
change_box all x delta 0 ${delta} xy delta ${deltaxy} xz delta ${deltaxz} remap units box
change_box all x delta 0 1.73834447386905e-05 xy delta ${deltaxy} xz delta ${deltaxz} remap units box
change_box all x delta 0 1.73834447386905e-05 xy delta 0 xz delta ${deltaxz} remap units box
change_box all x delta 0 1.73834447386905e-05 xy delta 0 xz delta 0 remap units box
Changing box ...
  triclinic box = (-0.079185415 -0.079185415 -0.079185415) to (17.304277 25.995982 34.687704) with tilt (0 0 0)
  triclinic box = (-0.079185415 -0.079185415 -0.079185415) to (17.304277 25.995982 34.687704) with tilt (0 0 0)
  triclinic box = (-0.079185415 -0.079185415 -0.079185415) to (17.304277 25.995982 34.687704) with tilt (0 0 0)
if "${dir} == 2" then    "change_box all y delta 0 ${delta} yz delta ${deltayz} remap units box"
if "${dir} == 3" then    "change_box all z delta 0 ${delta} remap units box"
if "${dir} == 4" then    "change_box all yz delta ${delta} remap units box"
if "${dir} == 5" then    "change_box all xz delta ${delta} remap units box"
if "${dir} == 6" then    "change_box all xy delta ${delta} remap units box"

# Relax atoms positions

minimize ${etol} ${ftol} ${maxiter} ${maxeval}
minimize 0 ${ftol} ${maxiter} ${maxeval}
minimize 0 1e-10 ${maxiter} ${maxeval}
minimize 0 1e-10 100 ${maxeval}
minimize 0 1e-10 100 1000
Neighbor list info ...
  update: every = 1 steps, delay = 0 steps, check = yes
  max neighbors/atom: 2000, page size: 100000
  master list distance cutoff = 5
  ghost atom cutoff = 5
  2 neighbor lists, perpetual/occasional/extra = 2 0 0
  (1) pair meam, perpetual
      attributes: full, newton on
      pair build: full/nsq
      stencil: none
      bin: none
  (2) pair meam, perpetual, half/full from (1)
      attributes: half, newton on
      pair build: halffull/newton
      stencil: none
      bin: none
Per MPI rank memory allocation (min/avg/max) = 10.02 | 10.02 | 10.02 Mbytes
   Step          Temp          PotEng         Press           Pxx            Pyy            Pzz            Pxy            Pxz            Pyz             Lx             Ly             Lz           Volume    
         1   0             -7302.5766     -1.2783466     -2.8932737     -0.71162063    -0.23014532    -0.025410409    0.052457008   -0.015118361    17.383462      26.075167      34.766889      15759.02     
         2   0             -7302.5766     -1.02105       -2.012221      -0.63913795    -0.4117909     -0.018363911    0.016466718   -0.0097608417   17.383462      26.075167      34.766889      15759.02     
         3   0             -7302.5766     -0.88359654    -1.4106091     -0.6392038     -0.60097674    -0.012376989   -0.0045944531  -0.0058293797   17.383462      26.075167      34.766889      15759.02     
         4   0             -7302.5766     -0.87909751    -1.221464      -0.68940941    -0.72641911    -0.0076357211  -0.0068642044  -0.0035224224   17.383462      26.075167      34.766889      15759.02     
         5   0             -7302.5766     -0.92667057    -1.3209436     -0.72160321    -0.73746488    -0.0017717862   0.0013950642  -0.0010697519   17.383462      26.075167      34.766889      15759.02     
         6   0             -7302.5766     -0.92214594    -1.3675841     -0.70191976    -0.69693395     0.0015846736   0.0028541986   0.00061446054  17.383462      26.075167      34.766889      15759.02     
         7   0             -7302.5766     -0.89078846    -1.3574369     -0.66427865    -0.65064985     0.0037471316  -3.3113847e-05  0.0019688256   17.383462      26.075167      34.766889      15759.02     
         8   0             -7302.5766     -0.89868825    -1.3363159     -0.68077663    -0.67897226     0.0024483103  -0.0004232245   0.0012873204   17.383462      26.075167      34.766889      15759.02     
         9   0             -7302.5766     -0.91336956    -1.3334525     -0.70065575    -0.7060004      0.00037558258  0.00070227156  0.0001171179   17.383462      26.075167      34.766889      15759.02     
        10   0             -7302.5766     -0.9101951     -1.3352364     -0.69601217    -0.69933674    -0.00056180812  0.00049374795 -0.00033609266  17.383462      26.075167      34.766889      15759.02     
        11   0             -7302.5766     -0.90130319    -1.339092      -0.68334355    -0.68147403    -0.00082377055 -0.00043252161 -0.00037897355  17.383462      26.075167      34.766889      15759.02     
        12   0             -7302.5766     -0.90618098    -1.3429643     -0.68851937    -0.68705929    -0.00057423571 -0.00037218581 -0.00026043408  17.383462      26.075167      34.766889      15759.02     
        13   0             -7302.5766     -0.90837373    -1.34008       -0.69221632    -0.69282489    -0.0002272418   5.2020144e-05 -0.00012390282  17.383462      26.075167      34.766889      15759.02     
        14   0             -7302.5766     -0.90586893    -1.3364799     -0.69003596    -0.69109097     9.4455744e-05  0.00015940722  3.1945485e-05  17.383462      26.075167      34.766889      15759.02     
        15   0             -7302.5766     -0.90357804    -1.3364058     -0.68708823    -0.68724008     0.00036960516  4.771592e-05   0.00018582038  17.383462      26.075167      34.766889      15759.02     
        16   0             -7302.5766     -0.90619065    -1.3413847     -0.68899982    -0.68818743     0.00032983324 -2.0037441e-06  0.00017204313  17.383462      26.075167      34.766889      15759.02     
        17   0             -7302.5766     -0.90666936    -1.3401553     -0.68998465    -0.68986818     4.9477268e-05  8.1833594e-05  1.8710495e-05  17.383462      26.075167      34.766889      15759.02     
        18   0             -7302.5766     -0.90571901    -1.3375983     -0.6895103     -0.69004847    -0.00016882483  5.8226963e-05 -9.3519005e-05  17.383462      26.075167      34.766889      15759.02     
        19   0             -7302.5766     -0.90505566    -1.3375613     -0.68866134    -0.68894436    -0.00017811419 -8.9085972e-05 -8.5016935e-05  17.383462      26.075167      34.766889      15759.02     
        20   0             -7302.5766     -0.90575899    -1.3397645     -0.68892027    -0.68859219    -8.8905134e-05 -0.00010579901 -3.5407804e-05  17.383462      26.075167      34.766889      15759.02     
        21   0             -7302.5766     -0.90604978    -1.339754      -0.68930035    -0.68909497    -2.4614097e-05  4.0645786e-05 -1.5020207e-05  17.383462      26.075167      34.766889      15759.02     
        22   0             -7302.5766     -0.90578758    -1.3388323     -0.68923356    -0.68929687     3.0774755e-05  8.0591547e-05  8.8234162e-06  17.383462      26.075167      34.766889      15759.02     
        23   0             -7302.5766     -0.90531858    -1.3379597     -0.68888414    -0.68911195     9.8676176e-05 -2.3464296e-05  5.1306062e-05  17.383462      26.075167      34.766889      15759.02     
        24   0             -7302.5766     -0.90573468    -1.3389419     -0.68913248    -0.68912962     7.5584617e-05 -1.7779409e-05  4.0305959e-05  17.383462      26.075167      34.766889      15759.02     
        25   0             -7302.5766     -0.90599276    -1.339653      -0.68925637    -0.68906896    -6.7386675e-07  4.0276346e-05 -2.5714815e-06  17.383462      26.075167      34.766889      15759.02     
        26   0             -7302.5766     -0.90575544    -1.3392307     -0.68907384    -0.68896174    -4.1646683e-05  2.7464851e-05 -2.3060777e-05  17.383462      26.075167      34.766889      15759.02     
        27   0             -7302.5766     -0.90532379    -1.3381009     -0.68884906    -0.68902144    -5.0322286e-05 -5.9993433e-05 -2.199342e-05   17.383462      26.075167      34.766889      15759.02     
        28   0             -7302.5766     -0.90582848    -1.3388272     -0.68928808    -0.68937019    -3.2432635e-05 -2.0354021e-05 -1.5247396e-05  17.383462      26.075167      34.766889      15759.02     
        29   0             -7302.5766     -0.90590791    -1.3392892     -0.68925415    -0.68918038    -7.4354375e-06  2.4465865e-05 -5.2293468e-06  17.383462      26.075167      34.766889      15759.02     
        30   0             -7302.5766     -0.90562182    -1.3391165     -0.68893447    -0.68881449     2.2985971e-05  2.589431e-05   1.0250972e-05  17.383462      26.075167      34.766889      15759.02     
        31   0             -7302.5766     -0.90549448    -1.3387152     -0.68888832    -0.68887997     3.9374233e-05 -5.1188135e-06  2.0420507e-05  17.383462      26.075167      34.766889      15759.02     
        32   0             -7302.5766     -0.90587992    -1.3388099     -0.68935989    -0.68946999     1.7930821e-05 -4.7435154e-06  9.0773787e-06  17.383462      26.075167      34.766889      15759.02     
        33   0             -7302.5766     -0.90579477    -1.3388868     -0.68922671    -0.68927079    -1.535478e-06   6.8298293e-06 -1.4177889e-06  17.383462      26.075167      34.766889      15759.02     
        34   0             -7302.5766     -0.90555996    -1.338922      -0.68891193    -0.688846      -1.5459668e-05  7.2802902e-06 -8.1375785e-06  17.383462      26.075167      34.766889      15759.02     
        35   0             -7302.5766     -0.90562382    -1.3389648     -0.68898202    -0.68892468    -1.6405691e-05 -1.0543915e-05 -7.3848319e-06  17.383462      26.075167      34.766889      15759.02     
        36   0             -7302.5766     -0.90579382    -1.3389184     -0.68921614    -0.68924697    -1.1129673e-05 -1.0458368e-05 -5.0610558e-06  17.383462      26.075167      34.766889      15759.02     
        37   0             -7302.5766     -0.90569444    -1.3387925     -0.68912461    -0.68916623    -1.688826e-06   5.4623308e-06 -1.4233792e-06  17.383462      26.075167      34.766889      15759.02     
        38   0             -7302.5766     -0.90562576    -1.3388026     -0.68903258    -0.6890421      6.9646094e-06  9.390682e-06   2.8539355e-06  17.383462      26.075167      34.766889      15759.02     
        39   0             -7302.5766     -0.90570902    -1.3390186     -0.68907652    -0.68903195     1.4489822e-05 -4.2339737e-06  7.891948e-06   17.383462      26.075167      34.766889      15759.02     
        40   0             -7302.5766     -0.90573801    -1.338985      -0.68912405    -0.68910499     7.5472888e-06 -2.5914709e-06  4.0815447e-06  17.383462      26.075167      34.766889      15759.02     
        41   0             -7302.5766     -0.90567612    -1.3388123     -0.68909498    -0.68912105    -3.3496085e-06  5.0159366e-06 -2.2104561e-06  17.383462      26.075167      34.766889      15759.02     
        42   0             -7302.5766     -0.90564358    -1.3387585     -0.68906874    -0.68910348    -9.2133091e-06  3.7457873e-06 -5.0934885e-06  17.383462      26.075167      34.766889      15759.02     
        43   0             -7302.5766     -0.90570422    -1.3389305     -0.6890964     -0.68908577    -7.1287396e-06 -7.9158957e-06 -2.9563447e-06  17.383462      26.075167      34.766889      15759.02     
        44   0             -7302.5766     -0.90571858    -1.3389842     -0.68909911    -0.68907247    -3.242532e-06  -1.9394822e-06 -1.4440352e-06  17.383462      26.075167      34.766889      15759.02     
        45   0             -7302.5766     -0.90568574    -1.338901      -0.68908119    -0.68907506     4.8652473e-09  3.5771615e-06 -2.9123625e-07  17.383462      26.075167      34.766889      15759.02     
        46   0             -7302.5766     -0.90566705    -1.3388232     -0.68908       -0.68909795     3.7278846e-06  2.9155292e-06  1.6185534e-06  17.383462      26.075167      34.766889      15759.02     
        47   0             -7302.5766     -0.90569371    -1.3388544     -0.6891053     -0.68912138     6.4862816e-06 -1.6130372e-06  3.424797e-06   17.383462      26.075167      34.766889      15759.02     
        48   0             -7302.5766     -0.9057099     -1.3389449     -0.68909949    -0.68908531     3.0996179e-06  3.6930149e-07  1.608291e-06   17.383462      26.075167      34.766889      15759.02     
        49   0             -7302.5766     -0.90568719    -1.3389195     -0.68907759    -0.68906451    -8.1008388e-07  1.7481607e-06 -5.2599224e-07  17.383462      26.075167      34.766889      15759.02     
        50   0             -7302.5766     -0.90566865    -1.3388589     -0.6890715     -0.68907555    -4.1791904e-06  4.711176e-07  -2.2092215e-06  17.383462      26.075167      34.766889      15759.02     
        51   0             -7302.5766     -0.90569851    -1.3388747     -0.68910551    -0.68911527    -3.2169916e-06 -2.5459191e-06 -1.4706432e-06  17.383462      26.075167      34.766889      15759.02     
        52   0             -7302.5766     -0.90571001    -1.3389128     -0.68910914    -0.68910809    -5.9928325e-07 -1.587271e-06  -1.5454169e-07  17.383462      26.075167      34.766889      15759.02     
        53   0             -7302.5766     -0.90568451    -1.3388988     -0.68908024    -0.6890745      5.575999e-07   1.1265237e-06  2.1925575e-07  17.383462      26.075167      34.766889      15759.02     
        54   0             -7302.5766     -0.90567242    -1.3388808     -0.6890699     -0.68906657     1.3835162e-06  2.0277234e-06  5.4194113e-07  17.383462      26.075167      34.766889      15759.02     
        55   0             -7302.5766     -0.90570415    -1.3388903     -0.6891082     -0.68911391     2.0686899e-06 -9.098383e-07   1.1016579e-06  17.383462      26.075167      34.766889      15759.02     
        56   0             -7302.5766     -0.90569959    -1.3388916     -0.68910193    -0.68910528     9.9931698e-07 -6.3140219e-07  5.6138644e-07  17.383462      26.075167      34.766889      15759.02     
        57   0             -7302.5766     -0.90567871    -1.3388878     -0.68907597    -0.68907234    -8.7170978e-07  1.0017316e-06 -4.9765873e-07  17.383462      26.075167      34.766889      15759.02     
        58   0             -7302.5766     -0.90568042    -1.3388923     -0.68907686    -0.68907211    -1.6794732e-06  7.0372884e-07 -8.9783121e-07  17.383462      26.075167      34.766889      15759.02     
        59   0             -7302.5766     -0.90570699    -1.3389004     -0.68910889    -0.68911164    -1.0109708e-06 -1.8365451e-06 -3.991331e-07   17.383462      26.075167      34.766889      15759.02     
        60   0             -7302.5766     -0.9056913     -1.338881      -0.68909432    -0.68909861    -1.0681759e-07 -4.9261826e-07 -3.0181536e-08  17.383462      26.075167      34.766889      15759.02     
        61   0             -7302.5766     -0.90568074    -1.3388801     -0.68908089    -0.68908123     4.6013273e-07  9.7658415e-07  1.6840852e-07  17.383462      26.075167      34.766889      15759.02     
        62   0             -7302.5766     -0.90568707    -1.338899      -0.68908348    -0.68907869     1.0762277e-06  1.1877978e-06  4.8058346e-07  17.383462      26.075167      34.766889      15759.02     
        63   0             -7302.5766     -0.90569868    -1.3389044     -0.68909694    -0.68909467     1.0966945e-06 -2.6645235e-07  5.8312037e-07  17.383462      26.075167      34.766889      15759.02     
        64   0             -7302.5766     -0.90568917    -1.3388779     -0.68909248    -0.68909717    -2.0578842e-08 -5.7711135e-07  1.2369853e-08  17.383462      26.075167      34.766889      15759.02     
        65   0             -7302.5766     -0.90568621    -1.338878      -0.68908859    -0.68909201    -6.2464716e-07 -1.4623295e-08 -3.2915877e-07  17.383462      26.075167      34.766889      15759.02     
        66   0             -7302.5766     -0.9056908     -1.3388965     -0.68908906    -0.68908681    -7.897562e-07   3.9884729e-07 -4.2051163e-07  17.383462      26.075167      34.766889      15759.02     
        67   0             -7302.5766     -0.90569502    -1.338904      -0.68909233    -0.68908875    -2.4254715e-07 -4.1342506e-07 -8.0127564e-08  17.383462      26.075167      34.766889      15759.02     
        68   0             -7302.5766     -0.9056901     -1.3388889     -0.68909043    -0.68909102     1.2254658e-07 -4.2866113e-07  8.8584587e-08  17.383462      26.075167      34.766889      15759.02     
        69   0             -7302.5766     -0.90568779    -1.3388815     -0.68908961    -0.68909225     2.0835159e-07  3.508422e-07   6.9590614e-08  17.383462      26.075167      34.766889      15759.02     
        70   0             -7302.5766     -0.90568969    -1.3388858     -0.6890908     -0.68909246     3.0977302e-07  6.0223622e-07  1.0955499e-07  17.383462      26.075167      34.766889      15759.02     
        71   0             -7302.5766     -0.90569347    -1.3388986     -0.68909191    -0.6890899      4.0025053e-07 -3.2375687e-07  2.3713001e-07  17.383462      26.075167      34.766889      15759.02     
        72   0             -7302.5766     -0.90569104    -1.3388955     -0.68908968    -0.68908794     5.5157905e-08 -3.0945684e-07  5.5813674e-08  17.383462      26.075167      34.766889      15759.02     
        73   0             -7302.5766     -0.9056889     -1.3388881     -0.68908911    -0.68908952    -3.0548989e-07  1.2585527e-07 -1.689341e-07   17.383462      26.075167      34.766889      15759.02     
        74   0             -7302.5766     -0.90569006    -1.3388866     -0.68909103    -0.68909251    -3.512742e-07   1.9073964e-07 -1.9865784e-07  17.383462      26.075167      34.766889      15759.02     
        75   0             -7302.5766     -0.90569246    -1.3388926     -0.68909239    -0.68909241    -2.268429e-08  -2.3963015e-07  8.4829824e-09  17.383462      26.075167      34.766889      15759.02     
        76   0             -7302.5766     -0.90568999    -1.338892      -0.68908935    -0.6890886      6.1324176e-08 -1.7828066e-08  3.4849898e-08  17.383462      26.075167      34.766889      15759.02     
        77   0             -7302.5766     -0.90568924    -1.3388906     -0.68908879    -0.68908831     7.3739656e-08  1.775665e-07   2.4124418e-08  17.383462      26.075167      34.766889      15759.02     
        78   0             -7302.5766     -0.90569086    -1.3388904     -0.68909096    -0.68909122     8.9463003e-08  1.0028522e-07  3.6515204e-08  17.383462      26.075167      34.766889      15759.02     
        79   0             -7302.5766     -0.90569167    -1.3388909     -0.68909187    -0.68909227     8.5463674e-08 -9.3459908e-08  5.0438725e-08  17.383462      26.075167      34.766889      15759.02     
        80   0             -7302.5766     -0.90569018    -1.3388908     -0.68908997    -0.68908981    -1.264818e-08  -2.8890447e-08 -3.1544391e-09  17.383462      26.075167      34.766889      15759.02     
        81   0             -7302.5766     -0.90569019    -1.338891      -0.68908991    -0.68908966    -6.518029e-08   3.3741508e-08 -3.5253363e-08  17.383462      26.075167      34.766889      15759.02     
        82   0             -7302.5766     -0.90569101    -1.3388913     -0.68909089    -0.68909086    -7.4027754e-08  2.7138903e-08 -4.0512218e-08  17.383462      26.075167      34.766889      15759.02     
        83   0             -7302.5766     -0.90569089    -1.3388907     -0.68909091    -0.68909106    -1.4034852e-08 -4.9981258e-08 -3.8178822e-09  17.383462      26.075167      34.766889      15759.02     
        84   0             -7302.5766     -0.90569042    -1.3388905     -0.68909037    -0.68909043     2.6092207e-08 -2.4044717e-08  1.5529594e-08  17.383462      26.075167      34.766889      15759.02     
        85   0             -7302.5766     -0.90569058    -1.338891      -0.68909043    -0.68909035     2.658867e-08   3.4794602e-08  1.1330892e-08  17.383462      26.075167      34.766889      15759.02     
        86   0             -7302.5766     -0.90569084    -1.3388913     -0.68909067    -0.68909057     2.055428e-08   4.0354367e-08  7.4520213e-09  17.383462      26.075167      34.766889      15759.02     
        87   0             -7302.5766     -0.90569072    -1.3388908     -0.68909067    -0.68909073     1.3952093e-08 -3.3377747e-08  9.3600231e-09  17.383462      26.075167      34.766889      15759.02     
        88   0             -7302.5766     -0.90569062    -1.3388907     -0.68909056    -0.68909061    -3.6173196e-09 -1.176965e-08  -1.0224769e-09  17.383462      26.075167      34.766889      15759.02     
        89   0             -7302.5766     -0.90569066    -1.3388909     -0.68909055    -0.68909053    -1.6756815e-08  1.946247e-08  -9.8515128e-09  17.383462      26.075167      34.766889      15759.02     
        90   0             -7302.5766     -0.90569072    -1.338891      -0.68909059    -0.68909055    -1.3987445e-08  1.2105215e-08 -7.9274213e-09  17.383462      26.075167      34.766889      15759.02     
        91   0             -7302.5766     -0.90569071    -1.3388909     -0.68909061    -0.68909061     7.44648e-10   -2.0562395e-08  1.8691307e-09  17.383462      26.075167      34.766889      15759.02     
        92   0             -7302.5766     -0.90569066    -1.3388908     -0.68909058    -0.6890906      1.9411505e-09  4.2538399e-10  8.5121771e-10  17.383462      26.075167      34.766889      15759.02     
        93   0             -7302.5766     -0.90569068    -1.3388908     -0.68909058    -0.6890906      2.2707858e-09  1.1762722e-08  2.9262272e-10  17.383462      26.075167      34.766889      15759.02     
        94   0             -7302.5766     -0.90569071    -1.3388909     -0.6890906     -0.68909059     4.3811561e-09  4.0835606e-09  2.0058365e-09  17.383462      26.075167      34.766889      15759.02     
        95   0             -7302.5766     -0.9056907     -1.3388909     -0.68909059    -0.68909058     3.8482133e-09 -5.3143375e-09  2.3831125e-09  17.383462      26.075167      34.766889      15759.02     
        96   0             -7302.5766     -0.90569067    -1.3388908     -0.68909058    -0.68909059    -2.3223464e-09  1.3375103e-09 -1.3344627e-09  17.383462      26.075167      34.766889      15759.02     
        97   0             -7302.5766     -0.90569068    -1.3388909     -0.68909059    -0.6890906     -3.5622374e-09  2.4592579e-09 -2.0609585e-09  17.383462      26.075167      34.766889      15759.02     
        98   0             -7302.5766     -0.90569071    -1.3388909     -0.68909061    -0.6890906     -1.8840818e-09 -8.3159574e-10 -8.814339e-10   17.383462      26.075167      34.766889      15759.02     
Loop time of 0.157277 on 4 procs for 97 steps with 1344 atoms

59.6% CPU use with 4 MPI tasks x 1 OpenMP threads

Minimization stats:
  Stopping criterion = force tolerance
  Energy initial, next-to-last, final = 
     -7302.57660805787  -7302.57660875813  -7302.57660875814
  Force two-norm initial, final = 0.0046878046 8.9396977e-11
  Force max component initial, final = 0.00025216927 6.3154482e-12
  Final line search alpha, max atom move = 1 6.3154482e-12
  Iterations, force evaluations = 97 194

MPI task timing breakdown:
Section |  min time  |  avg time  |  max time  |%varavg| %total
---------------------------------------------------------------
Pair    | 0.1449     | 0.14533    | 0.146      |   0.1 | 92.40
Neigh   | 0          | 0          | 0          |   0.0 |  0.00
Comm    | 0.007975   | 0.008606   | 0.009      |   0.4 |  5.47
Output  | 0.001271   | 0.0013312  | 0.001504   |   0.3 |  0.85
Modify  | 0          | 0          | 0          |   0.0 |  0.00
Other   |            | 0.002011   |            |       |  1.28

Nlocal:            336 ave         339 max         333 min
Histogram: 1 0 0 0 0 2 0 0 0 1
Nghost:            981 ave         984 max         978 min
Histogram: 1 0 0 0 0 2 0 0 0 1
Neighs:           6528 ave        6591 max        6465 min
Histogram: 1 0 0 0 1 1 0 0 0 1
FullNghs:        13056 ave       13188 max       12924 min
Histogram: 1 0 0 0 0 2 0 0 0 1

Total # of neighbors = 52224
Ave neighs/atom = 38.857143
Neighbor list builds = 0
Dangerous builds = 0

# Obtain new stress tensor

variable tmp equal pe
variable e1 equal ${tmp}
variable e1 equal -7302.57660875814
variable tmp equal press
variable p1 equal ${tmp}
variable p1 equal -0.905690706180071
variable tmp equal pxx
variable pxx1 equal ${tmp}
variable pxx1 equal -1.33889090791328
variable tmp equal pyy
variable pyy1 equal ${tmp}
variable pyy1 equal -0.689090606162184
variable tmp equal pzz
variable pzz1 equal ${tmp}
variable pzz1 equal -0.689090604464749
variable tmp equal pxy
variable pxy1 equal ${tmp}
variable pxy1 equal -1.88408178238226e-09
variable tmp equal pxz
variable pxz1 equal ${tmp}
variable pxz1 equal -8.31595739439465e-10
variable tmp equal pyz
variable pyz1 equal ${tmp}
variable pyz1 equal -8.81433904293538e-10

# Compute elastic constant from pressure tensor

variable C1pos equal ${d1}
variable C1pos equal 133.889090827502
variable C2pos equal ${d2}
variable C2pos equal 68.9090605919642
variable C3pos equal ${d3}
variable C3pos equal 68.9090604339685
variable C4pos equal ${d4}
variable C4pos equal 8.79808526579838e-08
variable C5pos equal ${d5}
variable C5pos equal 8.81982448564168e-08
variable C6pos equal ${d6}
variable C6pos equal 1.90512139389849e-07

# Combine positive and negative

variable C1${dir} equal 0.5*(${C1neg}+${C1pos})
variable C11 equal 0.5*(${C1neg}+${C1pos})
variable C11 equal 0.5*(133.888802497738+${C1pos})
variable C11 equal 0.5*(133.888802497738+133.889090827502)
variable C2${dir} equal 0.5*(${C2neg}+${C2pos})
variable C21 equal 0.5*(${C2neg}+${C2pos})
variable C21 equal 0.5*(68.909488690539+${C2pos})
variable C21 equal 0.5*(68.909488690539+68.9090605919642)
variable C3${dir} equal 0.5*(${C3neg}+${C3pos})
variable C31 equal 0.5*(${C3neg}+${C3pos})
variable C31 equal 0.5*(68.9094889725333+${C3pos})
variable C31 equal 0.5*(68.9094889725333+68.9090604339685)
variable C4${dir} equal 0.5*(${C4neg}+${C4pos})
variable C41 equal 0.5*(${C4neg}+${C4pos})
variable C41 equal 0.5*(-5.38552937870441e-08+${C4pos})
variable C41 equal 0.5*(-5.38552937870441e-08+8.79808526579838e-08)
variable C5${dir} equal 0.5*(${C5neg}+${C5pos})
variable C51 equal 0.5*(${C5neg}+${C5pos})
variable C51 equal 0.5*(-2.12940208495948e-07+${C5pos})
variable C51 equal 0.5*(-2.12940208495948e-07+8.81982448564168e-08)
variable C6${dir} equal 0.5*(${C6neg}+${C6pos})
variable C61 equal 0.5*(${C6neg}+${C6pos})
variable C61 equal 0.5*(-1.47132947623595e-07+${C6pos})
variable C61 equal 0.5*(-1.47132947623595e-07+1.90512139389849e-07)

# Delete dir to make sure it is not reused

variable dir delete

# uyy Perturbation

variable dir equal 2
include displace.mod
# NOTE: This script should not need to be
# modified. See in.elastic for more info.
#
# Find which reference length to use

if "${dir} == 1" then    "variable len0 equal ${lx0}"
if "${dir} == 2" then    "variable len0 equal ${ly0}"
variable len0 equal ${ly0}
variable len0 equal 26.0751671080358
if "${dir} == 3" then    "variable len0 equal ${lz0}"
if "${dir} == 4" then    "variable len0 equal ${lz0}"
if "${dir} == 5" then    "variable len0 equal ${lz0}"
if "${dir} == 6" then    "variable len0 equal ${ly0}"

# Reset box and simulation parameters

clear
  using 1 OpenMP thread(s) per MPI task
Loaded 1 plugins from C:\Program Files\LAMMPS 64-bit 23Jun2022\plugins
Loaded 0 plugins from C:\Program Files\LAMMPS 64-bit 23Jun2022-MPI\plugins
Loaded 1 plugins from C:\Program Files\LAMMPS 64-bit 22Dec2022-MSMPI\plugins
Loaded 1 plugins from C:\Program Files\LAMMPS 64-bit 28Mar2023-MPI\plugins
box tilt large

The 'box' command has been removed and will be ignored

read_restart restart.equil
Reading restart file ...
  restart file = 22 Dec 2022, LAMMPS = 22 Dec 2022
  restoring atom style atomic from restart
  triclinic box = (-0.079185415 -0.079185415 -0.079185415) to (17.304259 25.995982 34.687704) with tilt (0 0 0)
  1 by 2 by 2 MPI processor grid
  pair style meam stores no restart info
  1344 atoms
  read_restart CPU = 0.001 seconds
include potential.mod
# NOTE: This script can be modified for different pair styles
# See in.elastic for more info.

# Choose potential
#-----------------------
#pair_style	sw
#pair_coeff * * Si.sw Si
#-----------------------
#pair_style morse	2.83994742	# D0[eV] a[1/A] r0[A] rc[A], 1NN for BCC
#pair_coeff 1 1	2.1173	1.0202	2.4595	2.6497	#	Fe-Fe
#-----------------------
#pair_style smatb # R0(A)   p       q     A(eV)   xi(eV)  Rcs(A)   Rc(A), 4NN: Rcs=4NN, Rc=(4NN+5NN)/2
#pair_coeff 1 1	2.4802	7.0149	2.3779	0.3144	3.0551	4.033	4.176	#	Co	Co
#-----------------------
#pair_style eam/alloy
#pair_coeff * * AlCrFeCoNi_Zhou04.eam.alloy Fe
#-----------------------
pair_style meam
pair_coeff * * ./../../library.meam Fe Cr Ni O ./../../FeCrNiO.meam Fe O
#-----------------------

# Setup neighbor style
neighbor 1.0 nsq
neigh_modify once no every 1 delay 0 check yes

# Setup minimization style
min_style	     cg
min_modify	     dmax ${dmax} line quadratic
min_modify	     dmax 0.01 line quadratic

# Setup output
thermo		1
thermo_style custom step temp pe press pxx pyy pzz pxy pxz pyz lx ly lz vol
thermo_modify norm no

# Negative deformation

variable delta equal -${up}*${len0}
variable delta equal -1e-06*${len0}
variable delta equal -1e-06*26.0751671080358
variable deltaxy equal -${up}*xy
variable deltaxy equal -1e-06*xy
variable deltaxz equal -${up}*xz
variable deltaxz equal -1e-06*xz
variable deltayz equal -${up}*yz
variable deltayz equal -1e-06*yz
if "${dir} == 1" then    "change_box all x delta 0 ${delta} xy delta ${deltaxy} xz delta ${deltaxz} remap units box"
if "${dir} == 2" then    "change_box all y delta 0 ${delta} yz delta ${deltayz} remap units box"
change_box all y delta 0 ${delta} yz delta ${deltayz} remap units box
change_box all y delta 0 -2.60751671080358e-05 yz delta ${deltayz} remap units box
change_box all y delta 0 -2.60751671080358e-05 yz delta -0 remap units box
Changing box ...
  triclinic box = (-0.079185415 -0.079185415 -0.079185415) to (17.304259 25.995956 34.687704) with tilt (0 0 0)
  triclinic box = (-0.079185415 -0.079185415 -0.079185415) to (17.304259 25.995956 34.687704) with tilt (0 0 0)
if "${dir} == 3" then    "change_box all z delta 0 ${delta} remap units box"
if "${dir} == 4" then    "change_box all yz delta ${delta} remap units box"
if "${dir} == 5" then    "change_box all xz delta ${delta} remap units box"
if "${dir} == 6" then    "change_box all xy delta ${delta} remap units box"

# Relax atoms positions

minimize ${etol} ${ftol} ${maxiter} ${maxeval}
minimize 0 ${ftol} ${maxiter} ${maxeval}
minimize 0 1e-10 ${maxiter} ${maxeval}
minimize 0 1e-10 100 ${maxeval}
minimize 0 1e-10 100 1000
Neighbor list info ...
  update: every = 1 steps, delay = 0 steps, check = yes
  max neighbors/atom: 2000, page size: 100000
  master list distance cutoff = 5
  ghost atom cutoff = 5
  2 neighbor lists, perpetual/occasional/extra = 2 0 0
  (1) pair meam, perpetual
      attributes: full, newton on
      pair build: full/nsq
      stencil: none
      bin: none
  (2) pair meam, perpetual, half/full from (1)
      attributes: half, newton on
      pair build: halffull/newton
      stencil: none
      bin: none
Per MPI rank memory allocation (min/avg/max) = 10.02 | 10.02 | 10.02 Mbytes
   Step          Temp          PotEng         Press           Pxx            Pyy            Pzz            Pxy            Pxz            Pyz             Lx             Ly             Lz           Volume    
         1   0             -7302.5766      0.95591265     0.085078659    2.2667506      0.51590871    -0.025410647    0.052457857   -0.015118476    17.383445      26.075141      34.766889      15758.989    
         2   0             -7302.5766      0.92127078     0.3949379      1.7699616      0.59891288    -0.018381182    0.01655329    -0.0097738617   17.383445      26.075141      34.766889      15758.989    
         3   0             -7302.5766      0.90270962     0.63411121     1.4056599      0.66835776    -0.01237874    -0.0045896055  -0.0058304483   17.383445      26.075141      34.766889      15758.989    
         4   0             -7302.5766      0.902056       0.73671048     1.2664987      0.70295883    -0.0076084344  -0.00693302    -0.0035059987   17.383445      26.075141      34.766889      15758.989    
         5   0             -7302.5766      0.90854071     0.71335798     1.3130095      0.69925469    -0.0017562803   0.001426853   -0.0010638724   17.383445      26.075141      34.766889      15758.989    
         6   0             -7302.5766      0.90794276     0.68417408     1.3507581      0.68889611     0.0015918412   0.0029016382   0.0006156374   17.383445      26.075141      34.766889      15758.989    
         7   0             -7302.5766      0.90364129     0.66845568     1.3617713      0.68069687     0.0037552838  -6.8415676e-05  0.0019758552   17.383445      26.075141      34.766889      15758.989    
         8   0             -7302.5766      0.90472466     0.68570981     1.3411623      0.68730186     0.0024535004  -0.00044500675  0.0012915332   17.383445      26.075141      34.766889      15758.989    
         9   0             -7302.5766      0.90676917     0.6975543      1.3300609      0.69269231     0.00035157027  0.00073128442  0.00010233077  17.383445      26.075141      34.766889      15758.989    
        10   0             -7302.5766      0.90632452     0.69432501     1.3333518      0.69129673    -0.00057399675  0.00051100683 -0.00034385159  17.383445      26.075141      34.766889      15758.989    
        11   0             -7302.5766      0.90506714     0.68583286     1.3417995      0.68756909    -0.0008145851  -0.00045767254 -0.00037210334  17.383445      26.075141      34.766889      15758.989    
        12   0             -7302.5766      0.90576237     0.68714417     1.3416681      0.68847484    -0.00057404039 -0.0003682805  -0.00026052937  17.383445      26.075141      34.766889      15758.989    
        13   0             -7302.5766      0.90607864     0.69036389     1.3380895      0.6897825     -0.00023037132  6.9569913e-05 -0.00012700567  17.383445      26.075141      34.766889      15758.989    
        14   0             -7302.5766      0.90571886     0.69058931     1.3369448      0.68962245     9.3721513e-05  0.00016018554  3.140971e-05   17.383445      26.075141      34.766889      15758.989    
        15   0             -7302.5766      0.90538513     0.68896441     1.3383432      0.68884778     0.00037514353  3.3394633e-05  0.00018984325  17.383445      26.075141      34.766889      15758.989    
        16   0             -7302.5766      0.90576583     0.68804304     1.3404705      0.68878395     0.00032883187  1.5052752e-06  0.00017131915  17.383445      26.075141      34.766889      15758.989    
        17   0             -7302.5766      0.90583654     0.68908857     1.3392335      0.68918756     4.6421625e-05  8.8454934e-05  1.6609889e-05  17.383445      26.075141      34.766889      15758.989    
        18   0             -7302.5766      0.90569688     0.68984959     1.3378856      0.68935544    -0.00016946792  5.8325635e-05 -9.3908964e-05  17.383445      26.075141      34.766889      15758.989    
        19   0             -7302.5766      0.90559875     0.68938898     1.3382738      0.68913349    -0.00017685719 -9.3816282e-05 -8.4012472e-05  17.383445      26.075141      34.766889      15758.989    
        20   0             -7302.5766      0.90570275     0.68864732     1.3395122      0.68894872    -8.8630948e-05 -0.00010528555 -3.5274503e-05  17.383445      26.075141      34.766889      15758.989    
        21   0             -7302.5766      0.90574588     0.68886381     1.3393227      0.68905108    -2.5008598e-05  4.3455827e-05 -1.5428063e-05  17.383445      26.075141      34.766889      15758.989    
        22   0             -7302.5766      0.90570695     0.68919825     1.3387829      0.68913965     3.0503222e-05  8.1346291e-05  8.6164234e-06  17.383445      26.075141      34.766889      15758.989    
        23   0             -7302.5766      0.90563702     0.68935677     1.3384066      0.68914771     9.9467168e-05 -2.6695624e-05  5.1941675e-05  17.383445      26.075141      34.766889      15758.989    
        24   0             -7302.5766      0.90569925     0.68909739     1.3389003      0.68910011     7.5458292e-05 -1.7388985e-05  4.0211871e-05  17.383445      26.075141      34.766889      15758.989    
        25   0             -7302.5766      0.90573812     0.68887683     1.3392871      0.6890504     -1.6917399e-06  4.3158278e-05 -3.2907659e-06  17.383445      26.075141      34.766889      15758.989    
        26   0             -7302.5766      0.90570238     0.68894741     1.3391088      0.68905098    -4.1772823e-05  2.8119193e-05 -2.3161175e-05  17.383445      26.075141      34.766889      15758.989    
        27   0             -7302.5766      0.90563647     0.6892861      1.3385001      0.68912322    -4.935888e-05  -6.4457492e-05 -2.1193334e-05  17.383445      26.075141      34.766889      15758.989    
        28   0             -7302.5766      0.90571395     0.6892287      1.3387585      0.68915464    -3.2824274e-05 -1.859735e-05  -1.5585493e-05  17.383445      26.075141      34.766889      15758.989    
        29   0             -7302.5766      0.9057265      0.68902022     1.3390676      0.68909171    -7.8138212e-06  2.761005e-05  -5.6396807e-06  17.383445      26.075141      34.766889      15758.989    
        30   0             -7302.5766      0.90568186     0.68891684     1.3391017      0.68902702     2.3355663e-05  2.5123903e-05  1.0511042e-05  17.383445      26.075141      34.766889      15758.989    
        31   0             -7302.5766      0.90566161     0.68905676     1.3388666      0.68906147     4.0117572e-05 -7.9980829e-06  2.1007165e-05  17.383445      26.075141      34.766889      15758.989    
        32   0             -7302.5766      0.90572329     0.68927853     1.3387135      0.68917781     1.6763577e-05 -2.0767438e-06  8.2701285e-06  17.383445      26.075141      34.766889      15758.989    
[...]
        62   0             -7302.5766      2.0162746e-06  2.1494374e-07 -5.3458718e-08  5.8873387e-06 -0.32523414     1.2096371e-06  4.4415443e-07  17.383445      26.075167      34.766889      15759.004    
        63   0             -7302.5766     -5.7226656e-06 -6.6788597e-06 -6.6095319e-06 -3.8796052e-06 -0.32523372    -3.5248722e-07  5.6033731e-07  17.383445      26.075167      34.766889      15759.004    
        64   0             -7302.5766      5.8171063e-07  1.7070839e-06  2.6084397e-06 -2.5703917e-06 -0.32523553    -5.8521306e-07 -4.6484102e-09  17.383445      26.075167      34.766889      15759.004    
        65   0             -7302.5766      2.5865827e-06  3.3038381e-06  4.0421644e-06  4.1374577e-07 -0.32523675     1.8880385e-08 -3.268367e-07   17.383445      26.075167      34.766889      15759.004    
        66   0             -7302.5766     -4.9137709e-07 -1.5111279e-06 -1.4670458e-06  1.5040425e-06 -0.3252372      4.2214342e-07 -3.8234164e-07  17.383445      26.075167      34.766889      15759.004    
        67   0             -7302.5766     -3.3570203e-06 -4.7795324e-06 -4.8963788e-06 -3.9514982e-07 -0.32523608    -4.1954967e-07 -4.3702778e-08  17.383445      26.075167      34.766889      15759.004    
        68   0             -7302.5766      5.9350517e-09 -1.2527229e-07  2.7386237e-07 -1.3078493e-07 -0.32523538    -4.1888736e-07  8.1467302e-08  17.383445      26.075167      34.766889      15759.004    
        69   0             -7302.5766      1.5951302e-06  2.1120516e-06  2.7701755e-06 -9.6836392e-08 -0.32523535     3.5352731e-07  4.2432716e-08  17.383445      26.075167      34.766889      15759.004    
        70   0             -7302.5766      2.7501615e-07  4.8391102e-07  1.0188831e-06 -6.7774566e-07 -0.32523524     5.8062879e-07  8.6016457e-08  17.383445      26.075167      34.766889      15759.004    
        71   0             -7302.5766     -2.3736505e-06 -3.3433573e-06 -3.279193e-06  -4.9840122e-07 -0.32523497    -3.5291722e-07  2.3974868e-07  17.383445      26.075167      34.766889      15759.004    
        72   0             -7302.5766     -6.6530444e-07 -1.5332545e-06 -1.4284464e-06  9.6578752e-07 -0.32523557    -2.9808504e-07  6.2947681e-08  17.383445      26.075167      34.766889      15759.004    
        73   0             -7302.5766      8.6336521e-07  6.9643281e-07  1.0813013e-06  8.1236152e-07 -0.32523624     1.5560853e-07 -1.6750561e-07  17.383445      26.075167      34.766889      15759.004    
        74   0             -7302.5766      4.9869538e-08  2.124784e-07   7.2892086e-07 -7.9179065e-07 -0.32523632     1.9675003e-07 -1.9506988e-07  17.383445      26.075167      34.766889      15759.004    
        75   0             -7302.5766     -1.6892843e-06 -2.0120683e-06 -1.6894527e-06 -1.3663321e-06 -0.32523568    -2.6664561e-07  2.1480506e-08  17.383445      26.075167      34.766889      15759.004    
        76   0             -7302.5766      1.0250049e-07 -4.521208e-07  -2.221206e-07   9.8174286e-07 -0.3252356     -7.3795605e-11  3.2741365e-08  17.383445      26.075167      34.766889      15759.004    
        77   0             -7302.5766      6.6808693e-07  2.0698111e-07  4.7439732e-07  1.3228824e-06 -0.32523561     2.0659615e-07  1.4017136e-08  17.383445      26.075167      34.766889      15759.004    
        78   0             -7302.5766     -5.4539263e-07 -7.7285225e-07 -4.121952e-07  -4.5113045e-07 -0.32523554     8.9660362e-08  3.1294462e-08  17.383445      26.075167      34.766889      15759.004    
        79   0             -7302.5766     -1.1718648e-06 -1.3567123e-06 -9.7903502e-07 -1.1798471e-06 -0.32523552    -1.2162389e-07  5.1340758e-08  17.383445      26.075167      34.766889      15759.004    
        80   0             -7302.5766      1.2009961e-08 -3.5733843e-07 -5.3316001e-08  4.4668432e-07 -0.32523573    -9.5521734e-09 -5.5761224e-09  17.383445      26.075167      34.766889      15759.004    
        81   0             -7302.5766     -4.2554947e-09 -4.0461999e-07 -1.1296651e-07  5.0482001e-07 -0.32523582     5.1162748e-08 -3.5314226e-08  17.383445      26.075167      34.766889      15759.004    
        82   0             -7302.5766     -6.9093758e-07 -1.0140509e-06 -6.9169732e-07 -3.6706447e-07 -0.32523581     1.5827757e-08 -3.4777251e-08  17.383445      26.075167      34.766889      15759.004    
        83   0             -7302.5766     -5.8148472e-07 -8.4355004e-07 -4.9669606e-07 -4.0420805e-07 -0.3252357     -5.5623167e-08 -2.0572993e-09  17.383445      26.075167      34.766889      15759.004    
        84   0             -7302.5766     -1.7204518e-07 -4.6854894e-07 -1.3536448e-07  8.7777891e-08 -0.32523565    -1.3763395e-08  1.2353137e-08  17.383445      26.075167      34.766889      15759.004    
        85   0             -7302.5766     -3.1509613e-07 -6.5580577e-07 -3.4037418e-07  5.089157e-08  -0.32523566     3.7400814e-08  9.5266058e-09  17.383445      26.075167      34.766889      15759.004    
        86   0             -7302.5766     -5.4251805e-07 -8.8873075e-07 -5.7557036e-07 -1.6325303e-07 -0.32523566     3.3904769e-08  7.6551082e-09  17.383445      26.075167      34.766889      15759.004    
        87   0             -7302.5766     -4.3880808e-07 -7.3411241e-07 -4.0046061e-07 -1.8185123e-07 -0.32523566    -3.3900358e-08  8.7571648e-09  17.383445      26.075167      34.766889      15759.004    
        88   0             -7302.5766     -3.5046397e-07 -6.4906533e-07 -3.1670954e-07 -8.5617042e-08 -0.3252357     -9.3577725e-09 -1.5292272e-09  17.383445      26.075167      34.766889      15759.004    
        89   0             -7302.5766     -3.850966e-07  -7.0618815e-07 -3.8295077e-07 -6.6150886e-08 -0.32523573     2.0100622e-08 -9.2021789e-09  17.383445      26.075167      34.766889      15759.004    
        90   0             -7302.5766     -4.4235493e-07 -7.7191292e-07 -4.5210852e-07 -1.0304335e-07 -0.32523572     1.1164596e-08 -6.8118031e-09  17.383445      26.075167      34.766889      15759.004    
        91   0             -7302.5766     -4.2605453e-07 -7.4058859e-07 -4.1464957e-07 -1.2292542e-07 -0.32523569    -2.0179592e-08  1.9612298e-09  17.383445      26.075167      34.766889      15759.004    
        92   0             -7302.5766     -3.8684509e-07 -6.9441671e-07 -3.657699e-07  -1.0034865e-07 -0.32523569     1.0230765e-09  4.9392365e-10  17.383445      26.075167      34.766889      15759.004    
        93   0             -7302.5766     -3.9833211e-07 -7.0996539e-07 -3.8298351e-07 -1.0204744e-07 -0.32523569     1.1445322e-08 -9.5857779e-12  17.383445      26.075167      34.766889      15759.004    
        94   0             -7302.5766     -4.2929293e-07 -7.4890466e-07 -4.2490105e-07 -1.1407307e-07 -0.32523569     3.2275606e-09  1.9954831e-09  17.383445      26.075167      34.766889      15759.004    
        95   0             -7302.5766     -4.2037823e-07 -7.396959e-07  -4.1563129e-07 -1.0580748e-07 -0.32523569    -5.2469916e-09  2.3225688e-09  17.383445      26.075167      34.766889      15759.004    
        96   0             -7302.5766     -3.9168302e-07 -7.0312124e-07 -3.7616581e-07 -9.5762018e-08 -0.3252357      2.0144289e-09 -1.516215e-09   17.383445      26.075167      34.766889      15759.004    
        97   0             -7302.5766     -4.0517076e-07 -7.1687261e-07 -3.8996771e-07 -1.0867194e-07 -0.3252357      2.4866067e-09 -1.9836744e-09  17.383445      26.075167      34.766889      15759.004    
        98   0             -7302.5766     -4.2680923e-07 -7.4306025e-07 -4.1774478e-07 -1.1962265e-07 -0.3252357     -1.4225004e-09 -5.6077189e-10  17.383445      26.075167      34.766889      15759.004    
Loop time of 0.155816 on 4 procs for 97 steps with 1344 atoms

75.2% CPU use with 4 MPI tasks x 1 OpenMP threads

Minimization stats:
  Stopping criterion = force tolerance
  Energy initial, next-to-last, final = 
     -7302.57660807145  -7302.57660876312  -7302.57660876312
  Force two-norm initial, final = 0.0046676924 8.9678244e-11
  Force max component initial, final = 0.00025216904 6.414036e-12
  Final line search alpha, max atom move = 1 6.414036e-12
  Iterations, force evaluations = 97 194

MPI task timing breakdown:
Section |  min time  |  avg time  |  max time  |%varavg| %total
---------------------------------------------------------------
Pair    | 0.14272    | 0.14382    | 0.14545    |   0.3 | 92.30
Neigh   | 0          | 0          | 0          |   0.0 |  0.00
Comm    | 0.007078   | 0.0086208  | 0.009636   |   1.1 |  5.53
Output  | 0.001212   | 0.00131    | 0.00158    |   0.4 |  0.84
Modify  | 0          | 0          | 0          |   0.0 |  0.00
Other   |            | 0.002063   |            |       |  1.32

Nlocal:            336 ave         339 max         333 min
Histogram: 1 0 0 0 0 2 0 0 0 1
Nghost:            981 ave         984 max         978 min
Histogram: 1 0 0 0 0 2 0 0 0 1
Neighs:           6528 ave        6591 max        6465 min
Histogram: 1 0 0 0 1 1 0 0 0 1
FullNghs:        13056 ave       13188 max       12924 min
Histogram: 1 0 0 0 0 2 0 0 0 1

Total # of neighbors = 52224
Ave neighs/atom = 38.857143
Neighbor list builds = 0
Dangerous builds = 0

# Obtain new stress tensor

variable tmp equal pe
variable e1 equal ${tmp}
variable e1 equal -7302.57660876312
variable tmp equal press
variable p1 equal ${tmp}
variable p1 equal -4.26809228122764e-07
variable tmp equal pxx
variable pxx1 equal ${tmp}
variable pxx1 equal -7.43060249109854e-07
variable tmp equal pyy
variable pyy1 equal ${tmp}
variable pyy1 equal -4.17744782559538e-07
variable tmp equal pzz
variable pzz1 equal ${tmp}
variable pzz1 equal -1.19622652698901e-07
variable tmp equal pxy
variable pxy1 equal ${tmp}
variable pxy1 equal -0.325235695728359
variable tmp equal pxz
variable pxz1 equal ${tmp}
variable pxz1 equal -1.42250038138183e-09
variable tmp equal pyz
variable pyz1 equal ${tmp}
variable pyz1 equal -5.60771889514849e-10

# Compute elastic constant from pressure tensor

variable C1pos equal ${d1}
variable C1pos equal 7.43421985949914e-05
variable C2pos equal ${d2}
variable C2pos equal 4.17502240085149e-05
variable C3pos equal ${d3}
variable C3pos equal 1.19497588913708e-05
variable C4pos equal ${d4}
variable C4pos equal 5.59146511801149e-08
variable C5pos equal ${d5}
variable C5pos equal 1.47288709050653e-07
variable C6pos equal ${d6}
variable C6pos equal 32.5235695749399

# Combine positive and negative

variable C1${dir} equal 0.5*(${C1neg}+${C1pos})
variable C16 equal 0.5*(${C1neg}+${C1pos})
variable C16 equal 0.5*(-7.43390697428925e-05+${C1pos})
variable C16 equal 0.5*(-7.43390697428925e-05+7.43421985949914e-05)
variable C2${dir} equal 0.5*(${C2neg}+${C2pos})
variable C26 equal 0.5*(${C2neg}+${C2pos})
variable C26 equal 0.5*(-4.17547660362371e-05+${C2pos})
variable C26 equal 0.5*(-4.17547660362371e-05+4.17502240085149e-05)
variable C3${dir} equal 0.5*(${C3neg}+${C3pos})
variable C36 equal 0.5*(${C3neg}+${C3pos})
variable C36 equal 0.5*(-1.19648026650987e-05+${C3pos})
variable C36 equal 0.5*(-1.19648026650987e-05+1.19497588913708e-05)
variable C4${dir} equal 0.5*(${C4neg}+${C4pos})
variable C46 equal 0.5*(${C4neg}+${C4pos})
variable C46 equal 0.5*(-7.1683495747499e-08+${C4pos})
variable C46 equal 0.5*(-7.1683495747499e-08+5.59146511801149e-08)
variable C5${dir} equal 0.5*(${C5neg}+${C5pos})
variable C56 equal 0.5*(${C5neg}+${C5pos})
variable C56 equal 0.5*(-1.67022762725798e-07+${C5pos})
variable C56 equal 0.5*(-1.67022762725798e-07+1.47288709050653e-07)
variable C6${dir} equal 0.5*(${C6neg}+${C6pos})
variable C66 equal 0.5*(${C6neg}+${C6pos})
variable C66 equal 0.5*(32.5235692877085+${C6pos})
variable C66 equal 0.5*(32.5235692877085+32.5235695749399)

# Delete dir to make sure it is not reused

variable dir delete

# Output final values

variable C11all equal ${C11}
variable C11all equal 133.88894666262
variable C22all equal ${C22}
variable C22all equal 133.888946638171
variable C33all equal ${C33}
variable C33all equal 133.888946673761

variable C12all equal 0.5*(${C12}+${C21})
variable C12all equal 0.5*(68.9092746371271+${C21})
variable C12all equal 0.5*(68.9092746371271+68.9092746412516)
variable C13all equal 0.5*(${C13}+${C31})
variable C13all equal 0.5*(68.9092746627314+${C31})
variable C13all equal 0.5*(68.9092746627314+68.9092747032509)
variable C23all equal 0.5*(${C23}+${C32})
variable C23all equal 0.5*(68.9092746614062+${C32})
variable C23all equal 0.5*(68.9092746614062+68.909274691783)

variable C44all equal ${C44}
variable C44all equal 32.5235694453608
variable C55all equal ${C55}
variable C55all equal 32.5235694638308
variable C66all equal ${C66}
variable C66all equal 32.5235694313242

variable C14all equal 0.5*(${C14}+${C41})
variable C14all equal 0.5*(-5.67979212175016e-09+${C41})
variable C14all equal 0.5*(-5.67979212175016e-09+1.70627794354698e-08)
variable C15all equal 0.5*(${C15}+${C51})
variable C15all equal 0.5*(3.38078564449525e-08+${C51})
variable C15all equal 0.5*(3.38078564449525e-08+-6.23709818197656e-08)
variable C16all equal 0.5*(${C16}+${C61})
variable C16all equal 0.5*(1.56442604945278e-09+${C61})
variable C16all equal 0.5*(1.56442604945278e-09+2.1689595883127e-08)

variable C24all equal 0.5*(${C24}+${C42})
variable C24all equal 0.5*(2.07687152347399e-10+${C42})
variable C24all equal 0.5*(2.07687152347399e-10+1.69589007896056e-08)
variable C25all equal 0.5*(${C25}+${C52})
variable C25all equal 0.5*(2.90423392872005e-08+${C52})
variable C25all equal 0.5*(2.90423392872005e-08+-6.28991251174177e-08)
variable C26all equal 0.5*(${C26}+${C62})
variable C26all equal 0.5*(-2.27101386110021e-09+${C62})
variable C26all equal 0.5*(-2.27101386110021e-09+2.24164993450005e-08)

variable C34all equal 0.5*(${C34}+${C43})
variable C34all equal 0.5*(-2.42452175625016e-09+${C43})
variable C34all equal 0.5*(-2.42452175625016e-09+1.41630235328275e-08)
variable C35all equal 0.5*(${C35}+${C53})
variable C35all equal 0.5*(2.54371612193987e-08+${C53})
variable C35all equal 0.5*(2.54371612193987e-08+-6.20537192286679e-08)
variable C36all equal 0.5*(${C36}+${C63})
variable C36all equal 0.5*(-7.52188686395022e-09+${C63})
variable C36all equal 0.5*(-7.52188686395022e-09+2.02877061670515e-08)

variable C45all equal 0.5*(${C45}+${C54})
variable C45all equal 0.5*(-7.53887079123845e-09+${C54})
variable C45all equal 0.5*(-7.53887079123845e-09+-5.9895592025295e-09)
variable C46all equal 0.5*(${C46}+${C64})
variable C46all equal 0.5*(-7.88442228369205e-09+${C64})
variable C46all equal 0.5*(-7.88442228369205e-09+-8.49485602313e-09)
variable C56all equal 0.5*(${C56}+${C65})
variable C56all equal 0.5*(-9.8670268375725e-09+${C65})
variable C56all equal 0.5*(-9.8670268375725e-09+-8.8267039730105e-09)

# Average moduli for cubic crystals

variable C11cubic equal (${C11all}+${C22all}+${C33all})/3.0
variable C11cubic equal (133.88894666262+${C22all}+${C33all})/3.0
variable C11cubic equal (133.88894666262+133.888946638171+${C33all})/3.0
variable C11cubic equal (133.88894666262+133.888946638171+133.888946673761)/3.0
variable C12cubic equal (${C12all}+${C13all}+${C23all})/3.0
variable C12cubic equal (68.9092746391893+${C13all}+${C23all})/3.0
variable C12cubic equal (68.9092746391893+68.9092746829912+${C23all})/3.0
variable C12cubic equal (68.9092746391893+68.9092746829912+68.9092746765946)/3.0
variable C44cubic equal (${C44all}+${C55all}+${C66all})/3.0
variable C44cubic equal (32.5235694453608+${C55all}+${C66all})/3.0
variable C44cubic equal (32.5235694453608+32.5235694638308+${C66all})/3.0
variable C44cubic equal (32.5235694453608+32.5235694638308+32.5235694313242)/3.0

variable bulkmodulus equal (${C11cubic}+2*${C12cubic})/3.0
variable bulkmodulus equal (133.888946658184+2*${C12cubic})/3.0
variable bulkmodulus equal (133.888946658184+2*68.9092746662584)/3.0
variable shearmodulus1 equal ${C44cubic}
variable shearmodulus1 equal 32.5235694468386
variable shearmodulus2 equal (${C11cubic}-${C12cubic})/2.0
variable shearmodulus2 equal (133.888946658184-${C12cubic})/2.0
variable shearmodulus2 equal (133.888946658184-68.9092746662584)/2.0
variable poissonratio equal 1.0/(1.0+${C11cubic}/${C12cubic})
variable poissonratio equal 1.0/(1.0+133.888946658184/${C12cubic})
variable poissonratio equal 1.0/(1.0+133.888946658184/68.9092746662584)

# For Stillinger-Weber silicon, the analytical results
# are known to be (E. R. Cowley, 1988):
#               C11 = 151.4 GPa
#               C12 = 76.4 GPa
#               C44 = 56.4 GPa

print "========================================="
=========================================
print "Components of the Elastic Constant Tensor"
Components of the Elastic Constant Tensor
print "========================================="
=========================================

print "Elastic Constant C11all = ${C11all} ${cunits}"
Elastic Constant C11all = 133.88894666262 GPa
print "Elastic Constant C22all = ${C22all} ${cunits}"
Elastic Constant C22all = 133.888946638171 GPa
print "Elastic Constant C33all = ${C33all} ${cunits}"
Elastic Constant C33all = 133.888946673761 GPa

print "Elastic Constant C12all = ${C12all} ${cunits}"
Elastic Constant C12all = 68.9092746391893 GPa
print "Elastic Constant C13all = ${C13all} ${cunits}"
Elastic Constant C13all = 68.9092746829912 GPa
print "Elastic Constant C23all = ${C23all} ${cunits}"
Elastic Constant C23all = 68.9092746765946 GPa

print "Elastic Constant C44all = ${C44all} ${cunits}"
Elastic Constant C44all = 32.5235694453608 GPa
print "Elastic Constant C55all = ${C55all} ${cunits}"
Elastic Constant C55all = 32.5235694638308 GPa
print "Elastic Constant C66all = ${C66all} ${cunits}"
Elastic Constant C66all = 32.5235694313242 GPa

print "Elastic Constant C14all = ${C14all} ${cunits}"
Elastic Constant C14all = 5.69149365685982e-09 GPa
print "Elastic Constant C15all = ${C15all} ${cunits}"
Elastic Constant C15all = -1.42815626874065e-08 GPa
print "Elastic Constant C16all = ${C16all} ${cunits}"
Elastic Constant C16all = 1.16270109662899e-08 GPa

print "Elastic Constant C24all = ${C24all} ${cunits}"
Elastic Constant C24all = 8.5832939709765e-09 GPa
print "Elastic Constant C25all = ${C25all} ${cunits}"
Elastic Constant C25all = -1.69283929151086e-08 GPa
print "Elastic Constant C26all = ${C26all} ${cunits}"
Elastic Constant C26all = 1.00727427419501e-08 GPa

print "Elastic Constant C34all = ${C34all} ${cunits}"
Elastic Constant C34all = 5.86925088828867e-09 GPa
print "Elastic Constant C35all = ${C35all} ${cunits}"
Elastic Constant C35all = -1.83082790046346e-08 GPa
print "Elastic Constant C36all = ${C36all} ${cunits}"
Elastic Constant C36all = 6.38290965155064e-09 GPa

print "Elastic Constant C45all = ${C45all} ${cunits}"
Elastic Constant C45all = -6.76421499688398e-09 GPa
print "Elastic Constant C46all = ${C46all} ${cunits}"
Elastic Constant C46all = -8.18963915341102e-09 GPa
print "Elastic Constant C56all = ${C56all} ${cunits}"
Elastic Constant C56all = -9.3468654052915e-09 GPa

print "========================================="
=========================================
print "Average properties for a cubic crystal"
Average properties for a cubic crystal
print "========================================="
=========================================

print "Bulk Modulus = ${bulkmodulus} ${cunits}"
Bulk Modulus = 90.5691653302336 GPa
print "Shear Modulus 1 = ${shearmodulus1} ${cunits}"
Shear Modulus 1 = 32.5235694468386 GPa
print "Shear Modulus 2 = ${shearmodulus2} ${cunits}"
Shear Modulus 2 = 32.4898359959628 GPa
print "Poisson Ratio = ${poissonratio}"
Poisson Ratio = 0.339792302990742
Total wall time: 0:00:01
