LAMMPS (22 Dec 2022)
  using 1 OpenMP thread(s) per MPI task
Loaded 1 plugins from C:\Program Files\LAMMPS 64-bit 23Jun2022\plugins
Loaded 0 plugins from C:\Program Files\LAMMPS 64-bit 23Jun2022-MPI\plugins
Loaded 1 plugins from C:\Program Files\LAMMPS 64-bit 22Dec2022-MSMPI\plugins
Loaded 1 plugins from C:\Program Files\LAMMPS 64-bit 28Mar2023-MPI\plugins
# Compute elastic constant tensor for a crystal
#
# Written by Aidan Thompson (Sandia, athomps@sandia.gov)
#
#  This script uses the following three include files.
#
#   init.mod      (must be modified for different crystal structures)
# 	       	  Define units, deformation parameters and initial
#		  configuration of the atoms and simulation cell.
#
#
#   potential.mod    (must be modified for different pair styles)
# 		     Define pair style and other attributes
#		     not stored in restart file
#
#
#   displace.mod    (displace.mod should not need to be modified)
# 		    Perform positive and negative box displacements
# 		    in direction ${dir} and size ${up}.
# 		    It uses the resultant changes
#		    in stress to compute one
# 		    row of the elastic stiffness tensor
#
#		    Inputs variables:
#		    	   dir = the Voigt deformation component
#		    		    (1,2,3,4,5,6)
#		    Global constants:
#       	    	   up = the deformation magnitude (strain units)
#       		   cfac = conversion from LAMMPS pressure units to
#               	   output units for elastic constants
#
#
#  To run this on a different system, it should only be necessary to
#  modify the files init.mod and potential.mod. In order to calculate
#  the elastic constants correctly, care must be taken to specify
#  the correct units in init.mod (units, cfac and cunits). It is also
#  important to verify that the minimization of energy w.r.t atom
#  positions in the deformed cell is fully converged.
#  One indication of this is that the elastic constants are insensitive
#  to the choice of the variable ${up} in init.mod. Another is to check
#  the final max and two-norm forces reported in the log file. If you know
#  that minimization is not required, you can set maxiter = 0.0 in
#  init.mod.
#

include init.mod
# NOTE: This script can be modified for different atomic structures,
# units, etc. See in.elastic for more info.
#

# Define the finite deformation size. Try several values of this
# variable to verify that results do not depend on it.
variable up equal 1.0e-6

# Define the amount of random jiggle for atoms
# This prevents atoms from staying on saddle points
variable atomjiggle equal 1.0e-5

# Uncomment one of these blocks, depending on what units
# you are using in LAMMPS and for output

# metal units, elastic constants in eV/A^3
#units		metal
#variable cfac equal 6.2414e-7
#variable cunits string eV/A^3

# metal units, elastic constants in GPa
units		metal
variable cfac equal 1.0e-4
variable cunits string GPa

# real units, elastic constants in GPa
#units		real
#variable cfac equal 1.01325e-4
#variable cunits string GPa

# Define minimization parameters
variable etol equal 0.0
variable ftol equal 1.0e-10
variable maxiter equal 1000
variable maxeval equal 100000
variable dmax equal 1.0e-2

# generate the box and atom positions using a diamond lattice

dimension    3
boundary     p p p
read_data    data.in
Reading data file ...
  orthogonal box = (0.0072073796 0.022012186 0.025679348) to (3.0251076 9.2390348 10.77823)
  1 by 2 by 2 MPI processor grid
  reading atoms ...
  28 atoms
  reading velocities ...
  28 velocities
  read_data CPU = 0.001 seconds
replicate    2 3 4
Replication is creating a 2x3x4 = 24 times larger system...
  orthogonal box = (0.0072073796 0.022012186 0.025679348) to (6.0430079 27.67308 43.035881)
  1 by 2 by 2 MPI processor grid
  672 atoms
  replicate CPU = 0.000 seconds
change_box   all triclinic
Changing box ...
  triclinic box = (0.0072073796 0.022012186 0.025679348) to (6.0430079 27.67308 43.035881) with tilt (0 0 0)

# Need to set mass to something, just to satisfy LAMMPS
mass 1 1.0e-20

include potential.mod
# NOTE: This script can be modified for different pair styles
# See in.elastic for more info.

# Choose potential
#-----------------------
#pair_style	sw
#pair_coeff * * Si.sw Si
#-----------------------
#pair_style morse	2.83994742	# D0[eV] a[1/A] r0[A] rc[A], 1NN for BCC
#pair_coeff 1 1	2.1173	1.0202	2.4595	2.6497	#	Fe-Fe
#-----------------------
#pair_style smatb # R0(A)   p       q     A(eV)   xi(eV)  Rcs(A)   Rc(A), 4NN: Rcs=4NN, Rc=(4NN+5NN)/2
#pair_coeff 1 1	2.4802	7.0149	2.3779	0.3144	3.0551	4.033	4.176	#	Co	Co
#-----------------------
#pair_style eam/alloy
#pair_coeff * * AlCrFeCoNi_Zhou04.eam.alloy Fe
#-----------------------
pair_style meam
#pair_coeff * * ./../../library.meam Fe Cr Ni O ./../../FeCrNiO.meam Fe O
#pair_coeff * * ./../../library.meam Fe Cr Ni O ./../../FeCrNiO.meam Cr O
#pair_coeff * * ./../../library.meam Fe Cr Ni O ./../../FeCrNiO.meam Fe Ni O
pair_coeff * * ./../../library.meam Fe Cr Ni O ./../../FeCrNiO.meam Fe Cr O
#-----------------------

# Setup neighbor style
neighbor 1.0 nsq
neigh_modify once no every 1 delay 0 check yes

# Setup minimization style
min_style	     cg
min_modify	     dmax ${dmax} line quadratic
min_modify	     dmax 0.01 line quadratic

# Setup output
thermo		1
thermo_style custom step temp pe press pxx pyy pzz pxy pxz pyz lx ly lz vol
thermo_modify norm no

# Compute initial state
fix 3 all box/relax  aniso 0.0
minimize ${etol} ${ftol} ${maxiter} ${maxeval}
minimize 0 ${ftol} ${maxiter} ${maxeval}
minimize 0 1e-10 ${maxiter} ${maxeval}
minimize 0 1e-10 1000 ${maxeval}
minimize 0 1e-10 1000 100000
Neighbor list info ...
  update: every = 1 steps, delay = 0 steps, check = yes
  max neighbors/atom: 2000, page size: 100000
  master list distance cutoff = 5
  ghost atom cutoff = 5
  2 neighbor lists, perpetual/occasional/extra = 2 0 0
  (1) pair meam, perpetual
      attributes: full, newton on
      pair build: full/nsq
      stencil: none
      bin: none
  (2) pair meam, perpetual, half/full from (1)
      attributes: half, newton on
      pair build: halffull/newton
      stencil: none
      bin: none
Per MPI rank memory allocation (min/avg/max) = 9.916 | 9.917 | 9.917 Mbytes
   Step          Temp          PotEng         Press           Pxx            Pyy            Pzz            Pxy            Pxz            Pyz             Lx             Ly             Lz           Volume    
         0   0             -4307.5482     -0.0088010049  -34969.761      123146.39     -88176.659      0.03856723     0.00015926434  0.0025756421   6.0358005      27.651068      43.010201      7178.2447    
         1   0             -4307.635      -35.129875     -34194.053      119994.44     -85905.773      0.03839351     0.0026056353   0.0027231751   6.0356291      27.653833      43.007122      7178.2446    
         2   0             -4307.7196     -69.611774     -33418.576      116849.35     -83639.609      0.038218553    0.0050301669   0.0028704514   6.0354571      27.656598      43.004042      7178.2437    
         3   0             -4307.8019     -103.44917     -32643.312      113711.15     -81378.182      0.038042351    0.0074324596   0.0030174448   6.0352844      27.659363      43.000962      7178.2419    
         4   0             -4307.8821     -136.63644     -31868.24       110579.84     -79121.512      0.037864886    0.0098121331   0.0031641443   6.0351111      27.662128      42.997883      7178.2392    
         5   0             -4307.96       -169.16737     -31093.337      107455.45     -76869.619      0.037686146    0.012168798    0.0033105593   6.034937       27.664893      42.994803      7178.2356    
         6   0             -4308.0357     -201.03528     -30318.579      104338        -74622.529      0.037506113    0.014502064    0.0034566943   6.0347623      27.667659      42.991724      7178.231     
         7   0             -4308.1093     -232.23285     -29543.937      101227.51     -72380.271      0.03732478     0.016811551    0.0036025147   6.0345867      27.670424      42.988644      7178.2254    
         8   0             -4308.1806     -262.75213     -28769.38       98124.003     -70142.879      0.037142127    0.019096873    0.0037480859   6.0344104      27.673189      42.985565      7178.2188    
         9   0             -4308.2498     -292.58445     -27994.876      95027.514     -67910.391      0.036958141    0.021357645    0.003893289    6.0342333      27.675954      42.982486      7178.2111    
        10   0             -4308.3168     -321.72029     -27220.386      91938.077     -65682.852      0.036772806    0.023593491    0.0040381337   6.0340552      27.678719      42.979408      7178.2024    
        11   0             -4308.3816     -350.14924     -26445.869      88855.734     -63460.314      0.036586114    0.02580404     0.0041825997   6.0338763      27.681484      42.97633       7178.1925    
        12   0             -4308.4443     -377.85994     -25671.279      85780.533     -61242.834      0.036398049    0.0279889      0.0043267655   6.0336964      27.684249      42.973252      7178.1814    
        13   0             -4308.5048     -404.83985     -24896.566      82712.528     -59030.481      0.036208594    0.030147695    0.0044705326   6.0335155      27.687014      42.970175      7178.1691    
        14   0             -4308.5632     -431.07521     -24121.674      79651.781     -56823.333      0.036017734    0.03228005     0.0046139378   6.0333335      27.689779      42.967099      7178.1555    
        15   0             -4308.6195     -456.55075     -23346.539      76598.367     -54621.48       0.035825457    0.034385594    0.0047569639   6.0331504      27.692544      42.964023      7178.1406    
        16   0             -4308.6736     -481.24944     -22571.093      73552.368     -52425.023      0.035631754    0.036463948    0.0048995337   6.0329661      27.69531       42.960948      7178.1242    
        17   0             -4308.7256     -505.15231     -21795.258      70513.883     -50234.083      0.035436599    0.038514737    0.0050416633   6.0327805      27.698075      42.957874      7178.1063    
        18   0             -4308.7756     -528.23811     -21018.946      67483.026     -48048.795      0.035239978    0.040537591    0.0051833532   6.0325935      27.70084       42.954801      7178.0869    
        19   0             -4308.8234     -550.48293     -20242.059      64459.928     -45869.318      0.035041875    0.042532148    0.0053245376   6.0324051      27.703605      42.95173       7178.0658    
        20   0             -4308.8691     -571.85975     -19464.487      61444.745     -43695.836      0.034842275    0.044498024    0.0054652109   6.0322151      27.70637       42.948659      7178.043     
        21   0             -4308.9128     -592.33792     -18686.106      58437.655     -41528.563      0.034641153    0.046434848    0.0056053765   6.0320234      27.709135      42.94559       7178.0182    
        22   0             -4308.9545     -611.8824      -17906.774      55438.873     -39367.747      0.034438497    0.048342252    0.0057449278   6.0318298      27.7119        42.942522      7177.9915    
        23   0             -4308.9941     -630.45301     -17126.328      52448.65      -37213.681      0.034234281    0.050219865    0.0058839109   6.0316343      27.714665      42.939457      7177.9625    
        24   0             -4309.0317     -648.00331     -16344.583      49467.283     -35066.711      0.034028486    0.052067301    0.0060222107   6.0314366      27.71743       42.936393      7177.9312    
        25   0             -4309.0673     -664.47903     -15561.324      46495.131     -32927.244      0.033821089    0.053884192    0.0061598206   6.0312366      27.720196      42.933331      7177.8973    
        26   0             -4309.1009     -679.81641     -14776.302      43532.623     -30795.77       0.033612052    0.055670148    0.0062966641   6.0310339      27.722961      42.930272      7177.8606    
        27   0             -4309.1326     -693.93983     -13989.224      40580.282     -28672.877      0.033401353    0.057424778    0.0064326324   6.0308284      27.725726      42.927216      7177.8209    
        28   0             -4309.1625     -706.75864     -13199.746      37638.75      -26559.279      0.033188951    0.059147686    0.0065676808   6.0306195      27.728491      42.924163      7177.7776    
        29   0             -4309.1904     -718.16291     -12407.456      34708.821     -24455.854      0.032974799    0.060838451    0.0067017029   6.0304071      27.731256      42.921113      7177.7305    
        30   0             -4309.2165     -728.01743     -11611.857      31791.495     -22363.691      0.032758843    0.062496641    0.0068345706   6.0301905      27.734021      42.918068      7177.6791    
        31   0             -4309.2409     -736.15339     -10812.341      28888.048     -20284.167      0.03254102     0.064121796    0.0069661196   6.0299692      27.736786      42.915027      7177.6226    
        32   0             -4309.2637     -742.35602     -10008.156      26000.139     -18219.051      0.032321235    0.065713384    0.0070961255   6.0297424      27.739551      42.911991      7177.5603    
        33   0             -4309.2848     -746.34628     -9198.3498      23129.969     -16170.658      0.032099378    0.06727084     0.0072243627   6.029509       27.742316      42.90896       7177.4911    
        34   0             -4309.3045     -747.75221     -8381.6961      20280.546     -14142.106      0.031875288    0.068793509    0.0073504208   6.029268       27.745082      42.905936      7177.4136    
        35   0             -4309.323      -746.06221     -7556.572       17456.102     -12137.716      0.031648734    0.070280572    0.0074738254   6.0290174      27.747847      42.902919      7177.3259    
        36   0             -4309.3404     -740.54501     -6720.7641      14662.849     -10163.72       0.031419378    0.07173095     0.0075938611   6.0287549      27.750612      42.899911      7177.2253    
        37   0             -4309.3573     -730.10286     -5871.1337      11910.386     -8229.5605      0.031186683    0.07314311     0.007709427    6.0284769      27.753377      42.896911      7177.1076    
        38   0             -4309.3742     -712.97828     -5003.0079      9214.598      -6350.525       0.030949732    0.074514566    0.0078187638   6.0281779      27.756142      42.89392       7176.9663    
        39   0             -4309.3924     -686.09989     -4108.9737      6604.3731     -4553.6991      0.030706801    0.075841209    0.0079186804   6.0278486      27.758907      42.890937      7176.7899    
        40   0             -4309.4142     -643.37835     -3176.2705      4139.9491     -2893.8136      0.030454165    0.077114375    0.0080028293   6.0274711      27.761672      42.887952      7176.5557    
        41   0             -4309.4457     -570.15663     -2180.8215      1976.9013     -1506.5498      0.03018176     0.078311524    0.0080551105   6.0270055      27.764437      42.884925      7176.2096    
        42   0             -4309.5027     -433.30231     -1190.5443      817.71764     -927.08023      0.029882853    0.079246475    0.0080224454   6.0264019      27.76693       42.881949      7175.6372    
        43   0             -4309.6058     -230.03712     -604.47362      1578.7268     -1664.3645      0.029533828    0.079680676    0.0078521523   6.0257983      27.768818      42.878595      7174.8453    
        44   0             -4309.6787     -160.90664     -301.12756      849.51877     -1031.1111      0.029170842    0.080481257    0.0078142147   6.0255794      27.771422      42.874294      7174.5376    
        45   0             -4309.7956     -76.162334     -418.31242      1899.2238     -1709.3984      0.028757834    0.080787867    0.0076427778   6.0254034      27.773683      42.869993      7174.1924    
        46   0             -4309.859      -64.564446     -166.0436       900.07177     -927.72152      0.028411589    0.081536655    0.0076272704   6.0252697      27.776448      42.866092      7174.0945    
        47   0             -4309.987      -30.773795     -408.05395      2100.2502     -1784.5176      0.027960239    0.081738805    0.0074335261   6.0251618      27.77911       42.861791      7173.9336    
        48   0             -4310.0436     -34.098323     -137.59775      942.90489     -907.60211      0.027629612    0.08242557     0.0074319138   6.0250438      27.781875      42.858107      7173.8905    
        49   0             -4310.1686     -19.766075     -378.877        2039.6516     -1720.0728      0.027180042    0.08255469     0.0072437432   6.0249551      27.78464       42.853932      7173.8001    
        50   0             -4310.226      -25.555226     -123.93908      931.24492     -883.97152      0.026848056    0.083146214    0.0072383838   6.0248423      27.787405      42.850274      7173.7673    
        51   0             -4310.3507     -15.79745      -379.99946      2068.7297     -1736.1226      0.026399716    0.083169411    0.0070471327   6.0247614      27.79017       42.846156      7173.6953    
        52   0             -4310.4066     -22.527857     -117.58631      920.14525     -870.14252      0.026069911    0.083689287    0.0070454895   6.0246498      27.792935      42.842515      7173.6664    
        53   0             -4310.531      -14.007999     -380.01976      2081.4603     -1743.4646      0.025622062    0.08361546     0.0068527877   6.0245721      27.7957        42.838411      7173.6004    
        54   0             -4310.5857     -20.984444     -112.31318      905.23668     -855.87683      0.025293526    0.084061779    0.0068538642   6.0244611      27.798466      42.834775      7173.5729    
        55   0             -4310.7104     -12.703022     -383.19333      2105.034      -1759.9497      0.024845233    0.083889579    0.0066588771   6.0243856      27.801231      42.83067       7173.5092    
        56   0             -4310.7637     -19.829564     -107.86398      891.30844     -842.93315      0.024518449    0.084265308    0.0066635889   6.024275       27.803996      42.827039      7173.4827    
        57   0             -4310.8885     -11.590627     -385.74869      2125.0452     -1774.0684      0.024070157    0.083997395    0.0064670158   6.0242013      27.806761      42.822933      7173.4204    
        58   0             -4310.9406     -18.798697     -103.57749      877.00035     -829.81896      0.023744994    0.084302195    0.006475188    6.024091       27.809526      42.819306      7173.3947    
        59   0             -4311.0656     -10.534286     -388.89788      2147.4089     -1790.1138      0.023296871    0.083939449    0.0062771797   6.024019       27.812291      42.815196      7173.3337    
        60   0             -4311.1164     -17.815        -99.596776      863.32689     -817.17511      0.02297345     0.084174169    0.0062890375   6.0239089      27.815056      42.811572      7173.3086    
        61   0             -4311.2415     -9.5324907     -391.75308      2168.3442     -1805.1886      0.022525935    0.083718725    0.0060901439   6.0238386      27.817821      42.807459      7173.2488    
        62   0             -4311.2912     -16.864699     -95.748993      849.62574     -804.47084      0.02220422     0.083883395    0.006105544    6.0237288      27.820586      42.803839      7173.2243    
        63   0             -4311.4164     -8.5620954     -394.9057       2190.5272     -1821.3078      0.021757586    0.083336706    0.0059059119   6.02366        27.823352      42.799724      7173.1657    
        64   0             -4311.4649     -15.939421     -92.149057      836.43161     -792.10082      0.021437641    0.083431899    0.0059249756   6.0235504      27.826117      42.796107      7173.1418    
        65   0             -4311.5902     -7.6344113     -397.84717      2211.7117     -1836.7678      0.020992307    0.082796221    0.0057250045   6.0234832      27.828882      42.79199       7173.0844    
        66   0             -4311.6376     -15.040921     -88.67722       823.22313     -779.66867      0.020674108    0.082822068    0.0057476103   6.0233737      27.831647      42.788376      7173.0609    
        67   0             -4311.763      -6.7354797     -401.06434      2234.0968     -1853.2389      0.020230358    0.082099079    0.0055474164   6.023308       27.834412      42.784257      7173.0046    
        68   0             -4311.8093     -14.164755     -85.450758      810.5343      -767.57781      0.019913955    0.082056097    0.0055735886   6.0231987      27.837177      42.780645      7172.9816    
        69   0             -4311.9348     -5.8774971     -404.01989      2255.2855     -1868.8981      0.019472208    0.081248413    0.0053735448   6.0231343      27.839942      42.776526      7172.9266    
        70   0             -4311.9799     -13.313843     -82.320582      797.70726     -755.32821      0.019157564    0.081136728    0.0054031731   6.0230253      27.842707      42.772916      7172.9039    
        71   0             -4312.1055     -5.0438581     -407.36719      2278.2437     -1886.0081      0.018718079    0.080246147    0.0052033218   6.0229622      27.845472      42.768796      7172.85      
        72   0             -4312.1496     -12.483363     -79.473915      785.59078     -743.56696      0.018405244    0.080066391    0.0052364313   6.0228534      27.848237      42.765189      7172.8277    
        73   0             -4312.2752     -4.2557513     -410.21517      2298.9401     -1901.4922      0.017968489    0.079096073    0.0050371329   6.0227914      27.851003      42.761069      7172.7751    
        74   0             -4312.3183     -11.679958     -76.630472      772.92515     -731.33455      0.017657392    0.078848204    0.005073533    6.0226828      27.853768      42.757464      7172.753     
        75   0             -4312.444      -3.4809185     -413.89113      2323.4485     -1920.0001      0.017223522    0.077799602    0.0048745922   6.0226221      27.856533      42.753344      7172.7015    
        76   0             -4312.486      -10.89263      -74.224662      761.69841     -720.15164      0.016914259    0.077484572    0.004914387    6.0225136      27.859298      42.74974       7172.6798    
        77   0             -4312.6116     -2.769252      -416.21758      2341.7986     -1933.8888      0.016483917    0.076362232    0.0047165104   6.0224538      27.862063      42.745623      7172.6295    
        78   0             -4312.6527     -10.138601     -71.494458      748.4407      -707.36204      0.016176317    0.075979411    0.0047593029   6.0223456      27.864828      42.74202       7172.6079    
        79   0             -4312.7785     -2.031878      -421.05705      2371.8211     -1956.8597      0.015749306    0.074782804    0.0045615428   6.0222869      27.867593      42.737903      7172.5588    
        80   0             -4312.8186     -9.3848705     -69.851189      739.65479     -697.95821      0.015443635    0.074334327    0.0046078328   6.0221789      27.870358      42.734302      7172.5374    
        81   0             -4312.9438     -1.4337635     -420.96901      2379.029      -1962.3613      0.015021309    0.073072908    0.0044123683   6.0221208      27.873123      42.73019       7172.4896    
        82   0             -4312.9832     -8.6945094     -66.442389      722.16692     -681.80806      0.014717042    0.072555787    0.0044609529   6.022013       27.875889      42.726589      7172.4682    
        83   0             -4313.1094     -0.63865259    -431.37007      2435.3401     -2005.886       0.014297693    0.071219047    0.0042635718   6.0219563      27.878654      42.722474      7172.4213    
        84   0             -4313.1473     -7.9327338     -67.444832      724.72191     -681.07528      0.013995831    0.070640538    0.0043165413   6.0218485      27.881419      42.718876      7172.4002    
        85   0             -4313.2711     -0.37546769    -417.95991      2379.8564     -1963.0229      0.013584234    0.069261876    0.0041268602   6.0217911      27.884184      42.714779      7172.3551    
        86   0             -4313.3093     -7.4009843     -58.678484      680.98836     -644.51282      0.01328259     0.068607309    0.0041793401   6.0216841      27.886949      42.711175      7172.3337    
        87   0             -4313.4387      1.0539196     -462.53742      2598.6583     -2132.9591      0.012868735    0.067118416    0.0039743724   6.0216308      27.889714      42.707048      7172.2883    
        88   0             -4313.4734     -6.3562931     -75.988802      759.78855     -702.86863      0.012572068    0.066422278    0.0040370781   6.0215225      27.892479      42.703459      7172.2676    
        89   0             -4313.5879     -0.50107642    -359.86532      2117.1233     -1758.7612      0.012181466    0.065004985    0.0038751695   6.0214609      27.895244      42.699422      7172.2272    
        90   0             -4313.6293     -6.5496081     -32.871359      551.56202     -538.33949      0.01187745     0.064177918    0.0039190088   6.0213572      27.898009      42.695791      7172.2046    
        91   0             -4313.783       5.7817337     -657.78668      3553.2386     -2878.1067      0.011446324    0.062373468    0.0036462514   6.0213196      27.900775      42.691536      7172.1558    
        92   0             -4313.8089     -2.7056987     -198.30891      1340.1878     -1149.996       0.011160947    0.061611718    0.0037351369   6.0212072      27.90354       42.687988      7172.1367    
        93   0             -4313.8724     -5.0216575     -61.394003      682.73278     -636.40375      0.010834781    0.060500498    0.0037175057   6.0211169      27.906305      42.684236      7172.1093    
        94   0             -4313.9957      2.1128105     -435.18595      2495.5386     -2054.0143      0.010447096    0.058878509    0.0035325675   6.021062       27.90907       42.680159      7172.0694    
        95   0             -4314.0298     -4.5733174     -52.577517      634.38594     -595.52837      0.010152805    0.057937762    0.0035975951   6.0209557      27.911835      42.676556      7172.0479    
        96   0             -4314.1584      3.2819714     -477.32102      2709.865      -2222.6981      0.0097658102   0.056230127    0.0033985105   6.020904       27.9146        42.672458      7172.0081    
        97   0             -4314.1896     -3.6347079     -71.794702      723.85939     -662.96881      0.0094750153   0.055243658    0.0034719461   6.0207967      27.917365      42.668866      7171.9869    
        98   0             -4314.3011      1.5029314     -354.8081       2116.6567     -1757.3398      0.0091106044   0.053624228    0.0033217195   6.0207354      27.92013       42.664863      7171.9514    
        99   0             -4314.3396     -4.0436825     -16.040441      446.00048     -442.09109      0.0088136286   0.052513348    0.0033744538   6.0206331      27.922895      42.661227      7171.9286    
       100   0             -4314.5129      10.456944     -851.02177      4576.2608     -3693.8682      0.0084009707   0.050409832    0.003048866    6.0206086      27.92565       42.656926      7171.8838    
       101   0             -4314.5335      2.2077101     -350.67216      2093.5592     -1736.2639      0.008121326    0.049372463    0.0031543115   6.0204961      27.928415      42.653381      7171.8638    
       102   0             -4314.5713     -3.1970442     -8.8729001      396.01434     -396.73258      0.0078268734   0.048170989    0.0032090758   6.0203937      27.93118       42.649748      7171.841     
       103   0             -4314.7579      12.771607     -981.54641      5270.4091     -4250.5478      0.0074218612   0.045969644    0.0028443192   6.0203767      27.933909      42.645447      7171.7979    
       104   0             -4314.7768      4.5937272     -466.10981      2684.9142     -2205.0232      0.007143836    0.044842518    0.0029554451   6.0202643      27.936674      42.641901      7171.7775    
       105   0             -4314.8057     -1.7252765     -50.437925      595.12617     -549.86407      0.0068574489   0.043603884    0.0030352246   6.0201581      27.939439      42.638301      7171.7554    
       106   0             -4314.9308      4.8840107     -476.33327      2754.8958     -2263.9105      0.0065089071   0.041761861    0.0028483438   6.0201047      27.942204      42.634264      7171.7224    
       107   0             -4314.9593     -1.2177154     -58.990502      637.98327     -582.64592      0.0062234308   0.040461018    0.002929576    6.0199993      27.944969      42.630658      7171.6999    
       108   0             -4315.0746      4.1063553     -405.8872       2401.4736     -1983.2673      0.0058881614   0.038650578    0.0027705411   6.0199416      27.947734      42.626662      7171.6686    
       109   0             -4315.1061     -1.3211076     -19.444189      428.54308     -413.06221      0.0056017146   0.037268616    0.0028426272   6.0198384      27.950499      42.623038      7171.6454    
       110   0             -4315.27        10.314809     -809.91766      4480.9373     -3640.0753      0.00524843     0.035193546    0.002546889    6.019807       27.953264      42.618839      7171.6108    
       111   0             -4315.2895      3.3301895     -310.47575      1913.3687     -1592.9024      0.004969637    0.033819003    0.0026545875   6.0196975      27.956029      42.615266      7171.5885    
       112   0             -4315.3274     -1.0118388      15.525362      235.08727     -253.64815      0.0046823584   0.032318234    0.0027085019   6.0195982      27.958794      42.611612      7171.5646    
       113   0             -4315.5824      23.314545     -1706.1597      9165.2843     -7389.1809      0.0043263232   0.029961544    0.002132727    6.0196254      27.961352      42.607311      7171.529     
       114   0             -4315.5999      15.690701     -1165.3716      6356.7011     -5144.2574      0.0040510328   0.028525976    0.0022530677   6.0195144      27.964117      42.603749      7171.5063    
       115   0             -4315.6135      8.1628467     -604.75556      3437.2265     -2807.9824      0.003775846    0.027056936    0.0023798602   6.0194022      27.966882      42.600195      7171.4834    
       116   0             -4315.6344      2.0656546     -127.51102      947.95784     -814.24985      0.0034973088   0.025514966    0.0024811182   6.0192945      27.969647      42.596607      7171.4601    
       117   0             -4315.7077      1.7941128     -120.90138      940.00765     -813.72394      0.0032080878   0.023783182    0.0024372636   6.0192121      27.972412      42.592834      7171.4357    
       118   0             -4315.781       1.8941392     -121.30782      935.46252     -808.47228      0.0029201392   0.022028347    0.0023941249   6.0191334      27.975177      42.589031      7171.4103    
       119   0             -4315.854       2.0236007     -120.47034      929.36669     -802.82555      0.0026349251   0.020262008    0.0023515274   6.019054       27.977942      42.585233      7171.3849    
       120   0             -4315.9268      2.1836047     -120.39514      926.75724     -799.81129      0.0023522976   0.018483424    0.0023092913   6.0189746      27.980708      42.581436      7171.3597    
       121   0             -4315.9991      2.3274557     -118.54403      914.80868     -789.28229      0.0020723248   0.016694497    0.0022680717   6.018895       27.983473      42.577642      7171.3345    
       122   0             -4316.0717      2.5255184     -121.58091      928.957       -799.79954      0.0017950117   0.014894772    0.0022258352   6.0188156      27.986238      42.573848      7171.3095    
       123   0             -4316.1426      2.5725012     -111.06262      870.35611     -751.57599      0.0015203438   0.013087284    0.0021881564   6.0187355      27.989003      42.570062      7171.2847    
       124   0             -4316.2176      3.0382818     -139.98295      1024.1325     -875.03474      0.0012487434   0.0112679      0.0021391127   6.0186573      27.991768      42.566264      7171.2601    
       125   0             -4316.2807      2.4012526     -63.470187      607.97221     -537.29826      0.00097843872  0.0094446445   0.0021220875   6.0185735      27.994533      42.562505      7171.2354    
       126   0             -4316.3858      5.7346814     -375.16573      2298.9512     -1906.5815      0.00071820671  0.0076161438   0.0019894635   6.0185096      27.997298      42.558616      7171.2122    
       127   0             -4316.4139      1.9886765      18.363301      151.82753     -164.2248       0.00044473251  0.0057575995   0.0020676648   6.0184097      28.000063      42.554965      7171.1862    
       128   0             -4316.7143      26.586437     -2290.5513      12800.796     -10430.486      0.00025790537  0.0042362635   0.0013477845   6.0184461      28.002687      42.550664      7171.1766    
       129   0             -4316.7341      20.795639     -1763.2938      9909.607      -8083.9263     -1.5465785e-05  0.0023522469   0.0014641914   6.0183403      28.005452      42.547051      7171.1498    
       130   0             -4316.7454      14.678094     -1169.415       6642.7481     -5429.2988     -0.00029149954  0.00041946011  0.0016004739   6.0182312      28.008217      42.543459      7171.1223    
       131   0             -4316.7573      9.287106      -604.18192      3524.8682     -2892.8249     -0.00056753748 -0.0015486443   0.0017285443   6.0181233      28.010982      42.539859      7171.0948    
       132   0             -4316.7752      4.884563      -113.391        816.46884     -688.42415     -0.00084049778 -0.0035336393   0.0018345521   6.0180182      28.013747      42.536244      7171.068     
       133   0             -4316.8486      4.3627951     -140.46167      1031.5354     -877.98531     -0.001081902   -0.0053646095   0.0017858705   6.0179329      28.016513      42.532529      7171.0479    
       134   0             -4316.9062      3.5997732     -35.178857      421.21649     -375.23831     -0.0013323314  -0.0072777096   0.0017815385   6.0178494      28.019278      42.528778      7171.0237    
       135   0             -4317.0448      8.9195613     -699.4702       4153.3156     -3427.0867     -0.0015286257  -0.0088669058   0.0015519861   6.0177982      28.022043      42.524852      7171.0082    
       136   0             -4317.0618      5.16506       -203.73969      1356.4826     -1137.2478     -0.0018012515  -0.010960628    0.0016603252   6.0176957      28.024808      42.52121       7170.9794    
       137   0             -4317.1043      3.4603671      40.679427     -22.465296     -7.8330291     -0.0020541749  -0.01295528     0.0016954989   6.0176035      28.027573      42.517513      7170.9536    
       138   0             -4317.8379      203.65204     -13927.232      79102.426     -64564.238     -0.0012746767  -0.005596219   -0.0021478697   6.0181795      28.027235      42.515064      7171.1405    
       139   0             -4317.8988      202.75661     -13872.132      78842.981     -64362.579     -0.0015104798  -0.0072256992  -0.0021663054   6.0180954      28.03          42.511342      7171.1198    
       140   0             -4317.9577      188.99447     -13211.164      75151.126     -61372.978     -0.0017621115  -0.0091907923  -0.002026787    6.0179874      28.032765      42.507741      7171.091     
       141   0             -4318.0139      175.83383     -12551.729      71453.823     -58374.592     -0.0020155392  -0.011200396   -0.0018872809   6.0178795      28.03553       42.504138      7171.0619    
       142   0             -4318.0672      163.27349     -11893.841      67751.216     -55367.555     -0.0022707416  -0.013254229   -0.0017477825   6.0177717      28.038295      42.500533      7171.0324    
       143   0             -4318.1178      151.31201     -11237.517      64043.487     -52352.034     -0.0025276854  -0.015351921   -0.0016083025   6.0176639      28.04106       42.496926      7171.0026    
       144   0             -4318.1655      139.94758     -10582.777      60330.862     -49328.242     -0.002786336   -0.017493056   -0.001468882    6.0175562      28.043826      42.493317      7170.9724    
       145   0             -4318.2104      129.17797     -9929.6433      56613.625     -46296.448     -0.0030466643  -0.019677199   -0.0013295245   6.0174485      28.046591      42.489707      7170.9418    
       146   0             -4318.2525      119.00039     -9278.1438      52892.131     -43256.986     -0.0033086208  -0.021903882   -0.0011902474   6.0173408      28.049356      42.486096      7170.9109    
       147   0             -4318.2917      109.41146     -8628.311       49166.824     -40210.278     -0.0035721597  -0.024172581   -0.001051103    6.0172331      28.052121      42.482484      7170.8797    
       148   0             -4318.3281      100.40693     -7980.1855      45438.265     -37156.859     -0.0038372349  -0.026482695   -0.00091212223  6.0171253      28.054886      42.478871      7170.8482    
       149   0             -4318.3618      91.981392     -7333.818       41707.173     -34097.411     -0.0041037813  -0.028833521   -0.00077333075  6.0170174      28.057651      42.475258      7170.8164    
       150   0             -4318.3926      84.127845     -6689.2739      37974.474     -31032.816     -0.0043717231  -0.031224239   -0.00063477709  6.0169094      28.060416      42.471645      7170.7843    
       151   0             -4318.4207      76.837205     -6046.6396      34241.384     -27964.233     -0.0046409714  -0.033653874   -0.00049657523  6.0168011      28.063181      42.468033      7170.752     
       152   0             -4318.4459      70.097503     -5406.0316      30509.534     -24893.21      -0.0049114139  -0.036121234   -0.00035873215  6.0166926      28.065946      42.464422      7170.7196    
       153   0             -4318.4685      63.892556     -4767.613       26781.166     -21821.875     -0.0051829068  -0.038624807   -0.000221416    6.0165837      28.068712      42.460815      7170.687     
       154   0             -4318.4884      58.19988      -4131.6208      23059.46      -18753.24      -0.0054552589  -0.041162589   -8.4778486e-05  6.0164743      28.071477      42.457211      7170.6543    
       155   0             -4318.5057      52.987049     -3498.4155      19349.129     -15691.753     -0.0057281865  -0.043731818    5.1020305e-05  6.0163642      28.074242      42.453614      7170.6218    
       156   0             -4318.5204      48.204673     -2868.581       15657.546     -12644.35      -0.0060012858  -0.04632842     0.00018551596  6.016253       28.077007      42.450026      7170.5895    
       157   0             -4318.533       43.772157     -2243.1411      11997.145     -9622.6875     -0.0062738851  -0.048945879    0.00031818767  6.0161403      28.079772      42.446453      7170.5578    
       158   0             -4318.5436      39.544109     -1624.1078      8391.3045     -6648.5644     -0.0065447706  -0.051572474    0.00044794998  6.0160254      28.082537      42.442903      7170.5271    
       159   0             -4318.5531      35.213592     -1016.193       4892.0067     -3770.1729     -0.0068113194  -0.054183196    0.00057240887  6.0159063      28.085302      42.439396      7170.4987    
       160   0             -4318.5641      29.920005     -434.44437      1655.2703     -1131.066      -0.0070658998  -0.056705842    0.00068453321  6.0157786      28.088067      42.435984      7170.4758    
       161   0             -4318.5918      18.794773      18.500106     -338.17973      376.06395     -0.0072622697  -0.058706359    0.00074048632  6.0156171      28.090832      42.432958      7170.4779    
       162   0             -4318.7151     -5.9745013     -1696.5259      11698.192     -10019.59      -0.0066645073  -0.053043437    0.00024802004  6.0156239      28.088589      42.437259      7170.64      
       163   0             -4318.7346     -8.3517795     -1203.1243      8646.4329     -7468.3639     -0.0069188997  -0.055594275    0.00035395501  6.0155301      28.091354      42.433553      7170.6078    
       164   0             -4318.7443     -8.06574       -639.89161      5017.1        -4401.4056     -0.0071985261  -0.05840651     0.00048419605  6.0154444      28.094119      42.429728      7170.5651    
       165   0             -4318.755      -6.3938111     -123.63458      1597.4383     -1492.9851     -0.0074729383  -0.061201945    0.00060596173  6.015366       28.096884      42.425842      7170.5204    
       166   0             -4318.7829     -0.6422367      165.19883     -702.12831      535.00278     -0.0077128368  -0.063728668    0.00068360903  6.0153183      28.099649      42.421701      7170.4694    
       167   0             -4318.8539      8.2662037     -1286.7801      7940.1772     -6628.5984     -0.0072577493  -0.059311356    0.00035563414  6.0154769      28.096884      42.42497       7170.5052    
       168   0             -4318.8702      8.1329004     -785.83519      4804.3379     -3994.104      -0.0075143696  -0.061956014    0.0004628355   6.0153824      28.099649      42.421232      7170.4666    
       169   0             -4318.881       7.551261      -241.21969      1440.8133     -1176.9398     -0.0077783232  -0.064688565    0.00057824289  6.0152817      28.102414      42.417548      7170.4294    
       170   0             -4318.9112      6.6677169      98.911254     -554.58766      475.67956     -0.0079860147  -0.066925512    0.00063665595  6.0151787      28.105179      42.413928      7170.4       
       171   0             -4318.9957      5.8216029     -1450.3189      9346.9009     -7879.1172     -0.0074597241  -0.06175656     0.0002566725   6.0152893      28.102414      42.417753      7170.473     
       172   0             -4319.013       5.2656141     -951.79476      6211.4374     -5243.8458     -0.0077136244  -0.064414841    0.00036193127  6.0151951      28.105179      42.414024      7170.4358    
       173   0             -4319.0225      5.3065364     -394.78063      2675.8009     -2265.1007     -0.0079840978  -0.067251241    0.00048292425  6.0151008      28.107944      42.410281      7170.3961    
       174   0             -4319.0388      5.8754787      66.787071     -282.40807      233.24743     -0.0082317619  -0.06990156     0.00058015689  6.0150099      28.110709      42.406528      7170.3585    
       175   0             -4319.2807      11.774385     -3613.6642      22775.452     -19126.464     -0.0071907673  -0.05983134    -0.00031074071  6.0152021      28.107944      42.410114      7170.4885    
       176   0             -4319.3122      10.482522     -3200.8457      20176.679     -16944.385     -0.0074178135  -0.062259724   -0.00022977389  6.0151107      28.110709      42.406381      7170.4538    
       177   0             -4319.3276      8.9625947     -2587.2769      16310.61      -13696.445     -0.0076941027  -0.0651819     -9.9919448e-05  6.015013       28.113475      42.402657      7170.4128    
       178   0             -4319.3405      8.0390438     -1979.6003      12467.089     -10463.372     -0.0079702888  -0.068126579    2.8654389e-05  6.0149153      28.11624       42.398932      7170.3717    
       179   0             -4319.3511      7.6838742     -1380.5775      8665.9329     -7262.3037     -0.0082453883  -0.071084125    0.00015512332  6.0148175      28.119005      42.395209      7170.3306    
       180   0             -4319.3603      7.836376      -796.53219      4952.2533     -4132.212      -0.0085172304  -0.074033343    0.00027771237  6.0147194      28.12177       42.39149       7170.2897    
       181   0             -4319.3702      8.3184051     -247.55043      1468.2187     -1195.7131     -0.0087790713  -0.076908946    0.00039070102  6.0146203      28.124535      42.387787      7170.2502    
       182   0             -4319.3976      7.9226033      111.32208     -700.88548      613.33121     -0.0089801316  -0.079220795    0.00045094756  6.0145164      28.1273        42.384172      7170.2197    
       183   0             -4319.4609      3.786907      -1215.2377      8015.5315     -6788.9331     -0.0084817409  -0.074053179    0.00013424693  6.0146135      28.124535      42.388092      7170.2937    
       184   0             -4319.477       4.3699024     -719.51622      4812.0832     -4079.4573     -0.0087303981  -0.076820741    0.00023549251  6.0145205      28.1273        42.38435       7170.2546    
       185   0             -4319.4869      5.7196564     -181.81403      1302.2281     -1103.2551     -0.0089932914  -0.079748175    0.00034824134  6.0144284      28.130065      42.380586      7170.2129    
       186   0             -4319.5172      7.0191629      119.67461     -710.87837      612.26124     -0.0091885366  -0.082046469    0.00040264317  6.0143423      28.13283       42.376824      7170.1786    
       187   0             -4319.577       3.786309      -1185.3082      7786.7094     -6590.0423     -0.0086995148  -0.076916171    9.9284758e-05  6.014448       28.130065      42.380656      7170.248     
       188   0             -4319.5929      4.7552079     -690.04011      4561.9394     -3857.6337     -0.0089470502  -0.079710032    0.00019975608  6.0143554      28.13283       42.376905      7170.208     
       189   0             -4319.6029      6.3000143     -154.42058      1060.0684     -886.74773     -0.0092072886  -0.082648487    0.00031029931  6.0142622      28.135595      42.37315       7170.1661    
       190   0             -4319.6395      7.2122638      85.237283     -508.13511      444.53462     -0.009376984   -0.084725607    0.00034608191  6.0141724      28.13836       42.369434      7170.1349    
       191   0             -4319.7165      2.7186383     -1433.5166      9465.9102     -8024.2377     -0.0088160283  -0.078829815   -9.0831546e-06  6.0142769      28.135595      42.373334      7170.2147    
       192   0             -4319.7335      3.7599758     -940.16573      6236.1292     -5284.6835     -0.0090609418  -0.081631805    8.9691857e-05  6.0141846      28.13836       42.369581      7170.1743    
       193   0             -4319.7423      5.4956661     -379.90152      2549.7674     -2153.3789     -0.0093272645  -0.084665165    0.00020523159  6.0140916      28.141126      42.365816      7170.1308    
       194   0             -4319.7574      7.3895067      86.17508      -530.80154      466.79498     -0.0095648606  -0.087436559    0.00029735857  6.0139998      28.143891      42.362063      7170.0906    
       195   0             -4319.8599      1.3292386     -1754.3507      11639.815     -9881.4763     -0.0088957731  -0.080402088   -0.00013498153  6.014104       28.141126      42.366049      7170.1851    
       196   0             -4319.8794      2.3678458     -1275.8341      8491.348      -7208.4103     -0.0091338254  -0.083168292   -4.1131199e-05  6.0140121      28.143891      42.362296      7170.1448    
       197   0             -4319.8882      4.201008      -697.6773       4666.4117     -3956.1314     -0.0094040312  -0.086275039    7.7395996e-05  6.0139195      28.146656      42.358523      7170.1001    
       198   0             -4319.8977      6.448426      -158.80555      1084.7576     -906.60682     -0.0096627495  -0.089287798    0.0001864637   6.0138273      28.149421      42.354754      7170.0566    
       199   0             -4319.9316      7.7376236      100.30567     -642.65159      565.55879     -0.0098298421  -0.091405084    0.0002259242   6.013737       28.152186      42.351038      7170.0241    
       200   0             -4319.9909      1.8706487     -1215.1823      8138.4209     -6917.6267     -0.0093159955  -0.085820411   -7.3799524e-05  6.0138337      28.149421      42.354968      7170.1004    
       201   0             -4320.0068      3.6887511     -722.06803      4855.5386     -4122.4043     -0.0095577693  -0.088677417    2.2933206e-05  6.0137422      28.152186      42.351205      7170.0586    
       202   0             -4320.0159      6.2399353     -179.47133      1224.9357     -1026.7446     -0.0098166757  -0.091726159    0.00013194905  6.0136505      28.154951      42.34743       7170.0142    
       203   0             -4320.0453      7.9848262      124.69317     -820.78973      720.05104     -0.0099958051  -0.093989819    0.00018223097  6.0135601      28.157716      42.343702      7169.9793    
       204   0             -4320.0929      2.0230297     -1051.9399      7084.6911     -6026.6821     -0.0095228978  -0.088761459   -8.1617081e-05  6.0136541      28.154951      42.347622      7170.0511    
       205   0             -4320.1082      4.2023395     -561.1064       3794.3948     -3220.6814     -0.009762839   -0.091633104    1.3875625e-05  6.0135629      28.157716      42.343856      7170.0088    
       206   0             -4320.1186      7.0363096     -40.578792      287.29007     -225.60234     -0.010013576   -0.094633105    0.00011672659  6.0134716      28.160481      42.34008       7169.9646    
       207   0             -4320.2171      4.7323636     -494.26926      3344.6316     -2836.1652     -0.0099292124  -0.094233474   -1.8756376e-05  6.0133836      28.163246      42.336525      7169.9617    
       208   0             -4320.2299      7.6306147     -4.5284984      27.14741       0.27293273    -0.010167846   -0.097141302    7.5519125e-05  6.0132925      28.166012      42.332756      7169.9186    
       209   0             -4320.4502     -3.3007602     -1972.1693      13432.65      -11470.383     -0.0095467296  -0.09116162    -0.00042475052  6.0131993      28.168777      42.329662      7169.9872    
       210   0             -4320.4695     -1.1379667     -1485.4804      10130.984     -8648.9175     -0.0097796495  -0.094031778   -0.00033388053  6.0131086      28.171542      42.32589       7169.944     
       211   0             -4320.4785      2.0215964     -899.2621       6134.5195     -5229.1926     -0.010047738   -0.097287812   -0.00021901805  6.013018       28.174307      42.322089      7169.8958    
       212   0             -4320.4866      5.6139742     -337.73528      2289.273      -1934.6958     -0.010307981   -0.10047935    -0.0001098592   6.0129276      28.177072      42.318292      7169.8483    
       213   0             -4320.5012      8.9113609      122.7553      -873.09305      777.07183     -0.01053133    -0.10330122    -2.4853822e-05  6.0128365      28.179837      42.314528      7169.8054    
       214   0             -4320.5541     -0.46342992    -1131.3056      7785.9208     -6656.0055     -0.010012393   -0.097374798   -0.00029880197  6.0129217      28.177072      42.318568      7169.8879    
       215   0             -4320.57        2.5665468     -646.98968      4460.5669     -3805.8776     -0.010243097   -0.10026986    -0.00020852972  6.0128314      28.179837      42.31479       7169.8438    
       216   0             -4320.5787      6.5747163     -108.79233      741.78676     -613.27029     -0.010494805   -0.10340322    -0.00010524704  6.0127418      28.182602      42.310989      7169.7964    
       217   0             -4320.623       7.8737693      19.005319     -163.54776      168.16375     -0.010592847   -0.10492942    -9.8689563e-05  6.0126513      28.185367      42.307305      7169.7675    
       218   0             -4320.7878     -10.176173     -2765.9129      19130.412     -16395.028     -0.0095077469  -0.092929729   -0.00072457562  6.0127168      28.182803      42.311606      7169.922     
       219   0             -4320.8148     -8.302301      -2342.12        16225.651     -13908.438     -0.0097103714  -0.095543752   -0.00065114017  6.0126261      28.185568      42.307848      7169.8806    
       220   0             -4320.8272     -4.9985153     -1741.0716      12076.345     -10350.269     -0.0099790168  -0.098884289   -0.00053687151  6.0125369      28.188333      42.304028      7169.8301    
       221   0             -4320.8371     -1.1051362     -1148.6531      7966.8832     -6821.5455     -0.010245722   -0.10222019    -0.00042431152  6.0124479      28.191098      42.300207      7169.7797    
       222   0             -4320.845       3.2885129     -572.34572      3950.5109     -3368.2997     -0.010507407   -0.10551796    -0.00031520718  6.0123588      28.193863      42.296389      7169.7295    
       223   0             -4320.854       7.8410207     -41.691345      237.10001     -171.8856      -0.010752076   -0.10864777    -0.00021654115  6.0122693      28.196628      42.292587      7169.6814    
       224   0             -4320.9495      2.7531656     -501.84665      3519.9048     -3009.7987     -0.010601919   -0.10751411    -0.00034814121  6.0121661      28.199393      42.289192      7169.6857    
       225   0             -4320.9609      7.4766373     -4.6964287      5.8326299      21.293711     -0.010833033   -0.11052396    -0.00025756552  6.0120777      28.202158      42.285386      7169.6381    
       226   0             -4321.158      -6.2247101     -1805.0313      12533.464     -10747.106     -0.010162319   -0.10366617    -0.00068158851  6.0119735      28.204923      42.282352      7169.7023    
       227   0             -4321.1761     -2.3618442     -1317.7995      9103.0719     -7792.3579     -0.010383698   -0.10658888    -0.00059651652  6.0118838      28.207689      42.278561      7169.6553    
       228   0             -4321.1843      2.6835648     -732.74966      4979.2138     -4238.4135     -0.010643156   -0.10994593    -0.00048985622  6.0117943      28.210454      42.27474       7169.6034    
       229   0             -4321.1919      7.8988057     -177.72227      1064.6392     -863.22055     -0.010890203   -0.11317871    -0.00039025162  6.0117034      28.213219      42.27094       7169.5531    
       230   0             -4321.2194      9.8820008      140.19853     -1063.1226      952.57011     -0.011031027   -0.11524136    -0.00034743631  6.0116001      28.215984      42.26732       7169.5185    
       231   0             -4321.2498     -1.1220161     -854.43379      6060.7302     -5209.6624     -0.010597485   -0.10991945    -0.00054580119  6.0116795      28.213219      42.271359      7169.5957    
       232   0             -4321.2642      3.6220434     -374.75105      2633.9826     -2248.3654     -0.010815156   -0.11283889    -0.00046202313  6.0115909      28.215984      42.26756       7169.5482    
       233   0             -4321.2755      9.1042032      115.54214     -890.76516      802.53563     -0.01103805    -0.11582984    -0.00037569486  6.0115029      28.218749      42.263747      7169.4992    
       234   0             -4321.3278     -4.4066956     -1167.4157      8286.6252     -7132.4296     -0.010486573   -0.10916872    -0.00063472021  6.0115786      28.215984      42.267895      7169.5904    
       235   0             -4321.3439      0.27922684    -691.49278      4882.7841     -4190.4536     -0.010700908   -0.11206091    -0.00055260262  6.0114899      28.218749      42.264095      7169.5426    
       236   0             -4321.3515      6.2649767     -140.90752      929.42996     -769.72751     -0.010946713   -0.11531857    -0.00045422023  6.0114023      28.221514      42.260262      7169.4903    
       237   0             -4321.382       9.3733785      123.69125     -969.59664      874.02553     -0.011070785   -0.11722154    -0.00041892688  6.0113085      28.224279      42.256562      7169.4531    
       238   0             -4321.4133     -2.1012378     -887.18972      6320.4069     -5439.5208     -0.010629729   -0.11175313    -0.00061709425  6.0113862      28.221514      42.260616      7169.5313    
       239   0             -4321.4276      3.073722      -405.83638      2855.6891     -2440.6316     -0.010845021   -0.11467863    -0.00053444187  6.0112977      28.224279      42.256811      7169.4825    
       240   0             -4321.4378      9.0244061      97.03378      -782.4391       712.47854     -0.011069956   -0.11772515    -0.00044706366  6.0112097      28.227044      42.252992      7169.432     
       241   0             -4321.5008     -7.0377028     -1336.1842      9570.8869     -8255.8157     -0.01045017    -0.11020994    -0.00073434933  6.0112781      28.224279      42.25725       7169.5336    
       242   0             -4321.5181     -2.1998435     -866.78255      6190.5497     -5330.3667     -0.010658281   -0.11306315    -0.00065526885  6.0111892      28.227044      42.25345       7169.4854    
       243   0             -4321.5252      4.2349168     -301.07105      2096.3442     -1782.5684     -0.010907841   -0.11639919    -0.00055547162  6.0111026      28.229809      42.249602      7169.4314    
       244   0             -4321.5384      9.9897044      162.54213     -1273.6901      1141.117      -0.011113899   -0.11925253    -0.00047755357  6.0110138      28.232575      42.245801      7169.3826    
       245   0             -4321.5703     -2.4148226     -855.55296      6132.6234     -5284.3149     -0.010668018   -0.11366728    -0.00067409426  6.0110891      28.229809      42.249882      7169.4627    
       246   0             -4321.5851      3.0398054     -382.28729      2699.2299     -2307.8232     -0.010876915   -0.11655111    -0.0005945946   6.0110005      28.232575      42.246077      7169.4136    
       247   0             -4321.5955      9.3375946      116.02504     -935.88811      847.87585     -0.011097183   -0.11957631    -0.00050961934  6.0109129      28.23534       42.242254      7169.3625    
       248   0             -4321.6449     -5.828226      -1138.8818      8201.6488     -7080.2518     -0.010549783   -0.1128063     -0.00075436528  6.0109825      28.232575      42.246453      7169.456     
       249   0             -4321.6609     -0.45409028    -665.74973      4764.0718     -4099.6843     -0.010756958   -0.1156795     -0.00067561445  6.0108941      28.23534       42.242647      7169.4067    
       250   0             -4321.6682      6.3869054     -114.97386      743.30072     -609.16615     -0.010998246   -0.11895562    -0.00058042918  6.0108076      28.238105      42.238799      7169.3525    
       251   0             -4321.7043      8.9992535      77.703489     -668.2374       617.53167     -0.011082049   -0.1204314     -0.00056115642  6.0107118      28.24087       42.235134      7169.3181    
       252   0             -4321.744      -5.4315153     -1058.0076      7649.7345     -6608.0215     -0.010584678   -0.11418859    -0.00077813644  6.0107825      28.238105      42.239293      7169.4064    
       253   0             -4321.7589      0.34371491    -574.58216      4118.1215     -3542.5082     -0.010794469   -0.11711154    -0.00069811302  6.0106944      28.24087       42.235479      7169.3559    
       254   0             -4321.7664      7.409345      -33.626115      146.20869     -90.354541     -0.011030061   -0.12034371    -0.00060597393  6.0106081      28.243635      42.231631      7169.3016    
       255   0             -4321.8648      0.24377366    -593.82184      4259.2557     -3664.7025     -0.010778252   -0.11792778    -0.0007434311   6.0104917      28.2464        42.228363      7169.3099    
       256   0             -4321.8748      7.1120336     -80.904706      478.14429     -375.90349     -0.010999309   -0.12101147    -0.00065843042  6.0104045      28.249165      42.22453       7169.2568    
       257   0             -4321.9285      6.4363463     -97.636969      626.79929     -509.85328     -0.010980724   -0.12130249    -0.00068337186  6.0102999      28.25193       42.221008      7169.2358    
       258   0             -4321.9694      8.4802519      30.190332     -350.80896      346.05938     -0.011029162   -0.12238142    -0.0006768153   6.0102034      28.254695      42.217366      7169.204     
       259   0             -4322.0348     -11.955034     -1451.9341      10671.348     -9255.2789     -0.010373004   -0.11416615    -0.00095780642  6.0102532      28.252022      42.221667      7169.3154    
       260   0             -4322.0522     -6.0604026     -979.74622      7186.957      -6225.392      -0.010571539   -0.1170027     -0.00088292618  6.0101649      28.254787      42.217855      7169.2643    
       261   0             -4322.0592      1.8142562     -404.79391      2916.1296     -2505.8929     -0.010816951   -0.12040315    -0.00078718307  6.0100805      28.257552      42.213977      7169.2066    
       262   0             -4322.0681      9.4324694      107.96365     -915.04064      835.3744      -0.011035159   -0.12349126    -0.00070368276  6.0099945      28.260317      42.210128      7169.1519    
       263   0             -4322.1203     -9.2178179     -1208.633       8865.5457     -7684.5662     -0.01045634    -0.11612558    -0.00094578931  6.0100565      28.257552      42.214425      7169.2541    
       264   0             -4322.137      -2.9626175     -742.59696      5401.7039     -4667.9948     -0.0106509     -0.11893226    -0.00087262834  6.0099684      28.260317      42.21061       7169.2027    
       265   0             -4322.1436      5.1731409     -180.41002      1209.0346     -1013.1052     -0.010888909   -0.12226461    -0.00078053325  6.0098832      28.263083      42.20674       7169.145     
       266   0             -4322.1637      10.903706      192.74309     -1574.6065      1414.5746     -0.011039891   -0.12456913    -0.00072633712  6.0097908      28.265848      42.202986      7169.0985    
       267   0             -4322.1838     -2.4291002     -680.37716      4974.1248     -4301.0349     -0.010658768   -0.11951895    -0.00087979366  6.0098639      28.263083      42.207056      7169.1757    
       268   0             -4322.1984      4.3554389     -219.01318      1522.4735     -1290.394      -0.010850114   -0.12230373    -0.00080799888  6.0097756      28.265848      42.203241      7169.1238    
       269   0             -4322.2141      11.069594      203.72671     -1660.2282      1489.7103     -0.011024123   -0.12488986    -0.00074372428  6.0096865      28.268613      42.199444      7169.0736    
       270   0             -4322.235      -2.5967982     -680.14877      4978.5099     -4306.1516     -0.010638935   -0.11977526    -0.00089811164  6.0097593      28.265848      42.203521      7169.1517    
       271   0             -4322.2498      4.2796268     -220.805        1532.7747     -1299.1308     -0.01082836    -0.12254465    -0.00082715483  6.009671       28.268613      42.199706      7169.0997    
       272   0             -4322.2652      11.127237      204.88328     -1676.6639      1505.1623     -0.01100237    -0.12513733    -0.00076281507  6.0095818      28.271378      42.195907      7169.0491    
       273   0             -4322.2859     -2.7255726     -676.74705      4962.4378     -4293.8674     -0.01061854    -0.12002292    -0.00091574304  6.009654       28.268613      42.199989      7169.1275    
       274   0             -4322.3007      4.2515331     -218.04885      1513.8095     -1283.0061     -0.010806559   -0.12278287    -0.00084535843  6.0095658      28.271378      42.196173      7169.0752    
       275   0             -4322.3162      11.190052      206.54108     -1695.4968      1522.5259     -0.010978968   -0.12536284    -0.00078162912  6.0094765      28.274143      42.192374      7169.0244    
       276   0             -4322.3365     -2.8069333     -670.7515       4926.0255     -4263.6948     -0.010597645   -0.1202628     -0.00093266053  6.0095485      28.271378      42.196458      7169.1029    
       277   0             -4322.3512      4.2698458     -212.92304      1475.8047     -1250.0721     -0.01078419    -0.12301224    -0.00086287447  6.0094603      28.274143      42.192642      7169.0504    
       278   0             -4322.367       11.254952      208.13508     -1714.1692      1539.799      -0.010953818   -0.12556495    -0.00080019823  6.0093708      28.276908      42.188844      7168.9996    
       279   0             -4322.3869     -2.8670874     -663.54449      4880.341      -4225.3977     -0.010575602   -0.12048687    -0.00094909898  6.0094426      28.274143      42.192929      7169.0782    
       280   0             -4322.4016      4.3072716     -206.65959      1429.2539     -1209.6725     -0.01076063    -0.12322503    -0.00087994611  6.0093543      28.276908      42.189112      7169.0254    
       281   0             -4322.4177      11.31537       209.47055     -1730.8289      1555.3044     -0.01092683    -0.12574233    -0.00081863754  6.0092647      28.279673      42.185317      7168.9746    
       282   0             -4322.4371     -2.9240369     -656.36359      4834.5212     -4186.9297     -0.010551888   -0.12068859    -0.00096536245  6.0093363      28.276908      42.189403      7169.0533    
       283   0             -4322.4519      4.3470845     -200.41501      1382.5878     -1169.1316     -0.010735399   -0.12341524    -0.00089683102  6.009248       28.279673      42.185586      7169.0003    
       284   0             -4322.4684      11.369217      210.44024     -1744.7106      1568.378      -0.010897993   -0.12589457    -0.00083691376  6.0091581      28.282438      42.181794      7168.9495    
       285   0             -4322.4873     -2.9904173     -649.96092      4794.3165     -4153.3268     -0.010526178   -0.12086378    -0.00098160175  6.0092295      28.279673      42.18588       7169.0282    
       286   0             -4322.5021      4.3770729     -194.8793       1341.119      -1133.1085     -0.010708199   -0.12357901    -0.00091369791  6.0091412      28.282438      42.182063      7168.9751    
       287   0             -4322.5189      11.417488      211.14592     -1756.5458      1579.6524     -0.010867388   -0.12602236    -0.00085503387  6.009051       28.285203      42.178273      7168.9243    
       288   0             -4322.5374     -3.0694932     -644.48832      4760.9179     -4125.6381     -0.010498433   -0.12101168    -0.00099782034  6.0091222      28.282438      42.182361      7169.0031    
       289   0             -4322.5522      4.3941133     -190.20067      1306.0016     -1102.6186     -0.010678992   -0.12371559    -0.00093049285  6.0090338      28.285203      42.178543      7168.9497    
       290   0             -4322.5694      11.462299      211.72937     -1767.4042      1590.0617     -0.0108351     -0.12612667    -0.00087299198  6.0089435      28.287969      42.174756      7168.8989    
       291   0             -4322.5875     -3.1586521     -639.73936      4732.8042     -4102.5408     -0.010468774   -0.12113353    -0.001013929    6.0090144      28.285203      42.178845      7168.9779    
       292   0             -4322.6023      4.4005936     -186.19806      1275.8992     -1076.4993     -0.010647879   -0.12382612    -0.00094719075  6.008926       28.287969      42.175027      7168.9243    
       293   0             -4322.6197      11.504864      212.26495     -1777.8501      1600.0998     -0.0108012     -0.12620812    -0.00089068271  6.0088355      28.290734      42.171241      7168.8734    
       294   0             -4322.6375     -3.2543886     -635.47344      4708.174      -4082.4638     -0.01043734    -0.12123082    -0.0010299072   6.0089062      28.287969      42.175333      7168.9525    
       295   0             -4322.6524      4.3998869     -182.65286      1249.1724     -1053.3199     -0.010615008   -0.12391199    -0.00096373232  6.0088178      28.290734      42.171514      7168.8987    
       296   0             -4322.67        11.545619      212.76892     -1788.008       1609.8759     -0.010765739   -0.126267      -0.00090815529  6.0087271      28.293499      42.16773       7168.8478    
       297   0             -4322.6875     -3.3544469     -631.54168      4685.9116     -4064.4333     -0.010404239   -0.12130457    -0.0010457169   6.0087975      28.290734      42.171824      7168.927     
       298   0             -4322.7023      4.3942084     -179.42642      1224.7817     -1032.1727     -0.010580473   -0.12397415    -0.00098007933  6.0087091      28.293499      42.168005      7168.8729    
       299   0             -4322.7201      11.58471       213.24308     -1797.8913      1619.4023     -0.010728749   -0.12630358    -0.00092534897  6.0086182      28.296264      42.164222      7168.8219    
       300   0             -4322.7373     -3.4576494     -627.86504      4665.4271     -4047.935      -0.010369531   -0.12135541    -0.0010613279   6.0086883      28.293499      42.168317      7168.9014    
       301   0             -4322.7522      4.3847394     -176.44421      1202.1707     -1012.5722     -0.010544339   -0.12401331    -0.0009962949   6.0085998      28.296264      42.164498      7168.8471    
       302   0             -4322.7701      11.622342      213.6908      -1807.5251      1628.7013     -0.010690263   -0.12631809    -0.00094240788  6.0085088      28.299029      42.160717      7168.7959    
       303   0             -4322.7871     -3.5633233     -624.39614      4646.369      -4032.6628     -0.010333287   -0.1213839     -0.0010768258   6.0085787      28.296264      42.164814      7168.8756    
       304   0             -4322.802       4.3721723     -173.66181      1181.0098     -994.23143     -0.010506663   -0.12402984    -0.0010123373   6.0084902      28.299029      42.160995      7168.821     
       305   0             -4322.82        11.65854       214.11647     -1816.9428      1637.802      -0.01065032    -0.12631072    -0.00095920604  6.0083989      28.301794      42.157214      7168.7698    
       306   0             -4322.8367     -3.670981      -621.10193      4628.493      -4018.404      -0.010295545   -0.12139033    -0.0010920853   6.0084686      28.299029      42.161314      7168.8496    
       307   0             -4322.8517      4.3569076     -171.04855      1161.0721     -976.95278     -0.010467494   -0.12402412    -0.001028186    6.00838        28.301794      42.157494      7168.7948    
       308   0             -4322.8699      11.693344      214.52411     -1826.1752      1646.7311     -0.010608953   -0.12628172    -0.0009757688   6.0082886      28.304559      42.153715      7168.7434    
       309   0             -4322.8863     -3.7802802     -617.95771      4611.6168     -4004.9999     -0.010256353   -0.12137504    -0.0011071501   6.008358       28.301794      42.157817      7168.8234    
       310   0             -4322.9013      4.3392559     -168.58157      1142.1893     -960.58995     -0.010426873   -0.12399648    -0.0010437806   6.0082694      28.304559      42.153997      7168.7684    
       311   0             -4322.9196      11.726825      214.91713     -1835.2482      1655.5115     -0.0105662     -0.12623135    -0.0009920788   6.0081778      28.307324      42.150219      7168.7169    
       312   0             -4322.9358     -3.8909563     -614.94431      4595.5994     -3992.3279     -0.010215747   -0.12133836    -0.0011219829   6.008247       28.304559      42.154323      7168.7971    
       313   0             -4322.9508      4.3194618     -166.24322      1124.232      -945.0304      -0.010384839   -0.12394725    -0.0010591791   6.0081583      28.307324      42.150502      7168.7418    
       314   0             -4322.9692      11.759051      215.2985      -1844.1844      1664.163      -0.010522087   -0.12615987    -0.0010081768   6.0080665      28.310089      42.146725      7168.6901    
       315   0             -4322.9852     -4.0027996     -612.04634      4580.328      -3980.29       -0.010173767   -0.12128061    -0.0011366162   6.0081354      28.307324      42.150831      7168.7705    
       316   0             -4323.0002      4.2977193     -164.01943      1107.0972     -930.18466     -0.010341432   -0.12387675    -0.001074352    6.0080467      28.310089      42.147011      7168.715     
       317   0             -4323.0188      11.790083      215.67077     -1853.0034      1672.7029     -0.010476659   -0.12606754    -0.0010239908   6.0079547      28.312855      42.143235      7168.6632    
       318   0             -4323.0345     -4.1156382     -609.25119      4565.7101     -3968.8058     -0.01013046    -0.12120211    -0.001151027    6.0080234      28.310089      42.147343      7168.7438    
       319   0             -4323.0495      4.2741856     -161.89866      1090.7011     -915.97993     -0.010296695   -0.12378529    -0.0010893216   6.0079346      28.312855      42.143522      7168.6881    
       320   0             -4323.0682      11.819968      216.03616     -1861.7224      1681.1461     -0.010429952   -0.12595464    -0.0010395942   6.0078424      28.31562       42.139748      7168.6361    
       321   0             -4323.0838     -4.2293235     -606.54831      4551.6687     -3957.8083     -0.010085861   -0.12110315    -0.0011652246   6.0079109      28.312855      42.143858      7168.7169    
       322   0             -4323.0988      4.2489837     -159.87136      1074.9741     -902.35583     -0.010250666   -0.12367317    -0.0011040615   6.007822       28.31562       42.140037      7168.6609    
       323   0             -4323.1176      11.848755      216.39664     -1870.3566      1689.5062     -0.010381997   -0.12582143    -0.0010549501   6.0077296      28.318385      42.136264      7168.6088    
       324   0             -4323.1329     -4.3437345     -603.92875      4538.1384     -3947.2408     -0.010040002   -0.12098404    -0.0011791968   6.0077979      28.31562       42.140376      7168.6898    
       325   0             -4323.148       4.2222235     -157.92944      1059.8577     -889.26161     -0.010203371   -0.1235407     -0.0011185857   6.0077089      28.318385      42.136555      7168.6336    
       326   0             -4323.1669      11.876456      216.75395     -1878.9196      1697.7951     -0.01033282    -0.12566821    -0.0010700862   6.0076164      28.32115       42.132782      7168.5813    
       327   0             -4323.182      -4.4587486     -601.38481      4525.063      -3937.0544     -0.0099929163  -0.12084509    -0.0011929521   6.0076844      28.318385      42.136897      7168.6625    
       328   0             -4323.1971      4.1939832     -156.06596      1045.3017     -876.65384     -0.010154856   -0.12338818    -0.0011328925   6.0075953      28.32115       42.133075      7168.606     
       329   0             -4323.216       11.903051      217.10961     -1887.4238      1706.0233     -0.010282466   -0.12549526    -0.0010849813   6.0075026      28.323915      42.129304      7168.5535    
       330   0             -4323.231      -4.574251      -598.90979      4512.3936     -3927.2066     -0.0099446496  -0.1206866     -0.001206543    6.0075704      28.32115       42.13342       7168.6349    
       331   0             -4323.2461      4.1643141     -154.27493      1031.2628     -864.49495     -0.010105156   -0.12321592    -0.0011470132   6.0074813      28.323915      42.129599      7168.5782    
       332   0             -4323.2651      11.928668      217.465       -1895.8797      1714.2007     -0.010230969   -0.12530287    -0.0010996387   6.0073883      28.32668       42.125828      7168.5256    
       333   0             -4323.2799     -4.6901911     -596.49792      4500.0884     -3917.6611     -0.0098952395  -0.12050887    -0.0012198223   6.0074559      28.323915      42.129947      7168.6072    
       334   0             -4323.295       4.1333257     -152.55123      1017.7046     -852.75341     -0.010054309   -0.12302422    -0.0011608441   6.0073667      28.32668       42.126125      7168.5503    
       335   0             -4323.3142      11.953376      217.82151     -1904.2981      1722.3367     -0.010178363   -0.12509132    -0.0011139831   6.0072735      28.329445      42.122356      7168.4974    
       336   0             -4323.3287     -4.8064997     -594.14395      4488.1092     -3908.3848     -0.0098447165  -0.1203122     -0.0012328478   6.0073409      28.32668       42.126477      7168.5792    
       337   0             -4323.3439      4.1010859     -150.89027      1004.5943     -841.40076     -0.010002351   -0.12281339    -0.0011744189   6.0072516      28.329445      42.122655      7168.522     
       338   0             -4323.3631      11.97724       218.18029     -1912.6884      1730.4398     -0.010124682   -0.12486094    -0.0011281114   6.0071582      28.33221       42.118887      7168.469     
       339   0             -4323.3775     -4.9231176     -591.84328      4476.4228     -3899.3489     -0.0097931112  -0.12009693    -0.0012456555   6.0072253      28.329445      42.123009      7168.551     
       340   0             -4323.3927      4.0676532     -149.28803      991.90329     -830.4123      -0.0099493072  -0.12258375    -0.0011877435   6.0071359      28.33221       42.119188      7168.4936    
       341   0             -4323.412       12.000348      218.54248     -1921.0597      1738.5182     -0.010069951   -0.12461201    -0.0011419531   6.0070424      28.334975      42.11542       7168.4403    
       342   0             -4323.4262     -5.0400055     -589.59175      4464.9988     -3890.5271     -0.0097404622  -0.11986335    -0.0012582545   6.0071093      28.33221       42.119545      7168.5226    
       343   0             -4323.4414      4.0331043     -147.74091      979.60609     -819.76587     -0.0098952196  -0.12233562    -0.00120092     6.0070198      28.334975      42.115723      7168.4649    
       344   0             -4323.4608      12.02268       218.9091      -1929.4201      1746.5791     -0.010014214   -0.12434487    -0.0011556531   6.0069261      28.33774       42.111957      7168.4115    
       345   0             -4323.4748     -5.1570741     -587.38559      4453.81       -3881.8956     -0.0096868045  -0.11961178    -0.0012706256   6.0069927      28.334975      42.116083      7168.4939    
       346   0             -4323.4901      3.997452      -146.24567      967.67959     -809.44156     -0.0098401247  -0.1220693     -0.0012138099   6.0069031      28.33774       42.112262      7168.436     
       347   0             -4323.5095      12.044256      219.28109     -1937.7775      1754.6292     -0.0099575052  -0.12405981    -0.0011690224   6.0068092      28.340506      42.108496      7168.3823    
       348   0             -4323.5233     -5.2742651     -585.22138      4442.8314     -3873.4328     -0.009632173   -0.11934255    -0.0012827635   6.0068756      28.33774       42.112625      7168.465     
       349   0             -4323.5387      3.9607326     -144.79938      956.10309     -799.42151     -0.0097840511  -0.12178513    -0.0012265012   6.0067859      28.340506      42.108803      7168.4069    
       350   0             -4323.5581      12.06513       219.65933     -1946.1392      1762.6752     -0.00989985    -0.12375715    -0.0011821743   6.0066918      28.343271      42.105039      7168.353     
       351   0             -4323.5718     -5.3915361     -583.09605      4432.0406     -3865.1192     -0.0095765993  -0.11905597    -0.0012946408   6.006758       28.340506      42.109169      7168.4358    
[...]
      1962   0             -4378.2813     -42656.762     -161126.84      4638.2016      28518.354      2096.6123     -3839.9862      502.21519      5.9702658      28.863879      41.504617      7152.2842    
      1963   0             -4378.2832     -42662.186     -160803.24      5253.8743      27562.803      2464.1554     -4605.963       557.2005       5.9702658      28.863879      41.504617      7152.2842    
      1964   0             -4378.2871     -42664.471     -161130.85      4613.8683      28523.567      2097.9927     -3837.3974      499.55984      5.9702658      28.863879      41.504617      7152.2842    
      1965   0             -4378.2889     -42669.901     -160805.81      5235.2541      27560.85       2463.6807     -4599.9227      551.43659      5.9702658      28.863879      41.504617      7152.2842    
      1966   0             -4378.2928     -42672.183     -161134.82      4586.8921      28531.374      2098.6871     -3833.8372      497.47415      5.9702658      28.863879      41.504617      7152.2842    
      1967   0             -4378.2946     -42677.597     -160809.29      5216.4304      27560.067      2462.854      -4593.6932      545.10319      5.9702658      28.863879      41.504617      7152.2842    
      1968   0             -4378.2985     -42679.9       -161138.96      4562.3276      28536.932      2100.1815     -3831.6129      495.1188       5.9702658      28.863879      41.504617      7152.2842    
      1969   0             -4378.3004     -42685.32      -160811.85      5198.1702      27557.721      2462.05       -4587.5023      539.1687       5.9702658      28.863879      41.504617      7152.2842    
      1970   0             -4378.3042     -42687.623     -161143.09      4535.0336      28545.189      2100.8921     -3828.3044      493.31847      5.9702658      28.863879      41.504617      7152.2842    
      1971   0             -4378.3061     -42693.028     -160815.16      5179.6909      27556.386      2460.8595     -4581.1336      532.76178      5.9702658      28.863879      41.504617      7152.2842    
      1972   0             -4378.31       -42695.349     -161147.39      4510.2134      28551.128      2102.3921     -3826.2516      491.30055      5.9702658      28.863879      41.504617      7152.2842    
      1973   0             -4378.3118     -42700.762     -160817.77      5161.6843      27553.799      2459.8218     -4574.8765      526.64712      5.9702658      28.863879      41.504617      7152.2842    
      1974   0             -4378.3157     -42703.086     -161151.67      4482.676       28559.734      2103.0871     -3823.1461      489.73784      5.9702658      28.863879      41.504617      7152.2842    
      1975   0             -4378.3175     -42708.484     -160820.92      5143.479       27551.986      2458.3252     -4568.4137      520.21573      5.9702658      28.863879      41.504617      7152.2842    
      1976   0             -4378.3214     -42710.824     -161156.09      4457.6586      28565.957      2104.5168     -3821.1974      488.06325      5.9702658      28.863879      41.504617      7152.2842    
      1977   0             -4378.3232     -42716.23      -160823.66      5125.5769      27549.395      2457.142      -4562.1402      513.88688      5.9702658      28.863879      41.504617      7152.2842    
      1978   0             -4378.3271     -42718.578     -161160.51      4429.9609      28574.816      2105.2281     -3818.3081      486.61546      5.9702658      28.863879      41.504617      7152.2842    
      1979   0             -4378.3289     -42723.97      -160826.56      5107.6551      27546.996      2455.3219     -4555.5988      507.57655      5.9702658      28.863879      41.504617      7152.2842    
      1980   0             -4378.3328     -42726.328     -161165.04      4404.6397      28581.417      2106.5469     -3816.3578      485.25297      5.9702658      28.863879      41.504617      7152.2842    
      1981   0             -4378.3346     -42731.728     -160829.57      5089.7888      27544.591      2454.022      -4549.3426      501.03192      5.9702658      28.863879      41.504617      7152.2842    
      1982   0             -4378.3385     -42734.102     -161169.54      4377.2243      28590.012      2107.0695     -3813.6928      484.09693      5.9702658      28.863879      41.504617      7152.2842    
      1983   0             -4378.3402     -42739.487     -160832.38      5071.7204      27542.198      2452.1346     -4542.8169      494.57767      5.9702658      28.863879      41.504617      7152.2842    
      1984   0             -4378.3442     -42741.869     -161174.18      4351.7389      28596.829      2108.2774     -3811.7671      482.93973      5.9702658      28.863879      41.504617      7152.2842    
      1985   0             -4378.3459     -42747.263     -160835.43      5053.851       27539.79       2450.6671     -4536.5727      488.00159      5.9702658      28.863879      41.504617      7152.2842    
      1986   0             -4378.3499     -42749.661     -161178.77      4324.3804      28605.402      2108.6981     -3809.2078      481.93961      5.9702658      28.863879      41.504617      7152.2842    
      1987   0             -4378.3516     -42755.041     -160838.27      5035.7311      27537.418      2448.6466     -4530.0801      481.52607      5.9702658      28.863879      41.504617      7152.2842    
      1988   0             -4378.3557     -42757.448     -161183.5       4298.7759      28612.375      2109.7839     -3807.3172      480.90095      5.9702658      28.863879      41.504617      7152.2842    
      1989   0             -4378.3573     -42762.837     -160841.36      5017.8329      27535.02       2447.0072     -4523.8626      474.99174      5.9702658      28.863879      41.504617      7152.2842    
      1990   0             -4378.3614     -42765.26      -161188.18      4271.3867      28621.016      2110.0979     -3804.8128      479.99005      5.9702658      28.863879      41.504617      7152.2842    
      1991   0             -4378.363      -42770.636     -160844.25      4999.6809      27532.659      2444.8411     -4517.4135      468.5677       5.9702658      28.863879      41.504617      7152.2842    
      1992   0             -4378.3671     -42773.069     -161193.01      4245.6958      28628.104      2111.0481     -3802.9475      479.02562      5.9702658      28.863879      41.504617      7152.2842    
      1993   0             -4378.3687     -42778.455     -160847.39      4981.7196      27530.309      2443.0487     -4511.2432      462.10435      5.9702658      28.863879      41.504617      7152.2842    
      1994   0             -4378.3728     -42780.903     -161197.78      4218.2794      28636.795      2111.2314     -3800.474       478.17123      5.9702658      28.863879      41.504617      7152.2842    
      1995   0             -4378.3744     -42786.277     -160850.33      4963.492       27528.012      2440.7391     -4504.8516      455.75426      5.9702658      28.863879      41.504617      7152.2842    
      1996   0             -4378.3785     -42788.734     -161202.69      4192.5413      28643.947      2112.035      -3798.6251      477.25611      5.9702658      28.863879      41.504617      7152.2842    
      1997   0             -4378.3801     -42794.119     -160853.54      4945.4288      27525.759      2438.8066     -4498.7459      449.37846      5.9702658      28.863879      41.504617      7152.2842    
      1998   0             -4378.3842     -42796.592     -161207.55      4165.1004      28652.673      2112.0634     -3796.1624      476.43922      5.9702658      28.863879      41.504617      7152.2842    
      1999   0             -4378.3857     -42801.966     -160856.56      4927.0855      27523.571      2436.3571     -4492.4223      443.11864      5.9702658      28.863879      41.504617      7152.2842    
      2000   0             -4378.3899     -42804.449     -161212.54      4139.3475      28659.849      2112.7105     -3794.3233      475.55565      5.9702658      28.863879      41.504617      7152.2842    
Loop time of 1.08447 on 4 procs for 1000 steps with 672 atoms

54.4% CPU use with 4 MPI tasks x 1 OpenMP threads

Minimization stats:
  Stopping criterion = max iterations
  Energy initial, next-to-last, final = 
     -4333.91967981865  -4378.38574057017  -4378.38986946906
  Force two-norm initial, final = 15.804017 5.7149263
  Force max component initial, final = 1.1129837 2.5342333
  Final line search alpha, max atom move = 0.0035100296 0.0088952339
  Iterations, force evaluations = 1000 1995

MPI task timing breakdown:
Section |  min time  |  avg time  |  max time  |%varavg| %total
---------------------------------------------------------------
Pair    | 0.98007    | 0.98454    | 0.99437    |   0.6 | 90.79
Neigh   | 0.000579   | 0.00058675 | 0.00059    |   0.0 |  0.05
Comm    | 0.061401   | 0.071055   | 0.075465   |   2.2 |  6.55
Output  | 0.011741   | 0.012396   | 0.013711   |   0.7 |  1.14
Modify  | 0          | 0          | 0          |   0.0 |  0.00
Other   |            | 0.01589    |            |       |  1.47

Nlocal:            168 ave         168 max         168 min
Histogram: 4 0 0 0 0 0 0 0 0 0
Nghost:         899.25 ave         902 max         896 min
Histogram: 1 0 0 1 0 0 0 0 1 1
Neighs:         3967.5 ave        3985 max        3944 min
Histogram: 1 0 0 1 0 0 0 0 0 2
FullNghs:         7935 ave        7955 max        7918 min
Histogram: 1 1 0 0 0 0 1 0 0 1

Total # of neighbors = 31740
Ave neighs/atom = 47.232143
Neighbor list builds = 2
Dangerous builds = 0

# Obtain new stress tensor

variable tmp equal pe
variable e1 equal ${tmp}
variable e1 equal -4378.38986946906
variable tmp equal press
variable p1 equal ${tmp}
variable p1 equal -42804.4486060629
variable tmp equal pxx
variable pxx1 equal ${tmp}
variable pxx1 equal -161212.542279381
variable tmp equal pyy
variable pyy1 equal ${tmp}
variable pyy1 equal 4139.34754835129
variable tmp equal pzz
variable pzz1 equal ${tmp}
variable pzz1 equal 28659.8489128415
variable tmp equal pxy
variable pxy1 equal ${tmp}
variable pxy1 equal 2112.71048708464
variable tmp equal pxz
variable pxz1 equal ${tmp}
variable pxz1 equal -3794.32326295426
variable tmp equal pyz
variable pyz1 equal ${tmp}
variable pyz1 equal 475.555654806653

# Compute elastic constant from pressure tensor

variable C1pos equal ${d1}
variable C1pos equal 16088520.7952031
variable C2pos equal ${d2}
variable C2pos equal -191608.219090021
variable C3pos equal ${d3}
variable C3pos equal -3059074.30647412
variable C4pos equal ${d4}
variable C4pos equal -47555.6620869189
variable C5pos equal ${d5}
variable C5pos equal 379428.955595534
variable C6pos equal ${d6}
variable C6pos equal -211271.154194107

# Combine positive and negative

variable C1${dir} equal 0.5*(${C1neg}+${C1pos})
variable C16 equal 0.5*(${C1neg}+${C1pos})
variable C16 equal 0.5*(-15908473.9529092+${C1pos})
variable C16 equal 0.5*(-15908473.9529092+16088520.7952031)
variable C2${dir} equal 0.5*(${C2neg}+${C2pos})
variable C26 equal 0.5*(${C2neg}+${C2pos})
variable C26 equal 0.5*(-251468.280137425+${C2pos})
variable C26 equal 0.5*(-251468.280137425+-191608.219090021)
variable C3${dir} equal 0.5*(${C3neg}+${C3pos})
variable C36 equal 0.5*(${C3neg}+${C3pos})
variable C36 equal 0.5*(2750322.64431708+${C3pos})
variable C36 equal 0.5*(2750322.64431708+-3059074.30647412)
variable C4${dir} equal 0.5*(${C4neg}+${C4pos})
variable C46 equal 0.5*(${C4neg}+${C4pos})
variable C46 equal 0.5*(-520510.568576252+${C4pos})
variable C46 equal 0.5*(-520510.568576252+-47555.6620869189)
variable C5${dir} equal 0.5*(${C5neg}+${C5pos})
variable C56 equal 0.5*(${C5neg}+${C5pos})
variable C56 equal 0.5*(434541.583473057+${C5pos})
variable C56 equal 0.5*(434541.583473057+379428.955595534)
variable C6${dir} equal 0.5*(${C6neg}+${C6pos})
variable C66 equal 0.5*(${C6neg}+${C6pos})
variable C66 equal 0.5*(-25597.5417999629+${C6pos})
variable C66 equal 0.5*(-25597.5417999629+-211271.154194107)

# Delete dir to make sure it is not reused

variable dir delete

# Output final values

variable C11all equal ${C11}
variable C11all equal -564175.5626468
variable C22all equal ${C22}
variable C22all equal -562421.446200465
variable C33all equal ${C33}
variable C33all equal 742075.1666521

variable C12all equal 0.5*(${C12}+${C21})
variable C12all equal 0.5*(169496.175788251+${C21})
variable C12all equal 0.5*(169496.175788251+-496056.634208075)
variable C13all equal 0.5*(${C13}+${C31})
variable C13all equal 0.5*(-681235.192641401+${C31})
variable C13all equal 0.5*(-681235.192641401+392814.176678885)
variable C23all equal 0.5*(${C23}+${C32})
variable C23all equal 0.5*(-25222.834318536+${C32})
variable C23all equal 0.5*(-25222.834318536+-72821.758816055)

variable C44all equal ${C44}
variable C44all equal 191769.965791488
variable C55all equal ${C55}
variable C55all equal 13169.8090919205
variable C66all equal ${C66}
variable C66all equal -118434.347997035

variable C14all equal 0.5*(${C14}+${C41})
variable C14all equal 0.5*(-1067866.9928406+${C41})
variable C14all equal 0.5*(-1067866.9928406+135400.159674861)
variable C15all equal 0.5*(${C15}+${C51})
variable C15all equal 0.5*(-159738.030540001+${C51})
variable C15all equal 0.5*(-159738.030540001+-83389.8832522215)
variable C16all equal 0.5*(${C16}+${C61})
variable C16all equal 0.5*(90023.4211469507+${C61})
variable C16all equal 0.5*(90023.4211469507+-107784.489043987)

variable C24all equal 0.5*(${C24}+${C42})
variable C24all equal 0.5*(-307599.37709984+${C42})
variable C24all equal 0.5*(-307599.37709984+-67813.2104934196)
variable C25all equal 0.5*(${C25}+${C52})
variable C25all equal 0.5*(1453679.53033495+${C52})
variable C25all equal 0.5*(1453679.53033495+-78368.552596888)
variable C26all equal 0.5*(${C26}+${C62})
variable C26all equal 0.5*(-221538.249613723+${C62})
variable C26all equal 0.5*(-221538.249613723+-27886.593553102)

variable C34all equal 0.5*(${C34}+${C43})
variable C34all equal 0.5*(1043167.06993567+${C43})
variable C34all equal 0.5*(1043167.06993567+-228728.83300766)
variable C35all equal 0.5*(${C35}+${C53})
variable C35all equal 0.5*(-15165.1009400199+${C53})
variable C35all equal 0.5*(-15165.1009400199+-66193.1773405676)
variable C36all equal 0.5*(${C36}+${C63})
variable C36all equal 0.5*(-154375.83107852+${C63})
variable C36all equal 0.5*(-154375.83107852+41743.3300563525)

variable C45all equal 0.5*(${C45}+${C54})
variable C45all equal 0.5*(217724.445341841+${C54})
variable C45all equal 0.5*(217724.445341841+-189029.921223206)
variable C46all equal 0.5*(${C46}+${C64})
variable C46all equal 0.5*(-284033.115331585+${C64})
variable C46all equal 0.5*(-284033.115331585+-117252.943490454)
variable C56all equal 0.5*(${C56}+${C65})
variable C56all equal 0.5*(406985.269534296+${C65})
variable C56all equal 0.5*(406985.269534296+65673.0013888464)

# Average moduli for cubic crystals

variable C11cubic equal (${C11all}+${C22all}+${C33all})/3.0
variable C11cubic equal (-564175.5626468+${C22all}+${C33all})/3.0
variable C11cubic equal (-564175.5626468+-562421.446200465+${C33all})/3.0
variable C11cubic equal (-564175.5626468+-562421.446200465+742075.1666521)/3.0
variable C12cubic equal (${C12all}+${C13all}+${C23all})/3.0
variable C12cubic equal (-163280.229209912+${C13all}+${C23all})/3.0
variable C12cubic equal (-163280.229209912+-144210.507981258+${C23all})/3.0
variable C12cubic equal (-163280.229209912+-144210.507981258+-49022.2965672955)/3.0
variable C44cubic equal (${C44all}+${C55all}+${C66all})/3.0
variable C44cubic equal (191769.965791488+${C55all}+${C66all})/3.0
variable C44cubic equal (191769.965791488+13169.8090919205+${C66all})/3.0
variable C44cubic equal (191769.965791488+13169.8090919205+-118434.347997035)/3.0

variable bulkmodulus equal (${C11cubic}+2*${C12cubic})/3.0
variable bulkmodulus equal (-128173.947398388+2*${C12cubic})/3.0
variable bulkmodulus equal (-128173.947398388+2*-118837.677919489)/3.0
variable shearmodulus1 equal ${C44cubic}
variable shearmodulus1 equal 28835.1422954578
variable shearmodulus2 equal (${C11cubic}-${C12cubic})/2.0
variable shearmodulus2 equal (-128173.947398388-${C12cubic})/2.0
variable shearmodulus2 equal (-128173.947398388--118837.677919489)/2.0
variable poissonratio equal 1.0/(1.0+${C11cubic}/${C12cubic})
variable poissonratio equal 1.0/(1.0+-128173.947398388/${C12cubic})
variable poissonratio equal 1.0/(1.0+-128173.947398388/-118837.677919489)

# For Stillinger-Weber silicon, the analytical results
# are known to be (E. R. Cowley, 1988):
#               C11 = 151.4 GPa
#               C12 = 76.4 GPa
#               C44 = 56.4 GPa

print "========================================="
=========================================
print "Components of the Elastic Constant Tensor"
Components of the Elastic Constant Tensor
print "========================================="
=========================================

print "Elastic Constant C11all = ${C11all} ${cunits}"
Elastic Constant C11all = -564175.5626468 GPa
print "Elastic Constant C22all = ${C22all} ${cunits}"
Elastic Constant C22all = -562421.446200465 GPa
print "Elastic Constant C33all = ${C33all} ${cunits}"
Elastic Constant C33all = 742075.1666521 GPa

print "Elastic Constant C12all = ${C12all} ${cunits}"
Elastic Constant C12all = -163280.229209912 GPa
print "Elastic Constant C13all = ${C13all} ${cunits}"
Elastic Constant C13all = -144210.507981258 GPa
print "Elastic Constant C23all = ${C23all} ${cunits}"
Elastic Constant C23all = -49022.2965672955 GPa

print "Elastic Constant C44all = ${C44all} ${cunits}"
Elastic Constant C44all = 191769.965791488 GPa
print "Elastic Constant C55all = ${C55all} ${cunits}"
Elastic Constant C55all = 13169.8090919205 GPa
print "Elastic Constant C66all = ${C66all} ${cunits}"
Elastic Constant C66all = -118434.347997035 GPa

print "Elastic Constant C14all = ${C14all} ${cunits}"
Elastic Constant C14all = -466233.416582869 GPa
print "Elastic Constant C15all = ${C15all} ${cunits}"
Elastic Constant C15all = -121563.956896111 GPa
print "Elastic Constant C16all = ${C16all} ${cunits}"
Elastic Constant C16all = -8880.53394851815 GPa

print "Elastic Constant C24all = ${C24all} ${cunits}"
Elastic Constant C24all = -187706.29379663 GPa
print "Elastic Constant C25all = ${C25all} ${cunits}"
Elastic Constant C25all = 687655.488869031 GPa
print "Elastic Constant C26all = ${C26all} ${cunits}"
Elastic Constant C26all = -124712.421583412 GPa

print "Elastic Constant C34all = ${C34all} ${cunits}"
Elastic Constant C34all = 407219.118464005 GPa
print "Elastic Constant C35all = ${C35all} ${cunits}"
Elastic Constant C35all = -40679.1391402938 GPa
print "Elastic Constant C36all = ${C36all} ${cunits}"
Elastic Constant C36all = -56316.2505110837 GPa

print "Elastic Constant C45all = ${C45all} ${cunits}"
Elastic Constant C45all = 14347.2620593175 GPa
print "Elastic Constant C46all = ${C46all} ${cunits}"
Elastic Constant C46all = -200643.029411019 GPa
print "Elastic Constant C56all = ${C56all} ${cunits}"
Elastic Constant C56all = 236329.135461571 GPa

print "========================================="
=========================================
print "Average properties for a cubic crystal"
Average properties for a cubic crystal
print "========================================="
=========================================

print "Bulk Modulus = ${bulkmodulus} ${cunits}"
Bulk Modulus = -121949.767745789 GPa
print "Shear Modulus 1 = ${shearmodulus1} ${cunits}"
Shear Modulus 1 = 28835.1422954578 GPa
print "Shear Modulus 2 = ${shearmodulus2} ${cunits}"
Shear Modulus 2 = -4668.1347394495 GPa
print "Poisson Ratio = ${poissonratio}"
Poisson Ratio = 0.481101558546315
Total wall time: 0:00:14
