molecular system: Li4P2S6
12 atoms
7 bonds
12 angles
9 dihedrals
0 impropers
3 atom types
2 bond types
2 angle types
1 dihedral types
0 improper types

  0.000000   6.077400 xlo xhi
  0.000000   5.263183 ylo yhi
  0.000000   6.598800 zlo zhi
 -3.038700   0.000000   0.000000 xy xz yz

Masses

     1   6.941000 # Li   Li  
     2  30.973762 # P    P   
     3  32.066000 # S    S   

Atoms

     1      1      1   1.000000  -0.000003   3.508790   0.000000 0 0 0  # Li Li
     2      2      1   1.000000   3.038703   1.754393   0.000000 0 0 0  # Li Li
     3      3      1   1.000000   3.038703   1.754393   3.299400 0 0 0  # Li Li
     4      4      1   1.000000  -0.000003   3.508790   3.299400 0 0 0  # Li Li
     5      5      2   5.000000   0.000000   0.000000   1.088802 0 0 0  # P P
     6      5      2   5.000000   0.000000   0.000000   5.509998 0 0 -1  # P P
     7      5      3  -2.000000   1.959962   0.000000   1.634523 0 0 0  # S S
     8      5      3  -2.000000   4.117438   0.000000   4.964277 -1 0 -1  # S S
     9      5      3  -2.000000  -0.979981   1.697376   1.634523 0 0 0  # S S
    10      5      3  -2.000000  -2.058719   3.565806   4.964277 0 -1 -1  # S S
    11      5      3  -2.000000   2.058719   3.565806   1.634523 -1 -1 0  # S S
    12      5      3  -2.000000   0.979981   1.697376   4.964277 0 0 -1  # S S

Bonds

     1      1      5      7 # P-S
     2      1      5      9 # P-S
     3      1      5     11 # P-S
     4      1      6      8 # P-S
     5      1      6     10 # P-S
     6      1      6     12 # P-S
     7      2      5      6 # P-P

Angles

     1      1      5      6      8 # P-P-S
     2      1      5      6     10 # P-P-S
     3      1      5      6     12 # P-P-S
     4      1      6      5      7 # P-P-S
     5      1      6      5      9 # P-P-S
     6      1      6      5     11 # P-P-S
     7      2      7      5      9 # S-P-S
     8      2      7      5     11 # S-P-S
     9      2      8      6     10 # S-P-S
    10      2      8      6     12 # S-P-S
    11      2      9      5     11 # S-P-S
    12      2     10      6     12 # S-P-S

Dihedrals

     1      1      7      5      6      8 # S-P-P-S
     2      1      7      5      6     10 # S-P-P-S
     3      1      7      5      6     12 # S-P-P-S
     4      1      8      6      5      9 # S-P-P-S
     5      1      8      6      5     11 # S-P-P-S
     6      1      9      5      6     10 # S-P-P-S
     7      1      9      5      6     12 # S-P-P-S
     8      1     10      6      5     11 # S-P-P-S
     9      1     11      5      6     12 # S-P-P-S
