LAMMPS data file via write_data, version 22 Dec 2022, timestep = 118

36 atoms
2 atom types

0.014360007231156508 4.893639992768845 xlo xhi
0.012436131060785763 4.238016550739215 ylo yhi
0.03676899162060792 12.530231008379392 zlo zhi
-2.4396399927688446 0 0 xy xz yz

Masses

1 102.91
2 102.91

Atoms # atomic

4 1 4.048039591846971 0.500643750144976 1.4324811293563768 0 0 0
5 1 0.8599604081530279 0.5006437501449764 1.432481129356377 0 0 0
7 1 3.299600400921871 0.9327553185029349 2.8055441928044424 0 0 0
9 1 1.6083995990781275 0.9327553185029348 2.8055441928044424 0 0 0
20 2 0.014360007231154954 1.6964199326455587 0.3829271506265923 0 0 0
10 1 1.608399599078127 1.9091705567044521 5.596968468275973 0 0 0
11 1 3.299600400921873 1.9091705567044526 5.596968468275973 0 0 0
12 1 2.454 0.4445476994027553 5.596968468277313 0 0 0
25 2 3.9123727517440723 0.5789710368015812 4.54741448954684 0 0 0
27 2 0.9956272482559279 0.5789710368015811 4.54741448954684 0 0 0
31 2 1.4727327589752268 1.9874978433610584 8.711901828466438 0 0 0
32 2 2.4539999999999997 0.2878931260860814 8.711901828465784 0 0 0
33 2 3.4352672410247695 1.9874978433610584 8.711901828466438 0 0 0
36 2 0.014360007231154732 1.1455059425618286 8.019585510453824 0 0 0
2 1 0.014360007231155176 0.9888513692451553 11.134518870642294 0 0 0
18 1 0.014360007231154732 1.853074505962232 9.761455807196908 0 0 0
22 2 3.4352672410247704 0.8544280318463289 12.184072849372766 0 0 0
23 2 1.4727327589752284 0.8544280318463288 12.184072849372765 0 0 0
6 1 2.4539999999999984 3.26160131252171 1.432481129357718 0 0 0
8 1 2.4539999999999997 2.3973781758046324 2.805544192803102 0 0 0
19 2 -0.9669072337936163 3.3960246499205344 0.38292715062724514 0 0 0
21 2 0.9956272482559261 3.396024649920535 0.382927150627245 0 0 0
26 2 2.4539999999999997 3.1049467392050345 4.547414489546188 0 0 0
28 2 0.9956272482559261 2.2629548384058054 3.855098171533574 0 0 0
29 2 -0.9669072337936158 2.262954838405805 3.855098171533574 0 0 0
30 2 0.01436000723115562 3.962559555680782 3.8550981715342276 0 0 0
13 1 0.8599604081530277 2.3412821250624116 6.970031531724038 0 0 0
14 1 0.014360007231154288 3.805904982364109 6.970031531722699 0 0 0
15 1 -0.831240393690718 2.3412821250624116 6.97003153172404 0 0 0
34 2 -1.4440127445129194 3.6714816449652816 8.01958551045317 0 0 0
35 2 1.4727327589752273 3.6714816449652816 8.01958551045317 0 0 0
1 1 -1.5796795846158163 3.7498089316218883 11.134518870643634 0 0 0
3 1 1.6083995990781257 3.7498089316218883 11.134518870643634 0 0 0
16 1 -0.8312403936907189 3.317697363263929 9.761455807195567 0 0 0
17 1 0.8599604081530277 3.3176973632639295 9.761455807195567 0 0 0
24 2 2.4539999999999993 2.554032749121305 12.184072849373417 0 0 0

Velocities

4 0 0 0
5 0 0 0
7 0 0 0
9 0 0 0
20 0 0 0
10 0 0 0
11 0 0 0
12 0 0 0
25 0 0 0
27 0 0 0
31 0 0 0
32 0 0 0
33 0 0 0
36 0 0 0
2 0 0 0
18 0 0 0
22 0 0 0
23 0 0 0
6 0 0 0
8 0 0 0
19 0 0 0
21 0 0 0
26 0 0 0
28 0 0 0
29 0 0 0
30 0 0 0
13 0 0 0
14 0 0 0
15 0 0 0
34 0 0 0
35 0 0 0
1 0 0 0
3 0 0 0
16 0 0 0
17 0 0 0
24 0 0 0
