LAMMPS (22 Dec 2022)
  using 1 OpenMP thread(s) per MPI task
Loaded 1 plugins from C:\Program Files\LAMMPS 64-bit 23Jun2022\plugins
Loaded 0 plugins from C:\Program Files\LAMMPS 64-bit 23Jun2022-MPI\plugins
Loaded 1 plugins from C:\Program Files\LAMMPS 64-bit 22Dec2022-MSMPI\plugins
Loaded 1 plugins from C:\Program Files\LAMMPS 64-bit 28Mar2023-MPI\plugins
# Compute elastic constant tensor for a crystal
#
# Written by Aidan Thompson (Sandia, athomps@sandia.gov)
#
#  This script uses the following three include files.
#
#   init.mod      (must be modified for different crystal structures)
# 	       	  Define units, deformation parameters and initial
#		  configuration of the atoms and simulation cell.
#
#
#   potential.mod    (must be modified for different pair styles)
# 		     Define pair style and other attributes
#		     not stored in restart file
#
#
#   displace.mod    (displace.mod should not need to be modified)
# 		    Perform positive and negative box displacements
# 		    in direction ${dir} and size ${up}.
# 		    It uses the resultant changes
#		    in stress to compute one
# 		    row of the elastic stiffness tensor
#
#		    Inputs variables:
#		    	   dir = the Voigt deformation component
#		    		    (1,2,3,4,5,6)
#		    Global constants:
#       	    	   up = the deformation magnitude (strain units)
#       		   cfac = conversion from LAMMPS pressure units to
#               	   output units for elastic constants
#
#
#  To run this on a different system, it should only be necessary to
#  modify the files init.mod and potential.mod. In order to calculate
#  the elastic constants correctly, care must be taken to specify
#  the correct units in init.mod (units, cfac and cunits). It is also
#  important to verify that the minimization of energy w.r.t atom
#  positions in the deformed cell is fully converged.
#  One indication of this is that the elastic constants are insensitive
#  to the choice of the variable ${up} in init.mod. Another is to check
#  the final max and two-norm forces reported in the log file. If you know
#  that minimization is not required, you can set maxiter = 0.0 in
#  init.mod.
#

include init.mod
# NOTE: This script can be modified for different atomic structures,
# units, etc. See in.elastic for more info.
#

# Define the finite deformation size. Try several values of this
# variable to verify that results do not depend on it.
variable up equal 1.0e-6

# Define the amount of random jiggle for atoms
# This prevents atoms from staying on saddle points
variable atomjiggle equal 1.0e-5

# Uncomment one of these blocks, depending on what units
# you are using in LAMMPS and for output

# metal units, elastic constants in eV/A^3
#units		metal
#variable cfac equal 6.2414e-7
#variable cunits string eV/A^3

# metal units, elastic constants in GPa
units		metal
variable cfac equal 1.0e-4
variable cunits string GPa

# real units, elastic constants in GPa
#units		real
#variable cfac equal 1.01325e-4
#variable cunits string GPa

# Define minimization parameters
variable etol equal 0.0
variable ftol equal 1.0e-10
variable maxiter equal 100
variable maxeval equal 1000
variable dmax equal 1.0e-2

# generate the box and atom positions using a diamond lattice

dimension    3
boundary     p p p
read_data    data.in
Reading data file ...
  triclinic box = (0.014360007 0.012436131 0.036768992) to (4.89364 4.2380166 12.530231) with tilt (-2.43964 0 0)
WARNING: Triclinic box skew is large. LAMMPS will run inefficiently. (src/domain.cpp:220)
  1 by 1 by 4 MPI processor grid
  reading atoms ...
  36 atoms
  reading velocities ...
  36 velocities
  read_data CPU = 0.001 seconds
replicate    2 3 4
Replication is creating a 2x3x4 = 24 times larger system...
  triclinic box = (0.014360007 0.012436131 0.036768992) to (9.77292 12.689177 50.010617) with tilt (-7.31892 0 0)
WARNING: Triclinic box skew is large. LAMMPS will run inefficiently. (src/domain.cpp:220)
  1 by 1 by 4 MPI processor grid
  864 atoms
  replicate CPU = 0.000 seconds
change_box   all triclinic
Changing box ...
WARNING: Triclinic box skew is large. LAMMPS will run inefficiently. (src/domain.cpp:220)
  triclinic box = (0.014360007 0.012436131 0.036768992) to (9.77292 12.689177 50.010617) with tilt (-7.31892 0 0)

# Need to set mass to something, just to satisfy LAMMPS
mass 1 1.0e-20

include potential.mod
# NOTE: This script can be modified for different pair styles
# See in.elastic for more info.

# Choose potential
#-----------------------
#pair_style	sw
#pair_coeff * * Si.sw Si
#-----------------------
#pair_style morse	2.83994742	# D0[eV] a[1/A] r0[A] rc[A], 1NN for BCC
#pair_coeff 1 1	2.1173	1.0202	2.4595	2.6497	#	Fe-Fe
#-----------------------
#pair_style smatb # R0(A)   p       q     A(eV)   xi(eV)  Rcs(A)   Rc(A), 4NN: Rcs=4NN, Rc=(4NN+5NN)/2
#pair_coeff 1 1	2.4802	7.0149	2.3779	0.3144	3.0551	4.033	4.176	#	Co	Co
#-----------------------
#pair_style eam/alloy
#pair_coeff * * AlCrFeCoNi_Zhou04.eam.alloy Fe
#-----------------------
pair_style meam
pair_coeff * * ./../../library.meam B ./../../B.meam B B
#-----------------------

# Setup neighbor style
neighbor 1.0 nsq
neigh_modify once no every 1 delay 0 check yes

# Setup minimization style
min_style	     cg
min_modify	     dmax ${dmax} line quadratic
min_modify	     dmax 0.01 line quadratic

# Setup output
thermo		1
thermo_style custom step temp pe press pxx pyy pzz pxy pxz pyz lx ly lz vol
thermo_modify norm no

# Compute initial state
fix 3 all box/relax  aniso 0.0
minimize ${etol} ${ftol} ${maxiter} ${maxeval}
minimize 0 ${ftol} ${maxiter} ${maxeval}
minimize 0 1e-10 ${maxiter} ${maxeval}
minimize 0 1e-10 100 ${maxeval}
minimize 0 1e-10 100 1000
Neighbor list info ...
  update: every = 1 steps, delay = 0 steps, check = yes
  max neighbors/atom: 2000, page size: 100000
  master list distance cutoff = 6
  ghost atom cutoff = 6
  2 neighbor lists, perpetual/occasional/extra = 2 0 0
  (1) pair meam, perpetual
      attributes: full, newton on
      pair build: full/nsq
      stencil: none
      bin: none
  (2) pair meam, perpetual, half/full from (1)
      attributes: half, newton on
      pair build: halffull/newton
      stencil: none
      bin: none
Per MPI rank memory allocation (min/avg/max) = 10.42 | 10.42 | 10.42 Mbytes
   Step          Temp          PotEng         Press           Pxx            Pyy            Pzz            Pxy            Pxz            Pyz             Lx             Ly             Lz           Volume    
         0   0             -5453.8022     -0.00072016698 -27712.74      -27712.74       55425.478      3.9595421e-11 -4.1994015e-11  1.2810806e-06  9.75856        12.676741      49.973848      6182.1018    
         1   0             -5453.8341      13.265081     -27399.223     -27399.223      54838.242     -5.982953e-08  -3.226956e-09   1.2752968e-06  9.758072       12.676107      49.978845      6182.1018    
         2   0             -5453.8656      26.474991     -27085.78      -27085.78       54250.985     -1.19622e-07   -6.2577086e-09  1.2699979e-06  9.7575844      12.675474      49.983843      6182.102     
         3   0             -5453.8968      39.624914     -26772.416     -26772.416      53663.706     -1.7946831e-07 -9.5648221e-09  1.264706e-06   9.757097       12.674841      49.98884       6182.1025    
         4   0             -5453.9277      52.711132     -26459.135     -26459.135      53076.404     -2.3943045e-07 -1.2608703e-08  1.2587491e-06  9.75661        12.674208      49.993838      6182.1032    
         5   0             -5453.9581      65.72992      -26145.944     -26145.944      52489.078     -2.9973351e-07 -1.5986832e-08  1.2535375e-06  9.7561232      12.673576      49.998835      6182.1043    
         6   0             -5453.9883      78.677616     -25832.848     -25832.848      51901.728     -3.6006988e-07 -1.8929026e-08  1.2481391e-06  9.7556367      12.672944      50.003832      6182.1057    
         7   0             -5454.018       91.550031     -25519.851     -25519.851      51314.352     -4.204327e-07  -2.2298681e-08  1.2424798e-06  9.7551506      12.672312      50.00883       6182.1073    
         8   0             -5454.0475      104.34222     -25206.961     -25206.961      50726.948     -4.8080901e-07 -2.5369779e-08  1.2368423e-06  9.7546648      12.671681      50.013827      6182.1093    
         9   0             -5454.0765      117.05012     -24894.182     -24894.182      50139.514     -5.4125723e-07 -2.8679053e-08  1.2308199e-06  9.7541793      12.671051      50.018825      6182.1116    
        10   0             -5454.1052      129.66962     -24581.52      -24581.52       49552.049     -6.0200751e-07 -3.1984174e-08  1.2251331e-06  9.7536941      12.67042       50.023822      6182.1142    
        11   0             -5454.1336      142.19653     -24268.982     -24268.982      48964.553     -6.6264593e-07 -3.5234853e-08  1.2190602e-06  9.7532093      12.669791      50.028819      6182.1172    
        12   0             -5454.1616      154.6266      -23956.573     -23956.573      48377.026     -7.2379319e-07 -3.8403867e-08  1.2136894e-06  9.7527248      12.669161      50.033817      6182.1205    
        13   0             -5454.1892      166.95547     -23644.3       -23644.3        47789.466     -7.8473364e-07 -4.1964927e-08  1.2081079e-06  9.7522407      12.668532      50.038814      6182.1241    
        14   0             -5454.2165      179.17872     -23332.168     -23332.168      47201.873     -8.4577531e-07 -4.5191466e-08  1.2018787e-06  9.7517569      12.667904      50.043811      6182.1282    
        15   0             -5454.2435      191.29183     -23020.185     -23020.185      46614.245     -9.0658019e-07 -4.8617398e-08  1.1958331e-06  9.7512736      12.667276      50.048809      6182.1326    
        16   0             -5454.2701      203.2902      -22708.356     -22708.356      46026.583     -9.6805145e-07 -5.1837888e-08  1.1901562e-06  9.7507905      12.666648      50.053806      6182.1374    
        17   0             -5454.2963      215.16913     -22396.689     -22396.689      45438.885     -1.0295052e-06 -5.5404817e-08  1.1839975e-06  9.7503079      12.666022      50.058804      6182.1426    
        18   0             -5454.3222      226.92383     -22085.19      -22085.19       44851.151     -1.0908439e-06 -5.8884019e-08  1.1779977e-06  9.7498257      12.665395      50.063801      6182.1482    
        19   0             -5454.3477      238.54941     -21773.865     -21773.865      44263.379     -1.1526565e-06 -6.2145517e-08  1.1719133e-06  9.7493439      12.664769      50.068798      6182.1543    
        20   0             -5454.3729      250.04087     -21462.723     -21462.723      43675.569     -1.2143503e-06 -6.5744749e-08  1.1655815e-06  9.7488625      12.664144      50.073796      6182.1607    
        21   0             -5454.3977      261.39311     -21151.77      -21151.77       43087.72      -1.2759876e-06 -6.9191027e-08  1.1595847e-06  9.7483815      12.663519      50.078793      6182.1677    
        22   0             -5454.4222      272.60094     -20841.014     -20841.014      42499.831     -1.3377428e-06 -7.2564868e-08  1.1538531e-06  9.7479009      12.662895      50.083791      6182.175     
        23   0             -5454.4463      283.65902     -20530.462     -20530.462      41911.901     -1.3990216e-06 -7.6042418e-08  1.1477483e-06  9.7474208      12.662271      50.088788      6182.1829    
        24   0             -5454.47        294.56193     -20220.122     -20220.122      41323.93      -1.4615588e-06 -7.9602934e-08  1.1410208e-06  9.7469412      12.661648      50.093785      6182.1912    
        25   0             -5454.4934      305.3041      -19910.002     -19910.002      40735.916     -1.5236925e-06 -8.3046144e-08  1.1355825e-06  9.746462       12.661025      50.098783      6182.2       
        26   0             -5454.5165      315.87985     -19600.109     -19600.109      40147.858     -1.5858734e-06 -8.6493462e-08  1.1293638e-06  9.7459832      12.660404      50.10378       6182.2092    
        27   0             -5454.5392      326.28338     -19290.453     -19290.453      39559.756     -1.6488288e-06 -9.0171157e-08  1.1232155e-06  9.7455049      12.659782      50.108777      6182.2191    
        28   0             -5454.5615      336.50873     -18981.041     -18981.041      38971.608     -1.710964e-06  -9.3604426e-08  1.1169507e-06  9.7450272      12.659162      50.113775      6182.2294    
        29   0             -5454.5835      346.54983     -18671.882     -18671.882      38383.414     -1.7737973e-06 -9.6987162e-08  1.1106749e-06  9.7445499      12.658542      50.118772      6182.2403    
        30   0             -5454.6052      356.40044     -18362.985     -18362.985      37795.172     -1.8366569e-06 -1.0091693e-07  1.1048369e-06  9.7440731      12.657922      50.12377       6182.2517    
        31   0             -5454.6265      366.05419     -18054.36      -18054.36       37206.882     -1.8996216e-06 -1.0454603e-07  1.0980161e-06  9.7435969      12.657304      50.128767      6182.2637    
        32   0             -5454.6474      375.50455     -17746.014     -17746.014      36618.542     -1.9625338e-06 -1.0835176e-07  1.0917732e-06  9.7431211      12.656686      50.133764      6182.2763    
        33   0             -5454.668       384.74515     -17437.958     -17437.958      36030.151     -2.0261804e-06 -1.1160462e-07  1.0856065e-06  9.7426459      12.656068      50.138762      6182.2895    
        34   0             -5454.6883      393.7695      -17130.2       -17130.2        35441.708     -2.0895068e-06 -1.1524532e-07  1.079022e-06   9.7421713      12.655452      50.143759      6182.3033    
        35   0             -5454.7082      402.57048     -16822.75      -16822.75       34853.212     -2.1529876e-06 -1.191516e-07   1.072686e-06   9.7416973      12.654836      50.148757      6182.3177    
        36   0             -5454.7277      411.14085     -16515.619     -16515.619      34264.661     -2.2166744e-06 -1.2279668e-07  1.0661079e-06  9.7412238      12.654221      50.153754      6182.3327    
        37   0             -5454.7469      419.47316     -16208.818     -16208.818      33676.055     -2.2804777e-06 -1.2664366e-07  1.0596862e-06  9.7407509      12.653607      50.158751      6182.3484    
        38   0             -5454.7657      427.55978     -15902.357     -15902.357      33087.393     -2.3444844e-06 -1.3025253e-07  1.0535919e-06  9.7402786      12.652993      50.163749      6182.3648    
        39   0             -5454.7842      435.39286     -15596.247     -15596.247      32498.672     -2.4087553e-06 -1.3380166e-07  1.0466067e-06  9.7398069      12.65238       50.168746      6182.3819    
        40   0             -5454.8024      442.96433     -15290.499     -15290.499      31909.891     -2.4733202e-06 -1.3773366e-07  1.0403179e-06  9.7393358      12.651768      50.173743      6182.3997    
        41   0             -5454.8202      450.26589     -14985.126     -14985.126      31321.05      -2.5375953e-06 -1.4150968e-07  1.0336363e-06  9.7388654      12.651157      50.178741      6182.4182    
        42   0             -5454.8376      457.28899     -14680.14      -14680.14       30732.146     -2.6017577e-06 -1.4549529e-07  1.0268278e-06  9.7383957      12.650547      50.183738      6182.4375    
        43   0             -5454.8547      464.02486     -14375.552     -14375.552      30143.179     -2.6664248e-06 -1.4934515e-07  1.0204628e-06  9.7379266      12.649938      50.188736      6182.4575    
        44   0             -5454.8715      470.46422     -14071.377     -14071.377      29554.146     -2.7318124e-06 -1.5308909e-07  1.0133273e-06  9.7374582      12.649329      50.193733      6182.4783    
        45   0             -5454.8879      476.59676     -13767.626     -13767.626      28965.043     -2.7968873e-06 -1.5682059e-07  1.0065993e-06  9.7369905      12.648722      50.19873       6182.4999    
        46   0             -5454.9039      482.41284     -13464.315     -13464.315      28375.868     -2.8627599e-06 -1.6064017e-07  9.9978661e-07  9.7365236      12.648115      50.203728      6182.5224    
        47   0             -5454.9196      487.90256     -13161.456     -13161.456      27786.62      -2.927928e-06  -1.6476093e-07  9.9281286e-07  9.7360574      12.64751       50.208725      6182.5457    
        48   0             -5454.935       493.05598     -12859.064     -12859.064      27197.296     -2.9935726e-06 -1.6866589e-07  9.8550153e-07  9.7355919      12.646905      50.213723      6182.5698    
        49   0             -5454.95        497.86264     -12557.154     -12557.154      26607.895     -3.0590754e-06 -1.7259009e-07  9.7863556e-07  9.7351272      12.646301      50.21872       6182.5949    
        50   0             -5454.9647      502.31157     -12255.741     -12255.741      26018.416     -3.1253803e-06 -1.7682378e-07  9.7202034e-07  9.7346633      12.645699      50.223717      6182.6208    
        51   0             -5454.979       506.39145     -11954.841     -11954.841      25428.856     -3.1912448e-06 -1.8068177e-07  9.6490772e-07  9.7342002      12.645097      50.228715      6182.6477    
        52   0             -5454.993       510.09054     -11654.471     -11654.471      24839.213     -3.2577259e-06 -1.845445e-07   9.5766924e-07  9.7337379      12.644496      50.233712      6182.6756    
        53   0             -5455.0066      513.3967      -11354.647     -11354.647      24249.485     -3.3250333e-06 -1.8877458e-07  9.5067193e-07  9.7332765      12.643897      50.238709      6182.7044    
        54   0             -5455.0199      516.2973      -11055.389     -11055.389      23659.669     -3.3916299e-06 -1.9265822e-07  9.4360373e-07  9.7328159      12.643299      50.243707      6182.7343    
        55   0             -5455.0329      518.77924     -10756.714     -10756.714      23069.765     -3.4588377e-06 -1.9674828e-07  9.3678577e-07  9.7323563      12.642702      50.248704      6182.7652    
        56   0             -5455.0455      520.8289      -10458.641     -10458.641      22479.768     -3.5264491e-06 -2.0070282e-07  9.2953796e-07  9.7318975      12.642106      50.253702      6182.7972    
        57   0             -5455.0577      522.43212     -10161.191     -10161.191      21889.677     -3.5943789e-06 -2.0473631e-07  9.2212357e-07  9.7314397      12.641511      50.258699      6182.8303    
        58   0             -5455.0697      523.57413     -9864.3837     -9864.3837      21299.49      -3.6622922e-06 -2.089907e-07   9.1452841e-07  9.7309829      12.640918      50.263696      6182.8645    
        59   0             -5455.0812      524.23954     -9568.2419     -9568.2419      20709.202     -3.7303912e-06 -2.1328446e-07  9.0764014e-07  9.730527       12.640325      50.268694      6182.8999    
        60   0             -5455.0925      524.41232     -9272.7879     -9272.7879      20118.813     -3.7989885e-06 -2.176608e-07   9.0024806e-07  9.7300722      12.639735      50.273691      6182.9365    
        61   0             -5455.1034      524.07531     -8978.0455     -8978.0455      19528.317     -3.8677242e-06 -2.2166699e-07  8.9273612e-07  9.7296184      12.639145      50.278689      6182.9744    
        62   0             -5455.1139      523.21074     -8684.0396     -8684.0397      18937.712     -3.93678e-06   -2.2624848e-07  8.8505229e-07  9.7291657      12.638557      50.283686      6183.0135    
        63   0             -5455.1241      521.8002      -8390.7962     -8390.7963      18346.993     -4.006186e-06  -2.3051663e-07  8.7762468e-07  9.728714       12.63797       50.288683      6183.0539    
        64   0             -5455.134       519.82437     -8098.3426     -8098.3426      17756.158     -4.0761686e-06 -2.3482842e-07  8.7021863e-07  9.7282636      12.637385      50.293681      6183.0957    
        65   0             -5455.1436      517.26294     -7806.7073     -7806.7073      17165.203     -4.1459999e-06 -2.3927065e-07  8.6251062e-07  9.7278142      12.636801      50.298678      6183.1388    
        66   0             -5455.1528      514.09448     -7515.9206     -7515.9206      16574.125     -4.2164468e-06 -2.4355702e-07  8.5485528e-07  9.7273661      12.636219      50.303675      6183.1835    
        67   0             -5455.1616      510.29643     -7226.0143     -7226.0144      15982.918     -4.2873302e-06 -2.4796109e-07  8.4723886e-07  9.7269192      12.635639      50.308673      6183.2296    
        68   0             -5455.1702      505.8449      -6937.0221     -6937.0221      15391.579     -4.3582208e-06 -2.5231957e-07  8.3898503e-07  9.7264737      12.63506       50.31367       6183.2772    
        69   0             -5455.1784      500.71459     -6648.9797     -6648.9797      14800.103     -4.4297104e-06 -2.5709043e-07  8.3134958e-07  9.7260294      12.634483      50.318668      6183.3265    
        70   0             -5455.1862      494.87862     -6361.9248     -6361.9248      14208.485     -4.5014959e-06 -2.6172671e-07  8.2372386e-07  9.7255865      12.633907      50.323665      6183.3774    
        71   0             -5455.1937      488.30838     -6075.8979     -6075.8979      13616.721     -4.5736012e-06 -2.6623692e-07  8.1554117e-07  9.725145       12.633334      50.328662      6183.43      
        72   0             -5455.2009      480.97331     -5790.9419     -5790.9419      13024.804     -4.6462768e-06 -2.7090381e-07  8.072616e-07   9.7247049      12.632762      50.33366       6183.4844    
        73   0             -5455.2078      472.84072     -5507.1029     -5507.1029      12432.728     -4.7194346e-06 -2.7542783e-07  7.9891332e-07  9.7242664      12.632193      50.338657      6183.5406    
        74   0             -5455.2143      463.87546     -5224.4305     -5224.4305      11840.487     -4.792913e-06  -2.799686e-07   7.9068712e-07  9.7238295      12.631625      50.343655      6183.5987    
        75   0             -5455.2205      454.03966     -4942.9779     -4942.9779      11248.075     -4.8675152e-06 -2.8496179e-07  7.8255313e-07  9.7233942      12.63106       50.348652      6183.6588    
        76   0             -5455.2264      443.29232     -4662.8029     -4662.8029      10655.483     -4.9425366e-06 -2.8970781e-07  7.7410843e-07  9.7229605      12.630496      50.353649      6183.721     
        77   0             -5455.2319      431.58889     -4383.9682     -4383.9682      10062.703     -5.0181486e-06 -2.9462669e-07  7.6589989e-07  9.7225287      12.629935      50.358647      6183.7854    
        78   0             -5455.2371      418.88072     -4106.5423     -4106.5423      9469.7268     -5.0945027e-06 -2.9944831e-07  7.5740125e-07  9.7220987      12.629377      50.363644      6183.852     
        79   0             -5455.242       405.11436     -3830.6006     -3830.6006      8876.5443     -5.1712031e-06 -3.0425606e-07  7.4909373e-07  9.7216706      12.628821      50.368641      6183.921     
        80   0             -5455.2466      390.23081     -3556.2261     -3556.2261      8283.1446     -5.2489645e-06 -3.0894445e-07  7.4006411e-07  9.7212445      12.628267      50.373639      6183.9925    
        81   0             -5455.2508      374.16395     -3283.5115     -3283.5115      7689.5148     -5.3272637e-06 -3.1398109e-07  7.31577e-07    9.7208206      12.627716      50.378636      6184.0665    
        82   0             -5455.2548      356.83939     -3012.5606     -3012.5606      7095.6394     -5.4068769e-06 -3.1937599e-07  7.2215722e-07  9.7203989      12.627169      50.383634      6184.1434    
        83   0             -5455.2584      338.17394     -2743.4909     -2743.4909      6501.5036     -5.487294e-06  -3.2439372e-07  7.1359673e-07  9.7199795      12.626624      50.388631      6184.2231    
        84   0             -5455.2616      318.07241     -2476.4366     -2476.4366      5907.0905     -5.5690032e-06 -3.2984045e-07  7.0418807e-07  9.7195627      12.626082      50.393628      6184.306     
        85   0             -5455.2646      296.42456     -2211.5536     -2211.5536      5312.3809     -5.6518106e-06 -3.3505439e-07  6.9510769e-07  9.7191485      12.625544      50.398626      6184.3921    
        86   0             -5455.2673      273.10061     -1949.0254     -1949.0254      4717.3527     -5.7362225e-06 -3.4042696e-07  6.8510847e-07  9.7187371      12.62501       50.403623      6184.4818    
        87   0             -5455.2696      247.94497     -1689.0726     -1689.0726      4121.9802     -5.822274e-06  -3.4577493e-07  6.7566683e-07  9.7183288      12.624479      50.408621      6184.5753    
        88   0             -5455.2717      220.76647     -1431.9669     -1431.9669      3526.2331     -5.910187e-06  -3.51789e-07    6.6595069e-07  9.7179238      12.623953      50.413618      6184.6729    
        89   0             -5455.2734      191.3228      -1178.0536     -1178.0536      2930.0756     -6.0002858e-06 -3.5769191e-07  6.5609048e-07  9.7175223      12.623432      50.418615      6184.7749    
        90   0             -5455.2749      159.2936      -927.79189     -927.79189      2333.4646     -6.0934149e-06 -3.6329004e-07  6.4491211e-07  9.7171248      12.622915      50.423613      6184.8819    
        91   0             -5455.276       124.22869     -681.83137     -681.83137      1736.3488     -6.190752e-06  -3.697375e-07   6.3363704e-07  9.7167317      12.622405      50.42861       6184.9943    
        92   0             -5455.2769      85.432745     -441.18692     -441.18692      1138.6721     -6.293086e-06  -3.7656697e-07  6.2222728e-07  9.7163433      12.6219        50.433607      6185.1128    
        93   0             -5455.2777      41.633435     -207.75181     -207.75181      540.40393     -6.4042136e-06 -3.8373427e-07  6.0951534e-07  9.7159601      12.621402      50.438605      6185.2378    
        94   0             -5455.2784     -10.658804      13.08135       13.08135      -58.139111     -6.5353599e-06 -3.9222437e-07  5.9453983e-07  9.7155798      12.620908      50.443602      6185.3663    
        95   0             -5455.2876     -24.241083     -322.81732     -322.81732      572.91139     -6.744353e-06  -4.0911077e-07  5.6520032e-07  9.7157227      12.621094      50.438605      6184.9356    
        96   0             -5455.2888      28.489716      42.656674      42.656674      0.15580072    -6.5756387e-06 -4.0004527e-07  5.8116543e-07  9.7151482      12.620348      50.443602      6184.8168    
        97   0             -5455.2983     -871.17036     -1087.2433     -1087.2433     -439.02452     -6.0538653e-06 -3.7357055e-07  6.2519087e-07  9.716124       12.621615      50.446001      6186.3536    
        98   0             -5455.3002     -235.44501     -324.77487     -324.77487     -56.78528      -6.2462331e-06 -3.8618286e-07  6.0410341e-07  9.7151482      12.620348      50.444053      6184.8721    
        99   0             -5455.3011      353.12252      437.36269      437.36269      184.64217     -6.6990854e-06 -4.1435358e-07  5.5609592e-07  9.7141723      12.61908       50.443191      6183.524     
       100   0             -5455.3037     -452.99608     -475.48679     -475.48679     -408.01466     -6.8652485e-06 -4.2517776e-07  5.3567171e-07  9.7151482      12.620348      50.446763      6185.2043    
Loop time of 0.561853 on 4 procs for 100 steps with 864 atoms

77.9% CPU use with 4 MPI tasks x 1 OpenMP threads

Minimization stats:
  Stopping criterion = max iterations
  Energy initial, next-to-last, final = 
     -5453.80216609089  -5455.30107903117  -5455.30370173345
  Force two-norm initial, final = 261.92737 4.5148522
  Force max component initial, final = 213.8628 1.8438197
  Final line search alpha, max atom move = 0.00013111265 0.0002417481
  Iterations, force evaluations = 100 100

MPI task timing breakdown:
Section |  min time  |  avg time  |  max time  |%varavg| %total
---------------------------------------------------------------
Pair    | 0.54735    | 0.54852    | 0.55089    |   0.2 | 97.63
Neigh   | 0          | 0          | 0          |   0.0 |  0.00
Comm    | 0.004285   | 0.0066552  | 0.007871   |   1.7 |  1.18
Output  | 0.001279   | 0.0013723  | 0.001619   |   0.4 |  0.24
Modify  | 0          | 0          | 0          |   0.0 |  0.00
Other   |            | 0.005303   |            |       |  0.94

Nlocal:            216 ave         216 max         216 min
Histogram: 4 0 0 0 0 0 0 0 0 0
Nghost:           1732 ave        1732 max        1732 min
Histogram: 4 0 0 0 0 0 0 0 0 0
Neighs:          14148 ave       14148 max       14148 min
Histogram: 4 0 0 0 0 0 0 0 0 0
FullNghs:        28296 ave       28296 max       28296 min
Histogram: 4 0 0 0 0 0 0 0 0 0

Total # of neighbors = 113184
Ave neighs/atom = 131
Neighbor list builds = 0
Dangerous builds = 0

variable tmp equal pxx
variable pxx0 equal ${tmp}
variable pxx0 equal -475.486789169613
variable tmp equal pyy
variable pyy0 equal ${tmp}
variable pyy0 equal -475.486788060216
variable tmp equal pzz
variable pzz0 equal ${tmp}
variable pzz0 equal -408.014661565284
variable tmp equal pyz
variable pyz0 equal ${tmp}
variable pyz0 equal 5.35671708583202e-07
variable tmp equal pxz
variable pxz0 equal ${tmp}
variable pxz0 equal -4.25177757990687e-07
variable tmp equal pxy
variable pxy0 equal ${tmp}
variable pxy0 equal -6.86524850359716e-06

variable tmp equal lx
variable lx0 equal ${tmp}
variable lx0 equal 9.71514817697943
variable tmp equal ly
variable ly0 equal ${tmp}
variable ly0 equal 12.6203476842061
variable tmp equal lz
variable lz0 equal ${tmp}
variable lz0 equal 50.446762926054

# These formulas define the derivatives w.r.t. strain components
# Constants uses $, variables use v_
variable d1 equal -(v_pxx1-${pxx0})/(v_delta/v_len0)*${cfac}
variable d1 equal -(v_pxx1--475.486789169613)/(v_delta/v_len0)*${cfac}
variable d1 equal -(v_pxx1--475.486789169613)/(v_delta/v_len0)*0.0001
variable d2 equal -(v_pyy1-${pyy0})/(v_delta/v_len0)*${cfac}
variable d2 equal -(v_pyy1--475.486788060216)/(v_delta/v_len0)*${cfac}
variable d2 equal -(v_pyy1--475.486788060216)/(v_delta/v_len0)*0.0001
variable d3 equal -(v_pzz1-${pzz0})/(v_delta/v_len0)*${cfac}
variable d3 equal -(v_pzz1--408.014661565284)/(v_delta/v_len0)*${cfac}
variable d3 equal -(v_pzz1--408.014661565284)/(v_delta/v_len0)*0.0001
variable d4 equal -(v_pyz1-${pyz0})/(v_delta/v_len0)*${cfac}
variable d4 equal -(v_pyz1-5.35671708583202e-07)/(v_delta/v_len0)*${cfac}
variable d4 equal -(v_pyz1-5.35671708583202e-07)/(v_delta/v_len0)*0.0001
variable d5 equal -(v_pxz1-${pxz0})/(v_delta/v_len0)*${cfac}
variable d5 equal -(v_pxz1--4.25177757990687e-07)/(v_delta/v_len0)*${cfac}
variable d5 equal -(v_pxz1--4.25177757990687e-07)/(v_delta/v_len0)*0.0001
variable d6 equal -(v_pxy1-${pxy0})/(v_delta/v_len0)*${cfac}
variable d6 equal -(v_pxy1--6.86524850359716e-06)/(v_delta/v_len0)*${cfac}
variable d6 equal -(v_pxy1--6.86524850359716e-06)/(v_delta/v_len0)*0.0001

displace_atoms all random ${atomjiggle} ${atomjiggle} ${atomjiggle} 87287 units box
displace_atoms all random 1e-05 ${atomjiggle} ${atomjiggle} 87287 units box
displace_atoms all random 1e-05 1e-05 ${atomjiggle} 87287 units box
displace_atoms all random 1e-05 1e-05 1e-05 87287 units box
Displacing atoms ...

# Write restart
unfix 3
write_restart restart.equil
System init for write_restart ...

# uxx Perturbation

variable dir equal 1
include displace.mod
# NOTE: This script should not need to be
# modified. See in.elastic for more info.
#
# Find which reference length to use

if "${dir} == 1" then    "variable len0 equal ${lx0}"
variable len0 equal ${lx0}
variable len0 equal 9.71514817697943
if "${dir} == 2" then    "variable len0 equal ${ly0}"
if "${dir} == 3" then    "variable len0 equal ${lz0}"
if "${dir} == 4" then    "variable len0 equal ${lz0}"
if "${dir} == 5" then    "variable len0 equal ${lz0}"
if "${dir} == 6" then    "variable len0 equal ${ly0}"

# Reset box and simulation parameters

clear
  using 1 OpenMP thread(s) per MPI task
Loaded 1 plugins from C:\Program Files\LAMMPS 64-bit 23Jun2022\plugins
Loaded 0 plugins from C:\Program Files\LAMMPS 64-bit 23Jun2022-MPI\plugins
Loaded 1 plugins from C:\Program Files\LAMMPS 64-bit 22Dec2022-MSMPI\plugins
Loaded 1 plugins from C:\Program Files\LAMMPS 64-bit 28Mar2023-MPI\plugins
box tilt large

The 'box' command has been removed and will be ignored

read_restart restart.equil
Reading restart file ...
  restart file = 22 Dec 2022, LAMMPS = 22 Dec 2022
  restoring atom style atomic from restart
  triclinic box = (0.036065904 0.040632918 -0.19968844) to (9.7512141 12.660981 50.247074) with tilt (-7.2863611 0 0)
WARNING: Triclinic box skew is large. LAMMPS will run inefficiently. (src/domain.cpp:220)
  1 by 1 by 4 MPI processor grid
  pair style meam stores no restart info
  864 atoms
  read_restart CPU = 0.000 seconds
include potential.mod
# NOTE: This script can be modified for different pair styles
# See in.elastic for more info.

# Choose potential
#-----------------------
#pair_style	sw
#pair_coeff * * Si.sw Si
#-----------------------
#pair_style morse	2.83994742	# D0[eV] a[1/A] r0[A] rc[A], 1NN for BCC
#pair_coeff 1 1	2.1173	1.0202	2.4595	2.6497	#	Fe-Fe
#-----------------------
#pair_style smatb # R0(A)   p       q     A(eV)   xi(eV)  Rcs(A)   Rc(A), 4NN: Rcs=4NN, Rc=(4NN+5NN)/2
#pair_coeff 1 1	2.4802	7.0149	2.3779	0.3144	3.0551	4.033	4.176	#	Co	Co
#-----------------------
#pair_style eam/alloy
#pair_coeff * * AlCrFeCoNi_Zhou04.eam.alloy Fe
#-----------------------
pair_style meam
pair_coeff * * ./../../library.meam B ./../../B.meam B B
#-----------------------

# Setup neighbor style
neighbor 1.0 nsq
neigh_modify once no every 1 delay 0 check yes

# Setup minimization style
min_style	     cg
min_modify	     dmax ${dmax} line quadratic
min_modify	     dmax 0.01 line quadratic

# Setup output
thermo		1
thermo_style custom step temp pe press pxx pyy pzz pxy pxz pyz lx ly lz vol
thermo_modify norm no

# Negative deformation

variable delta equal -${up}*${len0}
variable delta equal -1e-06*${len0}
variable delta equal -1e-06*9.71514817697943
variable deltaxy equal -${up}*xy
variable deltaxy equal -1e-06*xy
variable deltaxz equal -${up}*xz
variable deltaxz equal -1e-06*xz
variable deltayz equal -${up}*yz
variable deltayz equal -1e-06*yz
if "${dir} == 1" then    "change_box all x delta 0 ${delta} xy delta ${deltaxy} xz delta ${deltaxz} remap units box"
change_box all x delta 0 ${delta} xy delta ${deltaxy} xz delta ${deltaxz} remap units box
change_box all x delta 0 -9.71514817697943e-06 xy delta ${deltaxy} xz delta ${deltaxz} remap units box
change_box all x delta 0 -9.71514817697943e-06 xy delta 7.28636113269853e-06 xz delta ${deltaxz} remap units box
change_box all x delta 0 -9.71514817697943e-06 xy delta 7.28636113269853e-06 xz delta -0 remap units box
Changing box ...
WARNING: Triclinic box skew is large. LAMMPS will run inefficiently. (src/domain.cpp:220)
  triclinic box = (0.036065904 0.040632918 -0.19968844) to (9.7512044 12.660981 50.247074) with tilt (-7.2863611 0 0)
WARNING: Triclinic box skew is large. LAMMPS will run inefficiently. (src/domain.cpp:220)
  triclinic box = (0.036065904 0.040632918 -0.19968844) to (9.7512044 12.660981 50.247074) with tilt (-7.2863538 0 0)
WARNING: Triclinic box skew is large. LAMMPS will run inefficiently. (src/domain.cpp:220)
  triclinic box = (0.036065904 0.040632918 -0.19968844) to (9.7512044 12.660981 50.247074) with tilt (-7.2863538 0 0)
if "${dir} == 2" then    "change_box all y delta 0 ${delta} yz delta ${deltayz} remap units box"
if "${dir} == 3" then    "change_box all z delta 0 ${delta} remap units box"
if "${dir} == 4" then    "change_box all yz delta ${delta} remap units box"
if "${dir} == 5" then    "change_box all xz delta ${delta} remap units box"
if "${dir} == 6" then    "change_box all xy delta ${delta} remap units box"

# Relax atoms positions

minimize ${etol} ${ftol} ${maxiter} ${maxeval}
minimize 0 ${ftol} ${maxiter} ${maxeval}
minimize 0 1e-10 ${maxiter} ${maxeval}
minimize 0 1e-10 100 ${maxeval}
minimize 0 1e-10 100 1000
Neighbor list info ...
  update: every = 1 steps, delay = 0 steps, check = yes
  max neighbors/atom: 2000, page size: 100000
  master list distance cutoff = 6
  ghost atom cutoff = 6
  2 neighbor lists, perpetual/occasional/extra = 2 0 0
  (1) pair meam, perpetual
      attributes: full, newton on
      pair build: full/nsq
      stencil: none
      bin: none
  (2) pair meam, perpetual, half/full from (1)
      attributes: half, newton on
      pair build: halffull/newton
      stencil: none
      bin: none
Per MPI rank memory allocation (min/avg/max) = 10.42 | 10.42 | 10.42 Mbytes
   Step          Temp          PotEng         Press           Pxx            Pyy            Pzz            Pxy            Pxz            Pyz             Lx             Ly             Lz           Volume    
       100   0             -5455.3037     -449.83418     -468.22224     -473.8638      -407.41651     -0.2726331     -0.260912       0.1981506      9.7151385      12.620348      50.446763      6185.1982    
       101   0             -5455.4098     -5017.2233     -7371.8194     -7376.7358     -303.1147      -0.19849566    -0.19029635     0.16804101     9.7151385      12.620348      50.446763      6185.1982    
       102   0             -5455.4169     -5250.3837     -7731.2772     -7735.7076     -284.16622     -0.16890859    -0.17759603     0.15157805     9.7151385      12.620348      50.446763      6185.1982    
       103   0             -5455.4176     -5405.3144     -7914.5258     -7918.5567     -382.86071     -0.10923802    -0.15761931     0.16594573     9.7151385      12.620348      50.446763      6185.1982    
       104   0             -5455.4176     -5403.1823     -7910.2559     -7914.0599     -385.23105     -0.045774518   -0.11631688     0.18965379     9.7151385      12.620348      50.446763      6185.1982    
       105   0             -5455.4176     -5404.9026     -7913.3438     -7917.064      -384.30009     -0.023008607   -0.090770009    0.19531397     9.7151385      12.620348      50.446763      6185.1982    
       106   0             -5455.4176     -5403.0553     -7910.8829     -7914.6045     -383.67839     -0.014651636   -0.075568828    0.19885227     9.7151385      12.620348      50.446763      6185.1982    
       107   0             -5455.4176     -5402.2392     -7909.6743     -7913.4027     -383.64071     -0.0071898391  -0.051987403    0.20129665     9.7151385      12.620348      50.446763      6185.1982    
       108   0             -5455.4176     -5402.1543     -7909.5891     -7913.319      -383.55481      0.00097751151 -0.012100122    0.20319727     9.7151385      12.620348      50.446763      6185.1982    
       109   0             -5455.4176     -5402.4293     -7909.9912     -7913.7234     -383.57328      0.0038538822   0.0068410225   0.20435751     9.7151385      12.620348      50.446763      6185.1982    
       110   0             -5455.4176     -5402.4941     -7910.0608     -7913.7864     -383.63508      0.0012453155   0.016737079    0.20370403     9.7151385      12.620348      50.446763      6185.1982    
       111   0             -5455.4176     -5402.4875     -7910.0503     -7913.7763     -383.63586      0.00073009173  0.014636472    0.20357534     9.7151385      12.620348      50.446763      6185.1982    
       112   0             -5455.4176     -5402.3827     -7909.9048     -7913.6344     -383.6087       0.00067308585  0.0076305613   0.20369224     9.7151385      12.620348      50.446763      6185.1982    
       113   0             -5455.4176     -5402.4222     -7909.961      -7913.6922     -383.61339      0.00028195592 -0.0034692907   0.20336065     9.7151385      12.620348      50.446763      6185.1982    
       114   0             -5455.4176     -5402.4312     -7909.9744     -7913.7045     -383.61464     -9.9775798e-05 -0.0047330502   0.20323282     9.7151385      12.620348      50.446763      6185.1982    
       115   0             -5455.4176     -5402.4653     -7910.0242     -7913.7507     -383.62116     -0.00084007419 -0.0036862139   0.20298628     9.7151385      12.620348      50.446763      6185.1982    
       116   0             -5455.4176     -5402.4484     -7910.0001     -7913.7251     -383.62012     -0.0010190938  -0.0016330963   0.20303245     9.7151385      12.620348      50.446763      6185.1982    
       117   0             -5455.4176     -5402.4301     -7909.9718     -7913.7005     -383.6181       2.2684489e-05 -0.00010109526  0.20342375     9.7151385      12.620348      50.446763      6185.1982    
       118   0             -5455.4176     -5402.4239     -7909.9631     -7913.6936     -383.6149       0.00060011559  0.00087181368  0.2035061      9.7151385      12.620348      50.446763      6185.1982    
       119   0             -5455.4176     -5402.4444     -7909.9932     -7913.7239     -383.61605      0.00069637245  0.0015944083   0.2034292      9.7151385      12.620348      50.446763      6185.1982    
       120   0             -5455.4176     -5402.4381     -7909.9843     -7913.712      -383.61806     -5.9701054e-05  0.0013102188   0.20322893     9.7151385      12.620348      50.446763      6185.1982    
       121   0             -5455.4176     -5402.4375     -7909.9838     -7913.71       -383.61868     -0.00047285647  0.0006358867   0.20322721     9.7151385      12.620348      50.446763      6185.1982    
       122   0             -5455.4176     -5402.4333     -7909.9781     -7913.7053     -383.61642     -0.0002868058  -0.00010286289  0.20335004     9.7151385      12.620348      50.446763      6185.1982    
       123   0             -5455.4176     -5402.4407     -7909.9875     -7913.7171     -383.61745      0.0002119255  -0.00087087362  0.20343684     9.7151385      12.620348      50.446763      6185.1982    
       124   0             -5455.4176     -5402.4373     -7909.9816     -7913.7117     -383.61852      0.00026631603 -0.0011084638   0.20330123     9.7151385      12.620348      50.446763      6185.1982    
       125   0             -5455.4176     -5402.4395     -7909.9863     -7913.7148     -383.6174      -0.0001203671  -0.0008304385   0.20314396     9.7151385      12.620348      50.446763      6185.1982    
       126   0             -5455.4176     -5402.4353     -7909.9814     -7913.7089     -383.61559     -0.00032347426 -0.00039883909  0.20319696     9.7151385      12.620348      50.446763      6185.1982    
       127   0             -5455.4176     -5402.4361     -7909.9817     -7913.7091     -383.61736     -0.00020148298  0.00040250898  0.20344589     9.7151385      12.620348      50.446763      6185.1982    
       128   0             -5455.4176     -5402.4372     -7909.9824     -7913.7109     -383.61821      0.00011009041  0.00065644259  0.20341912     9.7151385      12.620348      50.446763      6185.1982    
       129   0             -5455.4176     -5402.4423     -7909.9895     -7913.719      -383.6185       0.00033213136  0.00065230964  0.20330417     9.7151385      12.620348      50.446763      6185.1982    
       130   0             -5455.4176     -5402.4381     -7909.984      -7913.7133     -383.61698      0.00024133114  0.00042782467  0.20322986     9.7151385      12.620348      50.446763      6185.1982    
       131   0             -5455.4176     -5402.4344     -7909.9792     -7913.7073     -383.61659     -0.00011201195  2.3958098e-05  0.20331187     9.7151385      12.620348      50.446763      6185.1982    
       132   0             -5455.4176     -5402.4354     -7909.9808     -7913.7083     -383.61704     -0.00030574494 -0.00038115572  0.20338905     9.7151385      12.620348      50.446763      6185.1982    
       133   0             -5455.4176     -5402.4401     -7909.9873     -7913.7152     -383.61788     -0.00021708795 -0.00052999429  0.20336083     9.7151385      12.620348      50.446763      6185.1982    
       134   0             -5455.4176     -5402.4389     -7909.985      -7913.714      -383.6177       7.6850952e-05 -0.00046896136  0.20324712     9.7151385      12.620348      50.446763      6185.1982    
       135   0             -5455.4176     -5402.4369     -7909.982      -7913.7112     -383.61751      0.00018691624 -0.00019607207  0.20322572     9.7151385      12.620348      50.446763      6185.1982    
       136   0             -5455.4176     -5402.435      -7909.9798     -7913.7083     -383.61683      3.6770397e-05  0.00017769625  0.20333708     9.7151385      12.620348      50.446763      6185.1982    
       137   0             -5455.4176     -5402.4378     -7909.9842     -7913.7121     -383.61712     -9.4501061e-05  0.00038498883  0.20339269     9.7151385      12.620348      50.446763      6185.1982    
       138   0             -5455.4176     -5402.4388     -7909.9854     -7913.7135     -383.61762     -6.2064632e-05  0.00041606358  0.20333316     9.7151385      12.620348      50.446763      6185.1982    
       139   0             -5455.4176     -5402.4389     -7909.9851     -7913.7137     -383.61792      7.6857916e-05  0.00027034746  0.20326033     9.7151385      12.620348      50.446763      6185.1982    
       140   0             -5455.4176     -5402.4359     -7909.9808     -7913.7097     -383.61719      0.0001160308   5.359265e-05   0.20327894     9.7151385      12.620348      50.446763      6185.1982    
       141   0             -5455.4176     -5402.4369     -7909.9824     -7913.7111     -383.61713      4.6550916e-05 -0.00020738055  0.20335183     9.7151385      12.620348      50.446763      6185.1982    
       142   0             -5455.4176     -5402.4378     -7909.9839     -7913.712      -383.61736     -0.00013653371 -0.00041729226  0.2033609      9.7151385      12.620348      50.446763      6185.1982    
       143   0             -5455.4176     -5402.4391     -7909.9859     -7913.714      -383.61756     -0.00014961665 -0.00038677653  0.20328273     9.7151385      12.620348      50.446763      6185.1982    
       144   0             -5455.4176     -5402.4367     -7909.9823     -7913.7107     -383.6171      -5.4215602e-05 -0.00022859347  0.20323057     9.7151385      12.620348      50.446763      6185.1982    
       145   0             -5455.4176     -5402.4369     -7909.9823     -7913.7111     -383.61738      7.6454276e-05  2.0700021e-05  0.20328307     9.7151385      12.620348      50.446763      6185.1982    
       146   0             -5455.4176     -5402.4374     -7909.983      -7913.7117     -383.61756      8.8638195e-05  0.00021344416  0.20336548     9.7151385      12.620348      50.446763      6185.1982    
       147   0             -5455.4176     -5402.4391     -7909.9857     -7913.714      -383.61764      4.4308449e-06  0.00025360958  0.20335386     9.7151385      12.620348      50.446763      6185.1982    
       148   0             -5455.4176     -5402.4377     -7909.9839     -7913.7121     -383.61725     -4.5735393e-05  0.0002086648   0.20331981     9.7151385      12.620348      50.446763      6185.1982    
       149   0             -5455.4176     -5402.4371     -7909.9828     -7913.7112     -383.61723     -2.3652e-05     0.00010252628  0.20329702     9.7151385      12.620348      50.446763      6185.1982    
       150   0             -5455.4176     -5402.437      -7909.9826     -7913.7111     -383.6173       2.4208921e-05 -1.201281e-05   0.20330966     9.7151385      12.620348      50.446763      6185.1982    
       151   0             -5455.4176     -5402.438      -7909.984      -7913.7126     -383.6175       2.4679699e-05 -6.733317e-05   0.20332138     9.7151385      12.620348      50.446763      6185.1982    
       152   0             -5455.4176     -5402.4379     -7909.9839     -7913.7124     -383.61748     -9.1307346e-06 -9.1276936e-05  0.20331919     9.7151385      12.620348      50.446763      6185.1982    
       153   0             -5455.4176     -5402.4376     -7909.9836     -7913.7119     -383.61741     -3.7439568e-05 -7.3930505e-05  0.20330875     9.7151385      12.620348      50.446763      6185.1982    
       154   0             -5455.4176     -5402.4372     -7909.983      -7913.7114     -383.61727     -2.5330243e-05 -3.1587126e-05  0.2033063      9.7151385      12.620348      50.446763      6185.1982    
       155   0             -5455.4176     -5402.4376     -7909.9835     -7913.7119     -383.61733     -1.7693398e-06  4.9973957e-06  0.20331259     9.7151385      12.620348      50.446763      6185.1982    
       156   0             -5455.4176     -5402.4376     -7909.9835     -7913.712      -383.61739      1.6672155e-05  3.5696811e-05  0.20332068     9.7151385      12.620348      50.446763      6185.1982    
       157   0             -5455.4176     -5402.4378     -7909.9837     -7913.7122     -383.61745      9.3407713e-06  4.7420955e-05  0.20331919     9.7151385      12.620348      50.446763      6185.1982    
       158   0             -5455.4176     -5402.4375     -7909.9833     -7913.7117     -383.61736     -8.9588054e-06  3.5254783e-05  0.20331311     9.7151385      12.620348      50.446763      6185.1982    
       159   0             -5455.4176     -5402.4375     -7909.9834     -7913.7118     -383.61736     -1.7857722e-05  1.409556e-05   0.20331019     9.7151385      12.620348      50.446763      6185.1982    
       160   0             -5455.4176     -5402.4375     -7909.9834     -7913.7118     -383.61737     -1.0870794e-05 -1.4187407e-05  0.2033139      9.7151385      12.620348      50.446763      6185.1982    
       161   0             -5455.4176     -5402.4377     -7909.9836     -7913.7121     -383.61739      1.4890221e-06 -3.0203935e-05  0.20331668     9.7151385      12.620348      50.446763      6185.1982    
       162   0             -5455.4176     -5402.4375     -7909.9834     -7913.7119     -383.61736      2.8732372e-06 -3.4305995e-05  0.2033149      9.7151385      12.620348      50.446763      6185.1982    
       163   0             -5455.4176     -5402.4376     -7909.9834     -7913.7119     -383.61739     -5.4933358e-06 -2.7304069e-05  0.20331207     9.7151385      12.620348      50.446763      6185.1982    
       164   0             -5455.4176     -5402.4375     -7909.9834     -7913.7118     -383.61739     -1.8347767e-05 -5.5194646e-06  0.2033104      9.7151385      12.620348      50.446763      6185.1982    
       165   0             -5455.4176     -5402.4377     -7909.9837     -7913.7121     -383.6174      -1.176683e-05   1.3435258e-05  0.20331475     9.7151385      12.620348      50.446763      6185.1982    
       166   0             -5455.4176     -5402.4376     -7909.9835     -7913.7119     -383.61737     -1.7548789e-06  2.0425383e-05  0.20331738     9.7151385      12.620348      50.446763      6185.1982    
       167   0             -5455.4176     -5402.4375     -7909.9834     -7913.7119     -383.61737      4.2794286e-06  1.8392319e-05  0.20331668     9.7151385      12.620348      50.446763      6185.1982    
       168   0             -5455.4176     -5402.4375     -7909.9834     -7913.7118     -383.61737     -1.1968355e-06  9.4126492e-06  0.20331321     9.7151385      12.620348      50.446763      6185.1982    
       169   0             -5455.4176     -5402.4376     -7909.9835     -7913.712      -383.61739     -6.4115805e-06  2.5708167e-06  0.20331299     9.7151385      12.620348      50.446763      6185.1982    
       170   0             -5455.4176     -5402.4376     -7909.9835     -7913.7119     -383.61739     -8.685858e-06  -2.9580027e-06  0.20331428     9.7151385      12.620348      50.446763      6185.1982    
       171   0             -5455.4176     -5402.4376     -7909.9835     -7913.7119     -383.61738     -7.0350915e-06 -6.5777038e-06  0.20331507     9.7151385      12.620348      50.446763      6185.1982    
       172   0             -5455.4176     -5402.4376     -7909.9834     -7913.7119     -383.61737     -4.6859989e-06 -6.289808e-06   0.20331415     9.7151385      12.620348      50.446763      6185.1982    
       173   0             -5455.4176     -5402.4376     -7909.9835     -7913.7119     -383.61738     -4.4580195e-06 -4.7073318e-06  0.20331374     9.7151385      12.620348      50.446763      6185.1982    
       174   0             -5455.4176     -5402.4376     -7909.9835     -7913.7119     -383.61738     -5.3683395e-06 -2.269937e-06   0.20331379     9.7151385      12.620348      50.446763      6185.1982    
       175   0             -5455.4176     -5402.4376     -7909.9835     -7913.7119     -383.61738     -6.0862042e-06  2.5945571e-07  0.20331434     9.7151385      12.620348      50.446763      6185.1982    
       176   0             -5455.4176     -5402.4376     -7909.9835     -7913.7119     -383.61738     -5.6353616e-06  1.0821434e-06  0.20331447     9.7151385      12.620348      50.446763      6185.1982    
       177   0             -5455.4176     -5402.4376     -7909.9835     -7913.7119     -383.61738     -5.0699909e-06  1.0446637e-06  0.20331437     9.7151385      12.620348      50.446763      6185.1982    
       178   0             -5455.4176     -5402.4376     -7909.9835     -7913.7119     -383.61738     -4.7995051e-06  4.7030357e-07  0.20331418     9.7151385      12.620348      50.446763      6185.1982    
       179   0             -5455.4176     -5402.4376     -7909.9835     -7913.7119     -383.61738     -5.1839773e-06 -1.761374e-07   0.20331417     9.7151385      12.620348      50.446763      6185.1982    
       180   0             -5455.4176     -5402.4376     -7909.9835     -7913.7119     -383.61738     -5.4529309e-06 -6.2313474e-07  0.20331423     9.7151385      12.620348      50.446763      6185.1982    
       181   0             -5455.4176     -5402.4376     -7909.9835     -7913.7119     -383.61738     -5.5234506e-06 -8.9803036e-07  0.20331425     9.7151385      12.620348      50.446763      6185.1982    
       182   0             -5455.4176     -5402.4376     -7909.9835     -7913.7119     -383.61738     -5.3868124e-06 -9.3872782e-07  0.20331421     9.7151385      12.620348      50.446763      6185.1982    
       183   0             -5455.4176     -5402.4376     -7909.9835     -7913.7119     -383.61738     -5.300744e-06  -8.3089918e-07  0.20331419     9.7151385      12.620348      50.446763      6185.1982    
       184   0             -5455.4176     -5402.4376     -7909.9835     -7913.7119     -383.61738     -5.2879156e-06 -7.1151094e-07  0.20331419     9.7151385      12.620348      50.446763      6185.1982    
       185   0             -5455.4176     -5402.4376     -7909.9835     -7913.7119     -383.61738     -5.3197337e-06 -5.9434372e-07  0.20331422     9.7151385      12.620348      50.446763      6185.1982    
       186   0             -5455.4176     -5402.4376     -7909.9835     -7913.7119     -383.61738     -5.3439809e-06 -5.1989482e-07  0.20331423     9.7151385      12.620348      50.446763      6185.1982    
       187   0             -5455.4176     -5402.4376     -7909.9835     -7913.7119     -383.61738     -5.3337061e-06 -5.0678289e-07  0.20331422     9.7151385      12.620348      50.446763      6185.1982    
       188   0             -5455.4176     -5402.4376     -7909.9835     -7913.7119     -383.61738     -5.3144632e-06 -5.1983775e-07  0.20331422     9.7151385      12.620348      50.446763      6185.1982    
       189   0             -5455.4176     -5402.4376     -7909.9835     -7913.7119     -383.61738     -5.307344e-06  -5.5201941e-07  0.20331421     9.7151385      12.620348      50.446763      6185.1982    
       190   0             -5455.4176     -5402.4376     -7909.9835     -7913.7119     -383.61738     -5.3183346e-06 -5.7666703e-07  0.20331422     9.7151385      12.620348      50.446763      6185.1982    
       191   0             -5455.4176     -5402.4376     -7909.9835     -7913.7119     -383.61738     -5.3284627e-06 -5.9199266e-07  0.20331422     9.7151385      12.620348      50.446763      6185.1982    
       192   0             -5455.4176     -5402.4376     -7909.9835     -7913.7119     -383.61738     -5.3321628e-06 -5.9963663e-07  0.20331422     9.7151385      12.620348      50.446763      6185.1982    
       193   0             -5455.4176     -5402.4376     -7909.9835     -7913.7119     -383.61738     -5.3270685e-06 -5.9615924e-07  0.20331421     9.7151385      12.620348      50.446763      6185.1982    
Loop time of 1.03246 on 4 procs for 93 steps with 864 atoms

74.2% CPU use with 4 MPI tasks x 1 OpenMP threads

Minimization stats:
  Stopping criterion = force tolerance
  Energy initial, next-to-last, final = 
     -5455.30368430687  -5455.41760236703  -5455.41760236702
  Force two-norm initial, final = 3.3399343 9.3041248e-11
  Force max component initial, final = 0.12581188 7.7400308e-12
  Final line search alpha, max atom move = 1 7.7400308e-12
  Iterations, force evaluations = 93 186

MPI task timing breakdown:
Section |  min time  |  avg time  |  max time  |%varavg| %total
---------------------------------------------------------------
Pair    | 1.0145     | 1.0163     | 1.0181     |   0.1 | 98.43
Neigh   | 0          | 0          | 0          |   0.0 |  0.00
Comm    | 0.01082    | 0.0128     | 0.014631   |   1.3 |  1.24
Output  | 0.001257   | 0.0013205  | 0.00149    |   0.3 |  0.13
Modify  | 0          | 0          | 0          |   0.0 |  0.00
Other   |            | 0.002056   |            |       |  0.20

Nlocal:            216 ave         216 max         216 min
Histogram: 4 0 0 0 0 0 0 0 0 0
Nghost:           1732 ave        1732 max        1732 min
Histogram: 4 0 0 0 0 0 0 0 0 0
Neighs:          14148 ave       14148 max       14148 min
Histogram: 4 0 0 0 0 0 0 0 0 0
FullNghs:        28296 ave       28296 max       28296 min
Histogram: 4 0 0 0 0 0 0 0 0 0

Total # of neighbors = 113184
Ave neighs/atom = 131
Neighbor list builds = 0
Dangerous builds = 0

# Obtain new stress tensor

variable tmp equal pxx
variable pxx1 equal ${tmp}
variable pxx1 equal -7909.98346041049
variable tmp equal pyy
variable pyy1 equal ${tmp}
variable pyy1 equal -7913.71191101136
variable tmp equal pzz
variable pzz1 equal ${tmp}
variable pzz1 equal -383.617379859838
variable tmp equal pxy
variable pxy1 equal ${tmp}
variable pxy1 equal -5.32706850121649e-06
variable tmp equal pxz
variable pxz1 equal ${tmp}
variable pxz1 equal -5.96159235115132e-07
variable tmp equal pyz
variable pyz1 equal ${tmp}
variable pyz1 equal 0.203314214457977

# Compute elastic constant from pressure tensor

variable C1neg equal ${d1}
variable C1neg equal -743449.667124088
variable C2neg equal ${d2}
variable C2neg equal -743822.512295114
variable C3neg equal ${d3}
variable C3neg equal 2439.72817054459
variable C4neg equal ${d4}
variable C4neg equal 20.3313678786268
variable C5neg equal ${d5}
variable C5neg equal -1.70981477124445e-05
variable C6neg equal ${d6}
variable C6neg equal 0.000153818000238067

# Reset box and simulation parameters

clear
  using 1 OpenMP thread(s) per MPI task
Loaded 1 plugins from C:\Program Files\LAMMPS 64-bit 23Jun2022\plugins
Loaded 0 plugins from C:\Program Files\LAMMPS 64-bit 23Jun2022-MPI\plugins
Loaded 1 plugins from C:\Program Files\LAMMPS 64-bit 22Dec2022-MSMPI\plugins
Loaded 1 plugins from C:\Program Files\LAMMPS 64-bit 28Mar2023-MPI\plugins
box tilt large

The 'box' command has been removed and will be ignored

read_restart restart.equil
Reading restart file ...
  restart file = 22 Dec 2022, LAMMPS = 22 Dec 2022
  restoring atom style atomic from restart
  triclinic box = (0.036065904 0.040632918 -0.19968844) to (9.7512141 12.660981 50.247074) with tilt (-7.2863611 0 0)
WARNING: Triclinic box skew is large. LAMMPS will run inefficiently. (src/domain.cpp:220)
  1 by 1 by 4 MPI processor grid
  pair style meam stores no restart info
  864 atoms
  read_restart CPU = 0.000 seconds
include potential.mod
# NOTE: This script can be modified for different pair styles
# See in.elastic for more info.

# Choose potential
#-----------------------
#pair_style	sw
#pair_coeff * * Si.sw Si
#-----------------------
#pair_style morse	2.83994742	# D0[eV] a[1/A] r0[A] rc[A], 1NN for BCC
#pair_coeff 1 1	2.1173	1.0202	2.4595	2.6497	#	Fe-Fe
#-----------------------
#pair_style smatb # R0(A)   p       q     A(eV)   xi(eV)  Rcs(A)   Rc(A), 4NN: Rcs=4NN, Rc=(4NN+5NN)/2
#pair_coeff 1 1	2.4802	7.0149	2.3779	0.3144	3.0551	4.033	4.176	#	Co	Co
#-----------------------
#pair_style eam/alloy
#pair_coeff * * AlCrFeCoNi_Zhou04.eam.alloy Fe
#-----------------------
pair_style meam
pair_coeff * * ./../../library.meam B ./../../B.meam B B
#-----------------------

# Setup neighbor style
neighbor 1.0 nsq
neigh_modify once no every 1 delay 0 check yes

# Setup minimization style
min_style	     cg
min_modify	     dmax ${dmax} line quadratic
min_modify	     dmax 0.01 line quadratic

# Setup output
thermo		1
thermo_style custom step temp pe press pxx pyy pzz pxy pxz pyz lx ly lz vol
thermo_modify norm no

# Positive deformation

variable delta equal ${up}*${len0}
variable delta equal 1e-06*${len0}
variable delta equal 1e-06*9.71514817697943
variable deltaxy equal ${up}*xy
variable deltaxy equal 1e-06*xy
variable deltaxz equal ${up}*xz
variable deltaxz equal 1e-06*xz
variable deltayz equal ${up}*yz
variable deltayz equal 1e-06*yz
if "${dir} == 1" then    "change_box all x delta 0 ${delta} xy delta ${deltaxy} xz delta ${deltaxz} remap units box"
change_box all x delta 0 ${delta} xy delta ${deltaxy} xz delta ${deltaxz} remap units box
change_box all x delta 0 9.71514817697943e-06 xy delta ${deltaxy} xz delta ${deltaxz} remap units box
change_box all x delta 0 9.71514817697943e-06 xy delta -7.28636113269853e-06 xz delta ${deltaxz} remap units box
change_box all x delta 0 9.71514817697943e-06 xy delta -7.28636113269853e-06 xz delta 0 remap units box
Changing box ...
WARNING: Triclinic box skew is large. LAMMPS will run inefficiently. (src/domain.cpp:220)
  triclinic box = (0.036065904 0.040632918 -0.19968844) to (9.7512238 12.660981 50.247074) with tilt (-7.2863611 0 0)
WARNING: Triclinic box skew is large. LAMMPS will run inefficiently. (src/domain.cpp:220)
  triclinic box = (0.036065904 0.040632918 -0.19968844) to (9.7512238 12.660981 50.247074) with tilt (-7.2863684 0 0)
WARNING: Triclinic box skew is large. LAMMPS will run inefficiently. (src/domain.cpp:220)
  triclinic box = (0.036065904 0.040632918 -0.19968844) to (9.7512238 12.660981 50.247074) with tilt (-7.2863684 0 0)
if "${dir} == 2" then    "change_box all y delta 0 ${delta} yz delta ${deltayz} remap units box"
if "${dir} == 3" then    "change_box all z delta 0 ${delta} remap units box"
if "${dir} == 4" then    "change_box all yz delta ${delta} remap units box"
if "${dir} == 5" then    "change_box all xz delta ${delta} remap units box"
if "${dir} == 6" then    "change_box all xy delta ${delta} remap units box"

# Relax atoms positions

minimize ${etol} ${ftol} ${maxiter} ${maxeval}
minimize 0 ${ftol} ${maxiter} ${maxeval}
minimize 0 1e-10 ${maxiter} ${maxeval}
minimize 0 1e-10 100 ${maxeval}
minimize 0 1e-10 100 1000
Neighbor list info ...
  update: every = 1 steps, delay = 0 steps, check = yes
  max neighbors/atom: 2000, page size: 100000
  master list distance cutoff = 6
  ghost atom cutoff = 6
  2 neighbor lists, perpetual/occasional/extra = 2 0 0
  (1) pair meam, perpetual
      attributes: full, newton on
      pair build: full/nsq
      stencil: none
      bin: none
  (2) pair meam, perpetual, half/full from (1)
      attributes: half, newton on
      pair build: halffull/newton
      stencil: none
      bin: none
Per MPI rank memory allocation (min/avg/max) = 10.42 | 10.42 | 10.42 Mbytes
   Step          Temp          PotEng         Press           Pxx            Pyy            Pzz            Pxy            Pxz            Pyz             Lx             Ly             Lz           Volume    
       100   0             -5455.3037     -455.44177     -480.85531     -476.76842     -408.70157     -0.27262879    -0.26091187    -0.094083734    9.7151579      12.620348      50.446763      6185.2105    
       101   0             -5455.4097     -5021.6419     -7382.1408     -7378.418      -304.36682     -0.19849372    -0.19029316    -0.1829384      9.7151579      12.620348      50.446763      6185.2105    
       102   0             -5455.4169     -5254.6864     -7741.2385     -7737.4069     -285.41391     -0.168908      -0.17759463    -0.23419788     9.7151579      12.620348      50.446763      6185.2105    
       103   0             -5455.4175     -5409.5874     -7924.2449     -7920.4409     -384.07641     -0.10923788    -0.15761773    -0.24790605     9.7151579      12.620348      50.446763      6185.2105    
       104   0             -5455.4175     -5407.4534     -7919.8294     -7916.0888     -386.44195     -0.045811131   -0.11633933    -0.23794044     9.7151579      12.620348      50.446763      6185.2105    
       105   0             -5455.4175     -5409.1691     -7922.8738     -7919.1225     -385.51095     -0.023014636   -0.09077294    -0.23458172     9.7151579      12.620348      50.446763      6185.2105    
       106   0             -5455.4175     -5407.3239     -7920.4098     -7916.6714     -384.89058     -0.014657423   -0.075576725   -0.22785667     9.7151579      12.620348      50.446763      6185.2105    
       107   0             -5455.4175     -5406.5085     -7919.2022     -7915.4702     -384.8532      -0.0071873732  -0.0519781     -0.2193207      9.7151579      12.620348      50.446763      6185.2105    
       108   0             -5455.4175     -5406.4245     -7919.1184     -7915.3879     -384.76726      0.0010046774  -0.011986407   -0.20708912     9.7151579      12.620348      50.446763      6185.2105    
       109   0             -5455.4175     -5406.6991     -7919.5183     -7915.7932     -384.78581      0.0038716747   0.0069120722  -0.20070256     9.7151579      12.620348      50.446763      6185.2105    
       110   0             -5455.4175     -5406.7637     -7919.5855     -7915.858      -384.84768      0.0012429053   0.016731657   -0.19841095     9.7151579      12.620348      50.446763      6185.2105    
       111   0             -5455.4175     -5406.7573     -7919.5761     -7915.8475     -384.8484       0.00072353761  0.014617123   -0.19903912     9.7151579      12.620348      50.446763      6185.2105    
       112   0             -5455.4175     -5406.6527     -7919.4324     -7915.7046     -384.82119      0.00066657444  0.007608843   -0.20071267     9.7151579      12.620348      50.446763      6185.2105    
       113   0             -5455.4175     -5406.6919     -7919.489      -7915.7606     -384.82596      0.00028148105 -0.0034735813  -0.20415648     9.7151579      12.620348      50.446763      6185.2105    
       114   0             -5455.4175     -5406.701      -7919.502      -7915.7738     -384.82719     -9.9330089e-05 -0.0047281609  -0.20466542     9.7151579      12.620348      50.446763      6185.2105    
       115   0             -5455.4175     -5406.7353     -7919.5507     -7915.8216     -384.83365     -0.00084087314 -0.0036775468  -0.20471841     9.7151579      12.620348      50.446763      6185.2105    
       116   0             -5455.4175     -5406.7183     -7919.5258     -7915.7966     -384.83262     -0.0010183382  -0.0016271485  -0.20412158     9.7151579      12.620348      50.446763      6185.2105    
       117   0             -5455.4175     -5406.6999     -7919.4986     -7915.7703     -384.83068      1.9968524e-05 -0.00010341958 -0.20320903     9.7151579      12.620348      50.446763      6185.2105    
       118   0             -5455.4175     -5406.6936     -7919.4908     -7915.7627     -384.82743      0.00060229019  0.00087248975 -0.20282988     9.7151579      12.620348      50.446763      6185.2105    
       119   0             -5455.4175     -5406.7142     -7919.5209     -7915.7931     -384.82852      0.00070068974  0.0015930908  -0.20271652     9.7151579      12.620348      50.446763      6185.2105    
       120   0             -5455.4175     -5406.708      -7919.5109     -7915.7824     -384.83062     -6.0545097e-05  0.0013093108  -0.20306884     9.7151579      12.620348      50.446763      6185.2105    
       121   0             -5455.4175     -5406.7074     -7919.5098     -7915.781      -384.83124     -0.00047679508  0.00063200392 -0.20327419     9.7151579      12.620348      50.446763      6185.2105    
       122   0             -5455.4175     -5406.7031     -7919.5045     -7915.7759     -384.82895     -0.00029208987 -0.00010501429 -0.2033203      9.7151579      12.620348      50.446763      6185.2105    
       123   0             -5455.4175     -5406.7105     -7919.5149     -7915.7866     -384.82996      0.00021196224 -0.00086821134 -0.20339595     9.7151579      12.620348      50.446763      6185.2105    
       124   0             -5455.4175     -5406.7071     -7919.5092     -7915.7811     -384.83104      0.00027480807 -0.0011069994  -0.2035999      9.7151579      12.620348      50.446763      6185.2105    
       125   0             -5455.4175     -5406.7093     -7919.5133     -7915.7847     -384.82993     -0.00011919386 -0.00082758472 -0.20372476     9.7151579      12.620348      50.446763      6185.2105    
       126   0             -5455.4175     -5406.7051     -7919.5079     -7915.7793     -384.82813     -0.00032587055 -0.00039910987 -0.20355911     9.7151579      12.620348      50.446763      6185.2105    
       127   0             -5455.4175     -5406.7059     -7919.5082     -7915.7796     -384.8299      -0.00020573307  0.00040320523 -0.20306461     9.7151579      12.620348      50.446763      6185.2105    
       128   0             -5455.4175     -5406.707      -7919.5094     -7915.781      -384.83072      0.00010937196  0.00065525418 -0.20302105     9.7151579      12.620348      50.446763      6185.2105    
       129   0             -5455.4175     -5406.7121     -7919.5168     -7915.7887     -384.83102      0.00033659294  0.00065019296 -0.20314409     9.7151579      12.620348      50.446763      6185.2105    
       130   0             -5455.4175     -5406.7079     -7919.5112     -7915.783      -384.82951      0.00024578758  0.00042658537 -0.20328856     9.7151579      12.620348      50.446763      6185.2105    
       131   0             -5455.4175     -5406.7042     -7919.506      -7915.7774     -384.82911     -0.00011449247  2.3184172e-05 -0.20330766     9.7151579      12.620348      50.446763      6185.2105    
       132   0             -5455.4175     -5406.7052     -7919.5074     -7915.7787     -384.82956     -0.0003117394  -0.00038157641 -0.20333326     9.7151579      12.620348      50.446763      6185.2105    
       133   0             -5455.4175     -5406.7099     -7919.514      -7915.7854     -384.83041     -0.0002203829  -0.00052937826 -0.20340449     9.7151579      12.620348      50.446763      6185.2105    
       134   0             -5455.4175     -5406.7087     -7919.5121     -7915.7838     -384.83023      8.0648431e-05 -0.00046729235 -0.20351349     9.7151579      12.620348      50.446763      6185.2105    
       135   0             -5455.4175     -5406.7067     -7919.5092     -7915.781      -384.83003      0.00019392436 -0.00019394225 -0.2034637      9.7151579      12.620348      50.446763      6185.2105    
       136   0             -5455.4175     -5406.7048     -7919.5067     -7915.7784     -384.82935      3.7403121e-05  0.00017749546 -0.20323688     9.7151579      12.620348      50.446763      6185.2105    
       137   0             -5455.4175     -5406.7076     -7919.5109     -7915.7824     -384.82965     -9.9241448e-05  0.00038416604 -0.20312029     9.7151579      12.620348      50.446763      6185.2105    
       138   0             -5455.4175     -5406.7086     -7919.5121     -7915.7836     -384.83015     -6.6018833e-05  0.00041490124 -0.20318075     9.7151579      12.620348      50.446763      6185.2105    
       139   0             -5455.4175     -5406.7087     -7919.5121     -7915.7837     -384.83044      7.8211938e-05  0.00026944702 -0.20330159     9.7151579      12.620348      50.446763      6185.2105    
       140   0             -5455.4175     -5406.7057     -7919.5079     -7915.7796     -384.82971      0.00012018939  5.2438463e-05 -0.20333793     9.7151579      12.620348      50.446763      6185.2105    
       141   0             -5455.4175     -5406.7067     -7919.5094     -7915.781      -384.82966      4.9624233e-05 -0.00020732198 -0.20332346     9.7151579      12.620348      50.446763      6185.2105    
       142   0             -5455.4175     -5406.7076     -7919.5107     -7915.7822     -384.82989     -0.00013933012 -0.00041604251 -0.2033721      9.7151579      12.620348      50.446763      6185.2105    
       143   0             -5455.4175     -5406.709      -7919.5127     -7915.7841     -384.83008     -0.0001532633  -0.00038528995 -0.20345342     9.7151579      12.620348      50.446763      6185.2105    
       144   0             -5455.4175     -5406.7065     -7919.5092     -7915.7807     -384.82963     -5.5080671e-05 -0.00022761379 -0.20346905     9.7151579      12.620348      50.446763      6185.2105    
       145   0             -5455.4175     -5406.7067     -7919.5093     -7915.781      -384.82991      7.9718754e-05  2.1178759e-05 -0.20333976     9.7151579      12.620348      50.446763      6185.2105    
       146   0             -5455.4175     -5406.7072     -7919.5099     -7915.7816     -384.83009      9.1291175e-05  0.00021300269 -0.20319422     9.7151579      12.620348      50.446763      6185.2105    
       147   0             -5455.4175     -5406.709      -7919.5126     -7915.7841     -384.83017      3.3874164e-06  0.00025268112 -0.20320076     9.7151579      12.620348      50.446763      6185.2105    
       148   0             -5455.4175     -5406.7075     -7919.5107     -7915.7822     -384.82977     -4.8809611e-05  0.00020757138 -0.203253       9.7151579      12.620348      50.446763      6185.2105    
       149   0             -5455.4175     -5406.7069     -7919.5097     -7915.7812     -384.82976     -2.5189141e-05  0.00010211296 -0.20330615     9.7151579      12.620348      50.446763      6185.2105    
       150   0             -5455.4175     -5406.7068     -7919.5095     -7915.7811     -384.82982      2.579275e-05  -1.215874e-05  -0.20331957     9.7151579      12.620348      50.446763      6185.2105    
       151   0             -5455.4175     -5406.7078     -7919.511      -7915.7826     -384.83002      2.6549757e-05 -6.7305692e-05 -0.20332017     9.7151579      12.620348      50.446763      6185.2105    
       152   0             -5455.4175     -5406.7077     -7919.5108     -7915.7824     -384.83        -8.698014e-06  -9.1003075e-05 -0.2033305      9.7151579      12.620348      50.446763      6185.2105    
       153   0             -5455.4175     -5406.7074     -7919.5104     -7915.782      -384.82994     -3.8636744e-05 -7.3523024e-05 -0.20333921     9.7151579      12.620348      50.446763      6185.2105    
       154   0             -5455.4175     -5406.707      -7919.5099     -7915.7814     -384.8298      -2.6177941e-05 -3.1315783e-05 -0.20333069     9.7151579      12.620348      50.446763      6185.2105    
       155   0             -5455.4175     -5406.7074     -7919.5104     -7915.7819     -384.82986     -1.6088118e-06  5.0688146e-06 -0.20331293     9.7151579      12.620348      50.446763      6185.2105    
       156   0             -5455.4175     -5406.7075     -7919.5104     -7915.782      -384.82992      1.7604409e-05  3.5582894e-05 -0.2032947      9.7151579      12.620348      50.446763      6185.2105    
       157   0             -5455.4175     -5406.7076     -7919.5106     -7915.7822     -384.82997      9.8548527e-06  4.7227519e-05 -0.20329346     9.7151579      12.620348      50.446763      6185.2105    
       158   0             -5455.4175     -5406.7073     -7919.5102     -7915.7818     -384.82989     -9.4232737e-06  3.5067389e-05 -0.2033043      9.7151579      12.620348      50.446763      6185.2105    
       159   0             -5455.4175     -5406.7073     -7919.5103     -7915.7819     -384.82989     -1.8694057e-05  1.3951447e-05 -0.20331381     9.7151579      12.620348      50.446763      6185.2105    
       160   0             -5455.4175     -5406.7074     -7919.5103     -7915.7819     -384.8299      -1.1152161e-05 -1.4142549e-05 -0.20331679     9.7151579      12.620348      50.446763      6185.2105    
       161   0             -5455.4175     -5406.7075     -7919.5106     -7915.7821     -384.82992      2.1456801e-06 -3.0114042e-05 -0.20331725     9.7151579      12.620348      50.446763      6185.2105    
       162   0             -5455.4175     -5406.7074     -7919.5103     -7915.7819     -384.82989      3.6729958e-06 -3.4171758e-05 -0.20332023     9.7151579      12.620348      50.446763      6185.2105    
       163   0             -5455.4175     -5406.7074     -7919.5103     -7915.7819     -384.82991     -5.286831e-06  -2.7172399e-05 -0.20332183     9.7151579      12.620348      50.446763      6185.2105    
       164   0             -5455.4175     -5406.7073     -7919.5103     -7915.7818     -384.82992     -1.9138023e-05 -5.3911714e-06 -0.20331853     9.7151579      12.620348      50.446763      6185.2105    
       165   0             -5455.4175     -5406.7075     -7919.5106     -7915.7821     -384.82992     -1.2331024e-05  1.3418937e-05 -0.20330839     9.7151579      12.620348      50.446763      6185.2105    
       166   0             -5455.4175     -5406.7074     -7919.5104     -7915.782      -384.82989     -1.7088594e-06  2.0314127e-05 -0.20330328     9.7151579      12.620348      50.446763      6185.2105    
       167   0             -5455.4175     -5406.7074     -7919.5103     -7915.7819     -384.8299       4.7670537e-06  1.8278142e-05 -0.20330442     9.7151579      12.620348      50.446763      6185.2105    
       168   0             -5455.4175     -5406.7073     -7919.5103     -7915.7819     -384.8299      -9.919384e-07   9.3470258e-06 -0.2033109      9.7151579      12.620348      50.446763      6185.2105    
       169   0             -5455.4175     -5406.7074     -7919.5104     -7915.782      -384.82991     -6.5054349e-06  2.5442228e-06 -0.20331311     9.7151579      12.620348      50.446763      6185.2105    
       170   0             -5455.4175     -5406.7074     -7919.5104     -7915.782      -384.82991     -8.9158429e-06 -2.9614492e-06 -0.20331312     9.7151579      12.620348      50.446763      6185.2105    
       171   0             -5455.4175     -5406.7074     -7919.5104     -7915.7819     -384.82991     -7.1184485e-06 -6.545555e-06  -0.20331311     9.7151579      12.620348      50.446763      6185.2105    
       172   0             -5455.4175     -5406.7074     -7919.5103     -7915.7819     -384.8299      -4.5776628e-06 -6.2576731e-06 -0.20331404     9.7151579      12.620348      50.446763      6185.2105    
[...]
       156   0             -5455.4176     -5404.5726     -7914.747      -7914.747      -384.22366     -1.8642147     -0.20327247     1.1823951e-05  9.7151482      12.620348      50.446763      6185.2043    
       157   0             -5455.4176     -5404.5727     -7914.7471     -7914.7472     -384.22371     -1.8642163     -0.20325959     1.1682487e-05  9.7151482      12.620348      50.446763      6185.2043    
       158   0             -5455.4176     -5404.5724     -7914.7468     -7914.7467     -384.22363     -1.8642213     -0.20327402     3.2555366e-06  9.7151482      12.620348      50.446763      6185.2043    
       159   0             -5455.4176     -5404.5724     -7914.7469     -7914.7468     -384.22363     -1.8642257     -0.20329822    -2.9204228e-06  9.7151482      12.620348      50.446763      6185.2043    
       160   0             -5455.4176     -5404.5725     -7914.7469     -7914.7469     -384.22363     -1.864226      -0.20332934    -2.5098276e-06  9.7151482      12.620348      50.446763      6185.2043    
       161   0             -5455.4176     -5404.5726     -7914.7471     -7914.7471     -384.22366     -1.864225      -0.20334669    -1.3176241e-06  9.7151482      12.620348      50.446763      6185.2043    
       162   0             -5455.4176     -5404.5725     -7914.7468     -7914.7469     -384.22363     -1.864226      -0.20335133    -3.6919026e-06  9.7151482      12.620348      50.446763      6185.2043    
       163   0             -5455.4176     -5404.5725     -7914.7469     -7914.7469     -384.22365     -1.8642271     -0.20334382    -5.9188577e-06  9.7151482      12.620348      50.446763      6185.2043    
       164   0             -5455.4176     -5404.5724     -7914.7469     -7914.7468     -384.22366     -1.8642281     -0.20331983    -5.1518543e-06  9.7151482      12.620348      50.446763      6185.2043    
       165   0             -5455.4176     -5404.5726     -7914.7471     -7914.7471     -384.22366     -1.8642242     -0.20329832     2.0660689e-06  9.7151482      12.620348      50.446763      6185.2043    
       166   0             -5455.4176     -5404.5725     -7914.7469     -7914.747      -384.22363     -1.8642207     -0.20329026     5.920233e-06   9.7151482      12.620348      50.446763      6185.2043    
       167   0             -5455.4176     -5404.5725     -7914.7469     -7914.7469     -384.22364     -1.8642192     -0.20329252     5.0019748e-06  9.7151482      12.620348      50.446763      6185.2043    
       168   0             -5455.4176     -5404.5724     -7914.7468     -7914.7468     -384.22364     -1.8642218     -0.20330283     4.7440247e-08  9.7151482      12.620348      50.446763      6185.2043    
       169   0             -5455.4176     -5404.5725     -7914.747      -7914.747      -384.22365     -1.8642241     -0.20331054    -1.1561222e-06  9.7151482      12.620348      50.446763      6185.2043    
       170   0             -5455.4176     -5404.5725     -7914.747      -7914.747      -384.22365     -1.8642252     -0.20331662    -5.0683494e-07  9.7151482      12.620348      50.446763      6185.2043    
       171   0             -5455.4176     -5404.5725     -7914.7469     -7914.7469     -384.22365     -1.8642251     -0.20332055    -1.0026325e-07  9.7151482      12.620348      50.446763      6185.2043    
       172   0             -5455.4176     -5404.5725     -7914.7469     -7914.7469     -384.22364     -1.8642244     -0.20332028    -1.0228853e-06  9.7151482      12.620348      50.446763      6185.2043    
       173   0             -5455.4176     -5404.5725     -7914.7469     -7914.7469     -384.22364     -1.8642241     -0.20331855    -1.2523155e-06  9.7151482      12.620348      50.446763      6185.2043    
       174   0             -5455.4176     -5404.5725     -7914.7469     -7914.7469     -384.22365     -1.8642241     -0.20331585    -9.0610298e-07  9.7151482      12.620348      50.446763      6185.2043    
       175   0             -5455.4176     -5404.5725     -7914.7469     -7914.7469     -384.22365     -1.8642241     -0.20331299     4.6361339e-09  9.7151482      12.620348      50.446763      6185.2043    
       176   0             -5455.4176     -5404.5725     -7914.7469     -7914.7469     -384.22364     -1.8642239     -0.20331206     2.5703331e-07  9.7151482      12.620348      50.446763      6185.2043    
       177   0             -5455.4176     -5404.5725     -7914.7469     -7914.7469     -384.22364     -1.8642238     -0.20331211     1.5365064e-07  9.7151482      12.620348      50.446763      6185.2043    
       178   0             -5455.4176     -5404.5725     -7914.7469     -7914.7469     -384.22365     -1.8642237     -0.20331276    -1.2094889e-07  9.7151482      12.620348      50.446763      6185.2043    
       179   0             -5455.4176     -5404.5725     -7914.7469     -7914.7469     -384.22365     -1.8642239     -0.20331349    -2.2337676e-07  9.7151482      12.620348      50.446763      6185.2043    
       180   0             -5455.4176     -5404.5725     -7914.7469     -7914.7469     -384.22365     -1.864224      -0.20331398    -2.1564905e-07  9.7151482      12.620348      50.446763      6185.2043    
       181   0             -5455.4176     -5404.5725     -7914.7469     -7914.7469     -384.22365     -1.8642241     -0.20331428    -2.2977873e-07  9.7151482      12.620348      50.446763      6185.2043    
       182   0             -5455.4176     -5404.5725     -7914.7469     -7914.7469     -384.22365     -1.864224      -0.20331433    -2.7629597e-07  9.7151482      12.620348      50.446763      6185.2043    
       183   0             -5455.4176     -5404.5725     -7914.7469     -7914.7469     -384.22365     -1.864224      -0.20331421    -2.8368488e-07  9.7151482      12.620348      50.446763      6185.2043    
       184   0             -5455.4176     -5404.5725     -7914.7469     -7914.7469     -384.22365     -1.864224      -0.20331408    -2.6324259e-07  9.7151482      12.620348      50.446763      6185.2043    
       185   0             -5455.4176     -5404.5725     -7914.7469     -7914.7469     -384.22365     -1.864224      -0.20331395    -2.2327879e-07  9.7151482      12.620348      50.446763      6185.2043    
       186   0             -5455.4176     -5404.5725     -7914.7469     -7914.7469     -384.22365     -1.864224      -0.20331386    -2.0590709e-07  9.7151482      12.620348      50.446763      6185.2043    
       187   0             -5455.4176     -5404.5725     -7914.7469     -7914.7469     -384.22365     -1.864224      -0.20331385    -2.0858588e-07  9.7151482      12.620348      50.446763      6185.2043    
       188   0             -5455.4176     -5404.5725     -7914.7469     -7914.7469     -384.22365     -1.864224      -0.20331386    -2.1629338e-07  9.7151482      12.620348      50.446763      6185.2043    
       189   0             -5455.4176     -5404.5725     -7914.7469     -7914.7469     -384.22365     -1.864224      -0.2033139     -2.2237607e-07  9.7151482      12.620348      50.446763      6185.2043    
       190   0             -5455.4176     -5404.5725     -7914.7469     -7914.7469     -384.22365     -1.864224      -0.20331393    -2.2300231e-07  9.7151482      12.620348      50.446763      6185.2043    
       191   0             -5455.4176     -5404.5725     -7914.7469     -7914.7469     -384.22365     -1.864224      -0.20331394    -2.2433745e-07  9.7151482      12.620348      50.446763      6185.2043    
       192   0             -5455.4176     -5404.5725     -7914.7469     -7914.7469     -384.22365     -1.864224      -0.20331395    -2.263153e-07   9.7151482      12.620348      50.446763      6185.2043    
       193   0             -5455.4176     -5404.5725     -7914.7469     -7914.7469     -384.22365     -1.864224      -0.20331395    -2.2783095e-07  9.7151482      12.620348      50.446763      6185.2043    
Loop time of 1.01152 on 4 procs for 93 steps with 864 atoms

83.8% CPU use with 4 MPI tasks x 1 OpenMP threads

Minimization stats:
  Stopping criterion = force tolerance
  Energy initial, next-to-last, final = 
     -5455.30368248135  -5455.41757181772  -5455.41757181771
  Force two-norm initial, final = 3.3395078 9.300801e-11
  Force max component initial, final = 0.12580848 7.940093e-12
  Final line search alpha, max atom move = 1 7.940093e-12
  Iterations, force evaluations = 93 186

MPI task timing breakdown:
Section |  min time  |  avg time  |  max time  |%varavg| %total
---------------------------------------------------------------
Pair    | 0.99902    | 0.99953    | 1.0003     |   0.0 | 98.82
Neigh   | 0          | 0          | 0          |   0.0 |  0.00
Comm    | 0.008217   | 0.0089495  | 0.009475   |   0.5 |  0.88
Output  | 0.001124   | 0.001186   | 0.00135    |   0.3 |  0.12
Modify  | 0          | 0          | 0          |   0.0 |  0.00
Other   |            | 0.001847   |            |       |  0.18

Nlocal:            216 ave         216 max         216 min
Histogram: 4 0 0 0 0 0 0 0 0 0
Nghost:           1732 ave        1732 max        1732 min
Histogram: 4 0 0 0 0 0 0 0 0 0
Neighs:          14148 ave       14148 max       14148 min
Histogram: 4 0 0 0 0 0 0 0 0 0
FullNghs:        28296 ave       28296 max       28296 min
Histogram: 4 0 0 0 0 0 0 0 0 0

Total # of neighbors = 113184
Ave neighs/atom = 131
Neighbor list builds = 0
Dangerous builds = 0

# Obtain new stress tensor

variable tmp equal pe
variable e1 equal ${tmp}
variable e1 equal -5455.41757181771
variable tmp equal press
variable p1 equal ${tmp}
variable p1 equal -5404.57249956512
variable tmp equal pxx
variable pxx1 equal ${tmp}
variable pxx1 equal -7914.74692659739
variable tmp equal pyy
variable pyy1 equal ${tmp}
variable pyy1 equal -7914.74692657997
variable tmp equal pzz
variable pzz1 equal ${tmp}
variable pzz1 equal -384.223645517987
variable tmp equal pxy
variable pxy1 equal ${tmp}
variable pxy1 equal -1.86422397566253
variable tmp equal pxz
variable pxz1 equal ${tmp}
variable pxz1 equal -0.203313948066158
variable tmp equal pyz
variable pyz1 equal ${tmp}
variable pyz1 equal -2.27830946976397e-07

# Compute elastic constant from pressure tensor

variable C1pos equal ${d1}
variable C1pos equal 743926.013742778
variable C2pos equal ${d2}
variable C2pos equal 743926.013851975
variable C3pos equal ${d3}
variable C3pos equal -2379.1016047297
variable C4pos equal ${d4}
variable C4pos equal 7.63502655559599e-05
variable C5pos equal ${d5}
variable C5pos equal 20.33135228884
variable C6pos equal ${d6}
variable C6pos equal 186.421711041403

# Combine positive and negative

variable C1${dir} equal 0.5*(${C1neg}+${C1pos})
variable C16 equal 0.5*(${C1neg}+${C1pos})
variable C16 equal 0.5*(-743926.013742716+${C1pos})
variable C16 equal 0.5*(-743926.013742716+743926.013742778)
variable C2${dir} equal 0.5*(${C2neg}+${C2pos})
variable C26 equal 0.5*(${C2neg}+${C2pos})
variable C26 equal 0.5*(-743926.01385199+${C2pos})
variable C26 equal 0.5*(-743926.01385199+743926.013851975)
variable C3${dir} equal 0.5*(${C3neg}+${C3pos})
variable C36 equal 0.5*(${C3neg}+${C3pos})
variable C36 equal 0.5*(2379.1016046978+${C3pos})
variable C36 equal 0.5*(2379.1016046978+-2379.1016047297)
variable C4${dir} equal 0.5*(${C4neg}+${C4pos})
variable C46 equal 0.5*(${C4neg}+${C4pos})
variable C46 equal 0.5*(-7.635907664978e-05+${C4pos})
variable C46 equal 0.5*(-7.635907664978e-05+7.63502655559599e-05)
variable C5${dir} equal 0.5*(${C5neg}+${C5pos})
variable C56 equal 0.5*(${C5neg}+${C5pos})
variable C56 equal 0.5*(20.3313181198321+${C5pos})
variable C56 equal 0.5*(20.3313181198321+20.33135228884)
variable C6${dir} equal 0.5*(${C6neg}+${C6pos})
variable C66 equal 0.5*(${C6neg}+${C6pos})
variable C66 equal 0.5*(186.422018771473+${C6pos})
variable C66 equal 0.5*(186.422018771473+186.421711041403)

# Delete dir to make sure it is not reused

variable dir delete

# Output final values

variable C11all equal ${C11}
variable C11all equal 476.344960935006
variable C22all equal ${C22}
variable C22all equal 476.344960957475
variable C33all equal ${C33}
variable C33all equal 649.1314838453

variable C12all equal 0.5*(${C12}+${C21})
variable C12all equal 0.5*(103.501231150469+${C21})
variable C12all equal 0.5*(103.501231150469+103.501231153496)
variable C13all equal 0.5*(${C13}+${C31})
variable C13all equal 0.5*(59.8732837149873+${C31})
variable C13all equal 0.5*(59.8732837149873+60.6263360153948)
variable C23all equal 0.5*(${C23}+${C32})
variable C23all equal 0.5*(59.8732837259886+${C32})
variable C23all equal 0.5*(59.8732837259886+60.6263360020998)

variable C44all equal ${C44}
variable C44all equal 234.634754762606
variable C55all equal ${C55}
variable C55all equal 234.634754576116
variable C66all equal ${C66}
variable C66all equal 186.421864906438

variable C14all equal 0.5*(${C14}+${C41})
variable C14all equal 0.5*(20.3313352155383+${C41})
variable C14all equal 0.5*(20.3313352155383+20.3313352479173)
variable C15all equal 0.5*(${C15}+${C51})
variable C15all equal 0.5*(2.24681571125984e-08+${C51})
variable C15all equal 0.5*(2.24681571125984e-08+-6.21172398750013e-09)
variable C16all equal 0.5*(${C16}+${C61})
variable C16all equal 0.5*(3.09664756059647e-08+${C61})
variable C16all equal 0.5*(3.09664756059647e-08+-2.28473564965005e-08)

variable C24all equal 0.5*(${C24}+${C42})
variable C24all equal 0.5*(-20.3313352150144+${C42})
variable C24all equal 0.5*(-20.3313352150144+-20.3313352315635)
variable C25all equal 0.5*(${C25}+${C52})
variable C25all equal 0.5*(5.8033037930727e-08+${C52})
variable C25all equal 0.5*(5.8033037930727e-08+4.98849845960045e-09)
variable C26all equal 0.5*(${C26}+${C62})
variable C26all equal 0.5*(-7.5087882578373e-09+${C62})
variable C26all equal 0.5*(-7.5087882578373e-09+-3.07460391150044e-08)

variable C34all equal 0.5*(${C34}+${C43})
variable C34all equal 0.5*(3.71499027096434e-08+${C43})
variable C34all equal 0.5*(3.71499027096434e-08+-2.77887279964973e-09)
variable C35all equal 0.5*(${C35}+${C53})
variable C35all equal 0.5*(-2.08999608730664e-08+${C53})
variable C35all equal 0.5*(-2.08999608730664e-08+2.12627217134964e-09)
variable C36all equal 0.5*(${C36}+${C63})
variable C36all equal 0.5*(-1.59498085849918e-08+${C63})
variable C36all equal 0.5*(-1.59498085849918e-08+1.21889192879952e-08)

variable C45all equal 0.5*(${C45}+${C54})
variable C45all equal 0.5*(-3.3656566628105e-08+${C54})
variable C45all equal 0.5*(-3.3656566628105e-08+-4.51756407523496e-08)
variable C46all equal 0.5*(${C46}+${C64})
variable C46all equal 0.5*(-4.40554691004787e-09+${C64})
variable C46all equal 0.5*(-4.40554691004787e-09+-1.11124570419937e-08)
variable C56all equal 0.5*(${C56}+${C65})
variable C56all equal 0.5*(20.331335204336+${C65})
variable C56all equal 0.5*(20.331335204336+20.3313352133426)

# Average moduli for cubic crystals

variable C11cubic equal (${C11all}+${C22all}+${C33all})/3.0
variable C11cubic equal (476.344960935006+${C22all}+${C33all})/3.0
variable C11cubic equal (476.344960935006+476.344960957475+${C33all})/3.0
variable C11cubic equal (476.344960935006+476.344960957475+649.1314838453)/3.0
variable C12cubic equal (${C12all}+${C13all}+${C23all})/3.0
variable C12cubic equal (103.501231151982+${C13all}+${C23all})/3.0
variable C12cubic equal (103.501231151982+60.2498098651911+${C23all})/3.0
variable C12cubic equal (103.501231151982+60.2498098651911+60.2498098640442)/3.0
variable C44cubic equal (${C44all}+${C55all}+${C66all})/3.0
variable C44cubic equal (234.634754762606+${C55all}+${C66all})/3.0
variable C44cubic equal (234.634754762606+234.634754576116+${C66all})/3.0
variable C44cubic equal (234.634754762606+234.634754576116+186.421864906438)/3.0

variable bulkmodulus equal (${C11cubic}+2*${C12cubic})/3.0
variable bulkmodulus equal (533.94046857926+2*${C12cubic})/3.0
variable bulkmodulus equal (533.94046857926+2*74.6669502937391)/3.0
variable shearmodulus1 equal ${C44cubic}
variable shearmodulus1 equal 218.563791415053
variable shearmodulus2 equal (${C11cubic}-${C12cubic})/2.0
variable shearmodulus2 equal (533.94046857926-${C12cubic})/2.0
variable shearmodulus2 equal (533.94046857926-74.6669502937391)/2.0
variable poissonratio equal 1.0/(1.0+${C11cubic}/${C12cubic})
variable poissonratio equal 1.0/(1.0+533.94046857926/${C12cubic})
variable poissonratio equal 1.0/(1.0+533.94046857926/74.6669502937391)

# For Stillinger-Weber silicon, the analytical results
# are known to be (E. R. Cowley, 1988):
#               C11 = 151.4 GPa
#               C12 = 76.4 GPa
#               C44 = 56.4 GPa

print "========================================="
=========================================
print "Components of the Elastic Constant Tensor"
Components of the Elastic Constant Tensor
print "========================================="
=========================================

print "Elastic Constant C11all = ${C11all} ${cunits}"
Elastic Constant C11all = 476.344960935006 GPa
print "Elastic Constant C22all = ${C22all} ${cunits}"
Elastic Constant C22all = 476.344960957475 GPa
print "Elastic Constant C33all = ${C33all} ${cunits}"
Elastic Constant C33all = 649.1314838453 GPa

print "Elastic Constant C12all = ${C12all} ${cunits}"
Elastic Constant C12all = 103.501231151982 GPa
print "Elastic Constant C13all = ${C13all} ${cunits}"
Elastic Constant C13all = 60.2498098651911 GPa
print "Elastic Constant C23all = ${C23all} ${cunits}"
Elastic Constant C23all = 60.2498098640442 GPa

print "Elastic Constant C44all = ${C44all} ${cunits}"
Elastic Constant C44all = 234.634754762606 GPa
print "Elastic Constant C55all = ${C55all} ${cunits}"
Elastic Constant C55all = 234.634754576116 GPa
print "Elastic Constant C66all = ${C66all} ${cunits}"
Elastic Constant C66all = 186.421864906438 GPa

print "Elastic Constant C14all = ${C14all} ${cunits}"
Elastic Constant C14all = 20.3313352317278 GPa
print "Elastic Constant C15all = ${C15all} ${cunits}"
Elastic Constant C15all = 8.12821656254913e-09 GPa
print "Elastic Constant C16all = ${C16all} ${cunits}"
Elastic Constant C16all = 4.0595595547321e-09 GPa

print "Elastic Constant C24all = ${C24all} ${cunits}"
Elastic Constant C24all = -20.3313352232889 GPa
print "Elastic Constant C25all = ${C25all} ${cunits}"
Elastic Constant C25all = 3.15107681951637e-08 GPa
print "Elastic Constant C26all = ${C26all} ${cunits}"
Elastic Constant C26all = -1.91274136864209e-08 GPa

print "Elastic Constant C34all = ${C34all} ${cunits}"
Elastic Constant C34all = 1.71855149549968e-08 GPa
print "Elastic Constant C35all = ${C35all} ${cunits}"
Elastic Constant C35all = -9.38684435085838e-09 GPa
print "Elastic Constant C36all = ${C36all} ${cunits}"
Elastic Constant C36all = -1.8804446484983e-09 GPa

print "Elastic Constant C45all = ${C45all} ${cunits}"
Elastic Constant C45all = -3.94161036902273e-08 GPa
print "Elastic Constant C46all = ${C46all} ${cunits}"
Elastic Constant C46all = -7.75900197602079e-09 GPa
print "Elastic Constant C56all = ${C56all} ${cunits}"
Elastic Constant C56all = 20.3313352088393 GPa

print "========================================="
=========================================
print "Average properties for a cubic crystal"
Average properties for a cubic crystal
print "========================================="
=========================================

print "Bulk Modulus = ${bulkmodulus} ${cunits}"
Bulk Modulus = 227.758123055579 GPa
print "Shear Modulus 1 = ${shearmodulus1} ${cunits}"
Shear Modulus 1 = 218.563791415053 GPa
print "Shear Modulus 2 = ${shearmodulus2} ${cunits}"
Shear Modulus 2 = 229.63675914276 GPa
print "Poisson Ratio = ${poissonratio}"
Poisson Ratio = 0.122684916381738
Total wall time: 0:00:12
