# LAMMPS data file written by OVITO Basic 3.8.4

4 atoms
2 atom types

0.0 4.15 xlo xhi
0.0 4.15 ylo yhi
0.0 4.15 zlo zhi

Masses

1 28.0855  # Si
2 196.96655  # Au

Atoms  # atomic

1 2 0.0 2.075 2.075
2 2 2.075 2.075 0.0
3 2 2.075 0.0 2.075
4 1 0.0 0.0 0.0
