# LAMMPS data file written by OVITO Basic 3.8.4

8 atoms
1 atom types

0.0 5.468728 xlo xhi
0.0 5.468728 ylo yhi
0.0 5.468728 zlo zhi

Masses

1 28.0855  # Si

Atoms  # atomic

1 1 1.367182 4.101546 1.367182
2 1 0.0 0.0 2.734364
3 1 1.367182 1.367182 4.101546
4 1 0.0 2.734364 0.0
5 1 4.101546 4.101546 4.101546
6 1 2.734364 0.0 0.0
7 1 4.101546 1.367182 1.367182
8 1 2.734364 2.734364 2.734364
