# LAMMPS data file written by OVITO Basic 3.8.4

8 atoms
3 atom types

0.0 3.06908749 xlo xhi
0.0 2.6579077328 ylo yhi
0.0 13.736366 zlo zhi
-1.534543745 0.0 0.0 xy xz yz

Masses

1 47.867  # Ti
2 26.981538  # Al
3 12.0107  # C

Atoms  # atomic

1 1 1.5345437603 0.8859692354 8.0149772519
2 1 -1.5345437143e-08 1.7719384974 1.1467942519
3 1 -1.5345437143e-08 1.7719384974 5.7213887481
4 1 1.5345437603 0.8859692354 12.5895717481
5 2 1.5345437603 0.8859692354 3.4340915
6 2 -1.5345437143e-08 1.7719384974 10.3022745
7 3 0.0 0.0 6.868183
8 3 0.0 0.0 0.0
