LAMMPS DATA FOR EAM SIMULATON
 
          4000   atoms
             2   atom types
 
  -17.83033011   17.83033011     xlo xhi
  -17.82895487   17.82895487     ylo yhi
  -17.83054644   17.83054644     zlo zhi
 
        Atoms
 
      1      1  -16.92856824  -16.93829572  -16.93737170
      2      2  -15.16243638  -15.14539186  -16.93068946
      3      2  -16.93190746  -15.14538442  -15.17181019
      4      2  -15.16048682  -16.93129688  -15.16266040
      5      1  -13.38312174  -16.95248291  -16.95362634
      6      1  -11.58279872  -15.16599181  -16.93259336
      7      1  -13.38220352  -15.16965545  -15.15753030
      8      1  -11.56806321  -16.95337054  -15.14778391
      9      2   -9.80344313  -16.94181903  -16.94320901
     10      2   -8.02759138  -15.15133824  -16.93875230
     11      2   -9.80155106  -15.14636947  -15.16056510
     12      1   -8.03671098  -16.93294238  -15.16351672
     13      1   -6.24259841  -16.92360607  -16.95295185
     14      2   -4.45318267  -15.15374499  -16.93804021
     15      2   -6.24398459  -15.15434565  -15.15339770
     16      2   -4.46825411  -16.92829868  -15.15409825
     17      2   -2.67157576  -16.93285392  -16.93415330
     18      1   -0.88277192  -15.15585502  -16.91595405
     19      1   -2.67959939  -15.16197126  -15.13896322
     20      2   -0.88020585  -16.94852341  -15.15798870
     21      1    0.89354438  -16.95471306  -16.94549985
     22      1    2.68182576  -15.16053198  -16.92885927
     23      2    0.89287034  -15.16302656  -15.15414114
     24      1    2.67398677  -16.95046650  -15.15100986
     25      2    4.46005917  -16.94849642  -16.93056431
     26      1    6.22515783  -15.15427288  -16.93055594
     27      2    4.46063787  -15.16801277  -15.16291083
     28      2    6.24307526  -16.95248094  -15.15946397
     29      2    8.02293524  -16.94732814  -16.92491802
     30      2    9.80495548  -15.15270742  -16.93636726
     31      1    8.03882295  -15.16172353  -15.16111735
     32      2    9.79707440  -16.94685936  -15.15433707
     33      1   11.58325800  -16.95068092  -16.93659554
     34      1   13.37864904  -15.16488128  -16.95150557
     35      1   11.58599720  -15.15909517  -15.16041036
     36      1   13.38112980  -16.94415687  -15.15397283
     37      2   15.16084359  -16.94965686  -16.94922781
     38      1   16.93594767  -15.15334515  -16.94292767
     39      1   15.14815220  -15.16840062  -15.17414276
     40      2   16.93675192  -16.93442427  -15.17518942
     41      2  -16.93497048  -13.36655564  -16.93719444
     42      1  -15.15595534  -11.57233704  -16.93577573
     43      1  -16.93965612  -11.58745457  -15.15237140
     44      2  -15.15593221  -13.37040197  -15.15511474
     45      1  -13.36132251  -13.37130690  -16.92770180
     46      2  -11.59559377  -11.57757649  -16.93203298
     47      2  -13.36965893  -11.58846263  -15.15124849
     48      2  -11.58639582  -13.35741407  -15.14919662
     49      1   -9.82091151  -13.36979422  -16.93304969
     50      1   -7.99895452  -11.59221079  -16.94275381
     51      1   -9.79634911  -11.57004990  -15.16722778
     52      2   -8.02192187  -13.38745566  -15.15846885
     53      2   -6.23918911  -13.39168839  -16.93889524
     54      1   -4.46652584  -11.60278346  -16.93037059
     55      1   -6.23990693  -11.60140925  -15.15399532
     56      2   -4.46541820  -13.39404617  -15.15427511
     57      2   -2.67462059  -13.37879730  -16.93970572
     58      2   -0.90064794  -11.60978567  -16.93948884
     59      1   -2.67195002  -11.61917306  -15.14780079
     60      2   -0.89477869  -13.37742373  -15.15540049
     61      1    0.90409838  -13.36857000  -16.91972807
     62      1    2.68714748  -11.57276158  -16.93684380
     63      1    0.87178681  -11.58753689  -15.15758105
     64      2    2.67883610  -13.37285557  -15.16007005
     65      1    4.45164909  -13.37085010  -16.92033563
     66      1    6.22557250  -11.58549096  -16.92992397
     67      2    4.45529288  -11.58061874  -15.15218947
     68      2    6.23867154  -13.36306554  -15.15641128
     69      1    8.01600875  -13.35563979  -16.93033168
     70      1    9.80180170  -11.57425708  -16.92805594
     71      2    8.01777956  -11.58525181  -15.15058532
     72      1    9.82130066  -13.37114069  -15.14881371
     73      2   11.58224054  -13.37533715  -16.94125678
     74      2   13.38215257  -11.58263167  -16.93143487
     75      1   11.60556344  -11.57859814  -15.16829074
     76      1   13.37822947  -13.37593403  -15.17610254
     77      2   15.16187607  -13.35623865  -16.94497376
     78      2   16.93950235  -11.58379360  -16.93918889
     79      2   15.15480714  -11.58039886  -15.15800615
     80      1   16.92633672  -13.36290280  -15.16998138
     81      2  -16.95178081   -9.80465686  -16.94088059
     82      1  -15.15724693   -8.04435293  -16.95334088
     83      2  -16.95281550   -8.02779148  -15.15523246
     84      1  -15.15828396   -9.79054179  -15.13469422
     85      2  -13.36659398   -9.81189057  -16.93510723
     86      1  -11.60258157   -8.02025892  -16.94004786
     87      2  -13.36404626   -8.03046981  -15.15715269
     88      2  -11.59500630   -9.80982821  -15.16177325
     89      2   -9.81363204   -9.80658263  -16.94073910
     90      2   -8.01239276   -8.01980585  -16.94104441
     91      1   -9.81026077   -8.03872338  -15.16596436
     92      1   -7.99642910   -9.78145876  -15.16727367
     93      2   -6.22698094   -9.78808850  -16.94306026
     94      2   -4.45723484   -8.00911595  -16.93976130
     95      2   -6.23058354   -8.01129563  -15.15758473
     96      1   -4.46427831   -9.79039929  -15.15113735
     97      1   -2.67152928   -9.80818050  -16.92425259
     98      1   -0.89093765   -7.99322296  -16.92312666
     99      2   -2.69109349   -8.00692336  -15.16190080
    100      1   -0.90753413   -9.79808561  -15.17189160
    101      1    0.87846195   -9.80994422  -16.94290254
    102      1    2.67856500   -8.03192398  -16.93600668
    103      2    0.90159866   -8.01770695  -15.15576493
    104      2    2.67811026   -9.80153070  -15.15930546
    105      2    4.44833759   -9.80076659  -16.93817785
    106      1    6.23131622   -8.02014297  -16.92714740
    107      1    4.45272976   -7.99966149  -15.14207888
    108      1    6.22945372   -9.80862997  -15.14662720
    109      1    8.02428135   -9.80519500  -16.92377458
    110      1    9.80345771   -8.03155935  -16.93339082
    111      2    8.02662097   -8.01002383  -15.14870334
    112      2    9.80982008   -9.80229957  -15.15414838
    113      2   11.60077097   -9.80304068  -16.94065541
    114      2   13.37622892   -8.02095008  -16.94021949
    115      1   11.60390356   -8.03686874  -15.16144305
    116      2   13.38568578   -9.81058341  -15.15402823
    117      2   15.15904278   -9.81109107  -16.92873704
    118      2   16.94228539   -8.02256488  -16.93031985
    119      1   15.14940379   -8.01543245  -15.15239903
    120      2   16.93475577   -9.80573330  -15.15305457
    121      2  -16.95584090   -6.25087694  -16.94424777
    122      1  -15.17047976   -4.45871854  -16.95422012
    123      1  -16.93676453   -4.45628476  -15.14802804
    124      1  -15.17248152   -6.26188654  -15.16357793
    125      1  -13.37315916   -6.24631008  -16.92011316
    126      1  -11.59036179   -4.46435381  -16.94494048
    127      1  -13.39245379   -4.43297186  -15.15978685
    128      2  -11.58060373   -6.23726405  -15.15863015
    129      2   -9.80987663   -6.23537041  -16.93621924
    130      2   -8.02778274   -4.46111571  -16.94087963
    131      2   -9.81108247   -4.45623347  -15.16022991
    132      1   -8.02091328   -6.24035372  -15.16197329
    133      2   -6.23048520   -6.23679719  -16.94165181
    134      2   -4.45124353   -4.45840390  -16.94588836
    135      2   -6.23498809   -4.46600328  -15.16384479
    136      2   -4.45865473   -6.23443502  -15.16612559
    137      2   -2.68291192   -6.23203311  -16.93868631
    138      1   -0.89379674   -4.45807228  -16.94514972
    139      2   -2.68317331   -4.46133405  -15.15389124
    140      1   -0.89159836   -6.22518428  -15.13322625
    141      1    0.90164037   -6.23793092  -16.93667586
    142      2    2.67270880   -4.45743304  -16.94323354
    143      1    0.91091235   -4.44725064  -15.14172330
    144      2    2.66470431   -6.23710443  -15.15445539
    145      2    4.45593673   -6.23613029  -16.95037476
    146      2    6.23730769   -4.47304237  -16.94718951
    147      1    4.44129923   -4.47535391  -15.16413399
    148      2    6.24908515   -6.22481597  -15.15541647
    149      1    8.02537335   -6.23525699  -16.93864688
    150      2    9.81199817   -4.46066832  -16.93622756
    151      2    8.02928593   -4.46191728  -15.14724235
    152      2    9.81249165   -6.23479723  -15.15609500
    153      2   11.58775924   -6.23784947  -16.93213133
    154      1   13.38048125   -4.44811863  -16.92494523
    155      2   11.58540139   -4.45461892  -15.15516611
    156      1   13.36642032   -6.23179343  -15.13942281
    157      2   15.16356462   -6.24243505  -16.93510324
    158      1   16.94359050   -4.44771949  -16.94588170
    159      1   15.17409553   -4.45498223  -15.14248463
    160      2   16.94687271   -6.24425672  -15.15179692
    161      1  -16.92868861   -2.66457499  -16.95687255
    162      2  -15.15024235   -0.88529282  -16.93743182
    163      2  -16.92608889   -0.89332733  -15.15722395
    164      2  -15.16389280   -2.66360924  -15.15419315
    165      2  -13.37724245   -2.66197515  -16.94494526
    166      2  -11.58668699   -0.89097591  -16.94903438
    167      1  -13.35613585   -0.90714425  -15.15517557
    168      2  -11.58047366   -2.68184122  -15.15808049
    169      2   -9.81348041   -2.67898746  -16.93950166
    170      1   -8.02002863   -0.87658560  -16.94857710
    171      1   -9.82074756   -0.89958652  -15.15745020
    172      1   -8.02521246   -2.68736616  -15.16922918
    173      1   -6.23254785   -2.68399875  -16.93963715
    174      1   -4.45842703   -0.87810683  -16.93235181
    175      1   -6.24768955   -0.87893821  -15.15485272
    176      1   -4.44575128   -2.68284265  -15.14752812
    177      2   -2.68236690   -2.67787606  -16.94909839
    178      1   -0.88807685   -0.89641438  -16.94559313
    179      2   -2.68088713   -0.89080836  -15.16021584
    180      1   -0.90620465   -2.67838679  -15.15477725
    181      2    0.89916324   -2.68135895  -16.94271620
    182      1    2.67754622   -0.89030992  -16.94345686
    183      2    0.90414250   -0.89514216  -15.15721131
    184      2    2.66998810   -2.66647285  -15.15961048
    185      1    4.46634402   -2.68494008  -16.94431512
    186      1    6.22503748   -0.88104091  -16.92570172
    187      2    4.44420464   -0.88451672  -15.15667604
    188      1    6.24142826   -2.69043966  -15.14923976
    189      1    8.01139394   -2.69120019  -16.94207921
    190      2    9.80213813   -0.90079436  -16.94423505
    191      1    8.02804701   -0.88388421  -15.15316253
    192      2    9.80724342   -2.67515460  -15.15934856
    193      2   11.57943226   -2.67417711  -16.93583879
    194      1   13.37845046   -0.90387763  -16.94510182
    195      2   11.58634852   -0.90229133  -15.17005337
    196      2   13.36649768   -2.67681534  -15.15765327
    197      2   15.15513448   -2.67735407  -16.94336076
    198      1   16.93138124   -0.90674914  -16.94776062
    199      1   15.15043692   -0.90349671  -15.16263824
    200      1   16.95163497   -2.65676562  -15.14262055
    201      2  -16.92746786    0.89046948  -16.93563354
    202      2  -15.14746345    2.67487669  -16.94634004
    203      1  -16.94505159    2.67892795  -15.15649474
    204      1  -15.14340112    0.89887510  -15.14636110
    205      2  -13.36947810    0.89641523  -16.94645995
    206      2  -11.58998374    2.67343533  -16.94829784
    207      2  -13.37133124    2.67164939  -15.15734177
    208      1  -11.58432672    0.91114248  -15.15764212
    209      2   -9.81623664    0.89581522  -16.94873307
    210      1   -8.01079254    2.67554597  -16.92484533
    211      2   -9.80655044    2.68349944  -15.16601246
    212      1   -8.04391797    0.88760355  -15.15289036
    213      2   -6.24173025    0.89315797  -16.94330540
    214      1   -4.47243885    2.66091287  -16.92522368
    215      2   -6.24706924    2.67243254  -15.14908380
    216      2   -4.46532590    0.89621232  -15.15502118
    217      1   -2.67598094    0.89695182  -16.94166146
    218      1   -0.88587599    2.65053942  -16.95796369
    219      2   -2.67568029    2.66417344  -15.15078543
    220      1   -0.88165588    0.89472560  -15.15465054
    221      2    0.90319035    0.89495929  -16.94079512
    222      2    2.67123454    2.66644824  -16.92713592
    223      2    0.90294935    2.66199259  -15.15189086
    224      2    2.67122211    0.89008327  -15.15671186
    225      2    4.45531169    0.90381554  -16.92397179
    226      2    6.24207808    2.67726158  -16.93654619
    227      2    4.45177231    2.67793466  -15.15904835
    228      2    6.23313483    0.90238021  -15.16409750
    229      2    8.01170852    0.89097376  -16.93877776
    230      1    9.78697661    2.68379699  -16.93542413
    231      1    8.02765000    2.67946392  -15.14411148
    232      1    9.81068826    0.88255605  -15.16365313
    233      1   11.59720046    0.89562362  -16.94287761
    234      2   13.38956347    2.66897595  -16.94143197
    235      1   11.57328847    2.69229602  -15.15030010
    236      1   13.38512003    0.91012562  -15.15835318
    237      2   15.15220029    0.90236359  -16.94958872
    238      2   16.93651318    2.67738042  -16.94015001
    239      2   15.17191374    2.66587939  -15.16092080
    240      1   16.93793746    0.87565344  -15.17086154
    241      2  -16.94212244    4.45845503  -16.93501722
    242      1  -15.17217570    6.25007215  -16.92525105
    243      2  -16.95336647    6.23235427  -15.15818411
    244      1  -15.14445606    4.44715906  -15.14497157
    245      1  -13.37969428    4.46831419  -16.94944803
    246      2  -11.57774594    6.24459346  -16.92679773
    247      2  -13.36641448    6.24483917  -15.15370838
    248      1  -11.60019555    4.44935419  -15.17466057
    249      2   -9.80631526    4.46233913  -16.92841129
    250      1   -8.02297471    6.24465403  -16.93358463
    251      2   -9.80636889    6.24089955  -15.16546737
    252      2   -8.02072312    4.46475143  -15.15292883
    253      2   -6.23461325    4.46224527  -16.93172390
    254      2   -4.45242084    6.24268057  -16.94384692
    255      1   -6.21965714    6.24059198  -15.15116775
    256      1   -4.45185911    4.45159203  -15.15067688
    257      1   -2.66863763    4.44563279  -16.93393295
    258      2   -0.89213433    6.25267424  -16.93783503
    259      1   -2.68253642    6.25381119  -15.16204916
    260      1   -0.90004770    4.44041959  -15.16354746
    261      1    0.89469225    4.45588436  -16.91789474
    262      2    2.66345499    6.23912778  -16.92929062
    263      2    0.88517739    6.24996044  -15.15919710
    264      2    2.67569038    4.45751680  -15.14876642
    265      1    4.44569226    4.46825881  -16.94689967
    266      1    6.24264625    6.24797865  -16.93253078
    267      2    4.45430366    6.23100544  -15.15146476
    268      2    6.23338806    4.45189094  -15.16074802
    269      2    8.01716897    4.45610243  -16.94253516
    270      2    9.80445686    6.23899369  -16.94076986
    271      1    8.03504475    6.23273888  -15.16742389
    272      2    9.79991322    4.46260036  -15.15143977
    273      1   11.60183598    4.45126021  -16.93450651
    274      2   13.37945734    6.25168988  -16.93332216
    275      1   11.58396951    6.23876225  -15.16354847
    276      1   13.38263564    4.44921223  -15.15751145
    277      1   15.15387717    4.45567258  -16.93666443
    278      2   16.94175955    6.24107543  -16.93416682
    279      2   15.15753619    6.25331892  -15.16560901
    280      2   16.94116851    4.45812479  -15.16046613
    281      2  -16.94765902    8.02586877  -16.94253694
    282      1  -15.14200070    9.79399884  -16.94717496
    283      2  -16.93968736    9.81642501  -15.15893535
    284      1  -15.17188991    8.02494701  -15.13864604
    285      1  -13.36915265    8.00478425  -16.93793703
    286      1  -11.60112763    9.81172264  -16.93322494
    287      2  -13.37504531    9.80527240  -15.14767552
    288      2  -11.59114353    8.01835983  -15.16073701
    289      2   -9.81291975    8.01790133  -16.93333039
    290      1   -8.02948928    9.79549113  -16.94604889
    291      2   -9.81534944    9.79293505  -15.16043504
    292      1   -8.02219841    8.02798351  -15.14326966
    293      1   -6.22767755    8.02549621  -16.94053603
    294      2   -4.45638552    9.80995143  -16.93126356
    295      2   -6.22644822    9.81102091  -15.15824304
    296      2   -4.45474457    8.03328581  -15.15640561
    297      2   -2.67320015    8.02563202  -16.94041902
    298      1   -0.88081324    9.80939061  -16.94374727
    299      2   -2.67975889    9.79823152  -15.15734311
    300      2   -0.88916375    8.02029547  -15.16667732
    301      2    0.88258912    8.01199265  -16.94584463
    302      1    2.67448023    9.80698952  -16.96310800
    303      1    0.90407801    9.79800982  -15.16425307
    304      1    2.66889315    8.01681587  -15.16904010
    305      1    4.45868661    8.01450187  -16.94001799
    306      1    6.23018336    9.80240920  -16.92390924
    307      1    4.45380994    9.80578799  -15.13879601
    308      2    6.24099936    8.01227750  -15.15196256
    309      2    8.02318330    8.02054440  -16.94266824
    310      1    9.80743183    9.80695543  -16.94131631
    311      1    8.02198831    9.79054690  -15.15637552
    312      1    9.80599332    8.01464333  -15.16634902
    313      2   11.59712754    8.02407112  -16.94387519
    314      2   13.37016397    9.80218124  -16.94858975
    315      1   11.59870941    9.80326004  -15.15665099
    316      2   13.38012487    8.01550640  -15.16750413
    317      2   15.15527100    8.02911464  -16.94497784
    318      2   16.94270464    9.80954489  -16.94190177
    319      1   15.14103859    9.80679775  -15.16581080
    320      1   16.94946067    8.02814497  -15.16836867
    321      2  -16.93289966   11.58539198  -16.93518779
    322      2  -15.16488779   13.36006050  -16.93393712
    323      2  -16.93988003   13.36273861  -15.15132451
    324      2  -15.15667624   11.58387108  -15.15684907
    325      2  -13.37852680   11.58613699  -16.93324302
    326      1  -11.57376550   13.36923325  -16.91808796
    327      1  -13.38027763   13.37742733  -15.15612187
    328      1  -11.57887338   11.58114847  -15.13712113
    329      1   -9.81465742   11.58491204  -16.93965098
    330      1   -8.03399842   13.37143099  -16.93894942
    331      2   -9.79653878   13.38621925  -15.14405337
    332      1   -8.03289260   11.57829193  -15.16223940
    333      2   -6.22663323   11.58773059  -16.94063771
    334      2   -4.45983707   13.37158811  -16.93397859
    335      1   -6.24306513   13.37990668  -15.14317250
    336      2   -4.45861295   11.58370932  -15.15784851
    337      1   -2.67322639   11.58963910  -16.92852369
    338      1   -0.89189306   13.37834564  -16.92287798
    339      2   -2.68335546   13.37804376  -15.16439610
    340      1   -0.88295353   11.58907429  -15.14507135
    341      1    0.89990162   11.61093556  -16.95419225
    342      2    2.67470949   13.37199365  -16.94162733
    343      2    0.90052525   13.38568230  -15.16269149
    344      1    2.67881126   11.59841662  -15.15644875
    345      1    4.45200398   11.59733327  -16.94761163
    346      1    6.23726515   13.36104651  -16.94816574
    347      2    4.44198545   13.37301629  -15.14343091
    348      1    6.21952763   11.61733085  -15.12673672
    349      1    8.01727740   11.59864851  -16.92606177
    350      2    9.79931158   13.37443603  -16.93216429
    351      2    8.03887976   13.37841878  -15.16202925
    352      2    9.81703109   11.60149575  -15.16169145
    353      2   11.59215782   11.58611116  -16.94262127
    354      2   13.38055746   13.37644426  -16.95689241
    355      1   11.59109512   13.37739704  -15.16489747
    356      1   13.36095471   11.60388690  -15.15890519
    357      1   15.15291545   11.59004242  -16.93869771
    358      1   16.94355889   13.36991432  -16.92990602
    359      1   15.15047847   13.37924820  -15.15268017
    360      2   16.95148470   11.58531733  -15.15592063
    361      2  -16.94302154   15.15175800  -16.93143399
    362      2  -15.16673403   16.93902805  -16.93328924
    363      1  -16.95386100   16.93343471  -15.15467346
    364      1  -15.16854979   15.15008921  -15.15119072
    365      1  -13.36365645   15.17738833  -16.93655617
    366      2  -11.57665900   16.93696623  -16.94007603
    367      1  -13.38154757   16.94350373  -15.13824270
    368      2  -11.57848994   15.16697202  -15.15217018
    369      2   -9.80689399   15.16009082  -16.93352145
    370      2   -8.03017089   16.92875148  -16.93258446
    371      2   -9.80320097   16.92624190  -15.15865841
    372      2   -8.02881191   15.15516875  -15.15333293
    373      2   -6.24478963   15.14254668  -16.94009667
    374      1   -4.44633026   16.93736164  -16.95110922
    375      1   -6.22929490   16.92631902  -15.17135048
    376      2   -4.45352858   15.15306239  -15.16139719
    377      2   -2.66936694   15.15305068  -16.93378560
    378      2   -0.89974645   16.93585332  -16.93822588
    379      1   -2.68278629   16.95515320  -15.15274735
    380      2   -0.89224650   15.16565120  -15.16725352
    381      1    0.90747264   15.16344826  -16.92907786
    382      2    2.68117129   16.94120752  -16.93089820
    383      2    0.88558248   16.93584048  -15.15802109
    384      2    2.67222365   15.15394343  -15.15447031
    385      1    4.43250191   15.14246028  -16.92283985
    386      2    6.24394527   16.94234291  -16.92627534
    387      2    4.46208177   16.94000109  -15.16123598
    388      1    6.24278034   15.14109790  -15.17173955
    389      2    8.03166123   15.15459659  -16.93399507
    390      2    9.78609856   16.93381443  -16.92996072
    391      2    8.02389591   16.93588546  -15.15503158
    392      2    9.80057078   15.15723395  -15.15278507
    393      1   11.58944551   15.17105047  -16.94869197
    394      2   13.38697109   16.93681132  -16.94599945
    395      1   11.59050101   16.92996680  -15.15550761
    396      1   13.38020655   15.15292686  -15.14998958
    397      2   15.15513624   15.14946699  -16.94977205
    398      2   16.94217048   16.93221012  -16.94668022
    399      1   15.17339638   16.93259936  -15.17624600
    400      2   16.94215136   15.14515893  -15.15269903
    401      1  -16.95829918  -16.91912052  -13.38684318
    402      1  -15.15330951  -15.16704115  -13.37011830
    403      1  -16.93545991  -15.16438591  -11.58410664
    404      2  -15.15066113  -16.94457173  -11.59012137
    405      2  -13.37604751  -16.94730036  -13.37674524
    406      1  -11.57784572  -15.14716872  -13.39654576
    407      1  -13.35668957  -15.16393697  -11.60938306
    408      1  -11.58598229  -16.96604894  -11.60182716
    409      2   -9.80542784  -16.94805365  -13.36611422
    410      1   -8.04149795  -15.15496197  -13.35665674
    411      1   -9.83690321  -15.15458909  -11.57874204
    412      2   -8.02319430  -16.94496194  -11.58293243
    413      2   -6.23782206  -16.93464370  -13.37602354
    414      2   -4.47098139  -15.15355267  -13.37302549
    415      2   -6.23807574  -15.15680787  -11.59593454
    416      1   -4.47792440  -16.93955504  -11.59223169
    417      1   -2.67402129  -16.95184893  -13.35350959
    418      1   -0.86972734  -15.15890811  -13.37664961
    419      1   -2.67613286  -15.14327507  -11.60364771
    420      2   -0.87535473  -16.93144619  -11.58926769
    421      2    0.88725403  -16.93715261  -13.37905517
    422      1    2.67427363  -15.15530045  -13.38938503
    423      1    0.90846239  -15.15024392  -11.57569541
    424      1    2.67056897  -16.93385265  -11.59010226
    425      1    4.47043567  -16.94787873  -13.36851850
    426      1    6.23453601  -15.16032353  -13.39198450
    427      1    4.46355322  -15.14594046  -11.56837035
    428      2    6.25659174  -16.94014645  -11.58864448
    429      2    8.02351754  -16.94637107  -13.37869310
    430      2    9.80031265  -15.16395150  -13.38141374
    431      1    8.01402806  -15.14633311  -11.59597101
    432      1    9.80404143  -16.93809683  -11.59962079
    433      1   11.59418378  -16.93520829  -13.37637029
    434      2   13.38168391  -15.15214302  -13.36404729
    435      1   11.58940620  -15.15444364  -11.59294323
    436      1   13.38166474  -16.94671181  -11.59953199
    437      1   15.16325142  -16.92079094  -13.36813939
    438      1   16.94198611  -15.14661390  -13.38663186
    439      2   15.15383727  -15.14072312  -11.57983860
    440      1   16.92174815  -16.93351241  -11.57809094
    441      1  -16.93747780  -13.37787138  -13.36037826
    442      2  -15.15211634  -11.59754766  -13.37199687
    443      2  -16.92677932  -11.59210231  -11.59144739
    444      2  -15.14244166  -13.36142034  -11.60232491
    445      2  -13.37350892  -13.35867092  -13.38016391
    446      2  -11.59087415  -11.59505171  -13.37707461
    447      2  -13.37007757  -11.59935611  -11.59357286
    448      2  -11.59154653  -13.35863377  -11.60127294
    449      2   -9.81434868  -13.35764051  -13.37905767
    450      1   -8.01143252  -11.59704880  -13.37652887
    451      2   -9.81141521  -11.59345624  -11.59761945
    452      1   -8.02794376  -13.36120682  -11.57308265
    453      2   -6.23941681  -13.38552169  -13.36957427
    454      1   -4.46330838  -11.60026651  -13.37662105
    455      2   -6.23729329  -11.58850920  -11.58946515
    456      2   -4.47087048  -13.37335581  -11.59290319
    457      2   -2.68209246  -13.38108744  -13.36930521
    458      1   -0.90318968  -11.59589008  -13.36038006
    459      1   -2.67877552  -11.59499771  -11.58994411
    460      1   -0.88175462  -13.37466542  -11.58148647
    461      1    0.90594683  -13.36853120  -13.39053733
    462      1    2.67862546  -11.58361467  -13.38795744
    463      1    0.90269784  -11.58608668  -11.59833471
    464      2    2.67988444  -13.37919628  -11.57873298
    465      1    4.45813347  -13.38230038  -13.39522456
    466      2    6.22667279  -11.59605947  -13.38448976
    467      1    4.45695621  -11.60587059  -11.59905406
    468      2    6.23372364  -13.37126708  -11.58586113
    469      1    8.01318102  -13.35464966  -13.38537624
    470      1    9.81927815  -11.56733511  -13.38199667
    471      1    8.00912910  -11.58807186  -11.59768487
    472      1    9.80688677  -13.37327459  -11.60045249
    473      1   11.60828953  -13.37564468  -13.35878022
    474      2   13.37802609  -11.58145706  -13.36872015
    475      2   11.59417327  -11.58096630  -11.58923779
    476      2   13.38054948  -13.37208580  -11.58197022
    477      1   15.14315239  -13.38172109  -13.36458860
    478      1   16.93632632  -11.59617863  -13.35166590
    479      2   15.15068367  -11.58807078  -11.59200880
    480      2   16.93050723  -13.37680814  -11.57555476
    481      2  -16.94063260   -9.80323742  -13.37119945
    482      2  -15.16315869   -8.01238229  -13.36777719
    483      2  -16.92407595   -8.01623224  -11.59424925
    484      1  -15.14975922   -9.80841670  -11.59991621
    485      1  -13.35394031   -9.79256371  -13.37813784
    486      2  -11.59085290   -8.01627822  -13.38396567
    487      1  -13.36204133   -7.99676276  -11.57141832
    488      1  -11.60608058   -9.81020317  -11.57842441
    489      1   -9.81175082   -9.79939884  -13.35747042
    490      2   -8.00831110   -8.03213169  -13.37219419
    491      1   -9.80778286   -8.00893291  -11.59319958
    492      2   -8.01420068   -9.81369168  -11.59869137
    493      2   -6.24392833   -9.79194050  -13.36681815
    494      2   -4.46732205   -8.01820684  -13.38272793
    495      1   -6.24419720   -8.01497642  -11.57906563
    496      1   -4.46736527   -9.79423611  -11.60605754
    497      1   -2.66690960   -9.78391683  -13.37465261
    498      1   -0.87604825   -8.02758753  -13.38615549
    499      1   -2.66650394   -8.02402131  -11.57515812
    500      2   -0.88879154   -9.80266004  -11.57857195
    501      1    0.87910525   -9.81237898  -13.38961500
    502      1    2.66185450   -8.03170633  -13.38433328
    503      1    0.88112593   -8.03832916  -11.58241315
    504      1    2.69116000   -9.79850213  -11.58616925
    505      2    4.45172990   -9.81402067  -13.38986632
    506      1    6.24887017   -8.00476425  -13.38230642
    507      1    4.46226439   -8.02321328  -11.60695512
    508      1    6.21345855   -9.81182270  -11.60929390
    509      1    8.02133342   -9.81719088  -13.37945678
    510      1    9.79779400   -8.02251507  -13.37106780
    511      1    8.00622485   -8.01669304  -11.57905120
    512      2    9.81980004   -9.81221030  -11.58751417
    513      2   11.59967011   -9.80752913  -13.36423183
    514      2   13.36643378   -8.03291708  -13.36524946
    515      2   11.59138425   -8.02629041  -11.59382122
    516      2   13.37155756   -9.80883219  -11.59100244
    517      2   15.15437678   -9.81229698  -13.37170064
    518      2   16.94660056   -8.02480790  -13.37927907
    519      1   15.14729974   -8.02215436  -11.59124316
    520      1   16.95579448   -9.79102602  -11.58584197
    521      2  -16.93960392   -6.24234648  -13.37018062
    522      2  -15.17228568   -4.45861145  -13.36867162