# LAMMPS data file written by OVITO Basic 3.8.4

8 atoms
2 atom types

0.0 4.42 xlo xhi
0.0 4.42 ylo yhi
0.0 4.42 zlo zhi

Masses

1 47.867  # Ti
2 12.0110  # C

Atoms  # atomic

1 1 0.0 0.0 0.0
2 1 0.0 2.21 2.21
3 1 2.21 0.0 2.21
4 1 2.21 2.21 0.0
5 2 2.21 0.0 0.0
6 2 2.21 2.21 2.21
7 2 0.0 0.0 2.21
8 2 0.0 2.21 0.0
