Siesta Version:                                        siesta-trunk-411
Architecture  : x86_64-unknown-linux-gnu--Intel
Compiler flags: mpif90 -shared-intel -O2
PARALLEL version

* Running on   48 nodes in parallel
>> Start of run:   3-MAR-2014  17:28:00

                           ***********************       
                           *  WELCOME TO SIESTA  *       
                           ***********************       

reinit: Reading from standard input
************************** Dump of input data file ****************************
# Final relaxed coordinates
SystemLabel      sunset_yellow_dim1_new
NumberOfAtoms    78
NumberOfSpecies  6
%block ChemicalSpeciesLabel
    1    6  C
    2   16  S
    3   11  Na
    4    7  N
    5    8  O
    6    1  H
%endblock ChemicalSpeciesLabel
LatticeConstant 1.0 Ang
%block LatticeVectors
       35.000000    0.000000    0.000000
        0.000000   24.000000    0.000000
        0.000000    0.000000   24.000000
%endblock LatticeVectors
AtomicCoordinatesFormat NotScaledCartesianAng
%block AtomicCoordinatesAndAtomicSpecies
   23.64640374    9.96423098   15.30836985   5       1  O
   24.82338895   11.68644229   13.91904173   5       2  O
   24.02239758    9.53819613   12.86950409   5       3  O
   23.67877688   10.63618504   13.90438178   2       4  S
   16.96203641   15.43614614   13.34098823   5       5  O
   18.08708820   14.83124241   13.33655439   1       6  C
   19.27642119   16.67381138   13.48575837   6       7  H
   19.35889531   15.58505617   13.44414102   1       8  C
   21.50447999   15.51723463   13.61045686   6       9  H
   20.58045759   14.93787392   13.50815713   1      10  C
   20.70024649   13.47075332   13.44921195   1      11  C
   22.88562601   13.44014729   13.75589342   6      12  H
   21.98530380   12.84298012   13.59128658   1      13  C
   22.07218854   11.43584755   13.54069100   1      14  C
   21.03882425    9.52723496   13.24113030   6      15  H
   20.92684463   10.61174460   13.30521393   1      16  C
   18.77148182   10.60975577   13.00767861   6      17  H
   19.65923462   11.22301457   13.17309399   1      18  C
   19.51206551   12.65172096   13.27489037   1      19  C
   18.17721548   13.32178682   13.23724502   1      20  C
   17.09209859   12.50747701   13.16841694   4      21  N
   15.85401733   14.12780481   13.23708739   6      22  H
   15.87188370   13.08172311   13.17130100   4      23  N
   13.45958214    9.07217450   13.33507137   6      24  H
   13.48135823   10.16331631   13.36937183   1      25  C
   15.62802050   10.35072537   12.98226815   6      26  H
   14.69041250   10.87608936   13.16825513   1      27  C
   14.68293579   12.30828384   13.24435687   1      28  C
   13.46172572   14.11779285   13.46183367   6      29  H
   13.45367532   13.02393503   13.43607761   1      30  C
   11.30425724   12.83245193   13.82031277   6      31  H
   12.24632959   12.31076322   13.64143636   1      32  C
   12.28275821   10.88783957   13.63484786   1      33  C
   10.71882404    8.55925652   13.54499620   5      34  O
   10.80159967    9.78826933   15.72277638   5      35  O
   10.79093946    9.97357220   14.17682619   2      36  S
    9.49193384   10.74424473   13.81823838   5      37  O
   24.93693525    8.66636025    8.75492877   5      38  O
   24.78974798   10.18067347    8.45063498   2      39  S
   26.01858787   10.92661880    9.03782647   5      40  O
   24.84488666   10.34772571    6.90311591   5      41  O
   23.21857905   10.85566474    9.10152054   1      42  C
   23.19050784   12.19785257    9.57140620   1      43  C
   24.12119952   12.75759239    9.68104511   6      44  H
   21.93600137   12.78544683    9.87364521   1      45  C
   21.87986249   13.82117038   10.22134643   6      46  H
   20.73075892   12.03007347    9.69115231   1      47  C
   20.78253144   10.65660047    9.27890299   1      48  C
   19.85644819   10.09111030    9.16909421   6      49  H
   22.03621754   10.07017053    8.97740841   1      50  C
   22.10511893    9.03508977    8.63718671   6      51  H
   19.50112049   12.71292522    9.89741951   4      52  N
   19.46622212   13.73915723   10.10673150   6      53  H
   18.31715414   12.09858259    9.72349025   4      54  N
   17.18263968   12.83786828    9.83773038   1      55  C
   15.88975989   12.11528314    9.63896381   1      56  C
   15.83025268   10.69847161    9.39061737   1      57  C
   16.75795493   10.12367099    9.37816847   6      58  H
   14.59677624   10.05317152    9.14460814   1      59  C
   14.54893898    8.97991138    8.94855634   6      60  H
   13.39484777   10.82848496    9.15434882   1      61  C
   13.39708873   12.21009316    9.44372646   1      62  C
   12.45610746   12.76553111    9.47189077   6      63  H
   14.64946130   12.87212990    9.69013210   1      64  C
   14.68289803   14.31494774    9.98015927   1      65  C
   13.72467319   14.84273585   10.03285929   6      66  H
   15.86715889   15.00455557   10.18538439   1      67  C
   15.88636365   16.07267892   10.41739965   6      68  H
   17.18150118   14.32355040   10.11212190   1      69  C
   18.27172092   14.97136169   10.28536114   5      70  O
   11.82195735   10.02270158    8.66438708   2      71  S
   11.71668915    8.59085605    9.24965363   5      72  O
   10.60220553   10.85042254    9.14638021   5      73  O
   11.71817157    9.89484569    7.11647339   5      74  O
    8.98104294    8.86158966   14.92036594   3      75  Na
    9.90278175    9.04082350    8.00834832   3      76  Na
   25.64163987    9.67728859   14.47076674   3      77  Na
   26.69694951    9.37653843    7.56477403   3      78  Na
%endblock AtomicCoordinatesAndAtomicSpecies
PAO.SplitNorm         0.15
PAO.SplitNormH        0.5
PAO.EnergyShift  0.001 Ry
PAO.BasisSize    TZP
%block PAO.Basis                                   # Define Basis set
C     2
n=2    0    3
 9.0 2.7 3.6
 1.0 1.0 1.0
n=2    1    3  P 1
 9.0 2.5 3.6
 1.0 1.0 1.0
N     2
n=2    0    3
 9.0 2.5 4.3
 1.0 1.0 1.0
n=2    1    3  P 1
 9.0 2.4 3.8
 1.0 1.0 1.0
O     2
n=2    0    3
 8.5 2.5 5.0
 1.0 1.0 1.0
n=2    1 3 P 1
 9.0 2.4 5.4
 1.0 1.0 1.0
H  1
n=1  0  3 P 1
 8.0 1.8 4.1
 1.0 1.0 1.0
S     2
n=3    0    3
 8.5 2.5 5.0
 1.0 1.0 1.0
n=3    1    3  P 1
 8.5 2.4 5.4
 1.0 1.0 1.0
%endblock PAO.Basis
MD.TypeOfRun    CG
MD.NumCGSteps   0
#MD.Variable-cell True
MD.MaxForceTol  0.01 eV/Ang
#MD.MaxStressTol  200 bar
MaxSCFIterations  500
SolutionMethod diagon
DM.NumberPulay 5
DM.MixingWeight 0.25
DM.Tolerance         1.d-4
XC.Functional VDW
XC.Authors LMKLL
LongOutput true
UseSaveData true
WriteXML false
MeshCutoff  300.0 Ry
************************** End of input data file *****************************
 Processed:          150  lines.
 Processed:          150  lines.
 Processed:          150  lines.
 Processed:          150  lines.
 Processed:          150  lines.
 Processed:          150  lines.
 Processed:          150  lines.
 Processed:          150  lines.
 Processed:          150  lines.
 Processed:          150  lines.
 Processed:          150  lines.
 Processed:          150  lines.
 Processed:          150  lines.
 Processed:          150  lines.
 Processed:          150  lines.
 Processed:          150  lines.
 Processed:          150  lines.
 Processed:          150  lines.
 Processed:          150  lines.
 Processed:          150  lines.
 Processed:          150  lines.
 Processed:          150  lines.
 Processed:          150  lines.
 Processed:          150  lines.
 Processed:          150  lines.
 Processed:          150  lines.
 Processed:          150  lines.
 Processed:          150  lines.
 Processed:          150  lines.
 Processed:          150  lines.
 Processed:          150  lines.
 Processed:          150  lines.
 Processed:          150  lines.
 Processed:          150  lines.
 Processed:          150  lines.

reinit: -----------------------------------------------------------------------
reinit: System Name: 
reinit: -----------------------------------------------------------------------
reinit: System Label: sunset_yellow_dim1_new                                      
reinit: -----------------------------------------------------------------------

initatom: Reading input for the pseudopotentials and atomic orbitals ----------
 Species number:            1  Label: C Atomic number:           6
 Species number:            2  Label: S Atomic number:          16
 Species number:            3  Label: Na Atomic number:          11
 Species number:            4  Label: N Atomic number:           7
 Species number:            5  Label: O Atomic number:           8
 Species number:            6  Label: H Atomic number:           1
Ground state valence configuration:   2s02  2p02
Reading pseudopotential information in formatted form from C.psf

Valence configuration for pseudopotential generation:
2s( 2.00) rc: 1.56
2p( 2.00) rc: 1.56
3d( 0.00) rc: 1.56
4f( 0.00) rc: 1.56
Ground state valence configuration:   3s02  3p04
Reading pseudopotential information in formatted form from S.psf

Valence configuration for pseudopotential generation:
3s( 2.00) rc: 1.61
3p( 4.00) rc: 1.72
3d( 0.00) rc: 1.90
4f( 0.00) rc: 1.90
Ground state valence configuration:   3s01
Reading pseudopotential information in formatted form from Na.psf

Valence configuration for pseudopotential generation:
3s( 1.00) rc: 2.94
3p( 0.00) rc: 3.50
3d( 0.00) rc: 2.94
Ground state valence configuration:   2s02  2p03
Reading pseudopotential information in formatted form from N.psf

Valence configuration for pseudopotential generation:
2s( 2.00) rc: 1.48
2p( 3.00) rc: 1.48
3d( 0.00) rc: 1.48
4f( 0.00) rc: 1.48
Ground state valence configuration:   2s02  2p04
Reading pseudopotential information in formatted form from O.psf

Valence configuration for pseudopotential generation:
2s( 2.00) rc: 1.47
2p( 4.00) rc: 1.47
3d( 0.00) rc: 1.47
4f( 0.00) rc: 1.47
Ground state valence configuration:   1s01
Reading pseudopotential information in formatted form from H.psf

Valence configuration for pseudopotential generation:
1s( 1.00) rc: 1.25
2p( 0.00) rc: 1.25
3d( 0.00) rc: 1.25
4f( 0.00) rc: 1.25
For C, standard SIESTA heuristics set lmxkb to 3
 (one more than the basis l, including polarization orbitals).
Use PS.lmax or PS.KBprojectors blocks to override.
For S, standard SIESTA heuristics set lmxkb to 3
 (one more than the basis l, including polarization orbitals).
Use PS.lmax or PS.KBprojectors blocks to override.
For Na, standard SIESTA heuristics set lmxkb to 2
 (one more than the basis l, including polarization orbitals).
Use PS.lmax or PS.KBprojectors blocks to override.
For N, standard SIESTA heuristics set lmxkb to 3
 (one more than the basis l, including polarization orbitals).
Use PS.lmax or PS.KBprojectors blocks to override.
For O, standard SIESTA heuristics set lmxkb to 3
 (one more than the basis l, including polarization orbitals).
Use PS.lmax or PS.KBprojectors blocks to override.
For H, standard SIESTA heuristics set lmxkb to 2
 (one more than the basis l, including polarization orbitals).
Use PS.lmax or PS.KBprojectors blocks to override.

<basis_specs>
===============================================================================
C                    Z=   6    Mass=  12.010        Charge= 0.17977+309
Lmxo=1 Lmxkb= 3    BasisType=split      Semic=F
L=0  Nsemic=0  Cnfigmx=2
          n=1  nzeta=3  polorb=0
            splnorm:   0.15000    
               vcte:    0.0000    
               rinn:    0.0000    
                rcs:    9.0000      2.7000      3.6000    
            lambdas:    1.0000      1.0000      1.0000    
L=1  Nsemic=0  Cnfigmx=2
          n=1  nzeta=3  polorb=1
            splnorm:   0.15000    
               vcte:    0.0000    
               rinn:    0.0000    
                rcs:    9.0000      2.5000      3.6000    
            lambdas:    1.0000      1.0000      1.0000    
-------------------------------------------------------------------------------
L=0  Nkbl=1  erefs: 0.17977+309
L=1  Nkbl=1  erefs: 0.17977+309
L=2  Nkbl=1  erefs: 0.17977+309
L=3  Nkbl=1  erefs: 0.17977+309
===============================================================================
</basis_specs>

atom: Called for C                     (Z =   6)

read_vps: Pseudopotential generation method:
read_vps: ATM3.3    Troullier-Martins                       
Total valence charge:    4.00000

xc_check: Exchange-correlation functional:
xc_check: VDW LMKLL
xc_check: WARNING: Pseudopotential generated with Unknown atomic XC code functional
 Processed:          150  lines.
 Processed:          150  lines.
 Processed:          150  lines.
 Processed:          150  lines.
 Processed:          150  lines.
 Processed:          150  lines.
 Processed:          150  lines.
 Processed:          150  lines.
 Processed:          150  lines.
 Processed:          150  lines.
 Processed:          150  lines.
 Processed:          150  lines.
V l=0 = -2*Zval/r beyond r=  5.3157
V l=1 = -2*Zval/r beyond r=  5.3157
V l=2 = -2*Zval/r beyond r=  5.3157
V l=3 = -2*Zval/r beyond r=  5.3157
All V_l potentials equal beyond r=  1.5418
This should be close to max(r_c) in ps generation
All pots = -2*Zval/r beyond r=  5.3157
Using large-core scheme for Vlocal

atom: Estimated core radius    5.31569

atom: Including non-local core corrections could be a good idea
atom: Maximum radius for 4*pi*r*r*local-pseudopot. charge    5.72973
atom: Maximum radius for r*vlocal+2*Zval:    5.38256
GHOST: No ghost state for L =  0
GHOST: No ghost state for L =  1
GHOST: No ghost state for L =  2
GHOST: No ghost state for L =  3

KBgen: Kleinman-Bylander projectors: 
   l= 0   rc=  1.600766   el= -1.028746   Ekb=  4.362799   kbcos=  0.292106
   l= 1   rc=  1.600766   el= -0.417779   Ekb= -4.642779   kbcos= -0.389769
   l= 2   rc=  1.600766   el=  0.000137   Ekb= -1.256278   kbcos= -0.011586
   l= 3   rc=  1.600766   el=  0.001231   Ekb= -0.552397   kbcos= -0.001665

KBgen: Total number of  Kleinman-Bylander projectors:   16
atom: -------------------------------------------------------------------------

atom: SANKEY-TYPE ORBITALS:
atom: Selected multiple-zeta basis: split     

SPLIT: Orbitals with angular momentum L= 0

SPLIT: Basis orbitals for state 2s

   izeta = 1
                 lambda =    1.000000
                     rc =    9.099279
                 energy =   -1.028782
                kinetic =    0.818365
    potential(screened) =   -1.847147
       potential(ionic) =   -5.384555

   izeta = 2
                 rmatch =    2.740361
              splitnorm =    0.376993
                 energy =   -0.589586
                kinetic =    1.807161
    potential(screened) =   -2.396748
       potential(ionic) =   -6.344602

   izeta = 3
                 rmatch =    3.607901
              splitnorm =    0.134907
                 energy =   -0.911262
                kinetic =    1.252630
    potential(screened) =   -2.163892
       potential(ionic) =   -5.956700

SPLIT: Orbitals with angular momentum L= 1

SPLIT: Basis orbitals for state 2p

   izeta = 1
                 lambda =    1.000000
                     rc =    9.099279
                 energy =   -0.417701
                kinetic =    2.341737
    potential(screened) =   -2.759439
       potential(ionic) =   -6.120003

   izeta = 2
                 rmatch =    2.542323
              splitnorm =    0.421681
                 energy =    0.194476
                kinetic =    5.514744
    potential(screened) =   -5.320268
       potential(ionic) =   -9.401931

   izeta = 3
                 rmatch =    3.607901
              splitnorm =    0.186223
                 energy =   -0.262948
                kinetic =    3.720245
    potential(screened) =   -3.983193
       potential(ionic) =   -7.803234

POLgen: Perturbative polarization orbital with L=  2

POLgen: Polarization orbital for state 2p

   izeta = 1
                     rc =    9.099279
                 energy =    0.851019
                kinetic =    1.874696
    potential(screened) =   -1.023677
       potential(ionic) =   -3.588173
atom: Total number of Sankey-type orbitals: 17

atm_pop: Valence configuration (for local Pseudopot. screening):
 2s( 2.00)                                                            
 2p( 2.00)                                                            
Vna: chval, zval:    4.00000   4.00000

Vna:  Cut-off radius for the neutral-atom potential:   9.099279

atom: _________________________________________________________________________

<basis_specs>
===============================================================================
S                    Z=  16    Mass=  32.070        Charge= 0.17977+309
Lmxo=1 Lmxkb= 3    BasisType=split      Semic=F
L=0  Nsemic=0  Cnfigmx=3
          n=1  nzeta=3  polorb=0
            splnorm:   0.15000    
               vcte:    0.0000    
               rinn:    0.0000    
                rcs:    8.5000      2.5000      5.0000    
            lambdas:    1.0000      1.0000      1.0000    
L=1  Nsemic=0  Cnfigmx=3
          n=1  nzeta=3  polorb=1
            splnorm:   0.15000    
               vcte:    0.0000    
               rinn:    0.0000    
                rcs:    8.5000      2.4000      5.4000    
            lambdas:    1.0000      1.0000      1.0000    
-------------------------------------------------------------------------------
L=0  Nkbl=1  erefs: 0.17977+309
L=1  Nkbl=1  erefs: 0.17977+309
L=2  Nkbl=1  erefs: 0.17977+309
L=3  Nkbl=1  erefs: 0.17977+309
===============================================================================
</basis_specs>

atom: Called for S                     (Z =  16)

read_vps: Pseudopotential generation method:
read_vps: ATM3.3    Troullier-Martins                       
Total valence charge:    6.00000

xc_check: Exchange-correlation functional:
xc_check: VDW LMKLL
xc_check: WARNING: Pseudopotential generated with Unknown atomic XC code functional
V l=0 = -2*Zval/r beyond r=  6.0641
V l=1 = -2*Zval/r beyond r=  6.0641
V l=2 = -2*Zval/r beyond r=  6.0641
V l=3 = -2*Zval/r beyond r=  6.0641
All V_l potentials equal beyond r=  1.8726
This should be close to max(r_c) in ps generation
All pots = -2*Zval/r beyond r=  6.0641
Using large-core scheme for Vlocal

atom: Estimated core radius    6.06410

atom: Including non-local core corrections could be a good idea
atom: Maximum radius for 4*pi*r*r*local-pseudopot. charge    2.55960
atom: Maximum radius for r*vlocal+2*Zval:    6.14038
GHOST: No ghost state for L =  0
GHOST: No ghost state for L =  1
GHOST: No ghost state for L =  2
GHOST: No ghost state for L =  3

KBgen: Kleinman-Bylander projectors: 
   l= 0   rc=  1.944163   el= -1.280897   Ekb=  6.395246   kbcos=  0.283459
   l= 1   rc=  1.944163   el= -0.534686   Ekb=  1.645939   kbcos=  0.250402
   l= 2   rc=  1.944163   el=  0.000165   Ekb= -3.764048   kbcos= -0.059734
   l= 3   rc=  1.944163   el=  0.001272   Ekb= -1.091229   kbcos= -0.004621

KBgen: Total number of  Kleinman-Bylander projectors:   16
atom: -------------------------------------------------------------------------

atom: SANKEY-TYPE ORBITALS:
atom: Selected multiple-zeta basis: split     

SPLIT: Orbitals with angular momentum L= 0

SPLIT: Basis orbitals for state 3s

   izeta = 1
                 lambda =    1.000000
                     rc =    8.605429
                 energy =   -1.280962
                kinetic =    0.826070
    potential(screened) =   -2.107032
       potential(ionic) =   -7.040627

   izeta = 2
                 rmatch =    2.527802
              splitnorm =    0.583939
                 energy =    0.038605
                kinetic =    3.083455
    potential(screened) =   -3.044850
       potential(ionic) =   -8.363708

   izeta = 3
                 rmatch =    5.090524
              splitnorm =    0.013701
                 energy =   -1.269004
* WARNING: effective split_norm is quite small. Orbitals will be very similar.
                kinetic =    0.936613
    potential(screened) =   -2.205617
       potential(ionic) =   -7.226785

SPLIT: Orbitals with angular momentum L= 1

SPLIT: Basis orbitals for state 3p

   izeta = 1
                 lambda =    1.000000
                     rc =    8.605429
                 energy =   -0.534578
                kinetic =    1.389438
    potential(screened) =   -1.924015
       potential(ionic) =   -6.449639

   izeta = 2
                 rmatch =    2.404512
              splitnorm =    0.643930
                 energy =    0.750024
                kinetic =    4.180831
    potential(screened) =   -3.430807
       potential(ionic) =   -8.937179

   izeta = 3
                 rmatch =    5.487008
              splitnorm =    0.036903
                 energy =   -0.510885
* WARNING: effective split_norm is quite small. Orbitals will be very similar.
                kinetic =    1.634978
    potential(screened) =   -2.145863
       potential(ionic) =   -6.883370

POLgen: Perturbative polarization orbital with L=  2

POLgen: Polarization orbital for state 3p

   izeta = 1
                     rc =    8.605429
                 energy =    0.525734
                kinetic =    1.769545
    potential(screened) =   -1.243810
       potential(ionic) =   -5.158576
atom: Total number of Sankey-type orbitals: 17

atm_pop: Valence configuration (for local Pseudopot. screening):
 3s( 2.00)                                                            
 3p( 4.00)                                                            
Vna: chval, zval:    6.00000   6.00000

Vna:  Cut-off radius for the neutral-atom potential:   8.605429

atom: _________________________________________________________________________

<basis_specs>
===============================================================================
Na                   Z=  11    Mass=  22.990        Charge= 0.17977+309
Lmxo=0 Lmxkb= 2    BasisType=split      Semic=F
L=0  Nsemic=0  Cnfigmx=3
          n=1  nzeta=3  polorb=1
            splnorm:   0.15000    
               vcte:    0.0000    
               rinn:    0.0000    
                rcs:    0.0000      0.0000      0.0000    
            lambdas:    1.0000      1.0000      1.0000    
-------------------------------------------------------------------------------
L=0  Nkbl=1  erefs: 0.17977+309
L=1  Nkbl=1  erefs: 0.17977+309
L=2  Nkbl=1  erefs: 0.17977+309
===============================================================================
</basis_specs>

atom: Called for Na                    (Z =  11)

read_vps: Pseudopotential generation method:
read_vps: ATM3.3    Troullier-Martins                       
Total valence charge:    1.00000

xc_check: Exchange-correlation functional:
xc_check: VDW LMKLL
xc_check: WARNING: Pseudopotential generated with Unknown atomic XC code functional
V l=0 = -2*Zval/r beyond r= 10.7734
V l=1 = -2*Zval/r beyond r= 10.7734
V l=2 = -2*Zval/r beyond r= 10.7734
All V_l potentials equal beyond r=  3.2447
This should be close to max(r_c) in ps generation
All pots = -2*Zval/r beyond r= 10.7734
Using large-core scheme for Vlocal

atom: Estimated core radius   10.77344

atom: Including non-local core corrections could be a good idea
atom: Maximum radius for 4*pi*r*r*local-pseudopot. charge   11.32582
atom: Maximum radius for r*vlocal+2*Zval:   10.90896
GHOST: No ghost state for L =  0
GHOST: No ghost state for L =  1
GHOST: No ghost state for L =  2

KBgen: Kleinman-Bylander projectors: 
   l= 0   rc=  3.326887   el= -0.223037   Ekb=  0.939964   kbcos=  0.286137
   l= 1   rc=  3.497472   el= -0.067121   Ekb=  0.240696   kbcos=  0.324664
   l= 2   rc=  3.368737   el=  0.000162   Ekb= -1.792814   kbcos= -0.038461

KBgen: Total number of  Kleinman-Bylander projectors:    9
atom: -------------------------------------------------------------------------

atom: SANKEY-TYPE ORBITALS:
atom: Selected multiple-zeta basis: split     

SPLIT: Orbitals with angular momentum L= 0

SPLIT: Basis orbitals for state 3s

SPLIT: PAO cut-off radius determined from an
SPLIT: energy shift=  0.001000 Ry

   izeta = 1
                 lambda =    1.000000
                     rc =   11.612537
                 energy =   -0.222079
                kinetic =    0.147697
    potential(screened) =   -0.369777
       potential(ionic) =   -0.537811

   izeta = 2
                 rmatch =    8.710933
              splitnorm =    0.150000
                 energy =   -0.200365
                kinetic =    0.229153
    potential(screened) =   -0.429518
       potential(ionic) =   -0.594738

   izeta = 3
                 rmatch =    9.748190
              splitnorm =    0.075000
                 energy =   -0.210516
                kinetic =    0.202428
    potential(screened) =   -0.412944
       potential(ionic) =   -0.579751

POLgen: Perturbative polarization orbital with L=  1

POLgen: Polarization orbital for state 3s

   izeta = 1
                     rc =   11.612537
                 energy =   -0.044013
                kinetic =    0.282735
    potential(screened) =   -0.326748
       potential(ionic) =   -0.491619
atom: Total number of Sankey-type orbitals:  6

atm_pop: Valence configuration (for local Pseudopot. screening):
 3s( 1.00)                                                            
Vna: chval, zval:    1.00000   1.00000

Vna:  Cut-off radius for the neutral-atom potential:  11.612537

atom: _________________________________________________________________________

<basis_specs>
===============================================================================
N                    Z=   7    Mass=  14.010        Charge= 0.17977+309
Lmxo=1 Lmxkb= 3    BasisType=split      Semic=F
L=0  Nsemic=0  Cnfigmx=2
          n=1  nzeta=3  polorb=0
            splnorm:   0.15000    
               vcte:    0.0000    
               rinn:    0.0000    
                rcs:    9.0000      2.5000      4.3000    
            lambdas:    1.0000      1.0000      1.0000    
L=1  Nsemic=0  Cnfigmx=2
          n=1  nzeta=3  polorb=1
            splnorm:   0.15000    
               vcte:    0.0000    
               rinn:    0.0000    
                rcs:    9.0000      2.4000      3.8000    
            lambdas:    1.0000      1.0000      1.0000    
-------------------------------------------------------------------------------
L=0  Nkbl=1  erefs: 0.17977+309
L=1  Nkbl=1  erefs: 0.17977+309
L=2  Nkbl=1  erefs: 0.17977+309
L=3  Nkbl=1  erefs: 0.17977+309
===============================================================================
</basis_specs>

atom: Called for N                     (Z =   7)

read_vps: Pseudopotential generation method:
read_vps: ATM3.3    Troullier-Martins                       
Total valence charge:    5.00000

xc_check: Exchange-correlation functional:
xc_check: VDW LMKLL
xc_check: WARNING: Pseudopotential generated with Unknown atomic XC code functional
V l=0 = -2*Zval/r beyond r=  4.3886
V l=1 = -2*Zval/r beyond r=  4.3886
V l=2 = -2*Zval/r beyond r=  4.3886
V l=3 = -2*Zval/r beyond r=  4.3886
All V_l potentials equal beyond r=  1.4606
This should be close to max(r_c) in ps generation
All pots = -2*Zval/r beyond r=  4.3886
Using large-core scheme for Vlocal

atom: Estimated core radius    4.38860

atom: Including non-local core corrections could be a good idea
atom: Maximum radius for 4*pi*r*r*local-pseudopot. charge    4.78993
atom: Maximum radius for r*vlocal+2*Zval:    4.44380
GHOST: No ghost state for L =  0
GHOST: No ghost state for L =  1
GHOST: No ghost state for L =  2
GHOST: No ghost state for L =  3

KBgen: Kleinman-Bylander projectors: 
   l= 0   rc=  1.516426   el= -1.384037   Ekb=  5.003330   kbcos=  0.248027
   l= 1   rc=  1.516426   el= -0.553554   Ekb= -6.239124   kbcos= -0.455113
   l= 2   rc=  1.516426   el=  0.000157   Ekb= -1.621527   kbcos= -0.009557
   l= 3   rc=  1.516426   el=  0.001260   Ekb= -0.721831   kbcos= -0.001322

KBgen: Total number of  Kleinman-Bylander projectors:   16
atom: -------------------------------------------------------------------------

atom: SANKEY-TYPE ORBITALS:
atom: Selected multiple-zeta basis: split     

SPLIT: Orbitals with angular momentum L= 0

SPLIT: Basis orbitals for state 2s

   izeta = 1
                 lambda =    1.000000
                     rc =    9.061646
                 energy =   -1.384083
                kinetic =    1.138478
    potential(screened) =   -2.522561
       potential(ionic) =   -8.023340

   izeta = 2
                 rmatch =    2.531849
              splitnorm =    0.279302
                 energy =   -0.984788
                kinetic =    2.167047
    potential(screened) =   -3.151835
       potential(ionic) =   -9.249578

   izeta = 3
                 rmatch =    4.280232
              splitnorm =    0.017802
                 energy =   -1.364927
* WARNING: effective split_norm is quite small. Orbitals will be very similar.
                kinetic =    1.305680
    potential(screened) =   -2.670607
       potential(ionic) =   -8.325817

SPLIT: Orbitals with angular momentum L= 1

SPLIT: Basis orbitals for state 2p

   izeta = 1
                 lambda =    1.000000
                     rc =    9.061646
                 energy =   -0.553581
                kinetic =    3.375830
    potential(screened) =   -3.929411
       potential(ionic) =   -9.175051

   izeta = 2
                 rmatch =    2.408352
              splitnorm =    0.319803
                 energy =   -0.019422
                kinetic =    6.675109
    potential(screened) =   -6.694530
       potential(ionic) =  -12.919528

   izeta = 3
                 rmatch =    3.777250
              splitnorm =    0.083818
                 energy =   -0.477376
                kinetic =    4.399373
    potential(screened) =   -4.876748
       potential(ionic) =  -10.589170

POLgen: Perturbative polarization orbital with L=  2

POLgen: Polarization orbital for state 2p

   izeta = 1
                     rc =    9.061646
                 energy =    1.274251
                kinetic =    2.706331
    potential(screened) =   -1.432079
       potential(ionic) =   -5.376240
atom: Total number of Sankey-type orbitals: 17

atm_pop: Valence configuration (for local Pseudopot. screening):
 2s( 2.00)                                                            
 2p( 3.00)                                                            
Vna: chval, zval:    5.00000   5.00000

Vna:  Cut-off radius for the neutral-atom potential:   9.061646

atom: _________________________________________________________________________

<basis_specs>
===============================================================================
O                    Z=   8    Mass=  16.000        Charge= 0.17977+309
Lmxo=1 Lmxkb= 3    BasisType=split      Semic=F
L=0  Nsemic=0  Cnfigmx=2
          n=1  nzeta=3  polorb=0
            splnorm:   0.15000    
               vcte:    0.0000    
               rinn:    0.0000    
                rcs:    8.5000      2.5000      5.0000    
            lambdas:    1.0000      1.0000      1.0000    
L=1  Nsemic=0  Cnfigmx=2
          n=1  nzeta=3  polorb=1
            splnorm:   0.15000    
               vcte:    0.0000    
               rinn:    0.0000    
                rcs:    9.0000      2.4000      5.4000    
            lambdas:    1.0000      1.0000      1.0000    
-------------------------------------------------------------------------------
L=0  Nkbl=1  erefs: 0.17977+309
L=1  Nkbl=1  erefs: 0.17977+309
L=2  Nkbl=1  erefs: 0.17977+309
L=3  Nkbl=1  erefs: 0.17977+309
===============================================================================
</basis_specs>

atom: Called for O                     (Z =   8)

read_vps: Pseudopotential generation method:
read_vps: ATM3.3    Troullier-Martins                       
Total valence charge:    6.00000

xc_check: Exchange-correlation functional:
xc_check: VDW LMKLL
xc_check: WARNING: Pseudopotential generated with Unknown atomic XC code functional
V l=0 = -2*Zval/r beyond r=  2.6723
V l=1 = -2*Zval/r beyond r=  2.6723
V l=2 = -2*Zval/r beyond r=  2.6723
V l=3 = -2*Zval/r beyond r=  2.6723
All V_l potentials equal beyond r=  1.4482
This should be close to max(r_c) in ps generation
All pots = -2*Zval/r beyond r=  2.6723
Using large-core scheme for Vlocal

atom: Estimated core radius    2.67231

atom: Including non-local core corrections could be a good idea
atom: Maximum radius for 4*pi*r*r*local-pseudopot. charge    3.14389
atom: Maximum radius for r*vlocal+2*Zval:    2.70593
GHOST: No ghost state for L =  0
GHOST: No ghost state for L =  1
GHOST: No ghost state for L =  2
GHOST: No ghost state for L =  3

KBgen: Kleinman-Bylander projectors: 
   l= 0   rc=  1.503585   el= -1.779675   Ekb= -9.464596   kbcos= -0.084701
   l= 1   rc=  1.503585   el= -0.699088   Ekb= -8.000316   kbcos= -0.523182
   l= 2   rc=  1.503585   el=  0.000197   Ekb= -1.973137   kbcos= -0.008602
   l= 3   rc=  1.503585   el=  0.001319   Ekb= -0.877897   kbcos= -0.001222

KBgen: Total number of  Kleinman-Bylander projectors:   16
atom: -------------------------------------------------------------------------

atom: SANKEY-TYPE ORBITALS:
atom: Selected multiple-zeta basis: split     

SPLIT: Orbitals with angular momentum L= 0

SPLIT: Basis orbitals for state 2s

   izeta = 1
                 lambda =    1.000000
                     rc =    8.546503
                 energy =   -1.779728
                kinetic =    1.517373
    potential(screened) =   -3.297102
       potential(ionic) =  -11.177458

   izeta = 2
                 rmatch =    2.510382
              splitnorm =    0.165477
                 energy =   -1.504871
                kinetic =    2.431996
    potential(screened) =   -3.936867
       potential(ionic) =  -12.514426

   izeta = 3
                 rmatch =    5.055603
              splitnorm =    0.001104
                 energy =   -1.778115
* WARNING: effective split_norm is quite small. Orbitals will be very similar.
                kinetic =    1.561881
    potential(screened) =   -3.339996
       potential(ionic) =  -11.273025

SPLIT: Orbitals with angular momentum L= 1

SPLIT: Basis orbitals for state 2p

   izeta = 1
                 lambda =    1.000000
                     rc =    8.984708
                 energy =   -0.699155
                kinetic =    4.481222
    potential(screened) =   -5.180377
       potential(ionic) =  -12.692538

   izeta = 2
                 rmatch =    2.387934
              splitnorm =    0.223278
                 energy =   -0.294690
                kinetic =    7.512089
    potential(screened) =   -7.806779
       potential(ionic) =  -16.470490

   izeta = 3
                 rmatch =    5.449379
              splitnorm =    0.004964
                 energy =   -0.694858
* WARNING: effective split_norm is quite small. Orbitals will be very similar.
                kinetic =    4.668557
    potential(screened) =   -5.363415
       potential(ionic) =  -13.004195

POLgen: Perturbative polarization orbital with L=  2

POLgen: Polarization orbital for state 2p

   izeta = 1
                     rc =    8.984708
                 energy =    1.782562
                kinetic =    3.710549
    potential(screened) =   -1.927987
       potential(ionic) =   -7.553219
atom: Total number of Sankey-type orbitals: 17

atm_pop: Valence configuration (for local Pseudopot. screening):
 2s( 2.00)                                                            
 2p( 4.00)                                                            
Vna: chval, zval:    6.00000   6.00000

Vna:  Cut-off radius for the neutral-atom potential:   8.984708

atom: _________________________________________________________________________

<basis_specs>
===============================================================================
H                    Z=   1    Mass=  1.0100        Charge= 0.17977+309
Lmxo=0 Lmxkb= 2    BasisType=split      Semic=F
L=0  Nsemic=0  Cnfigmx=1
          n=1  nzeta=3  polorb=1
            splnorm:   0.50000    
               vcte:    0.0000    
               rinn:    0.0000    
                rcs:    8.0000      1.8000      4.1000    
            lambdas:    1.0000      1.0000      1.0000    
-------------------------------------------------------------------------------
L=0  Nkbl=1  erefs: 0.17977+309
L=1  Nkbl=1  erefs: 0.17977+309
L=2  Nkbl=1  erefs: 0.17977+309
===============================================================================
</basis_specs>

atom: Called for H                     (Z =   1)

read_vps: Pseudopotential generation method:
read_vps: ATM3.3    Troullier-Martins                       
Total valence charge:    1.00000

xc_check: Exchange-correlation functional:
xc_check: VDW LMKLL
xc_check: WARNING: Pseudopotential generated with Unknown atomic XC code functional
V l=0 = -2*Zval/r beyond r=  1.3644
V l=1 = -2*Zval/r beyond r=  1.3474
V l=2 = -2*Zval/r beyond r=  1.3474
All V_l potentials equal beyond r=  1.2343
This should be close to max(r_c) in ps generation
All pots = -2*Zval/r beyond r=  1.3644

VLOCAL1: 99.0% of the norm of Vloc inside     28.493 Ry
VLOCAL1: 99.9% of the norm of Vloc inside     64.935 Ry
atom: Maximum radius for 4*pi*r*r*local-pseudopot. charge    1.45251
atom: Maximum radius for r*vlocal+2*Zval:    1.21892
GHOST: No ghost state for L =  0
GHOST: No ghost state for L =  1
GHOST: No ghost state for L =  2

KBgen: Kleinman-Bylander projectors: 
   l= 0   rc=  1.625762   el= -0.519992   Ekb= -2.047279   kbcos= -0.354363
   l= 1   rc=  2.519390   el= -0.000771   Ekb= -0.506821   kbcos= -0.022580
   l= 2   rc=  2.927514   el=  0.000176   Ekb= -0.221733   kbcos= -0.002090

KBgen: Total number of  Kleinman-Bylander projectors:    9
atom: -------------------------------------------------------------------------

atom: SANKEY-TYPE ORBITALS:
atom: Selected multiple-zeta basis: split     

SPLIT: Orbitals with angular momentum L= 0

SPLIT: Basis orbitals for state 1s

   izeta = 1
                 lambda =    1.000000
                     rc =    7.962068
                 energy =   -0.519774
                kinetic =    0.910189
    potential(screened) =   -1.429963
       potential(ionic) =   -1.906963

   izeta = 2
                 rmatch =    1.819640
              splitnorm =    0.711859
                 energy =    1.124022
                kinetic =    4.644871
    potential(screened) =   -3.520849
       potential(ionic) =   -3.960301

   izeta = 3
                 rmatch =    4.155379
              splitnorm =    0.140914
                 energy =   -0.434175
                kinetic =    1.462160
    potential(screened) =   -1.896335
       potential(ionic) =   -2.393173

POLgen: Perturbative polarization orbital with L=  1

POLgen: Polarization orbital for state 1s

   izeta = 1
                     rc =    7.962068
                 energy =    0.477749
                kinetic =    1.090716
    potential(screened) =   -0.612967
       potential(ionic) =   -1.043837
atom: Total number of Sankey-type orbitals:  6

atm_pop: Valence configuration (for local Pseudopot. screening):
 1s( 1.00)                                                            
Vna: chval, zval:    1.00000   1.00000

Vna:  Cut-off radius for the neutral-atom potential:   7.962068

atom: _________________________________________________________________________

prinput: Basis input ----------------------------------------------------------

PAO.BasisType split     

%block ChemicalSpeciesLabel
    1    6 C                       # Species index, atomic number, species label
    2   16 S                       # Species index, atomic number, species label
    3   11 Na                      # Species index, atomic number, species label
    4    7 N                       # Species index, atomic number, species label
    5    8 O                       # Species index, atomic number, species label
    6    1 H                       # Species index, atomic number, species label
%endblock ChemicalSpeciesLabel

%block PAO.Basis                 # Define Basis set
C                     2                    # Species label, number of l-shells
 n=2   0   3                         # n, l, Nzeta 
   9.099      2.740      3.608   
   1.000      1.000      1.000   
 n=2   1   3 P   1                   # n, l, Nzeta, Polarization, NzetaPol
   9.099      2.542      3.608   
   1.000      1.000      1.000   
S                     2                    # Species label, number of l-shells
 n=3   0   3                         # n, l, Nzeta 
   8.605      2.528      5.091   
   1.000      1.000      1.000   
 n=3   1   3 P   1                   # n, l, Nzeta, Polarization, NzetaPol
   8.605      2.405      5.487   
   1.000      1.000      1.000   
Na                    1                    # Species label, number of l-shells
 n=3   0   3 P   1                   # n, l, Nzeta, Polarization, NzetaPol
  11.613      8.711      9.748   
   1.000      1.000      1.000   
N                     2                    # Species label, number of l-shells
 n=2   0   3                         # n, l, Nzeta 
   9.062      2.532      4.280   
   1.000      1.000      1.000   
 n=2   1   3 P   1                   # n, l, Nzeta, Polarization, NzetaPol
   9.062      2.408      3.777   
   1.000      1.000      1.000   
O                     2                    # Species label, number of l-shells
 n=2   0   3                         # n, l, Nzeta 
   8.547      2.510      5.056   
   1.000      1.000      1.000   
 n=2   1   3 P   1                   # n, l, Nzeta, Polarization, NzetaPol
   8.985      2.388      5.449   
   1.000      1.000      1.000   
H                     1                    # Species label, number of l-shells
 n=1   0   3 P   1                   # n, l, Nzeta, Polarization, NzetaPol
   7.962      1.820      4.155   
   1.000      1.000      1.000   
%endblock PAO.Basis

prinput: ----------------------------------------------------------------------

coor:   Atomic-coordinates input format  =     Cartesian coordinates
coor:                                          (in Angstroms)

siesta: WARNING: XV file not found

siesta: Atomic coordinates (Bohr) and species
siesta:     44.68524  18.82968  28.92864  5        1
siesta:     46.90943  22.08418  26.30319  5        2
siesta:     45.39577  18.02459  24.31985  5        3
siesta:     44.74642  20.09948  26.27548  2        4
siesta:     32.05362  29.17010  25.21082  5        5
siesta:     34.17966  28.02700  25.20245  1        6
siesta:     36.42717  31.50895  25.48440  6        7
siesta:     36.58302  29.45150  25.40575  1        8
siesta:     40.63759  29.32334  25.72005  6        9
siesta:     38.89144  28.22850  25.52673  1       10
siesta:     39.11781  25.45604  25.41534  1       11
siesta:     43.24758  25.39821  25.99488  6       12
siesta:     41.54622  24.26972  25.68382  1       13
siesta:     41.71041  21.61063  25.58821  1       14
siesta:     39.75763  18.00387  25.02212  6       15
siesta:     39.54602  20.05330  25.14322  1       16
siesta:     35.47297  20.04954  24.58096  6       17
siesta:     37.15058  21.20843  24.89355  1       18
siesta:     36.87247  23.90830  25.08592  1       19
siesta:     34.34997  25.17454  25.01478  1       20
siesta:     32.29940  23.63572  24.88471  4       21
siesta:     29.95976  26.69769  25.01448  6       22
siesta:     29.99353  24.72088  24.89016  4       23
siesta:     25.43493  17.14393  25.19964  6       24
siesta:     25.47608  19.20589  25.26446  1       25
siesta:     29.53269  19.56004  24.53294  6       26
siesta:     27.76087  20.55284  24.88441  1       27
siesta:     27.74674  23.25929  25.02822  1       28
siesta:     25.43898  26.67877  25.43919  6       29
siesta:     25.42377  24.61168  25.39052  1       30
siesta:     21.36196  24.24983  26.11662  6       31
siesta:     23.14222  23.26398  25.77859  1       32
siesta:     23.21106  20.57504  25.76614  1       33
siesta:     20.25565  16.17466  25.59634  5       34
siesta:     20.41207  18.49716  29.71175  5       35
siesta:     20.39193  18.84733  26.79033  2       36
siesta:     17.93716  20.30369  26.11270  5       37
siesta:     47.12400  16.37705  16.54442  5       38
siesta:     46.84585  19.23869  15.96939  2       39
siesta:     49.16802  20.64833  17.07902  5       40
siesta:     46.95005  19.55438  13.04500  5       41
siesta:     43.87677  20.51424  17.19939  1       42
siesta:     43.82373  23.05061  18.08734  1       43
siesta:     45.58248  24.10837  18.29453  6       44
siesta:     41.45305  24.16100  18.65849  1       45
siesta:     41.34696  26.11824  19.31555  6       46
siesta:     39.17547  22.73355  18.31363  1       47
siesta:     39.27331  20.13806  17.53459  1       48
siesta:     37.52326  19.06944  17.32708  6       49
siesta:     41.64243  19.02987  16.96485  1       50
siesta:     41.77264  17.07385  16.32192  6       51
siesta:     36.85179  24.02396  18.70342  4       52
siesta:     36.78584  25.96325  19.09896  6       53
siesta:     34.61442  22.86302  18.37474  4       54
siesta:     32.47050  24.26006  18.59062  1       55
siesta:     30.02731  22.89458  18.21501  1       56
siesta:     29.91485  20.21719  17.74570  1       57
siesta:     31.66796  19.13097  17.72218  6       58
siesta:     27.58392  18.99775  17.28081  1       59
siesta:     27.49352  16.96958  16.91033  6       60
siesta:     25.31260  20.46288  17.29922  1       61
siesta:     25.31684  23.07374  17.84606  1       62
siesta:     23.53864  24.12337  17.89929  6       63
siesta:     27.68348  24.32481  18.31170  1       64
siesta:     27.74667  27.05134  18.85978  1       65
siesta:     25.93588  28.04872  18.95936  6       66
siesta:     29.98460  28.35451  19.24759  1       67
siesta:     30.02089  30.37297  19.68604  6       68
siesta:     32.46834  27.06760  19.10915  1       69
siesta:     34.52856  28.29178  19.43652  5       70
siesta:     22.34027  18.94017  16.37333  2       71
siesta:     22.14134  16.23437  17.47932  5       72
siesta:     20.03527  20.50434  17.28416  5       73
siesta:     22.14414  18.69856  13.44819  5       74
siesta:     16.97172  16.74598  28.19542  3       75
siesta:     18.71355  17.08469  15.13359  3       76
siesta:     48.45570  18.28743  27.34580  3       77
siesta:     50.44994  17.71910  14.29536  3       78

siesta: System type = molecule  

initatomlists: Number of atoms, orbitals, and projectors:     78  1062  1080

siesta: ******************** Simulation parameters ****************************
siesta:
siesta: The following are some of the parameters of the simulation.
siesta: A complete list of the parameters used, including default values,
siesta: can be found in file out.fdf
siesta:
redata: Non-Collinear-spin run           =     F
redata: SpinPolarized (Up/Down) run      =     F
redata: Number of spin components        =     1
redata: Long output                      =     T
redata: Number of Atomic Species         =        6
redata: Charge density info will appear in .RHO file
redata: Write Mulliken Pop.              =     Atomic and Orbital charges
redata: Mesh Cutoff                      =   300.0000  Ry
redata: Net charge of the system         =     0.0000 |e|
redata: Max. number of SCF Iter          =      500
redata: Performing Pulay mixing using    =     5 iterations
redata: Mix DM in first SCF step ?       =     F
redata: Write Pulay info on disk?        =     F
redata: Discard 1st Pulay DM after  kick =     F
redata: New DM Mixing Weight             =     0.2500
redata: New DM Occupancy tolerance       = 0.000000000001
redata: No kicks to SCF
redata: DM Mixing Weight for Kicks       =     0.5000
redata: DM Tolerance for SCF             =     0.000100
redata: Require Energy convergence for SCF =     F
redata: DM Energy tolerance for SCF      =     0.000100 eV
redata: Require Harris convergence for SCF =     F
redata: DM Harris energy tolerance for SCF =     0.000100 eV
redata: Using Saved Data (generic)   =     T
redata: Use continuation files for DM    =     T
redata: Neglect nonoverlap interactions  =     F
redata: Method of Calculation            =     Diagonalization
redata: Divide and Conquer               =     T
redata: Electronic Temperature           =     0.0019  Ry
redata: Fix the spin of the system       =     F
redata: Dynamics option                  =     CG coord. optimization
redata: Variable cell                    =     F
redata: Use continuation files for CG    =     T
redata: Max atomic displ per move        =     0.2000  Bohr
redata: Maximum number of CG moves       =        0
redata: Force tolerance                  =     0.0004  Ry/Bohr
redata: ***********************************************************************
Total number of electrons:   280.000000
Total ionic charge:   280.000000

* ProcessorY, Blocksize:    6  23

 Kpoints in:            1 . Kpoints trimmed:            1

siesta: k-point coordinates (Bohr**-1) and weights:
siesta:    1    0.000000    0.000000    0.000000       1.000000

siesta: k-grid: Number of k-points =     1
siesta: k-grid: Cutoff (effective) =    12.000 Ang
siesta: k-grid: Supercell and displacements
siesta: k-grid:    1   0   0      0.000
siesta: k-grid:    0   1   0      0.000
siesta: k-grid:    0   0   1      0.000

siesta:                 ==============================
                            Begin CG move =      0
                        ==============================

outcoor: Atomic coordinates (Ang):                          
   23.64640374    9.96423098   15.30836985   5       1  O
   24.82338895   11.68644229   13.91904173   5       2  O
   24.02239758    9.53819613   12.86950409   5       3  O
   23.67877688   10.63618504   13.90438178   2       4  S
   16.96203641   15.43614614   13.34098823   5       5  O
   18.08708820   14.83124241   13.33655439   1       6  C
   19.27642119   16.67381138   13.48575837   6       7  H
   19.35889531   15.58505617   13.44414102   1       8  C
   21.50447999   15.51723463   13.61045686   6       9  H
   20.58045759   14.93787392   13.50815713   1      10  C
   20.70024649   13.47075332   13.44921195   1      11  C
   22.88562601   13.44014729   13.75589342   6      12  H
   21.98530380   12.84298012   13.59128658   1      13  C
   22.07218854   11.43584755   13.54069100   1      14  C
   21.03882425    9.52723496   13.24113030   6      15  H
   20.92684463   10.61174460   13.30521393   1      16  C
   18.77148182   10.60975577   13.00767861   6      17  H
   19.65923462   11.22301457   13.17309399   1      18  C
   19.51206551   12.65172096   13.27489037   1      19  C
   18.17721548   13.32178682   13.23724502   1      20  C
   17.09209859   12.50747701   13.16841694   4      21  N
   15.85401733   14.12780481   13.23708739   6      22  H
   15.87188370   13.08172311   13.17130100   4      23  N
   13.45958214    9.07217450   13.33507137   6      24  H
   13.48135823   10.16331631   13.36937183   1      25  C
   15.62802050   10.35072537   12.98226815   6      26  H
   14.69041250   10.87608936   13.16825513   1      27  C
   14.68293579   12.30828384   13.24435687   1      28  C
   13.46172572   14.11779285   13.46183367   6      29  H
   13.45367532   13.02393503   13.43607761   1      30  C
   11.30425724   12.83245193   13.82031277   6      31  H
   12.24632959   12.31076322   13.64143636   1      32  C
   12.28275821   10.88783957   13.63484786   1      33  C
   10.71882404    8.55925652   13.54499620   5      34  O
   10.80159967    9.78826933   15.72277638   5      35  O
   10.79093946    9.97357220   14.17682619   2      36  S
    9.49193384   10.74424473   13.81823838   5      37  O
   24.93693525    8.66636025    8.75492877   5      38  O
   24.78974798   10.18067347    8.45063498   2      39  S
   26.01858787   10.92661880    9.03782647   5      40  O
   24.84488666   10.34772571    6.90311591   5      41  O
   23.21857905   10.85566474    9.10152054   1      42  C
   23.19050784   12.19785257    9.57140620   1      43  C
   24.12119952   12.75759239    9.68104511   6      44  H
   21.93600137   12.78544683    9.87364521   1      45  C
   21.87986249   13.82117038   10.22134643   6      46  H
   20.73075892   12.03007347    9.69115231   1      47  C
   20.78253144   10.65660047    9.27890299   1      48  C
   19.85644819   10.09111030    9.16909421   6      49  H
   22.03621754   10.07017053    8.97740841   1      50  C
   22.10511893    9.03508977    8.63718671   6      51  H
   19.50112049   12.71292522    9.89741951   4      52  N
   19.46622212   13.73915723   10.10673150   6      53  H
   18.31715414   12.09858259    9.72349025   4      54  N
   17.18263968   12.83786828    9.83773038   1      55  C
   15.88975989   12.11528314    9.63896381   1      56  C
   15.83025268   10.69847161    9.39061737   1      57  C
   16.75795493   10.12367099    9.37816847   6      58  H
   14.59677624   10.05317152    9.14460814   1      59  C
   14.54893898    8.97991138    8.94855634   6      60  H
   13.39484777   10.82848496    9.15434882   1      61  C
   13.39708873   12.21009316    9.44372646   1      62  C
   12.45610746   12.76553111    9.47189077   6      63  H
   14.64946130   12.87212990    9.69013210   1      64  C
   14.68289803   14.31494774    9.98015927   1      65  C
   13.72467319   14.84273585   10.03285929   6      66  H
   15.86715889   15.00455557   10.18538439   1      67  C
   15.88636365   16.07267892   10.41739965   6      68  H
   17.18150118   14.32355040   10.11212190   1      69  C
   18.27172092   14.97136169   10.28536114   5      70  O
   11.82195735   10.02270158    8.66438708   2      71  S
   11.71668915    8.59085605    9.24965363   5      72  O
   10.60220553   10.85042254    9.14638021   5      73  O
   11.71817157    9.89484569    7.11647339   5      74  O
    8.98104294    8.86158966   14.92036594   3      75  Na
    9.90278175    9.04082350    8.00834832   3      76  Na
   25.64163987    9.67728859   14.47076674   3      77  Na
   26.69694951    9.37653843    7.56477403   3      78  Na

outcell: Unit cell vectors (Ang):
       35.000000    0.000000    0.000000
        0.000000   24.000000    0.000000
        0.000000    0.000000   24.000000

outcell: Cell vector modules (Ang)   :   35.000000   24.000000   24.000000
outcell: Cell angles (23,13,12) (deg):     90.0000     90.0000     90.0000
outcell: Cell volume (Ang**3)        :  20160.0000
New_DM. Step:     1
Initializing Density Matrix...
New grid distribution:   1
           1       1:  192    1:   22    1:   16
           2       1:  192    1:   22   17:   32
           3       1:  192    1:   22   33:   48
           4       1:  192    1:   22   49:   64
           5       1:  192    1:   22   65:   80
           6       1:  192    1:   22   81:   96
           7       1:  192    1:   22   97:  112
           8       1:  192    1:   22  113:  128
           9       1:  192   23:   44    1:   16
          10       1:  192   23:   44   17:   32
          11       1:  192   23:   44   33:   48
          12       1:  192   23:   44   49:   64
          13       1:  192   23:   44   65:   80
          14       1:  192   23:   44   81:   96
          15       1:  192   23:   44   97:  112
          16       1:  192   23:   44  113:  128
          17       1:  192   45:   65    1:   16
          18       1:  192   45:   65   17:   32
          19       1:  192   45:   65   33:   48
          20       1:  192   45:   65   49:   64
          21       1:  192   45:   65   65:   80
          22       1:  192   45:   65   81:   96
          23       1:  192   45:   65   97:  112
          24       1:  192   45:   65  113:  128
          25       1:  192   66:   86    1:   16
          26       1:  192   66:   86   17:   32
          27       1:  192   66:   86   33:   48
          28       1:  192   66:   86   49:   64
          29       1:  192   66:   86   65:   80
          30       1:  192   66:   86   81:   96
          31       1:  192   66:   86   97:  112
          32       1:  192   66:   86  113:  128
          33       1:  192   87:  107    1:   16
          34       1:  192   87:  107   17:   32
          35       1:  192   87:  107   33:   48
          36       1:  192   87:  107   49:   64
          37       1:  192   87:  107   65:   80
          38       1:  192   87:  107   81:   96
          39       1:  192   87:  107   97:  112
          40       1:  192   87:  107  113:  128
          41       1:  192  108:  128    1:   16
          42       1:  192  108:  128   17:   32
          43       1:  192  108:  128   33:   48
          44       1:  192  108:  128   49:   64
          45       1:  192  108:  128   65:   80
          46       1:  192  108:  128   81:   96
          47       1:  192  108:  128   97:  112
          48       1:  192  108:  128  113:  128

InitMesh: MESH =   384 x   256 x   256 =    25165824
InitMesh: (bp) =   192 x   128 x   128 =     3145728
InitMesh: Mesh cutoff (required, used) =   300.000   314.455 Ry
ExtMesh (bp) on 0 =   328 x   154 x   148 =     7475776
New grid distribution:   2
           1       1:   76    1:   63    1:   48
           2      98:  122    1:   56   50:   61
           3      98:  118    1:   66   62:   67
           4     123:  192    1:   54   46:   61
           5       1:   84   65:   71   69:  128
           6     119:  192    1:   56   68:  128
           7      77:   97    1:   56   50:   62
           8      98:  112   74:  128   52:   61
           9     123:  192    1:   63    1:   45
          10      74:   97   58:   64   68:  128
          11      74:   97    1:   64   63:   67
          12       1:   76    1:   54   49:   62
          13     112:  192   67:   73   68:  128
          14       1:   73    1:   53   69:  128
          15     123:  192   55:   63   46:   61
          16     113:  192   64:   71   50:   61
          17      98:  122    1:   63    1:   49
          18      84:   97   64:  128    1:   51
          19      98:  111   67:  128   62:   67
          20     119:  192    1:   66   62:   67
          21       1:   73    1:   64   63:   68
          22      74:   97    1:   57   68:  128
          23       1:   73   54:   64   69:  128
          24      85:   97   65:  128   63:   68
          25       1:   83   64:  128    1:   49
          26      98:  112   64:  128    1:   51
          27       1:   76   55:   63   49:   62
          28      84:   97   74:  128   52:   62
          29      98:  118    1:   59   68:  128
          30     119:  192   57:   66   68:  128
          31      98:  118   60:   66   68:  128
          32      85:   97   65:   74   69:  128
          33     113:  192   64:  128    1:   49
          34       1:   83   64:   71   50:   62
          35      98:  122   57:   63   50:   61
          36       1:   83   72:  128   50:   62
          37       1:   84   65:  128   63:   68
          38       1:   84   72:  128   69:  128
          39      98:  111   77:  128   68:  128
          40      77:   97   57:   63   50:   62
          41      77:   97    1:   63    1:   49
          42      98:  111   67:   76   68:  128
          43      84:   97   64:   73   52:   62
          44     113:  192   72:  128   50:   61
          45     112:  192   67:  128   62:   67
          46     112:  192   74:  128   68:  128
          47      85:   97   75:  128   69:  128
          48      98:  112   64:   73   52:   61
New grid distribution:   3
           1       1:   57    1:   54    1:   33
           2     143:  192    1:   55    1:   31
           3      68:   97   55:  128   63:   73
           4       1:   53    1:   54   63:   77
           5       1:   57    1:   38   34:   62
           6     139:  192    1:   43   76:  128
           7       1:   53   40:   54   78:  128
           8      98:  125   59:  128   61:   72
           9     133:  192   69:  128   33:   60
          10      98:  142    1:   55    1:   34
          11     133:  192   56:   68   33:   60
          12      58:   97    1:   39   36:   62
          13     143:  192    1:   40   32:   60
          14       1:   53    1:   39   78:  128
          15     139:  192   44:   58   76:  128
          16     143:  192   41:   55   32:   60
          17      98:  132   56:  128    1:   39
          18      58:   97    1:   54    1:   35
          19       1:   67   55:   65   76:  128
          20       1:   57   39:   54   34:   62
          21      98:  138    1:   44   74:  128
          22      98:  142    1:   41   35:   60
          23     126:  192   59:   70   74:  128
          24      54:   97   42:   54   76:  128
          25       1:   68   55:  128    1:   36
          26      69:   97   55:  128    1:   40
          27      98:  125   59:   80   73:  128
          28       1:   68   55:   68   37:   62
          29       1:   67   55:  128   63:   75
          30       1:   67   66:  128   76:  128
          31      68:   97   55:   75   74:  128
          32      69:   97   55:   80   41:   62
          33     133:  192   56:  128    1:   32
          34      98:  142   42:   55   35:   60
          35      98:  132   78:  128   40:   60
          36     126:  192   59:  128   61:   73
          37      98:  138   45:   58   74:  128
          38     126:  192   71:  128   74:  128
          39      68:   97   76:  128   74:  128
          40      58:   97   40:   54   36:   62
          41     139:  192    1:   58   61:   75
          42      98:  138    1:   58   61:   73
          43      69:   97   81:  128   41:   62
          44       1:   68   69:  128   37:   62
          45      54:   97    1:   41   76:  128
          46      98:  125   81:  128   73:  128
          47      54:   97    1:   54   63:   75
          48      98:  132   56:   77   40:   60
Setting up quadratic distribution...
ExtMesh (bp) on 0 =   212 x   195 x   180 =     7441200
PhiOnMesh: Number of (b)points on node 0 =               229824
PhiOnMesh: nlist on node 0 =              1866269

stepf: Fermi-Dirac step function

siesta: Program's energy decomposition (eV):
siesta: Ebs     =     -4841.197781
siesta: Eions   =     18316.795456
siesta: Ena     =      2204.645447
siesta: Ekin    =      8067.495154
siesta: Enl     =     -2124.814118
siesta: DEna    =         0.000005
siesta: DUscf   =         0.000000
siesta: DUext   =         0.000000
siesta: Exc     =     -3535.032788
siesta: eta*DQ  =         0.000000
siesta: Emadel  =         0.000000
siesta: Emeta   =         0.000000
siesta: Emolmec =         0.000000
siesta: Ekinion =         0.000000
siesta: Eharris =    -13741.149826
siesta: Etot    =    -13704.501755
siesta: FreeEng =    -13704.501755

siesta: iscf   Eharris(eV)      E_KS(eV)   FreeEng(eV)   dDmax  Ef(eV)
siesta:    1   -13741.1498   -13704.5018   -13704.5018  9.8139 -8.2779
timer: Routine,Calls,Time,% =    IterSCF     1      38.602  55.99
siesta:    2   -13828.9258   -13620.4003   -13620.4003 39.8613 -1.2389
siesta:    3   -13706.9702   -13714.3129   -13714.4546 16.1796 -7.7576
siesta:    4   -13714.0120   -13682.5313   -13682.5313 10.0674 -6.7348
siesta:    5   -13718.7332   -13578.2004   -13578.2004 10.1336 -4.1490
siesta:    6   -13701.4966   -13578.4504   -13578.5255 11.9926 -4.5771
siesta:    7   -13715.7412   -13545.2074   -13545.2074 13.6336 -3.1685
siesta:    8   -13691.3320   -13648.9041   -13648.9554  5.0366 -6.1569
siesta:    9   -13689.5517   -13651.2771   -13651.2771  2.2988 -5.4328
siesta:   10   -13689.0722   -13666.2978   -13666.2980  1.6244 -5.0931
siesta:   11   -13688.7753   -13681.5880   -13681.5880  0.6815 -5.2332
siesta:   12   -13688.6890   -13686.1910   -13686.1910  0.3883 -5.1282
siesta:   13   -13688.6346   -13685.9693   -13685.9693  0.3640 -5.1702
siesta:   14   -13688.6309   -13686.7383   -13686.7383  0.1934 -5.1482
siesta:   15   -13688.6330   -13687.1136   -13687.1136  0.2378 -5.0921
siesta:   16   -13688.6325   -13688.7988   -13688.7988  0.0592 -5.0763
siesta:   17   -13688.6323   -13688.7984   -13688.7984  0.0392 -5.0618
siesta:   18   -13688.6326   -13688.6536   -13688.6536  0.0124 -5.0651
siesta:   19   -13688.6326   -13688.6465   -13688.6465  0.0094 -5.0655
siesta:   20   -13688.6326   -13688.6298   -13688.6298  0.0059 -5.0648
siesta:   21   -13688.6326   -13688.6299   -13688.6299  0.0036 -5.0652
siesta:   22   -13688.6326   -13688.6295   -13688.6295  0.0017 -5.0656
siesta:   23   -13688.6326   -13688.6300   -13688.6300  0.0006 -5.0657
siesta:   24   -13688.6326   -13688.6307   -13688.6307  0.0003 -5.0657
siesta:   25   -13688.6326   -13688.6315   -13688.6315  0.0003 -5.0657
siesta:   26   -13688.6326   -13688.6319   -13688.6319  0.0001 -5.0657

siesta: E_KS(eV) =           -13688.6322

siesta: E_KS - E_eggbox =    -13688.6322

siesta: Atomic forces (eV/Ang):
     1    0.028385    0.136758   -0.264881
     2   -0.236774   -0.258641    0.012369
     3   -0.066022    0.227306    0.244707
     4    0.006363    0.037131   -0.072543
     5    0.603364   -0.299352    0.010044
     6   -0.010719    0.170752    0.028786
     7    0.028639   -0.346676   -0.017487
     8    0.195816   -0.355369    0.032333
     9   -0.299812   -0.177119   -0.035304
    10   -0.417435   -0.011138   -0.032991
    11    0.097396   -0.032891    0.026475
    12   -0.288339   -0.184544   -0.055987
    13   -0.294916   -0.319903   -0.033041
    14   -0.416105    0.254410   -0.029489
    15   -0.045515    0.352908    0.022889
    16   -0.063107    0.390639    0.026554
    17    0.287736    0.184234    0.049232
    18    0.321686    0.160369    0.077011
    19    0.076112   -0.092379    0.021399
    20   -0.018519   -0.102376    0.037156
    21   -0.020407    0.639138    0.048909
    22   -0.006299   -0.394672   -0.018118
    23    0.135544   -0.151964    0.039680
    24    0.018478    0.353477    0.010850
    25   -0.001484    0.391652    0.028171
    26   -0.308269    0.157314    0.058758
    27   -0.342632    0.174666    0.082765
    28   -0.250191   -0.128805    0.045287
    29   -0.007741   -0.351763   -0.007498
    30   -0.034495   -0.381514    0.025495
    31    0.314193   -0.162119   -0.054650
    32    0.339869   -0.209422   -0.051097
    33    0.409627    0.250854   -0.052271
    34   -0.006526    0.307868    0.181580
    35   -0.014051    0.039789   -0.292626
    36    0.004961    0.006951   -0.109516
    37    0.267422   -0.176702    0.109312
    38   -0.008952    0.320077   -0.098369
    39    0.006315   -0.007621    0.120622
    40   -0.256004   -0.176953   -0.167825
    41    0.002903   -0.033708    0.302369
    42   -0.426136    0.226421    0.074878
    43   -0.333895   -0.217638   -0.066453
    44   -0.314281   -0.173997   -0.029679
    45    0.053768   -0.352786   -0.146594
    46    0.021571   -0.326936   -0.107983
    47    0.262853   -0.105352   -0.061339
    48    0.336758    0.199124    0.011201
    49    0.306898    0.175031    0.036770
    50   -0.016080    0.377639    0.109530
    51   -0.041386    0.337059    0.111108
    52   -0.150229   -0.144704   -0.069308
    53    0.021041   -0.386549   -0.083797
    54   -0.010293    0.634745    0.124844
    55    0.026445   -0.081490   -0.047207
    56   -0.066168   -0.088164   -0.027568
    57   -0.329584    0.152831   -0.020500
    58   -0.301815    0.172455    0.005979
    59    0.027989    0.395572    0.071057
    60    0.031057    0.352611    0.053060
    61    0.409009    0.271207    0.083916
    62    0.313608   -0.293711   -0.044568
    63    0.306923   -0.171282   -0.016094
    64   -0.090669   -0.027983   -0.024136
    65    0.412895   -0.001288    0.018030
    66    0.301677   -0.155594   -0.014229
    67   -0.165471   -0.339738   -0.092591
    68   -0.014915   -0.353066   -0.088035
    69   -0.011954    0.134039    0.014800
    70   -0.557185   -0.302329   -0.103448
    71   -0.001842    0.011427    0.110702
    72    0.011438    0.299437   -0.153637
    73    0.266913   -0.203361   -0.137285
    74    0.011752    0.023240    0.298376
    75   -0.093710   -0.060645    0.036302
    76   -0.101343   -0.048384   -0.036133
    77    0.101020   -0.048560    0.034240
    78    0.095559   -0.041505   -0.048491
----------------------------------------
   Tot    0.022711    0.038442    0.024779
----------------------------------------
   Max    0.639138
   Res    0.205344    sqrt( Sum f_i^2 / 3N )
----------------------------------------
   Max    0.639138    constrained

Stress-tensor-Voigt (kbar):        1.99        2.00        0.25        0.02        0.26        0.06
(Free)E + p*V (eV/cell)   -13706.4142
Target enthalpy (eV/cell)   -13688.6322
 
mulliken: Atomic and Orbital Populations:

Species: C                   
Atom  Qatom  Qorb
               2s      2s      2s      2py     2pz     2px     2py     2pz     
               2px     2py     2pz     2px     2Pdxy   2Pdyz   2Pdz2   2Pdxz   
               2Pdx2-y2
   6  3.822   1.002   0.143  -0.020   0.406   0.515   0.401   0.150   0.030
              0.186   0.255   0.223   0.187   0.098   0.040   0.013   0.070

              0.124
   8  3.933   0.960   0.117   0.061   0.405   0.721   0.493   0.166   0.006
              0.150   0.294   0.199   0.201   0.042   0.011   0.005   0.033

              0.068
  10  3.895   0.974   0.119   0.045   0.455   0.667   0.404   0.147   0.007
              0.178   0.248   0.199   0.272   0.066   0.035   0.005   0.022

              0.052
  11  3.941   1.017   0.105   0.026   0.412   0.698   0.468   0.141   0.006
              0.144   0.242   0.226   0.220   0.072   0.040   0.007   0.041

              0.077
  13  3.907   0.957   0.123   0.049   0.460   0.682   0.419   0.163   0.008
              0.163   0.220   0.202   0.287   0.065   0.037   0.006   0.020

              0.045
  14  3.588   0.690   0.116   0.246   0.301   0.647   0.042   0.152   0.012
              0.138   0.317   0.282   0.446   0.071   0.038   0.006   0.022

              0.061
  16  3.912   0.946   0.125   0.055   0.383   0.676   0.494   0.176   0.010
              0.150   0.299   0.204   0.218   0.042   0.012   0.007   0.043

              0.072
  18  3.910   0.957   0.122   0.045   0.492   0.690   0.406   0.153   0.010
              0.166   0.220   0.202   0.276   0.069   0.030   0.005   0.022

              0.048
  19  3.934   1.024   0.104   0.031   0.435   0.686   0.434   0.146   0.005
              0.133   0.236   0.219   0.250   0.074   0.042   0.007   0.043

              0.063
  20  3.924   0.924   0.120   0.060   0.454   0.706   0.428   0.129   0.010
              0.144   0.230   0.238   0.234   0.076   0.036   0.008   0.044

              0.084
  25  3.898   0.938   0.126   0.060   0.376   0.661   0.489   0.178   0.011
              0.149   0.309   0.211   0.214   0.038   0.012   0.009   0.043

              0.074
  27  3.916   0.947   0.121   0.052   0.481   0.706   0.402   0.151   0.011
              0.165   0.220   0.208   0.286   0.058   0.032   0.004   0.018

              0.054
  28  3.834   0.903   0.135   0.043   0.452   0.658   0.364   0.161   0.015
              0.147   0.204   0.246   0.229   0.090   0.053   0.009   0.052

              0.072
  30  3.923   0.940   0.119   0.060   0.402   0.732   0.478   0.169   0.007
              0.146   0.285   0.203   0.215   0.038   0.011   0.007   0.039

              0.073
  32  3.892   0.924   0.127   0.067   0.476   0.658   0.382   0.158   0.010
              0.171   0.219   0.218   0.305   0.062   0.039   0.006   0.018

              0.051
  33  3.583   0.677   0.113   0.260   0.274   0.624   0.092   0.147   0.015
              0.135   0.328   0.294   0.427   0.075   0.039   0.005   0.024

              0.054
  42  3.577   0.667   0.116   0.264   0.349   0.586   0.049   0.132   0.029
              0.140   0.309   0.298   0.442   0.064   0.032   0.011   0.032

              0.058
  43  3.893   0.925   0.127   0.066   0.492   0.652   0.382   0.144   0.023
              0.175   0.218   0.210   0.303   0.062   0.029   0.016   0.023

              0.046
  45  3.918   0.936   0.120   0.060   0.441   0.686   0.482   0.151   0.023
              0.148   0.275   0.215   0.211   0.041   0.015   0.007   0.040

              0.065
  47  3.825   0.903   0.135   0.043   0.471   0.643   0.344   0.150   0.024
              0.148   0.210   0.245   0.234   0.086   0.044   0.016   0.056

              0.073
  48  3.917   0.946   0.121   0.053   0.487   0.705   0.390   0.141   0.017
              0.169   0.228   0.205   0.289   0.060   0.026   0.012   0.020

              0.048
  50  3.901   0.940   0.124   0.061   0.396   0.634   0.488   0.162   0.023
              0.152   0.302   0.224   0.217   0.041   0.015   0.008   0.044

              0.068
  55  3.920   0.936   0.122   0.048   0.447   0.699   0.427   0.127   0.014
              0.147   0.238   0.237   0.230   0.077   0.035   0.011   0.045

              0.080
  56  3.921   1.019   0.103   0.036   0.432   0.664   0.434   0.143   0.008
              0.134   0.239   0.227   0.252   0.075   0.039   0.008   0.044

              0.062
  57  3.913   0.962   0.122   0.043   0.480   0.698   0.396   0.151   0.011
              0.167   0.227   0.199   0.285   0.066   0.030   0.008   0.019

              0.049
  59  3.912   0.948   0.124   0.055   0.384   0.670   0.497   0.173   0.012
              0.151   0.302   0.209   0.212   0.041   0.013   0.006   0.043

              0.073
  61  3.591   0.693   0.115   0.247   0.311   0.626   0.051   0.145   0.016
              0.140   0.317   0.290   0.441   0.072   0.035   0.006   0.028

              0.058
  62  3.902   0.962   0.122   0.049   0.459   0.668   0.410   0.158   0.010
              0.166   0.224   0.207   0.295   0.062   0.034   0.010   0.020

              0.046
  64  3.931   1.003   0.107   0.032   0.418   0.680   0.472   0.136   0.010
              0.144   0.242   0.232   0.217   0.071   0.038   0.010   0.042

              0.076
  65  3.898   0.972   0.120   0.043   0.478   0.663   0.410   0.141   0.013
              0.178   0.238   0.193   0.270   0.061   0.035   0.010   0.021

              0.055
  67  3.939   0.970   0.117   0.052   0.436   0.706   0.498   0.160   0.014
              0.148   0.279   0.201   0.198   0.040   0.014   0.006   0.032

              0.068
  69  3.849   1.021   0.141  -0.033   0.430   0.536   0.411   0.146   0.033
              0.184   0.241   0.212   0.184   0.092   0.042   0.015   0.068

              0.126

Species: S                   
Atom  Qatom  Qorb
               3s      3s      3s      3py     3pz     3px     3py     3pz     
               3px     3py     3pz     3px     3Pdxy   3Pdyz   3Pdz2   3Pdxz   
               3Pdx2-y2
   4  6.158   0.925   0.065   0.401   0.416   0.434   0.447   0.035   0.041
              0.019   0.560   0.516   0.651   0.329   0.328   0.351   0.322

              0.321
  36  6.141   0.867   0.065   0.453   0.362   0.474   0.432   0.033   0.039
              0.022   0.626   0.487   0.638   0.350   0.341   0.325   0.334

              0.292
  39  6.141   0.887   0.065   0.436   0.351   0.452   0.427   0.037   0.037
              0.020   0.613   0.519   0.658   0.331   0.350   0.314   0.335

              0.310
  71  6.149   0.886   0.065   0.436   0.378   0.470   0.438   0.035   0.040
              0.020   0.597   0.487   0.651   0.340   0.344   0.331   0.326

              0.305

Species: Na                  
Atom  Qatom  Qorb
               3s      3s      3s      3Ppy    3Ppz    3Ppx    
  75  0.186   0.013   0.022   0.100   0.017   0.016   0.018
  76  0.179   0.008   0.023   0.099   0.016   0.015   0.018
  77  0.178   0.011   0.035   0.082   0.015   0.016   0.018
  78  0.185   0.012   0.017   0.105   0.017   0.016   0.018

Species: N                   
Atom  Qatom  Qorb
               2s      2s      2s      2py     2pz     2px     2py     2pz     
               2px     2py     2pz     2px     2Pdxy   2Pdyz   2Pdz2   2Pdxz   
               2Pdx2-y2
  21  5.175   1.362   0.112   0.045   1.496   0.852   0.676   0.049   0.013
              0.164  -0.038   0.211   0.081   0.042   0.017   0.011   0.046

              0.036
  23  4.860   0.634   0.197   0.443   0.464   0.970   0.474   0.188   0.008
              0.185   0.434   0.400   0.297   0.051   0.009   0.009   0.041

              0.057
  52  4.868   0.660   0.198   0.423   0.496   0.919   0.471   0.181   0.018
              0.186   0.426   0.419   0.302   0.049   0.011   0.011   0.041

              0.057
  54  5.163   1.322   0.114   0.075   1.462   0.865   0.673   0.045   0.016
              0.167  -0.021   0.209   0.086   0.043   0.016   0.012   0.046

              0.035

Species: O                   
Atom  Qatom  Qorb
               2s      2s      2s      2py     2pz     2px     2py     2pz     
               2px     2py     2pz     2px     2Pdxy   2Pdyz   2Pdz2   2Pdxz   
               2Pdx2-y2
   1  6.409   1.710  -0.021   0.128   1.972   1.473   1.652  -0.001   0.124
             -0.052  -0.366  -0.315   0.073  -0.001   0.010   0.012   0.007

              0.001
   2  6.383   1.988  -0.015  -0.162   1.458   1.992   1.385   0.048  -0.040
              0.078  -0.039  -0.240  -0.103   0.014   0.001   0.004   0.004

              0.008
   3  6.354   1.735  -0.009   0.085   1.602   1.606   1.649   0.076   0.058
             -0.024  -0.257  -0.201   0.001   0.003   0.013   0.005   0.006

              0.006
   5  6.347   1.246   0.039   0.472   1.842   1.101   1.190  -0.012  -0.011
              0.102  -0.132   0.332   0.128   0.015   0.005   0.005   0.013

              0.012
  34  6.375   1.825  -0.014   0.001   1.419   1.776   1.565   0.139  -0.002
             -0.040  -0.312  -0.153   0.140   0.005   0.011   0.002   0.002

              0.012
  35  6.406   1.743  -0.020   0.097   1.963   1.316   1.761  -0.040   0.163
             -0.050  -0.230  -0.295  -0.032  -0.002   0.006   0.018   0.008

             -0.001
  37  6.390   1.858  -0.016  -0.028   1.613   1.963   1.385   0.005  -0.027
              0.111  -0.045  -0.251  -0.209   0.011   0.002   0.003   0.007

              0.009
  38  6.391   1.799  -0.018   0.034   1.366   1.974   1.630   0.160  -0.029
             -0.040  -0.332  -0.256   0.070   0.007   0.008   0.003   0.000

              0.013
  40  6.383   1.924  -0.015  -0.097   1.690   1.820   1.358   0.005  -0.011
              0.095  -0.109  -0.173  -0.136   0.010   0.004   0.002   0.008

              0.007
  41  6.401   1.771  -0.021   0.066   1.977   1.356   1.742  -0.041   0.165
             -0.050  -0.231  -0.344  -0.018  -0.001   0.007   0.018   0.007

             -0.002
  70  6.335   1.258   0.039   0.457   1.812   1.089   1.240  -0.007  -0.011
              0.094  -0.130   0.339   0.106   0.015   0.006   0.006   0.012

              0.012
  72  6.384   1.764  -0.015   0.067   1.422   1.875   1.635   0.142  -0.005
             -0.041  -0.323  -0.235   0.066   0.006   0.011   0.002   0.001

              0.012
  73  6.373   1.897  -0.013  -0.074   1.572   1.844   1.362   0.016  -0.016
              0.096  -0.035  -0.172  -0.138   0.012   0.003   0.002   0.007

              0.008
  74  6.406   1.724  -0.019   0.113   2.010   1.302   1.739  -0.041   0.163
             -0.048  -0.265  -0.282  -0.021  -0.001   0.006   0.018   0.008

             -0.001

Species: H                   
Atom  Qatom  Qorb
               1s      1s      1s      1Ppy    1Ppz    1Ppx    
   7  1.104   0.614   0.066   0.336   0.034   0.032   0.023
   9  1.096   0.604   0.065   0.341   0.026   0.031   0.029
  12  1.100   0.610   0.065   0.327   0.029   0.031   0.037
  15  1.083   0.588   0.066   0.341   0.033   0.031   0.025
  17  1.100   0.597   0.066   0.340   0.028   0.031   0.038
  22  0.988   0.470   0.075   0.260   0.095   0.052   0.035
  24  1.079   0.577   0.066   0.346   0.034   0.030   0.027
  26  1.095   0.590   0.066   0.342   0.028   0.033   0.037
  29  1.102   0.606   0.065   0.341   0.032   0.034   0.025
  31  1.082   0.577   0.066   0.347   0.027   0.031   0.034
  44  1.081   0.578   0.066   0.345   0.028   0.029   0.035
  46  1.100   0.607   0.064   0.337   0.034   0.033   0.024
  49  1.099   0.586   0.066   0.349   0.029   0.033   0.037
  51  1.081   0.578   0.066   0.348   0.033   0.031   0.026
  53  0.983   0.467   0.075   0.261   0.091   0.051   0.038
  58  1.104   0.598   0.066   0.342   0.028   0.031   0.039
  60  1.085   0.587   0.066   0.342   0.033   0.032   0.025
  63  1.096   0.608   0.065   0.327   0.030   0.030   0.037
  66  1.094   0.605   0.065   0.337   0.026   0.030   0.030
  68  1.105   0.620   0.066   0.329   0.034   0.033   0.023

mulliken: Qtot =      280.000

siesta: Eigenvalues (eV):
  ik is    eps
   1  1 -27.43 -27.43 -27.42 -27.40 -26.42 -26.37 -25.57 -25.52 -23.86 -23.86
        -23.85 -23.84 -23.76 -23.74 -23.73 -23.72 -22.36 -22.33 -21.89 -21.85
        -21.11 -21.11 -20.49 -20.49 -19.53 -19.52 -19.17 -19.16 -18.82 -18.82
        -18.77 -18.76 -17.65 -17.65 -16.46 -16.45 -16.43 -16.43 -16.25 -16.24
        -15.88 -15.88 -15.26 -15.24 -14.87 -14.87 -14.75 -14.74 -14.11 -14.10
        -13.77 -13.77 -13.11 -13.10 -12.69 -12.68 -12.55 -12.54 -12.42 -12.42
        -11.93 -11.93 -11.90 -11.89 -11.77 -11.68 -11.68 -11.38 -11.37 -11.31
        -11.30 -11.29 -11.27 -11.26 -11.16 -11.16 -11.14 -11.13 -10.97 -10.96
        -10.90 -10.88 -10.85 -10.83 -10.61 -10.60 -10.40 -10.33 -10.33 -10.33
         -9.81  -9.75  -9.70  -9.54  -9.53  -9.49  -9.42  -9.35  -9.30  -9.28
         -8.34  -8.30  -8.26  -8.22  -8.19  -8.09  -8.00  -8.00  -7.99  -7.98
         -7.96  -7.95  -7.92  -7.88  -7.82  -7.81  -7.80  -7.78  -7.39  -7.36
         -7.09  -7.09  -7.07  -7.06  -7.05  -7.05  -7.01  -6.97  -6.72  -6.71
         -6.48  -6.40  -6.37  -6.32  -5.99  -5.98  -5.97  -5.94  -5.85  -5.78
         -4.17  -4.11  -2.76  -2.74  -2.27  -2.23  -2.22  -2.17  -2.05  -2.03
         -1.76  -1.75  -1.61  -1.61  -1.09  -1.02  -0.56  -0.47  -0.33  -0.29
         -0.25  -0.02  -0.02   0.02   0.07   0.10   0.12   0.24   0.27   0.32
          0.34   0.46   0.52   0.63   0.67   0.69   0.70   0.81   0.89   0.91
          0.94   0.96   0.98   1.02   1.03   1.12   1.22   1.26   1.38   1.45
          1.50   1.61   1.66   1.69   1.74   1.92   1.93   1.96   2.03   2.09
          2.09   2.18   2.28   2.33   2.37   2.40   2.44   2.54   2.57   2.60
          2.75   2.79   2.82   2.87   2.92   2.95   3.00   3.17   3.20   3.22
          3.31   3.34   3.41   3.48   3.52   3.55   3.59   3.62   3.66   3.79
          3.80   3.86   4.00   4.06   4.09   4.14   4.22   4.22   4.31   4.39
          4.42   4.48   4.56   4.68   4.80   4.83   4.87   4.88   5.01   5.05
          5.07   5.17   5.23   5.30   5.32   5.42   5.46   5.50   5.56   5.62
          5.67   5.74   5.76   5.86   5.90   5.90   6.01   6.05   6.09   6.15
          6.29   6.34   6.37   6.40   6.46   6.50   6.53   6.57   6.62   6.70
          6.74   6.78   6.81   6.89   6.92   6.97   7.01   7.08   7.17   7.20
          7.28   7.32   7.36   7.41   7.50   7.50   7.63   7.68   7.73   7.78
          7.79   7.87   7.93   8.00   8.04   8.15   8.17   8.22   8.27   8.31
          8.32   8.42   8.44   8.55   8.63   8.73   8.78   8.82   8.86   8.93
          9.04   9.06   9.10   9.15   9.18   9.26   9.33   9.37   9.42   9.47
          9.58   9.64   9.74   9.78   9.82   9.90   9.93   9.98  10.02  10.08
         10.11  10.24  10.36  10.40  10.47  10.48  10.62  10.68  10.75  10.87
         10.91  10.98  11.12  11.16  11.19  11.30  11.39  11.48  11.52  11.60
         11.62  11.79  11.85  11.90  12.01  12.11  12.28  12.30  12.42  12.55
         12.58  12.79  12.85  12.88  12.92  13.08  13.18  13.23  13.33  13.34
         13.42  13.49  13.63  13.67  13.75  13.76  13.89  13.91  13.98  14.07
         14.11  14.21  14.28  14.41  14.49  14.54  14.61  14.67  14.72  14.82
         14.87  14.95  15.02  15.06  15.16  15.19  15.32  15.49  15.53  15.60
         15.69  15.84  15.96  16.01  16.08  16.12  16.31  16.34  16.39  16.70
         16.74  16.82  16.84  16.91  17.03  17.17  17.24  17.28  17.35  17.41
         17.65  17.76  17.77  17.80  17.83  17.95  18.13  18.14  18.34  18.38
         18.45  18.50  18.60  18.68  18.79  18.87  18.98  19.09  19.19  19.27
         19.36  19.49  19.60  19.71  19.83  19.88  20.04  20.06  20.19  20.29
         20.31  20.53  20.59  20.68  20.78  20.82  20.85  21.09  21.12  21.19
         21.30  21.47  21.69  21.86  21.91  21.93  22.04  22.10  22.29  22.40
         22.50  22.61  22.70  22.98  23.08  23.18  23.32  23.53  23.77  23.88
         23.96  24.17  24.41  24.43  24.67  24.71  24.76  24.92  24.99  25.16
         25.22  25.27  25.39  25.43  25.49  25.54  25.66  25.87  25.94  25.99
         26.09  26.13  26.18  26.22  26.31  26.52  26.53  26.65  26.69  26.79
         26.86  26.94  27.02  27.17  27.32  27.48  27.52  27.79  27.88  28.16
         28.34  28.42  28.49  28.59  28.67  28.75  28.80  28.85  28.88  28.96
         28.98  29.01  29.08  29.13  29.29  29.35  29.37  29.43  29.55  29.63
         29.75  29.86  29.93  29.94  29.98  30.14  30.18  30.22  30.34  30.35
         30.41  30.43  30.52  30.63  30.67  30.72  30.77  30.78  30.87  30.92
         31.01  31.06  31.21  31.26  31.32  31.38  31.43  31.56  31.78  31.84
         31.88  32.04  32.09  32.24  32.27  32.37  32.48  32.64  32.69  32.83
         33.00  33.05  33.13  33.28  33.34  33.39  33.48  33.56  33.61  33.80
         33.87  33.99  34.01  34.04  34.08  34.36  34.47  34.58  34.60  34.81
         34.88  34.89  34.92  35.00  35.08  35.26  35.33  35.52  35.58  35.73
         35.88  35.92  36.12  36.15  36.22  36.33  36.46  36.50  36.56  36.56
         36.64  36.77  36.86  36.98  37.05  37.06  37.15  37.21  37.22  37.32
         37.41  37.51  37.55  37.70  37.76  37.88  38.01  38.11  38.16  38.32
         38.41  38.44  38.59  38.72  38.89  38.94  39.11  39.24  39.35  39.50
         39.68  39.83  40.02  40.13  40.33  40.37  40.50  40.62  40.73  40.78
         40.86  41.01  41.07  41.10  41.20  41.37  41.48  41.56  41.60  41.64
         41.68  41.87  41.93  42.05  42.17  42.39  42.48  42.55  42.71  42.72
         42.86  42.91  43.17  43.23  43.27  43.37  43.49  43.69  43.74  43.81
         43.89  44.17  44.24  44.34  44.42  44.53  44.61  44.80  44.87  44.99
         45.18  45.41  45.48  45.54  45.55  45.62  45.69  45.74  45.94  46.02
         46.10  46.13  46.32  46.37  46.53  46.60  46.65  46.71  46.83  46.93
         47.08  47.16  47.27  47.37  47.49  47.56  47.72  47.75  47.80  47.90
         47.95  48.09  48.17  48.21  48.24  48.27  48.36  48.44  48.47  48.48
         48.57  48.62  48.70  48.74  48.90  48.97  49.05  49.10  49.22  49.29
         49.36  49.39  49.56  49.65  49.81  49.91  49.94  50.03  50.21  50.33
         50.48  50.70  50.74  50.99  51.05  51.30  51.37  51.58  51.68  51.73
         51.86  51.89  52.10  52.28  52.46  52.54  52.59  52.78  52.82  53.05
         53.18  53.21  53.33  53.36  53.53  53.85  54.02  54.08  54.17  54.31
         54.48  54.62  54.73  54.83  54.93  55.10  55.17  55.58  55.78  55.85
         56.07  56.38  56.52  56.76  57.00  57.13  57.31  57.46  57.66  57.89
         58.02  58.16  58.27  58.37  58.44  58.62  58.77  58.93  59.06  59.13
         59.39  59.50  59.60  59.68  59.74  59.99  60.02  60.26  60.39  60.58
         60.68  60.75  60.84  61.08  61.26  61.36  61.52  61.66  61.79  61.89
         61.98  62.14  62.19  62.31  62.38  62.56  62.67  62.77  63.04  63.27
         63.30  63.47  63.51  63.77  63.99  64.03  64.09  64.29  64.44  64.60
         64.63  64.83  64.95  65.13  65.21  65.31  65.53  65.70  65.84  65.95
         65.97  66.19  66.31  66.54  66.80  67.22  67.28  67.41  67.49  67.63
         67.76  67.80  68.02  68.22  68.30  68.42  68.53  68.59  68.65  68.88
         68.93  68.98  69.10  69.16  69.27  69.45  69.52  69.81  69.91  69.99
         70.11  70.25  70.35  70.52  70.62  70.85  70.93  71.12  71.28  71.43
         71.57  71.70  71.94  72.14  72.33  72.43  72.55  72.84  73.08  73.21
         73.53  73.75  73.95  74.06  74.43  74.52  74.63  74.66  74.77  75.09
         75.17  75.51  75.78  75.96  76.24  76.53  76.85  77.17  77.48  77.77
         78.05  78.44  78.66  78.81  79.63  80.65  81.47  81.66  82.71  82.91
         83.35  83.92  84.18  84.82  85.28  85.72  85.77  86.59  86.86  87.81
         88.20  89.00  89.58  89.76  90.21  90.59  90.76  90.96  91.47  91.72
         92.10  92.55  92.73  93.05  93.70  94.62  95.46  95.72  96.00  96.40
         96.64  97.05  97.28  97.50  97.77  97.94  98.18  98.32  98.48  98.88
         99.09  99.28  99.86  99.93 100.42 100.57 101.73 102.02 102.41 102.86
        103.17 103.53 105.02 105.11 105.20 105.51 106.24 106.37 106.58 107.38
        107.63 107.75 108.31 108.82 109.70 110.12 110.19 110.35 111.38 111.46
        112.88 113.13 114.85 114.90 115.56 115.93 116.71 116.89 117.78 117.89
        118.71 118.95 119.12 119.22 119.98 120.16 120.60 120.98 122.56 123.09
        125.86 126.32 128.40 129.34 130.26 131.31 131.70 132.56 135.08 136.31
        138.88 139.26
siesta: Fermi energy =      -5.065697 eV

siesta: Program's energy decomposition (eV):
siesta: Ebs     =     -3720.125136
siesta: Eions   =     18316.795456
siesta: Ena     =      2204.645447
siesta: Ekin    =      9265.767472
siesta: Enl     =     -2883.038600
siesta: DEna    =      -295.328297
siesta: DUscf   =        45.420697
siesta: DUext   =         0.000000
siesta: Exc     =     -3709.303437
siesta: eta*DQ  =         0.000000
siesta: Emadel  =         0.000000
siesta: Emeta   =         0.000000
siesta: Emolmec =         0.000000
siesta: Ekinion =         0.000000
siesta: Eharris =    -13688.632550
siesta: Etot    =    -13688.632174
siesta: FreeEng =    -13688.632174

siesta: Final energy (eV):
siesta:  Band Struct. =   -3720.125136
siesta:       Kinetic =    9265.767472
siesta:       Hartree =   58720.956284
siesta:    Ext. field =       0.000000
siesta:   Exch.-corr. =   -3709.303437
siesta:  Ion-electron = -125675.602101
siesta:       Ion-ion =   47709.549608
siesta:       Ekinion =       0.000000
siesta:         Total =  -13688.632174

siesta: Atomic forces (eV/Ang):
siesta:      1    0.028385    0.136758   -0.264881
siesta:      2   -0.236774   -0.258641    0.012369
siesta:      3   -0.066022    0.227306    0.244707
siesta:      4    0.006363    0.037131   -0.072543
siesta:      5    0.603364   -0.299352    0.010044
siesta:      6   -0.010719    0.170752    0.028786
siesta:      7    0.028639   -0.346676   -0.017487
siesta:      8    0.195816   -0.355369    0.032333
siesta:      9   -0.299812   -0.177119   -0.035304
siesta:     10   -0.417435   -0.011138   -0.032991
siesta:     11    0.097396   -0.032891    0.026475
siesta:     12   -0.288339   -0.184544   -0.055987
siesta:     13   -0.294916   -0.319903   -0.033041
siesta:     14   -0.416105    0.254410   -0.029489
siesta:     15   -0.045515    0.352908    0.022889
siesta:     16   -0.063107    0.390639    0.026554
siesta:     17    0.287736    0.184234    0.049232
siesta:     18    0.321686    0.160369    0.077011
siesta:     19    0.076112   -0.092379    0.021399
siesta:     20   -0.018519   -0.102376    0.037156
siesta:     21   -0.020407    0.639138    0.048909
siesta:     22   -0.006299   -0.394672   -0.018118
siesta:     23    0.135544   -0.151964    0.039680
siesta:     24    0.018478    0.353477    0.010850
siesta:     25   -0.001484    0.391652    0.028171
siesta:     26   -0.308269    0.157314    0.058758
siesta:     27   -0.342632    0.174666    0.082765
siesta:     28   -0.250191   -0.128805    0.045287
siesta:     29   -0.007741   -0.351763   -0.007498
siesta:     30   -0.034495   -0.381514    0.025495
siesta:     31    0.314193   -0.162119   -0.054650
siesta:     32    0.339869   -0.209422   -0.051097
siesta:     33    0.409627    0.250854   -0.052271
siesta:     34   -0.006526    0.307868    0.181580
siesta:     35   -0.014051    0.039789   -0.292626
siesta:     36    0.004961    0.006951   -0.109516
siesta:     37    0.267422   -0.176702    0.109312
siesta:     38   -0.008952    0.320077   -0.098369
siesta:     39    0.006315   -0.007621    0.120622
siesta:     40   -0.256004   -0.176953   -0.167825
siesta:     41    0.002903   -0.033708    0.302369
siesta:     42   -0.426136    0.226421    0.074878
siesta:     43   -0.333895   -0.217638   -0.066453
siesta:     44   -0.314281   -0.173997   -0.029679
siesta:     45    0.053768   -0.352786   -0.146594
siesta:     46    0.021571   -0.326936   -0.107983
siesta:     47    0.262853   -0.105352   -0.061339
siesta:     48    0.336758    0.199124    0.011201
siesta:     49    0.306898    0.175031    0.036770
siesta:     50   -0.016080    0.377639    0.109530
siesta:     51   -0.041386    0.337059    0.111108
siesta:     52   -0.150229   -0.144704   -0.069308
siesta:     53    0.021041   -0.386549   -0.083797
siesta:     54   -0.010293    0.634745    0.124844
siesta:     55    0.026445   -0.081490   -0.047207
siesta:     56   -0.066168   -0.088164   -0.027568
siesta:     57   -0.329584    0.152831   -0.020500
siesta:     58   -0.301815    0.172455    0.005979
siesta:     59    0.027989    0.395572    0.071057
siesta:     60    0.031057    0.352611    0.053060
siesta:     61    0.409009    0.271207    0.083916
siesta:     62    0.313608   -0.293711   -0.044568
siesta:     63    0.306923   -0.171282   -0.016094
siesta:     64   -0.090669   -0.027983   -0.024136
siesta:     65    0.412895   -0.001288    0.018030
siesta:     66    0.301677   -0.155594   -0.014229
siesta:     67   -0.165471   -0.339738   -0.092591
siesta:     68   -0.014915   -0.353066   -0.088035
siesta:     69   -0.011954    0.134039    0.014800
siesta:     70   -0.557185   -0.302329   -0.103448
siesta:     71   -0.001842    0.011427    0.110702
siesta:     72    0.011438    0.299437   -0.153637
siesta:     73    0.266913   -0.203361   -0.137285
siesta:     74    0.011752    0.023240    0.298376
siesta:     75   -0.093710   -0.060645    0.036302
siesta:     76   -0.101343   -0.048384   -0.036133
siesta:     77    0.101020   -0.048560    0.034240
siesta:     78    0.095559   -0.041505   -0.048491
siesta: ----------------------------------------
siesta:    Tot    0.022711    0.038442    0.024779

siesta: Stress tensor (static) (eV/Ang**3):
siesta:     0.001241    0.000013    0.000038
siesta:     0.000013    0.001247    0.000159
siesta:     0.000038    0.000159    0.000158

siesta: Cell volume =      20160.000000 Ang**3

siesta: Pressure (static):
siesta:                Solid            Molecule  Units
siesta:          -0.00000961         -0.00000015  Ry/Bohr**3
siesta:          -0.00088205         -0.00001350  eV/Ang**3
siesta:          -1.41320915         -0.02162370  kBar
(Free)E+ p_basis*V_orbitals  =      -13557.525111
(Free)Eharris+ p_basis*V_orbitals  =      -13557.525719

siesta: Electric dipole (a.u.)  =    0.190489   -2.407245   -0.128879
siesta: Electric dipole (Debye) =    0.484175   -6.118610   -0.327579
>> End of run:   3-MAR-2014  17:45:21
