ITEM: TIMESTEP
0
ITEM: NUMBER OF ATOMS
6000
ITEM: BOX BOUNDS pp pp pp
-4.1805553130476980e-01 1.8392055531304919e+01
-4.4511963218798201e-01 1.8419119632187481e+01
-2.3806982457850410e+00 2.0967669824578587e+02
ITEM: ATOMS id type x y z c_peratom fx fy fz 
242 3 3.50643 2.81454 2.91642 -28.7606 -0.835193 1.71103 0.196226 
282 3 3.16644 7.26001 3.04693 -30.1671 2.39195 -0.738014 -2.62484 
442 3 7.15959 3.0572 3.00477 -29.2647 -0.370825 3.04353 -1.06625 
482 3 7.06181 6.76803 3.06653 -28.7977 -0.708457 0.0192783 0.106701 
1001 3 1.44048 1.43154 0.318432 -28.6516 0.376392 -2.08923 1.95411 
1002 3 1.26503 1.63743 5.34663 -28.4548 0.66881 -0.830569 0.0968341 
1041 3 1.39827 4.86463 0.420644 -29.038 1.87683 2.21896 3.01454 
1042 3 1.21561 4.96864 5.20808 -29.3359 -1.68765 0.508218 0.846493 
1201 3 5.09768 1.40503 0.330575 -29.4239 2.91273 -0.0502059 0.286703 
1202 2 5.24979 1.15404 5.48754 -24.7096 -0.310302 1.1711 0.549198 
1241 3 5.14834 5.05927 0.409247 -29.9914 1.14244 0.628414 0.511773 
1242 3 5.39688 4.90547 5.69613 -28.9929 -0.105207 0.0846991 -0.498213 
2201 1 3.43098 1.81695 -0.711782 -7.79995 -0.548871 -2.90142 -0.37806 
2202 1 3.29431 1.08694 4.38271 -7.92483 -1.13616 -1.43973 -1.3217 
201 2 3.34523 -0.32836 -2.26163 -24.8289 1.12439 -3.84835 1.09777 
2242 1 2.93415 4.99764 2.14048 -6.30196 0.628304 -1.60018 -0.470951 
2402 1 7.0178 1.42251 4.19054 -8.37569 3.39364 -0.429035 0.287213 
2441 1 7.17775 5.41595 -0.656849 -7.40485 1.05913 0.7394 -1.72081 
2442 1 7.20551 4.93301 4.52722 -8.11524 1.25287 0.586884 0.575855 
3201 1 3.44736 1.00541 1.76683 -7.76678 2.25582 0.403178 -0.583488 
3241 1 7.01825 1.7721 1.47574 -6.90741 0.663934 0.274542 1.64707 
3441 1 6.79692 4.92946 1.75835 -7.10281 2.03921 2.48214 1.79756 
4041 1 1.47902 3.24321 -0.578469 -7.34418 -0.275929 -0.0953186 -2.09118 
4042 1 -0.213959 3.0958 4.66048 -6.74425 1.09261 -0.540314 0.528232 
4082 1 0.450249 8.57289 3.77395 -6.51704 1.03906 -1.01098 -3.39092 
4242 1 5.33935 3.18576 4.31146 -8.16062 -2.41587 -0.114606 -0.316931 
4282 1 4.73176 7.01849 1.62402 -7.27975 1.94241 0.41222 -2.44191 
5041 1 1.49246 2.59818 1.99349 -7.97568 0.531651 1.17452 0.591206 
5241 1 7.53061 1.22132 -0.86322 -7.51266 -2.24331 2.58525 -2.45672 
5281 1 5.05864 7.11089 -1.16256 -7.58841 -0.331384 0.178898 1.09011 
241 3 3.3295 3.31045 -2.28011 -29.3473 1.33773 1.24832 1.39873 
5082 1 2.22025 3.38543 4.59692 -7.64001 1.66037 0.941766 -1.46834 
2042 1 2.07354 6.50043 4.25734 -7.36674 -1.25342 -0.816528 2.62395 
5282 1 5.10912 6.24788 3.97346 -7.13461 -0.513942 1.13166 1.50588 
4081 1 1.88186 6.52873 -0.731593 -7.59763 -3.35458 0.274369 0.770724 
402 3 7.46975 -0.233377 3.07169 -28.8688 -3.75305 -2.5475 -0.841925 
4202 1 5.47152 -0.314519 3.74366 -7.15974 -1.26083 -1.15636 1.82186 
401 3 7.45309 -0.160685 -2.1221 -27.8226 -2.47859 -3.59532 -0.378387 
4241 1 5.02566 3.3732 1.5174 -7.32881 -2.64165 -3.22397 1.32187 
1 2 -0.24596 -0.426291 -2.10778 -23.982 0.18539 -2.52075 -2.2733 
1282 3 5.2893 8.86651 5.63421 -28.242 -1.29798 -1.33261 -1.9002 
1281 3 5.19193 8.80746 0.278117 -28.8416 -0.406873 0.472189 0.622002 
1082 3 1.12631 8.6141 5.44097 -29.9204 2.12095 -0.648181 1.45027 
1081 3 1.5011 8.72428 0.439954 -29.5612 -1.00967 2.6429 -0.649665 
481 2 7.25913 6.97754 -2.35398 -25.1698 -2.47329 0.73919 0.442657 
441 2 7.35636 3.22613 -2.32932 -24.5806 -0.649841 0.021216 1.63661 
2282 1 3.35285 8.92268 4.32073 -7.17377 1.62867 0.0328206 2.10243 
2482 1 6.87118 8.53683 4.46973 -8.18305 -0.474899 -1.9704 -0.359408 
2361 1 5.29368 -0.216665 -1.34579 -7.79466 0.51452 0.0311454 -0.090156 
4121 1 0.262765 8.97117 -1.27761 -7.89953 -0.892502 -0.359154 -1.69725 
2241 1 3.57034 4.70763 -0.537478 -6.65119 -1.24763 0.703572 -0.0889476 
281 3 2.97547 7.01386 -2.08393 -29.0945 4.76863 1.08896 -2.30167 
2001 1 -0.406009 1.45297 -0.989095 -8.78042 0.526787 0.713646 -1.3984 
3041 1 0.263255 4.93742 2.48839 -8.28069 -1.90203 0.985184 -1.26494 
2041 1 1.55185 7.25376 1.60101 -7.12422 -2.11629 -1.86708 1.26192 
4201 1 5.51635 3.30205 -1.16788 -7.25883 1.06395 -1.45369 -1.13348 
2002 1 -0.340834 0.738359 4.31415 -7.14192 2.06086 1.37436 1.54364 
1442 2 8.96025 4.85832 5.87685 -24.3022 1.30621 4.6663 -3.72779 
5481 1 8.68269 7.14539 1.7976 -7.09959 -1.29034 -2.52336 -1.35355 
1482 3 8.89875 8.85896 5.40423 -29.4987 1.73936 0.515338 0.831107 
1402 3 8.78826 1.45456 5.60805 -28.5173 1.43614 -3.03316 1.59624 
4482 1 8.97513 7.12323 4.20878 -6.97258 -0.227395 0.0465074 0.824448 
3401 1 8.91129 -0.0945067 1.98193 -7.89458 3.13911 0.479572 -0.615717 
42 3 -0.412098 3.092 2.69608 -28.9318 -1.38257 -1.74651 1.09846 
3481 1 6.79707 9.04595 1.45334 -7.11409 1.58211 -1.43672 -0.129135 
2481 1 7.05782 9.03595 -1.25999 -7.63558 3.37162 -2.31104 1.64664 
3281 1 3.02216 9.08146 -0.998497 -8.01484 1.45839 -0.581327 1.34955 
4001 1 1.57462 18.3044 -0.811064 -8.27712 -1.33949 2.11654 0.0838752 
202 3 3.38487 18.0142 3.00895 -28.8819 -0.641459 4.60734 2.79995 
5001 1 1.4646 18.3608 1.86972 -6.95482 0.303472 -0.284687 -1.9946 
4002 1 1.40788 17.5179 4.09286 -6.37958 1.46415 0.916666 0.765835 
5201 1 5.77021 18.417 1.22937 -6.49811 -2.1952 -0.446677 -1.42582 
5081 1 3.16283 9.02031 1.89618 -6.60631 -0.129932 -0.701603 -3.12012 
4321 1 5.4349 10.6868 -0.942512 -7.75442 -1.79383 0.37896 -0.581386 
322 3 3.2228 10.8728 2.63937 -29.7453 -0.841353 0.00616506 1.91079 
362 3 3.56372 14.5402 3.13385 -28.7564 -0.406274 -0.04679 -0.379586 
522 3 7.16276 10.7173 3.05655 -29.701 -2.39845 -0.668313 -2.2029 
562 3 7.20233 14.928 3.08695 -29.2796 -1.81295 -0.707693 1.87115 
1121 3 1.51454 12.8031 0.441364 -29.5116 0.950053 -3.51793 0.377958 
1122 2 1.80153 12.8345 5.54496 -23.9286 -2.32024 -4.10131 0.390306 
1161 3 1.78321 16.2868 0.67018 -28.9636 -2.08937 1.71123 0.138222 
1162 3 1.70313 16.4591 5.85098 -29.2023 -2.24882 0.418082 -0.198112 
1321 2 5.33348 12.6265 0.208686 -25.1015 -3.75665 0.160181 5.07028 
1322 3 5.42763 12.6894 5.44784 -28.3262 -2.44213 0.0196548 0.38984 
1361 3 5.36933 16.4462 0.536942 -28.8489 -0.284799 1.10584 0.204644 
1362 3 5.38736 16.2838 5.95457 -27.6428 -1.95101 -0.0746017 -1.77692 
2321 1 3.35265 12.1306 -0.674482 -7.26072 -0.493581 0.844512 -2.53747 
2322 1 1.9998 14.7059 4.82304 -7.68318 0.445089 2.4425 -0.55639 
2362 1 3.61113 16.5146 2.0882 -9.10311 0.930781 -3.26825 -1.78504 
2521 1 7.12617 12.6333 -0.709347 -8.03016 2.86994 1.67414 -3.59496 
2522 1 7.03323 13.1349 4.41835 -8.13477 2.39694 -0.348362 0.522753 
2561 1 6.96274 15.9808 -0.491681 -7.83941 0.759716 0.792979 0.624242 
2562 1 7.0368 16.2687 4.67797 -7.43336 1.11501 2.02234 2.90511 
3321 1 3.47297 12.7698 1.7349 -7.18066 0.879367 1.94427 0.0792057 
3361 1 3.44157 16.7327 -0.495581 -7.48245 1.44067 -0.37245 -0.289013 
3521 1 6.98058 12.3612 1.87166 -7.04016 0.249118 0.924339 -0.719101 
3561 1 7.31588 16.7418 2.14832 -7.25201 0.656665 -1.42128 -0.652177 
4122 1 3.65901 12.783 4.19299 -8.06068 -0.0166765 -1.92204 1.12861 
4162 1 1.58931 14.694 2.40453 -6.9605 0.768507 0.800274 -0.363005 
4322 1 5.82879 10.8031 4.6314 -7.4491 -0.974121 0.910683 0.938311 
4361 1 4.86696 14.4936 -0.923655 -7.89192 0.326836 -0.438918 -1.13693 
4362 1 5.21129 14.8554 4.35451 -7.2137 -1.52691 -0.630835 -1.77063 
5121 1 1.73549 10.9899 1.18048 -6.53992 -0.734634 -1.46709 0.374287 
5161 1 1.83287 14.4568 -0.114114 -7.47806 1.59456 2.45284 -2.91059 
5321 1 5.01196 10.531 2.16142 -6.4422 1.41711 1.56602 -1.32432 
5361 1 5.60251 14.5821 1.60689 -7.87311 -0.842913 0.905372 0.863384 
3082 1 1.50034 10.9349 3.98674 -7.41555 1.52127 3.03077 0.370742 
1562 3 8.66769 16.4928 6.24455 -27.4331 1.7277 0.727769 -2.84992 
3362 1 3.65104 16.9107 4.88354 -7.76506 0.796609 -0.081318 2.0713 
3121 1 -0.111611 13.0687 1.51079 -7.26691 -2.32342 -1.3841 -1.13851 
3081 1 -0.355647 9.46088 1.40655 -7.27321 -0.775429 -1.18978 -1.65034 
561 2 7.19683 14.793 -2.23707 -24.841 -1.38615 -0.509166 -1.93092 
2 3 -0.300541 18.1891 3.04818 -30.697 -0.581145 -1.6984 -0.380467 
4161 1 0.314856 11.8763 -1.1242 -7.11013 0.795874 2.64959 0.707105 
3161 1 -0.2289 16.3714 1.43259 -7.44373 0.110543 0.0572916 0.0675995 
4522 1 8.66235 10.413 4.1524 -6.71544 -1.2348 1.60388 0.223401 
2401 1 8.68293 17.9304 -0.40456 -7.26321 -0.301836 2.94762 -2.21263 
5561 1 8.67831 14.5529 1.9038 -8.08178 0.097263 -0.705456 -1.53708 
361 3 3.36469 14.5564 -2.27395 -28.7826 -0.263443 0.410678 0.30809 
1521 3 8.80664 13.0754 0.551956 -27.958 -0.0893942 -2.37457 -0.336198 
1522 2 8.81078 12.7896 5.78571 -24.4132 2.18992 -2.90415 -2.45284 
2161 1 -0.0926272 15.8972 -1.22756 -7.26122 -0.372786 3.2886 1.37928 
1481 3 8.95805 9.28216 0.074288 -28.0334 -0.138309 -1.83844 3.00511 
5521 1 8.9414 10.7577 1.73916 -7.62576 2.12407 0.86778 -1.74903 
5042 1 1.14342 3.02987 6.95616 -8.59786 0.125301 0.00872141 1.57481 
3244 1 3.43836 4.82414 15.0522 -8.09652 0.593087 -0.976681 -1.85796 
5002 1 1.24335 -0.355721 6.71393 -8.49773 2.21252 1.62322 0.559358 
5242 1 5.38207 3.32216 7.18929 -6.8801 1.14841 0.357537 -0.811162 
3282 1 3.52179 8.4472 6.8901 -7.56767 -1.24878 -1.06803 -0.511038 
4083 1 1.52031 6.55353 6.84426 -7.00689 0.458715 -1.40261 -0.278892 
4283 1 5.56397 6.80916 6.62816 -7.81952 1.19813 1.78125 -1.64166 
3203 1 3.65872 1.60049 14.7945 -7.2041 -0.730365 -0.331521 0.487361 
4403 1 8.65291 -0.393707 10.2241 -8.22046 0.0299823 2.87514 -0.659263 
2244 1 1.92337 7.17759 15.1548 -7.71094 -0.641688 -1.34818 -0.96007 
4284 1 4.63725 7.12572 15.1158 -7.3576 1.90053 -0.483434 -0.137094 
44 3 -0.318195 3.22519 13.6482 -27.652 -0.956718 0.416252 -0.737574 
4244 1 6.08204 3.23597 15.0811 -7.20745 0.123088 -0.201769 2.0848 
2444 1 7.14599 5.60102 14.8509 -8.79716 1.71889 1.58686 0.349244 
4044 1 1.50272 3.07907 14.7338 -8.78018 -0.752124 0.820175 -0.330453 
5402 1 8.75522 -0.385917 7.1971 -7.98182 1.03119 -2.15091 1.78464 
1483 2 8.88775 8.70404 10.8284 -25.0281 2.08148 2.27252 -1.91787 
3242 1 3.62119 5.00521 6.71495 -8.02023 -2.11488 0.199342 0.0156107 
4443 1 7.31729 4.44651 10.1138 -7.65768 -0.925178 1.9188 -0.189806 
4084 1 1.44375 6.95174 12.266 -7.25512 1.33904 -1.58629 0.872921 
3483 1 7.20601 8.80298 12.0718 -7.14537 -0.692513 2.14548 4.06764 
2003 1 -0.326569 1.22197 9.90496 -8.6617 0.917251 2.10175 -1.01526 
3202 1 3.50795 1.78777 6.71915 -7.69057 -1.30974 -3.67663 0.805346 
2043 1 1.34902 6.98317 9.35992 -7.29202 -0.684821 -0.459529 0.961985 
3402 1 7.14865 1.38642 6.76459 -7.05888 -2.82844 -0.261258 0.351005 
243 2 3.04659 3.33604 8.16399 -24.4363 2.57734 4.43429 -1.4146 
244 3 3.20807 3.2226 13.3739 -28.1262 2.03506 -0.650324 2.0885 
283 3 3.34121 6.6845 7.97125 -29.5584 0.367916 0.796374 1.58981 
284 3 3.48477 7.19613 13.5706 -28.5027 -1.02593 0.429263 -0.956975 
443 3 7.002 3.28077 8.38555 -29.6432 0.00153496 -1.76069 0.175815 
444 3 7.06497 3.60489 13.4428 -28.6321 2.27729 -1.11067 0.576663 
483 3 7.29107 7.26555 7.94149 -27.9834 -1.3775 -2.89107 2.29143 
484 3 7.46604 7.17135 13.3247 -28.4588 -2.02061 -0.126896 1.00862 
1003 3 1.24718 1.44113 11.0702 -27.4288 1.6615 -3.79172 0.277275 
1043 3 1.61961 4.95407 10.923 -28.2751 1.54312 4.78693 2.10715 
1203 2 4.87422 1.61656 10.9608 -24.5805 1.71727 0.45162 1.36099 
1243 3 5.3821 5.17711 10.7318 -29.0735 -0.674283 1.11202 1.09799 
2203 1 2.9128 1.65786 9.29462 -8.54252 -1.35175 -1.68574 3.01005 
2243 1 3.47203 5.20974 9.71835 -7.07705 -3.04487 1.22637 -1.2581 
2403 1 6.61942 1.48508 9.55778 -7.14993 2.54949 2.52432 0.806048 
2443 1 5.44061 6.51703 9.12162 -7.00568 1.60195 0.550189 0.875152 
3243 1 1.42823 3.11371 11.9697 -8.70137 0.425976 0.766255 0.856399 
3403 1 7.2656 1.83337 12.536 -7.47088 2.70571 -3.63472 -1.18783 
3442 1 7.39483 5.0733 7.37633 -8.21159 -0.546367 1.42675 0.0500977 
3443 1 6.91387 5.19921 12.4195 -7.43984 1.50875 2.01893 -1.56419 
4043 1 1.09557 4.26805 9.38582 -8.00668 -0.769731 -4.28755 -4.197 
4243 1 4.92929 3.44835 9.78322 -7.32088 0.265428 -1.91256 0.358805 
5043 1 3.19218 1.40141 12.266 -8.08905 -0.808851 1.33679 -1.3718 
5083 1 3.32281 4.90916 12.2581 -8.14682 0.0640555 1.09033 0.935067 
5243 1 5.34696 3.2449 12.6719 -7.04583 -5.141 0.194445 -3.12079 
5283 1 5.34435 7.1156 12.2299 -7.74508 -2.31757 -0.199944 -0.635667 
3283 1 3.21235 8.86687 12.2875 -7.26096 1.49936 -0.0973583 -0.47838 
203 3 3.3112 -0.20947 7.92479 -27.5699 -0.569083 0.449356 2.48462 
4203 1 5.04201 -0.127934 9.74443 -7.55714 -3.24374 -3.96535 0.147533 
5442 1 8.95043 3.11504 6.96479 -7.62298 0.103316 -1.67998 2.38965 
1283 3 5.14816 8.92069 10.8621 -29.2824 -0.369375 0.0387035 0.581763 
1083 3 1.45887 8.84414 10.4101 -29.3012 2.31873 -1.66342 1.62504 
2483 1 6.90704 8.60028 9.82227 -7.42212 0.130043 -0.495011 -3.84925 
2044 1 -0.150022 5.17359 14.5318 -8.52688 0.372005 -0.145115 -0.118299 
2484 1 6.90483 8.62962 14.7877 -8.00932 0.270976 1.25233 0.313068 
2283 1 3.47773 8.45247 9.51094 -7.42775 1.16182 -0.18577 0.375695 
84 3 -0.211414 7.19413 13.4852 -28.6625 1.26427 -0.8003 -0.565311 
204 3 3.40214 -0.316463 13.735 -28.6607 -0.523184 3.18248 0.109934 
5203 1 5.23771 0.0581921 12.7837 -8.24342 2.51627 -2.58428 -1.2813 
404 3 7.22146 -0.30939 13.8715 -28.105 -0.719059 0.130406 0.734458 
5003 1 1.28238 -0.172405 12.6312 -7.59634 -0.470067 -2.19935 0.964625 
2084 1 0.126289 8.92111 14.6266 -7.36455 1.49576 0.425492 0.530155 
3043 1 -0.157468 4.99005 11.6684 -7.13785 -2.73388 -0.928542 0.361652 
2643 1 8.87278 2.78233 9.51986 -7.58001 2.40725 0.827275 -0.0483483 
2083 1 -0.393016 8.92939 9.23963 -8.10691 -0.27889 2.26566 1.14495 
5922 1 -0.314856 8.17373 6.76006 -6.34188 -0.705032 0.513521 -0.186826 
3482 1 7.49118 8.98843 7.25634 -8.05416 -0.155781 -0.954718 -1.21496 
2284 1 3.51761 9.55122 14.8849 -7.31489 -2.14612 -2.10585 2.06801 
4364 1 5.43512 14.9153 14.9065 -7.99653 -1.68407 -1.51937 -2.2992 
2124 1 1.21356 11.6217 14.4982 -7.88163 1.7281 0.943307 1.30207 
3562 1 6.95507 16.2514 7.40358 -9.54784 0.478555 0.0133169 -0.602988 
5202 1 5.17868 18.1925 7.00613 -8.94263 0.211199 0.90929 -1.31336 
4164 1 1.68306 14.8991 15.1602 -8.13515 -0.653731 1.6943 -1.41583 
3083 1 0.0512334 8.99914 11.8831 -8.14811 -3.53756 -0.293738 0.572547 
2123 1 0.309285 12.6798 9.47034 -7.89054 -1.30333 -0.753468 -2.02806 
4563 1 8.42142 14.5587 9.92992 -6.99949 1.49534 0.959031 -0.0551288 
3122 1 -0.243544 12.5688 6.7162 -8.11753 1.12338 -0.94656 0.935884 
364 3 3.24018 14.7668 13.64 -27.3115 0.873413 -2.42128 0.346854 
5163 1 1.69282 14.774 12.3538 -7.99223 -2.37249 0.730063 2.27252 
3522 1 6.88822 12.3935 7.07975 -8.64228 -0.914647 3.43713 -3.11714 
4163 1 1.76679 14.6607 9.9208 -7.85132 0.515268 -0.874825 -2.2209 
124 2 -0.210444 10.7851 13.2892 -24.4807 -2.10667 -1.00692 -1.17717 
3523 1 7.56734 12.6514 12.2376 -8.48946 -1.94109 -1.11641 0.896288 
5162 1 1.74214 14.4076 7.32067 -8.18445 -1.57979 -0.562856 -0.956373 
5362 1 4.78696 14.3891 6.74424 -8.2575 0.864237 0.635255 1.47597 
3 2 -0.39683 18.3791 8.31206 -24.9683 0.581838 -2.6929 -0.618324 
563 3 6.82717 14.6448 8.64182 -27.5976 1.90098 -1.63603 1.2968 
2364 1 3.41257 16.6737 13.8078 -8.06253 0.891977 -1.42617 2.37127 
4324 1 5.27608 11.3258 14.8329 -6.38376 3.07902 1.9682 -0.344769 
5123 1 1.59988 10.8746 11.9111 -7.69724 -0.283315 1.53802 1.21011 
3323 1 3.33878 12.9818 12.0958 -8.03436 1.36197 -1.43195 1.40842 
4323 1 5.15221 10.8206 9.77396 -7.19404 1.40984 -2.20211 -1.56778 
2523 1 7.34263 12.3977 9.51715 -7.11509 -2.95123 1.74523 1.25529 
363 3 3.25654 14.0923 8.41536 -27.9665 1.90429 2.25848 -1.03253 
4003 1 1.67095 18.2497 9.62497 -7.4923 -1.09885 1.62708 -1.43013 
2563 1 6.65455 16.5397 10.0507 -7.87958 3.11605 0.417441 -3.49045 
3322 1 3.48352 12.0774 6.761 -8.57183 -0.589741 0.339461 0.0742745 
1163 2 1.56655 16.4881 10.8902 -23.9143 -2.68257 0.731014 1.20667 
5323 1 5.32142 10.7542 12.333 -7.77172 0.0261476 0.499472 -0.138579 
4123 1 1.98567 10.502 9.51018 -7.28283 -1.38941 0.785377 -2.88118 
2323 1 3.55927 12.679 9.51411 -6.7146 -1.85692 -1.90712 0.566947 
1323 2 5.37219 12.5862 11.0269 -25.0573 -0.419436 0.0522086 -1.97009 
564 2 7.35998 14.4216 13.5924 -24.1135 0.272902 4.22084 -0.464378 
1363 2 5.41324 16.8704 11.5821 -22.726 -5.46134 0.211422 0.432463 
2363 1 3.11567 16.6948 7.88062 -7.68963 0.281888 -1.01692 -1.45726 
524 2 7.38857 10.9379 13.5948 -24.0651 -4.29687 -2.2416 -0.329608 
3563 1 7.16058 16.6469 12.6032 -8.45525 1.1348 -0.545678 2.47061 
324 2 3.18865 11.0526 13.4321 -25.3061 2.9632 -0.0446763 0.708269 
523 3 6.97515 10.9158 8.13711 -28.6455 0.706562 -3.58092 2.6906 
403 2 6.96844 18.3903 8.7993 -24.378 0.696633 -0.0899718 -3.85197 
5122 1 1.4604 10.0957 6.79768 -7.94353 0.478859 2.17922 1.46609 
5363 1 5.72142 14.4501 12.061 -7.98756 -1.73914 1.82631 1.64678 
323 3 3.18726 10.2983 7.72546 -28.319 2.17495 -0.153833 3.20347 
5322 1 5.27751 10.0873 7.02624 -7.65615 -0.0661186 2.45454 2.35382 
2324 1 3.30147 13.0178 14.819 -7.84299 1.32999 0.489186 0.861989 
1123 3 1.59745 12.6119 10.9032 -28.6752 1.49692 1.06535 -0.501979 
3363 1 3.28548 17.2797 11.5228 -7.39954 4.30925 0.296242 0.0922982 
4363 1 5.11586 14.5157 9.42351 -7.45089 -0.464028 0.284323 -0.0592068 
2524 1 7.62136 13.1683 15.2141 -7.95877 -0.880002 -1.87685 -1.72659 
163 3 -0.293954 14.5089 8.52251 -28.3742 0.168169 0.705338 -1.98916 
164 3 -0.238165 14.5858 13.8273 -27.8829 0.0775917 0.301307 -0.536072 
2163 1 -0.230179 16.4624 9.78151 -8.045 -0.91233 -0.122622 -1.06905 
4524 1 8.98422 10.7701 14.918 -8.4573 1.01892 -0.0766088 0.962699 
5562 1 8.94473 14.2922 7.25731 -9.01016 -2.01159 1.94715 -0.2834 
4523 1 8.89726 10.6504 9.4702 -7.62927 1.57682 -1.92166 -0.28961 
3162 1 -0.268435 16.3575 7.01797 -6.9411 1.72483 0.126248 1.7796 
2564 1 7.26414 16.6845 15.2119 -7.35616 1.8843 0.458614 -0.663855 
245 2 3.68138 3.28587 18.8521 -24.1445 -2.58703 -2.90895 -0.372556 
285 3 3.39666 6.88044 19.0395 -28.7082 1.33633 0.523392 0.221634 
445 2 7.2159 3.54732 19.0025 -24.7332 3.9196 -0.0318274 -1.29867 
485 3 7.08478 7.17921 18.9532 -28.8386 0.58739 0.452663 1.39087 
1004 3 1.48565 1.33696 16.349 -28.5425 1.73525 1.37529 1.82934 
1005 3 1.62602 1.32996 21.6445 -29.44 0.994132 -0.963016 -0.920847 
1044 3 1.71686 4.92614 15.9359 -27.4007 -0.602139 1.44698 1.63642 
1045 3 1.54195 4.77893 21.3388 -29.1527 -0.229322 2.23121 1.11919 
1204 2 5.40433 1.45327 16.6016 -25.4039 0.329486 -2.22756 -4.5991 
1205 3 5.35994 1.14671 21.5981 -28.0372 -0.112627 1.77961 1.2424 
1244 2 5.50976 5.14969 16.1064 -24.8671 -2.93497 0.578964 1.63562 
1245 3 5.36995 4.92057 21.8462 -27.9362 1.23014 0.634167 0.192908 
2245 1 5.37942 6.28378 20.5671 -7.39278 0.00226084 1.74382 -2.08999 
2405 1 7.40042 1.24239 21.4569 -7.03616 -0.752414 -0.708128 -0.188554 
2445 1 7.73929 5.21847 20.3548 -6.45568 -0.347635 -0.598171 -1.97905 
3204 1 3.48496 1.38339 20.0372 -7.85737 2.37692 1.49451 0.906182 
3205 1 3.71997 1.07461 22.9119 -7.07413 1.50254 3.18283 -2.80602 
3245 1 3.36534 4.62743 20.3823 -8.30002 0.578088 1.97117 1.45288 
3404 1 7.42028 1.39861 18.2417 -7.36626 -0.792164 1.79268 0.640137 
3444 1 7.2443 5.43284 17.7016 -8.16126 -1.47832 2.63032 -0.306293 
3445 1 7.69089 5.29014 22.7735 -7.67156 -1.13003 -1.23853 2.80411 
4045 1 1.39895 3.00588 20.2756 -7.63948 0.0550779 -1.52584 -0.18628 
4085 1 3.83432 5.1107 17.6851 -7.77396 -0.849488 2.49901 0.515107 
4245 1 5.80498 3.21876 20.4728 -8.61528 -3.47739 -0.907087 1.36081 
5044 1 1.70443 3.36435 17.5156 -8.40894 0.483423 0.666097 -0.863651 
5084 1 1.83889 6.95327 17.7732 -8.02422 -1.34703 -1.05226 -1.27575 
5085 1 3.19402 8.77292 23.1423 -7.69552 0.741206 -1.0693 -0.748408 
5244 1 5.43146 3.27827 17.5857 -8.21576 1.95566 1.66454 1.82802 
5245 1 3.33598 4.99569 23.0513 -8.27712 1.80277 -0.50457 -0.835078 
5284 1 5.46737 7.4572 17.5407 -7.75685 0.760375 -2.18258 1.68768 
5285 1 5.31992 6.83573 23.2889 -7.82378 -0.137279 -0.596725 -0.0735179 
2204 1 3.46182 1.45732 17.4285 -7.8797 -2.47902 -0.975375 0.99094 
5205 1 5.80609 -0.212204 23.2835 -8.04849 -0.15318 -0.64971 -0.126388 
4086 1 1.56539 6.59763 22.6439 -6.54345 -0.0225921 -0.569087 1.85999 
5525 1 7.59796 8.46497 22.3919 -8.11295 -0.330496 -0.390373 0.686692 
1084 3 1.86537 8.96855 16.3765 -28.5781 0.0842986 -0.573883 -0.598447 
2285 1 3.8529 8.40158 20.365 -7.54464 -1.31414 0.343485 1.52521 
1085 3 1.83922 8.85149 21.6733 -29.5206 -1.40407 -2.12763 -2.4995 
1285 2 5.44809 8.8726 21.8612 -24.9708 0.840074 -3.26758 1.5113 
3405 1 5.46224 3.23169 23.3011 -8.89413 -0.227095 1.04441 -2.05655 
286 3 3.25259 6.89049 24.1131 -28.5743 1.93803 0.346765 -0.868148 
3045 1 1.69279 2.94849 22.8992 -8.30868 1.31177 1.16897 -0.488006 
5885 1 1.57794 6.83646 20.3454 -6.93535 0.614926 1.06166 -2.62173 
6 3 -0.221695 -0.325912 24.0123 -28.2966 -1.02272 -1.80016 -0.219967 
5005 1 1.81456 -0.209379 23.15 -8.03379 -4.55649 -2.7635 1.50887 
3484 1 7.83418 8.97892 17.7512 -7.58772 -0.434359 0.722057 -1.08066 
3805 1 -0.340484 4.67902 22.3494 -8.34128 0.747458 -0.0732978 0.846013 
1284 3 5.61221 8.86215 16.2348 -28.8203 -2.50173 2.00393 -0.267073 
5204 1 5.4609 -0.289871 17.8595 -7.51737 -2.35048 -1.61119 2.8345 
46 3 0.0212878 3.32773 24.0221 -29.0063 -3.07631 -0.700844 1.43173 
86 3 -0.126923 6.85149 24.1038 -28.5292 -0.338217 2.1556 -1.94901 
3004 1 -0.220159 1.56704 17.8895 -7.16856 1.61796 -1.69647 1.00622 
3085 1 0.0331291 8.51565 22.7649 -7.79674 -1.28481 2.01713 1.10591 
3084 1 -0.0657288 8.87283 17.526 -8.42232 -1.05004 -1.37382 -1.44071 
45 3 -0.0550851 3.22733 18.658 -28.1952 -1.42326 -0.474156 1.28051 
1404 3 8.95427 1.42041 16.2663 -29.4696 -1.60888 -0.306445 3.85577 
2404 1 7.11365 0.761525 15.5441 -7.47243 2.56536 0.781842 -1.26063 
85 2 -0.202244 6.7796 18.6529 -24.2298 0.232122 2.46694 1.09667 
5445 1 8.63668 2.58175 23.3659 -7.75266 3.75212 -1.59252 -3.01467 
5444 1 8.5898 3.6004 17.1533 -7.1854 0.630337 -0.617905 -0.545526 
2045 1 0.0519801 4.93312 19.6896 -7.95925 -1.83142 0.625907 0.706703 
2005 1 -0.131763 0.799547 20.7205 -7.19731 -1.37763 0.0145189 -1.97778 
5045 1 -0.358973 1.44267 22.9802 -8.03247 -0.597897 1.90596 0.675886 
1444 3 8.92961 5.43512 16.0923 -27.7044 -0.576312 0.246287 3.68134 
4485 1 8.95485 7.48768 19.9439 -6.84977 -2.2334 2.35711 -1.90378 
2004 1 -0.160986 1.20892 15.3963 -7.47729 -2.17972 -0.0140268 -2.949 
4124 1 3.74612 12.7346 17.6758 -8.22166 -0.285505 -1.04858 -0.802086 
205 3 3.43017 18.3156 18.9677 -28.956 0.576633 0.996521 -0.162058 
3485 1 6.30469 9.10153 19.8575 -7.44485 1.78142 -0.171655 0.757952 
5 3 -0.361972 18.1912 19.0517 -28.8478 -0.423562 1.74869 -0.242374 
4285 1 5.91642 11.7434 19.7049 -7.06298 -2.50038 -1.8643 0.128414 
5004 1 1.57224 18.2559 18.0669 -8.14453 -1.97536 -0.635 0.708343 
405 2 7.26548 18.2182 19.0851 -24.9653 0.55524 2.97331 0.0234109 
4005 1 2.07108 18.3429 20.6128 -7.08877 -0.567139 -1.4748 0.144645 
206 3 3.49832 18.2909 24.0697 -28.3012 2.05721 1.36271 1.69037 
2205 1 5.40325 18.3174 20.6297 -8.29933 0.709694 0.712441 -1.1272 
3284 1 5.66124 10.5636 17.3067 -6.87014 0.289544 0.298366 0.640702 
4205 1 7.22193 16.4488 20.3337 -8.31245 0.946455 -0.811462 1.24561 
325 2 3.91608 10.6972 19.1418 -25.6251 2.28509 1.49464 0.562147 
365 2 3.76154 14.5457 19.0304 -24.5707 -1.73901 -1.75085 -1.25967 
525 3 7.52456 11.0286 18.7774 -30.0071 -0.415011 0.242714 -1.75106 
565 3 7.35853 14.585 18.9192 -29.809 1.31756 1.47162 -2.44956 
1124 3 1.79615 12.8809 16.4237 -28.1635 -0.42247 -0.757673 -2.45871 
1125 3 1.86649 12.6294 21.6855 -28.1423 -1.47372 -0.278839 0.878895 
1164 3 1.35607 16.5946 16.5585 -27.4992 -0.30172 -1.17095 0.218931 
1165 2 1.77826 16.4825 21.7993 -24.3325 -1.69059 2.41843 -4.66011 
1324 3 5.34905 13.0793 16.3012 -28.9641 1.66743 -2.94433 -0.464369 
1325 3 5.90177 12.7438 21.3815 -28.5097 -1.3686 -1.11576 -1.10136 
1364 3 5.32065 16.5163 16.3445 -29.2228 1.83851 1.63637 0.0338398 
1365 3 5.50895 16.4823 21.5842 -27.4056 -0.299369 -0.732294 -1.38223 
2325 1 3.25484 12.5972 20.3323 -7.41186 0.817872 -0.420439 -0.803651 
2365 1 3.83957 16.4844 19.9133 -8.15831 0.0563125 -0.767334 -0.181767 
2525 1 7.27778 11.3382 22.0444 -8.54038 -0.200669 0.128537 -0.675362 
3324 1 5.37759 14.7954 17.3435 -7.63924 -1.62801 0.167586 1.11867 
3325 1 2.62583 12.7238 24.0152 -7.79989 1.77503 -2.033 -1.02038 
3364 1 3.33544 16.6603 17.0977 -8.07637 0.772095 -0.676016 0.318642 
3365 1 3.70036 16.7958 22.5798 -8.99961 3.02721 -1.28246 1.61379 
3524 1 7.19649 12.9081 17.5519 -6.03789 -1.76539 -0.23053 -1.64148 
3525 1 7.46364 14.0724 21.8648 -8.47116 -0.721022 -0.661197 1.99777 
3565 1 7.18067 16.4057 22.8969 -8.95901 0.323771 0.689552 1.1424 
4125 1 1.983 10.3323 20.0516 -7.20248 -1.30591 0.0432156 -1.38253 
4165 1 1.75103 14.635 20.0919 -7.99249 1.8574 1.6174 3.21135 
4325 1 4.55208 10.7326 22.0133 -7.9975 -1.08912 3.28855 -1.0392 
4365 1 4.55131 14.0419 21.9629 -8.43269 -0.242493 2.696 1.02068 
5124 1 3.42792 9.1309 17.8811 -7.42485 -1.2355 -1.65419 -2.73159 
5125 1 1.6561 10.6275 22.47 -7.52207 -1.19273 2.76429 1.93098 
5164 1 1.80702 14.4472 17.5972 -8.54115 -0.440111 1.88438 0.830839 
5165 1 1.74457 14.8045 22.9854 -7.75906 1.58338 -3.32166 -0.619427 
5324 1 5.71548 14.334 19.7709 -7.23261 -1.22059 1.10461 2.54816 
5325 1 5.67163 12.5637 23.8756 -7.8729 0.41291 0.715188 -1.13687 
5364 1 7.1492 16.5907 17.8147 -7.24498 0.43337 -2.3765 -2.11281 
366 2 3.87104 14.4817 23.8887 -23.9885 -2.85836 0.296983 4.46871 
2085 1 -0.386194 9.04211 20.1469 -7.06203 -0.87215 -1.99356 1.04444 
326 3 3.7753 10.8291 23.9593 -29.2735 -0.641339 -1.08005 1.99739 
526 3 7.57415 11.0154 23.9781 -27.825 -2.80717 -3.22511 1.80686 
4004 1 1.55629 18.4039 15.6266 -8.20455 1.14415 -2.67554 -3.8741 
3124 1 1.45766 11.0157 17.201 -8.1737 0.303378 0.0240204 0.11224 
2526 1 8.7029 12.6419 23.9525 -9.05486 0.484184 0.41883 -0.466266 
2165 1 -0.100347 16.5501 20.347 -7.67721 0.731302 0.415224 -0.160377 
125 2 -0.0635114 10.7058 18.8613 -25.4524 -0.814097 1.3796 1.10277 
566 3 7.3991 14.4649 23.8381 -27.4336 -0.334782 -0.810879 2.87744 
2125 1 0.0841101 12.6159 20.2518 -7.69687 1.17639 -0.584319 2.2614 
3165 1 -0.0500634 16.456 22.8781 -7.08357 -1.35272 2.89824 2.62243 
165 3 0.27485 14.3372 19.0255 -27.6384 -4.39501 1.97975 1.03727 
3125 1 -0.254887 12.6173 23.0977 -8.26001 -0.55221 -1.14877 -1.54557 
4565 1 8.03963 13.0191 19.7181 -6.47812 2.89137 -1.4729 3.51987 
5964 1 -0.401965 12.9276 17.861 -8.19494 0.418227 -0.855023 -0.543963 
4204 1 5.14648 18.2302 15.4247 -6.74986 -2.71808 -0.501838 -2.62852 
47 2 0.0241435 2.99706 29.4963 -24.8882 -0.937307 -0.32665 -0.298268 
486 3 7.76508 6.75082 24.173 -28.5757 -0.383384 0.396421 -1.80322 
5807 1 0.314231 0.854973 30.6113 -7.01337 -0.800816 1.8199 1.34509 
1406 3 8.85647 0.72517 27.089 -29.9462 4.8354 -0.0426008 -2.20839 
3006 1 -0.000836227 1.28675 28.0654 -8.27011 0.822379 -0.226902 0.299701 
4926 1 -0.0431273 8.69946 25.4521 -7.4659 -1.02934 -1.25242 -0.129737 
4446 1 7.94402 2.77508 27.1508 -7.09884 0.255582 2.35652 -0.672912 
3886 1 1.4524 6.97343 27.5938 -7.91701 -1.36633 0.206379 -0.162371 
246 3 3.5778 3.47944 24.2781 -27.7694 -1.25083 -4.76435 0.156163 
446 2 7.22957 3.2119 24.6176 -23.6875 0.172662 -1.07393 2.04788 
4447 1 7.35546 1.1603 30.5163 -7.44297 0.542849 -0.05935 0.305459 
3287 1 3.49019 4.82469 30.4642 -7.66191 1.05615 -0.0764299 3.08685 
247 2 3.4192 2.83759 29.5425 -23.7225 4.39851 0.707785 0.212561 
287 3 3.67012 6.88294 29.2359 -29.8567 1.48076 -0.589193 -0.952422 
447 3 7.39333 2.88894 29.2808 -28.8649 0.814906 -0.349898 -0.125303 
487 3 7.47037 6.79681 29.5331 -29.5551 -1.01753 0.833356 -0.0957249 
1006 3 1.73558 1.17327 26.8072 -28.0444 0.870629 1.01911 -0.183312 
1007 3 1.89819 1.27464 32.5098 -27.4894 -1.96266 -0.118274 -1.60843 
1046 3 1.61777 4.89575 26.8559 -28.5365 1.07751 1.61464 0.814279 
1047 3 1.52528 4.91424 31.9942 -27.2414 3.39376 1.07293 -0.66035 
1206 3 5.43318 0.979815 26.8283 -27.6353 0.254372 1.37971 1.57681 
1207 3 5.63491 1.13402 32.0663 -29.0571 0.577084 1.55336 -0.122971 
1246 3 5.38856 4.67766 26.9573 -28.6309 -0.123248 1.39314 1.24116 
1247 2 5.27403 4.87108 32.0799 -24.6439 1.8114 2.6014 -0.778985 
2206 1 3.24888 1.23091 25.4006 -7.89216 -0.316361 0.014945 1.74483 
2207 1 4.57644 1.15301 30.3565 -7.80857 -1.67339 0.0141616 -0.895873 
2246 1 1.62359 6.82956 25.1023 -7.77312 0.440599 -1.69281 1.72422 
2406 1 7.53903 0.924604 25.5141 -8.08737 -1.07419 0.423378 -2.39732 
2446 1 6.92441 5.09723 25.4879 -8.70393 0.101623 1.21497 -0.500252 
3246 1 3.74266 4.82326 25.6251 -8.21566 1.25355 1.85752 -0.722095 
4046 1 1.55168 3.61548 25.3723 -8.34652 -0.0486706 -0.147272 0.0392947 
4087 1 1.89535 6.88269 30.0514 -7.34865 -0.119681 2.56512 3.04814 
4246 1 5.45426 2.69038 25.7599 -8.23609 -0.916346 0.966354 -0.197218 
4247 1 7.26268 0.638221 28.0602 -7.76519 -4.63462 0.913919 1.08431 
4286 1 3.72261 8.37664 25.5848 -7.15354 0.00240238 -0.389661 -0.0340971 
5046 1 5.17544 2.83028 28.2151 -8.5662 0.743171 0.26966 0.400365 
5086 1 5.94097 3.28906 30.986 -7.52882 0.3741 -1.20832 -2.15635 
5246 1 3.21497 0.521509 28.2093 -8.54301 0.59997 0.10727 -0.364139 
5286 1 7.14802 5.04635 28.1328 -7.66795 -0.903729 -1.51711 2.89809 
3286 1 3.6853 8.62278 28.0704 -7.02511 -1.94283 1.46063 2.03649 
2087 1 5.24746 6.84195 27.471 -6.66714 1.06925 -1.60241 -0.514227 
2046 1 3.30719 5.12632 28.0177 -6.69102 1.62524 0.285046 0.0614722 
3046 1 2.02098 3.04432 28.0711 -8.50099 -2.89773 -1.81318 -2.08131 
4527 1 7.26303 5.52901 31.4337 -7.31445 1.47427 -0.33 -1.8372 
2007 1 1.86227 2.79513 30.9783 -8.9364 -0.714256 0.392301 0.713507 
3247 1 5.44398 6.8727 30.4293 -6.74959 -1.31808 -1.74743 -2.03292 
1287 3 5.32579 8.67899 32.2372 -29.6147 0.608145 2.75448 -2.30818 
1086 3 1.96738 8.70724 26.7039 -29.3196 -0.44162 2.14292 -0.82259 
2486 1 7.46202 8.11061 25.4379 -6.87722 -4.50148 2.53584 1.99114 
3087 1 3.7011 8.71631 30.867 -7.50883 -0.750368 -0.0596114 -2.12332 
1087 3 1.82893 8.43728 32.0109 -28.5768 1.28742 2.81041 -0.369936 
4367 1 3.27736 -0.0966907 32.0832 -8.70464 0.426739 -1.01673 1.20404 
2006 1 0.378867 1.08512 25.3965 -7.86118 -0.984369 -0.424968 -0.905475 
4887 1 0.277003 5.16839 30.4509 -8.59644 -2.68441 -1.47673 2.79029 
2448 1 6.94371 8.82116 31.0018 -6.78703 -0.0363439 1.07397 -0.78905 