 LAMMPS graphene 
 
 256 atoms
   1 atom types
 
-9.768    9.768      xlo xhi
-9.35     9.35      ylo yhi
-50     50      zlo zhi

Masses

1 12.011
 
 Atoms

  1   1 -9.157499688    -6.345000406   0.000000000
  2   1 -7.936499688    -7.050000406   0.000000000
  3   1 -6.715499688    -6.345000406   0.000000000
  4   1 -5.494499688    -7.050000406   0.000000000
  5   1 -4.273499688    -6.345000406   0.000000000
  6   1 -3.052499688    -7.050000406   0.000000000
  7   1 -1.831499688    -6.345000406   0.000000000
  8   1 -0.610499688    -7.050000406   0.000000000
  9   1  0.610500312    -6.345000406   0.000000000
 10   1  1.831499312    -7.050000406   0.000000000
 11   1  3.052500312    -6.345000406   0.000000000
 12   1  4.273500312    -7.050000406   0.000000000
 13   1  5.494499312    -6.345000406   0.000000000
 14   1  6.715500312    -7.050000406   0.000000000
 15   1  7.936498312    -6.345000406   0.000000000
 16   1  9.157499312    -7.050000406   0.000000000
 17   1 -9.157499688    -4.935000406   0.000000000
 18   1 -7.936499688    -4.230000406   0.000000000
 19   1 -6.715499688    -4.935000406   0.000000000
 20   1 -5.494499688    -4.230000406   0.000000000
 21   1 -4.273499688    -4.935000406   0.000000000
 22   1 -3.052499688    -4.230000406   0.000000000
 23   1 -1.831499688    -4.935000406   0.000000000
 24   1 -0.610499688    -4.230000406   0.000000000
 25   1  0.610500312    -4.935000406   0.000000000
 26   1  1.831499312    -4.230000406   0.000000000
 27   1  3.052500312    -4.935000406   0.000000000
 28   1  4.273500312    -4.230000406   0.000000000
 29   1  5.494499312    -4.935000406   0.000000000
 30   1  6.715500312    -4.230000406   0.000000000
 31   1  7.936498312    -4.935000406   0.000000000
 32   1  9.157499312    -4.230000406   0.000000000
 33   1 -9.157499688    -2.115000406   0.000000000
 34   1 -7.936499688    -2.820000406   0.000000000
 35   1 -6.715499688    -2.115000406   0.000000000
 36   1 -5.494499688    -2.820000406   0.000000000
 37   1 -4.273499688    -2.115000406   0.000000000
 38   1 -3.052499688    -2.820000406   0.000000000
 39   1 -1.831499688    -2.115000406   0.000000000
 40   1 -0.610499688    -2.820000406   0.000000000
 41   1  0.610500312    -2.115000406   0.000000000
 42   1  1.831499312    -2.820000406   0.000000000
 43   1  3.052500312    -2.115000406   0.000000000
 44   1  4.273500312    -2.820000406   0.000000000
 45   1  5.494499312    -2.115000406   0.000000000
 46   1  6.715500312    -2.820000406   0.000000000
 47   1  7.936498312    -2.115000406   0.000000000
 48   1  9.157499312    -2.820000406   0.000000000
 49   1 -9.157499688    -0.705000406   0.000000000
 50   1 -7.936499688    -0.000000406   0.000000000
 51   1 -6.715499688    -0.705000406   0.000000000
 52   1 -5.494499688    -0.000000406   0.000000000
 53   1 -4.273499688    -0.705000406   0.000000000
 54   1 -3.052499688    -0.000000406   0.000000000
 55   1 -1.831499688    -0.705000406   0.000000000
 56   1 -0.610499688    -0.000000406   0.000000000
 57   1  0.610500312    -0.705000406   0.000000000
 58   1  1.831499312    -0.000000406   0.000000000
 59   1  3.052500312    -0.705000406   0.000000000
 60   1  4.273500312    -0.000000406   0.000000000
 61   1  5.494499312    -0.705000406   0.000000000
 62   1  6.715500312    -0.000000406   0.000000000
 63   1  7.936498312    -0.705000406   0.000000000
 64   1  9.157499312    -0.000000406   0.000000000
 65   1 -9.157499688     2.115000594   0.000000000
 66   1 -7.936499688     1.410000594   0.000000000
 67   1 -6.715499688     2.115000594   0.000000000
 68   1 -5.494499688     1.410000594   0.000000000
 69   1 -4.273499688     2.115000594   0.000000000
 70   1 -3.052499688     1.410000594   0.000000000
 71   1 -1.831499688     2.115000594   0.000000000
 72   1 -0.610499688     1.410000594   0.000000000
 73   1  0.610500312     2.115000594   0.000000000
 74   1  1.831499312     1.410000594   0.000000000
 75   1  3.052500312     2.115000594   0.000000000
 76   1  4.273500312     1.410000594   0.000000000
 77   1  5.494499312     2.115000594   0.000000000
 78   1  6.715500312     1.410000594   0.000000000
 79   1  7.936498312     2.115000594   0.000000000
 80   1  9.157499312     1.410000594   0.000000000
 81   1 -9.157499688     3.525000594   0.000000000
 82   1 -7.936499688     4.230000594   0.000000000
 83   1 -6.715499688     3.525000594   0.000000000
 84   1 -5.494499688     4.230000594   0.000000000
 85   1 -4.273499688     3.525000594   0.000000000
 86   1 -3.052499688     4.230000594   0.000000000
 87   1 -1.831499688     3.525000594   0.000000000
 88   1 -0.610499688     4.230000594   0.000000000
 89   1  0.610500312     3.525000594   0.000000000
 90   1  1.831499312     4.230000594   0.000000000
 91   1  3.052500312     3.525000594   0.000000000
 92   1  4.273500312     4.230000594   0.000000000
 93   1  5.494499312     3.525000594   0.000000000
 94   1  6.715500312     4.230000594   0.000000000
 95   1  7.936498312     3.525000594   0.000000000
 96   1  9.157499312     4.230000594   0.000000000
 97   1 -9.157499688     6.345000594   0.000000000
 98   1 -7.936499688     5.640000594   0.000000000
 99   1 -6.715499688     6.345000594   0.000000000
100   1 -5.494499688     5.640000594   0.000000000
101   1 -4.273499688     6.345000594   0.000000000
102   1 -3.052499688     5.640000594   0.000000000
103   1 -1.831499688     6.345000594   0.000000000
104   1 -0.610499688     5.640000594   0.000000000
105   1  0.610500312     6.345000594   0.000000000
106   1  1.831499312     5.640000594   0.000000000
107   1  3.052500312     6.345000594   0.000000000
108   1  4.273500312     5.640000594   0.000000000
109   1  5.494499312     6.345000594   0.000000000
110   1  6.715500312     5.640000594   0.000000000
111   1  7.936498312     6.345000594   0.000000000
112   1  9.157499312     5.640000594   0.000000000
113   1 -9.157499688     7.754999594   0.000000000
114   1 -7.936499688     8.459999594   0.000000000
115   1 -6.715499688     7.754999594   0.000000000
116   1 -5.494499688     8.459999594   0.000000000  
117   1 -4.273499688     7.754999594   0.000000000  
118   1 -3.052499688     8.459999594   0.000000000  
119   1 -1.831499688     7.754999594   0.000000000  
120   1 -0.610499688     8.459999594   0.000000000  
121   1  0.610500312     7.754999594   0.000000000  
122   1  1.831499312     8.459999594   0.000000000  
123   1  3.052500312     7.754999594   0.000000000  
124   1  4.273500312     8.459999594   0.000000000  
125   1  5.494499312     7.754999594   0.000000000  
126   1  6.715500312     8.459999594   0.000000000  
127   1  7.936498312     7.754999594   0.000000000  
128   1  9.157499312     8.459999594   0.000000000  
129   1 -9.157499688    -7.755000406   3.350000000  
130   1 -7.936499688    -8.460000406   3.350000000  
131   1 -6.715499688    -7.755000406   3.350000000  
132   1 -5.494499688    -8.460000406   3.350000000  
133   1 -4.273499688    -7.755000406   3.350000000  
134   1 -3.052499688    -8.460000406   3.350000000  
135   1 -1.831499688    -7.755000406   3.350000000  
136   1 -0.610499688    -8.460000406   3.350000000  
137   1  0.610500312    -7.755000406   3.350000000  
138   1  1.831499312    -8.460000406   3.350000000  
139   1  3.052500312    -7.755000406   3.350000000  
140   1  4.273500312    -8.460000406   3.350000000  
141   1  5.494499312    -7.755000406   3.350000000  
142   1  6.715500312    -8.460000406   3.350000000  
143   1  7.936498312    -7.755000406   3.350000000  
144   1  9.157499312    -8.460000406   3.350000000  
145   1 -9.157499688    -6.345000406   3.350000000  
146   1 -7.936499688    -5.640000406   3.350000000  
147   1 -6.715499688    -6.345000406   3.350000000  
148   1 -5.494499688    -5.640000406   3.350000000  
149   1 -4.273499688    -6.345000406   3.350000000  
150   1 -3.052499688    -5.640000406   3.350000000  
151   1 -1.831499688    -6.345000406   3.350000000  
152   1 -0.610499688    -5.640000406   3.350000000  
153   1  0.610500312    -6.345000406   3.350000000  
154   1  1.831499312    -5.640000406   3.350000000  
155   1  3.052500312    -6.345000406   3.350000000  
156   1  4.273500312    -5.640000406   3.350000000  
157   1  5.494499312    -6.345000406   3.350000000  
158   1  6.715500312    -5.640000406   3.350000000  
159   1  7.936498312    -6.345000406   3.350000000  
160   1  9.157499312    -5.640000406   3.350000000  
161   1 -9.157499688    -3.525000406   3.350000000  
162   1 -7.936499688    -4.230000406   3.350000000  
163   1 -6.715499688    -3.525000406   3.350000000  
164   1 -5.494499688    -4.230000406   3.350000000  
165   1 -4.273499688    -3.525000406   3.350000000  
166   1 -3.052499688    -4.230000406   3.350000000  
167   1 -1.831499688    -3.525000406   3.350000000  
168   1 -0.610499688    -4.230000406   3.350000000  
169   1  0.610500312    -3.525000406   3.350000000  
170   1  1.831499312    -4.230000406   3.350000000  
171   1  3.052500312    -3.525000406   3.350000000  
172   1  4.273500312    -4.230000406   3.350000000  
173   1  5.494499312    -3.525000406   3.350000000  
174   1  6.715500312    -4.230000406   3.350000000  
175   1  7.936498312    -3.525000406   3.350000000  
176   1  9.157499312    -4.230000406   3.350000000  
177   1 -9.157499688    -2.115000406   3.350000000  
178   1 -7.936499688    -1.410000406   3.350000000  
179   1 -6.715499688    -2.115000406   3.350000000  
180   1 -5.494499688    -1.410000406   3.350000000  
181   1 -4.273499688    -2.115000406   3.350000000  
182   1 -3.052499688    -1.410000406   3.350000000  
183   1 -1.831499688    -2.115000406   3.350000000  
184   1 -0.610499688    -1.410000406   3.350000000  
185   1  0.610500312    -2.115000406   3.350000000  
186   1  1.831499312    -1.410000406   3.350000000  
187   1  3.052500312    -2.115000406   3.350000000  
188   1  4.273500312    -1.410000406   3.350000000  
189   1  5.494499312    -2.115000406   3.350000000  
190   1  6.715500312    -1.410000406   3.350000000  
191   1  7.936498312    -2.115000406   3.350000000  
192   1  9.157499312    -1.410000406   3.350000000  
193   1 -9.157499688     0.705000594   3.350000000  
194   1 -7.936499688     0.000000594   3.350000000  
195   1 -6.715499688     0.705000594   3.350000000  
196   1 -5.494499688     0.000000594   3.350000000  
197   1 -4.273499688     0.705000594   3.350000000  
198   1 -3.052499688     0.000000594   3.350000000  
199   1 -1.831499688     0.705000594   3.350000000  
200   1 -0.610499688     0.000000594   3.350000000  
201   1  0.610500312     0.705000594   3.350000000  
202   1  1.831499312     0.000000594   3.350000000  
203   1  3.052500312     0.705000594   3.350000000  
204   1  4.273500312     0.000000594   3.350000000  
205   1  5.494499312     0.705000594   3.350000000  
206   1  6.715500312     0.000000594   3.350000000  
207   1  7.936498312     0.705000594   3.350000000  
208   1  9.157499312     0.000000594   3.350000000  
209   1 -9.157499688     2.115000594   3.350000000  
210   1 -7.936499688     2.820000594   3.350000000  
211   1 -6.715499688     2.115000594   3.350000000  
212   1 -5.494499688     2.820000594   3.350000000  
213   1 -4.273499688     2.115000594   3.350000000  
214   1 -3.052499688     2.820000594   3.350000000  
215   1 -1.831499688     2.115000594   3.350000000  
216   1 -0.610499688     2.820000594   3.350000000  
217   1  0.610500312     2.115000594   3.350000000  
218   1  1.831499312     2.820000594   3.350000000  
219   1  3.052500312     2.115000594   3.350000000  
220   1  4.273500312     2.820000594   3.350000000  
221   1  5.494499312     2.115000594   3.350000000  
222   1  6.715500312     2.820000594   3.350000000  
223   1  7.936498312     2.115000594   3.350000000  
224   1  9.157499312     2.820000594   3.350000000  
225   1 -9.157499688     4.935000594   3.350000000  
226   1 -7.936499688     4.230000594   3.350000000  
227   1 -6.715499688     4.935000594   3.350000000  
228   1 -5.494499688     4.230000594   3.350000000  
229   1 -4.273499688     4.935000594   3.350000000  
230   1 -3.052499688     4.230000594   3.350000000  
231   1 -1.831499688     4.935000594   3.350000000  
232   1 -0.610499688     4.230000594   3.350000000  
233   1  0.610500312     4.935000594   3.350000000  
234   1  1.831499312     4.230000594   3.350000000  
235   1  3.052500312     4.935000594   3.350000000  
236   1  4.273500312     4.230000594   3.350000000  
237   1  5.494499312     4.935000594   3.350000000  
238   1  6.715500312     4.230000594   3.350000000  
239   1  7.936498312     4.935000594   3.350000000  
240   1  9.157499312     4.230000594   3.350000000  
241   1 -9.157499688     6.345000594   3.350000000  
242   1 -7.936499688     7.049999594   3.350000000  
243   1 -6.715499688     6.345000594   3.350000000  
244   1 -5.494499688     7.049999594   3.350000000  
245   1 -4.273499688     6.345000594   3.350000000  
246   1 -3.052499688     7.049999594   3.350000000  
247   1 -1.831499688     6.345000594   3.350000000  
248   1 -0.610499688     7.049999594   3.350000000  
249   1  0.610500312     6.345000594   3.350000000  
250   1  1.831499312     7.049999594   3.350000000  
251   1  3.052500312     6.345000594   3.350000000  
252   1  4.273500312     7.049999594   3.350000000  
253   1  5.494499312     6.345000594   3.350000000  
254   1  6.715500312     7.049999594   3.350000000  
255   1  7.936498312     6.345000594   3.350000000  
256   1  9.157499312     7.049999594   3.350000000 
 
