ITEM: TIMESTEP
0
ITEM: NUMBER OF ATOMS
256
ITEM: BOX BOUNDS pp pp pp
-9.7680000000000007e+00 9.7680000000000007e+00
-9.3499999999999996e+00 9.3499999999999996e+00
-5.0000000000000000e+01 5.0000000000000000e+01
ITEM: ATOMS id type xs ys zs
1 1 0.03125 0.160695 0.5
2 1 0.09375 0.122995 0.5
3 1 0.15625 0.160695 0.5
4 1 0.21875 0.122995 0.5
5 1 0.28125 0.160695 0.5
6 1 0.34375 0.122995 0.5
7 1 0.40625 0.160695 0.5
8 1 0.46875 0.122995 0.5
9 1 0.53125 0.160695 0.5
10 1 0.59375 0.122995 0.5
11 1 0.65625 0.160695 0.5
12 1 0.71875 0.122995 0.5
13 1 0.78125 0.160695 0.5
14 1 0.84375 0.122995 0.5
15 1 0.90625 0.160695 0.5
16 1 0.96875 0.122995 0.5
17 1 0.03125 0.236096 0.5
18 1 0.09375 0.273797 0.5
19 1 0.15625 0.236096 0.5
20 1 0.21875 0.273797 0.5
21 1 0.28125 0.236096 0.5
22 1 0.34375 0.273797 0.5
23 1 0.40625 0.236096 0.5
24 1 0.46875 0.273797 0.5
25 1 0.53125 0.236096 0.5
26 1 0.59375 0.273797 0.5
27 1 0.65625 0.236096 0.5
28 1 0.71875 0.273797 0.5
29 1 0.78125 0.236096 0.5
30 1 0.84375 0.273797 0.5
31 1 0.90625 0.236096 0.5
32 1 0.96875 0.273797 0.5
33 1 0.03125 0.386898 0.5
34 1 0.09375 0.349198 0.5
35 1 0.15625 0.386898 0.5
49 1 0.03125 0.462299 0.5
50 1 0.09375 0.5 0.5
51 1 0.15625 0.462299 0.5
36 1 0.21875 0.349198 0.5
37 1 0.28125 0.386898 0.5
52 1 0.21875 0.5 0.5
53 1 0.28125 0.462299 0.5
38 1 0.34375 0.349198 0.5
39 1 0.40625 0.386898 0.5
40 1 0.46875 0.349198 0.5
54 1 0.34375 0.5 0.5
55 1 0.40625 0.462299 0.5
56 1 0.46875 0.5 0.5
41 1 0.53125 0.386898 0.5
42 1 0.59375 0.349198 0.5
43 1 0.65625 0.386898 0.5
57 1 0.53125 0.462299 0.5
58 1 0.59375 0.5 0.5
59 1 0.65625 0.462299 0.5
44 1 0.71875 0.349198 0.5
45 1 0.78125 0.386898 0.5
60 1 0.71875 0.5 0.5
61 1 0.78125 0.462299 0.5
46 1 0.84375 0.349198 0.5
47 1 0.90625 0.386898 0.5
48 1 0.96875 0.349198 0.5
62 1 0.84375 0.5 0.5
63 1 0.90625 0.462299 0.5
64 1 0.96875 0.5 0.5
65 1 0.03125 0.613102 0.5
66 1 0.09375 0.575401 0.5
67 1 0.15625 0.613102 0.5
68 1 0.21875 0.575401 0.5
69 1 0.28125 0.613102 0.5
70 1 0.34375 0.575401 0.5
71 1 0.40625 0.613102 0.5
72 1 0.46875 0.575401 0.5
73 1 0.53125 0.613102 0.5
74 1 0.59375 0.575401 0.5
75 1 0.65625 0.613102 0.5
76 1 0.71875 0.575401 0.5
77 1 0.78125 0.613102 0.5
78 1 0.84375 0.575401 0.5
79 1 0.90625 0.613102 0.5
80 1 0.96875 0.575401 0.5
81 1 0.03125 0.688503 0.5
82 1 0.09375 0.726203 0.5
83 1 0.15625 0.688503 0.5
98 1 0.09375 0.801604 0.5
84 1 0.21875 0.726203 0.5
85 1 0.28125 0.688503 0.5
100 1 0.21875 0.801604 0.5
86 1 0.34375 0.726203 0.5
87 1 0.40625 0.688503 0.5
88 1 0.46875 0.726203 0.5
102 1 0.34375 0.801604 0.5
104 1 0.46875 0.801604 0.5
89 1 0.53125 0.688503 0.5
90 1 0.59375 0.726203 0.5
91 1 0.65625 0.688503 0.5
106 1 0.59375 0.801604 0.5
92 1 0.71875 0.726203 0.5
93 1 0.78125 0.688503 0.5
108 1 0.71875 0.801604 0.5
94 1 0.84375 0.726203 0.5
95 1 0.90625 0.688503 0.5
96 1 0.96875 0.726203 0.5
110 1 0.84375 0.801604 0.5
112 1 0.96875 0.801604 0.5
97 1 0.03125 0.839305 0.5
99 1 0.15625 0.839305 0.5
113 1 0.03125 0.914706 0.5
114 1 0.09375 0.952406 0.5
115 1 0.15625 0.914706 0.5
101 1 0.28125 0.839305 0.5
116 1 0.21875 0.952406 0.5
117 1 0.28125 0.914706 0.5
103 1 0.40625 0.839305 0.5
118 1 0.34375 0.952406 0.5
119 1 0.40625 0.914706 0.5
120 1 0.46875 0.952406 0.5
105 1 0.53125 0.839305 0.5
107 1 0.65625 0.839305 0.5
121 1 0.53125 0.914706 0.5
122 1 0.59375 0.952406 0.5
123 1 0.65625 0.914706 0.5
109 1 0.78125 0.839305 0.5
124 1 0.71875 0.952406 0.5
125 1 0.78125 0.914706 0.5
111 1 0.90625 0.839305 0.5
126 1 0.84375 0.952406 0.5
127 1 0.90625 0.914706 0.5
128 1 0.96875 0.952406 0.5
129 1 0.03125 0.0852941 0.5335
130 1 0.09375 0.0475936 0.5335
131 1 0.15625 0.0852941 0.5335
145 1 0.03125 0.160695 0.5335
147 1 0.15625 0.160695 0.5335
132 1 0.21875 0.0475936 0.5335
133 1 0.28125 0.0852941 0.5335
149 1 0.28125 0.160695 0.5335
134 1 0.34375 0.0475936 0.5335
135 1 0.40625 0.0852941 0.5335
136 1 0.46875 0.0475936 0.5335
151 1 0.40625 0.160695 0.5335
137 1 0.53125 0.0852941 0.5335
138 1 0.59375 0.0475936 0.5335
139 1 0.65625 0.0852941 0.5335
153 1 0.53125 0.160695 0.5335
155 1 0.65625 0.160695 0.5335
140 1 0.71875 0.0475936 0.5335
141 1 0.78125 0.0852941 0.5335
157 1 0.78125 0.160695 0.5335
142 1 0.84375 0.0475936 0.5335
143 1 0.90625 0.0852941 0.5335
144 1 0.96875 0.0475936 0.5335
159 1 0.90625 0.160695 0.5335
146 1 0.09375 0.198396 0.5335
161 1 0.03125 0.311497 0.5335
162 1 0.09375 0.273797 0.5335
163 1 0.15625 0.311497 0.5335
148 1 0.21875 0.198396 0.5335
164 1 0.21875 0.273797 0.5335
165 1 0.28125 0.311497 0.5335
150 1 0.34375 0.198396 0.5335
152 1 0.46875 0.198396 0.5335
166 1 0.34375 0.273797 0.5335
167 1 0.40625 0.311497 0.5335
168 1 0.46875 0.273797 0.5335
154 1 0.59375 0.198396 0.5335
169 1 0.53125 0.311497 0.5335
170 1 0.59375 0.273797 0.5335
171 1 0.65625 0.311497 0.5335
156 1 0.71875 0.198396 0.5335
172 1 0.71875 0.273797 0.5335
173 1 0.78125 0.311497 0.5335
158 1 0.84375 0.198396 0.5335
160 1 0.96875 0.198396 0.5335
174 1 0.84375 0.273797 0.5335
175 1 0.90625 0.311497 0.5335
176 1 0.96875 0.273797 0.5335
177 1 0.03125 0.386898 0.5335
178 1 0.09375 0.424599 0.5335
179 1 0.15625 0.386898 0.5335
180 1 0.21875 0.424599 0.5335
181 1 0.28125 0.386898 0.5335
182 1 0.34375 0.424599 0.5335
183 1 0.40625 0.386898 0.5335
184 1 0.46875 0.424599 0.5335
185 1 0.53125 0.386898 0.5335
186 1 0.59375 0.424599 0.5335
187 1 0.65625 0.386898 0.5335
188 1 0.71875 0.424599 0.5335
189 1 0.78125 0.386898 0.5335
190 1 0.84375 0.424599 0.5335
191 1 0.90625 0.386898 0.5335
192 1 0.96875 0.424599 0.5335
193 1 0.03125 0.537701 0.5335
194 1 0.09375 0.5 0.5335
195 1 0.15625 0.537701 0.5335
209 1 0.03125 0.613102 0.5335
210 1 0.09375 0.650802 0.5335
211 1 0.15625 0.613102 0.5335
196 1 0.21875 0.5 0.5335
197 1 0.28125 0.537701 0.5335
212 1 0.21875 0.650802 0.5335
213 1 0.28125 0.613102 0.5335
198 1 0.34375 0.5 0.5335
199 1 0.40625 0.537701 0.5335
200 1 0.46875 0.5 0.5335
214 1 0.34375 0.650802 0.5335
215 1 0.40625 0.613102 0.5335
216 1 0.46875 0.650802 0.5335
201 1 0.53125 0.537701 0.5335
202 1 0.59375 0.5 0.5335
203 1 0.65625 0.537701 0.5335
217 1 0.53125 0.613102 0.5335
218 1 0.59375 0.650802 0.5335
219 1 0.65625 0.613102 0.5335
204 1 0.71875 0.5 0.5335
205 1 0.78125 0.537701 0.5335
220 1 0.71875 0.650802 0.5335
221 1 0.78125 0.613102 0.5335
206 1 0.84375 0.5 0.5335
207 1 0.90625 0.537701 0.5335
208 1 0.96875 0.5 0.5335
222 1 0.84375 0.650802 0.5335
223 1 0.90625 0.613102 0.5335
224 1 0.96875 0.650802 0.5335
225 1 0.03125 0.763904 0.5335
226 1 0.09375 0.726203 0.5335
227 1 0.15625 0.763904 0.5335
228 1 0.21875 0.726203 0.5335
229 1 0.28125 0.763904 0.5335
230 1 0.34375 0.726203 0.5335
231 1 0.40625 0.763904 0.5335
232 1 0.46875 0.726203 0.5335
233 1 0.53125 0.763904 0.5335
234 1 0.59375 0.726203 0.5335
235 1 0.65625 0.763904 0.5335
236 1 0.71875 0.726203 0.5335
237 1 0.78125 0.763904 0.5335
238 1 0.84375 0.726203 0.5335
239 1 0.90625 0.763904 0.5335
240 1 0.96875 0.726203 0.5335
241 1 0.03125 0.839305 0.5335
242 1 0.09375 0.877005 0.5335
243 1 0.15625 0.839305 0.5335
244 1 0.21875 0.877005 0.5335
245 1 0.28125 0.839305 0.5335
246 1 0.34375 0.877005 0.5335
247 1 0.40625 0.839305 0.5335
248 1 0.46875 0.877005 0.5335
249 1 0.53125 0.839305 0.5335
250 1 0.59375 0.877005 0.5335
251 1 0.65625 0.839305 0.5335
252 1 0.71875 0.877005 0.5335
253 1 0.78125 0.839305 0.5335
254 1 0.84375 0.877005 0.5335
255 1 0.90625 0.839305 0.5335
256 1 0.96875 0.877005 0.5335
ITEM: TIMESTEP
250
ITEM: NUMBER OF ATOMS
256
ITEM: BOX BOUNDS pp pp pp
-9.7680000000000007e+00 9.7680000000000007e+00
-9.3499999999999996e+00 9.3499999999999996e+00
-5.0000000000000000e+01 5.0000000000000000e+01
ITEM: ATOMS id type xs ys zs
1 1 0.03125 0.154441 0.498235
2 1 0.09375 0.117908 0.49867
3 1 0.15625 0.154441 0.498235
4 1 0.21875 0.117908 0.49867
5 1 0.28125 0.154441 0.498235
6 1 0.34375 0.117908 0.49867
7 1 0.40625 0.154441 0.498235
8 1 0.46875 0.117908 0.49867
9 1 0.53125 0.154441 0.498235
10 1 0.59375 0.117908 0.49867
11 1 0.65625 0.154441 0.498235
12 1 0.71875 0.117908 0.49867
13 1 0.78125 0.154441 0.498235
14 1 0.84375 0.117908 0.49867
15 1 0.90625 0.154441 0.498235
16 1 0.96875 0.117908 0.49867
17 1 0.03125 0.231775 0.498609
18 1 0.09375 0.269888 0.498289
19 1 0.15625 0.231775 0.498609
20 1 0.21875 0.269888 0.498289
21 1 0.28125 0.231775 0.498609
22 1 0.34375 0.269888 0.498289
23 1 0.40625 0.231775 0.498609
24 1 0.46875 0.269888 0.498289
25 1 0.53125 0.231775 0.498609
26 1 0.59375 0.269888 0.498289
27 1 0.65625 0.231775 0.498609
28 1 0.71875 0.269888 0.498289
29 1 0.78125 0.231775 0.498609
30 1 0.84375 0.269888 0.498289
31 1 0.90625 0.231775 0.498609
32 1 0.96875 0.269888 0.498289
33 1 0.03125 0.385138 0.49839
34 1 0.09375 0.347008 0.498701
35 1 0.15625 0.385138 0.49839
49 1 0.03125 0.462261 0.498826
50 1 0.09375 0.500397 0.498526
51 1 0.15625 0.462261 0.498826
36 1 0.21875 0.347008 0.498701
37 1 0.28125 0.385138 0.49839
52 1 0.21875 0.500397 0.498526
53 1 0.28125 0.462261 0.498826
38 1 0.34375 0.347008 0.498701
39 1 0.40625 0.385138 0.49839
40 1 0.46875 0.347008 0.498701
54 1 0.34375 0.500397 0.498526
55 1 0.40625 0.462261 0.498826
56 1 0.46875 0.500397 0.498526
41 1 0.53125 0.385138 0.49839
42 1 0.59375 0.347008 0.498701
43 1 0.65625 0.385138 0.49839
57 1 0.53125 0.462261 0.498826
58 1 0.59375 0.500397 0.498526
59 1 0.65625 0.462261 0.498826
44 1 0.71875 0.347008 0.498701
45 1 0.78125 0.385138 0.49839
60 1 0.71875 0.500397 0.498526
61 1 0.78125 0.462261 0.498826
46 1 0.84375 0.347008 0.498701
47 1 0.90625 0.385138 0.49839
48 1 0.96875 0.347008 0.498701
62 1 0.84375 0.500397 0.498526
63 1 0.90625 0.462261 0.498826
64 1 0.96875 0.500397 0.498526
65 1 0.03125 0.61567 0.498695
66 1 0.09375 0.577527 0.498983
67 1 0.15625 0.61567 0.498695
68 1 0.21875 0.577527 0.498983
69 1 0.28125 0.61567 0.498695
70 1 0.34375 0.577527 0.498983
71 1 0.40625 0.61567 0.498695
72 1 0.46875 0.577527 0.498983
73 1 0.53125 0.61567 0.498695
74 1 0.59375 0.577527 0.498983
75 1 0.65625 0.61567 0.498695
76 1 0.71875 0.577527 0.498983
77 1 0.78125 0.61567 0.498695
78 1 0.84375 0.577527 0.498983
79 1 0.90625 0.61567 0.498695
80 1 0.96875 0.577527 0.498983
81 1 0.03125 0.692805 0.499178
82 1 0.09375 0.730956 0.498905
83 1 0.15625 0.692805 0.499178
98 1 0.09375 0.808084 0.499425
84 1 0.21875 0.730956 0.498905
85 1 0.28125 0.692805 0.499178
100 1 0.21875 0.808084 0.499425
86 1 0.34375 0.730956 0.498905
87 1 0.40625 0.692805 0.499178
88 1 0.46875 0.730956 0.498905
102 1 0.34375 0.808084 0.499425
104 1 0.46875 0.808084 0.499425
89 1 0.53125 0.692805 0.499178
90 1 0.59375 0.730956 0.498905
91 1 0.65625 0.692805 0.499178
106 1 0.59375 0.808084 0.499425
92 1 0.71875 0.730956 0.498905
93 1 0.78125 0.692805 0.499178
108 1 0.71875 0.808084 0.499425
94 1 0.84375 0.730956 0.498905
95 1 0.90625 0.692805 0.499178
96 1 0.96875 0.730956 0.498905
110 1 0.84375 0.808084 0.499425
112 1 0.96875 0.808084 0.499425
97 1 0.03125 0.846281 0.499255
99 1 0.15625 0.846281 0.499255
113 1 0.03125 0.923628 0.500115
114 1 0.09375 0.960222 0.500311
115 1 0.15625 0.923628 0.500115
101 1 0.28125 0.846281 0.499255
116 1 0.21875 0.960222 0.500311
117 1 0.28125 0.923628 0.500115
103 1 0.40625 0.846281 0.499255
118 1 0.34375 0.960222 0.500311
119 1 0.40625 0.923628 0.500115
120 1 0.46875 0.960222 0.500311
105 1 0.53125 0.846281 0.499255
107 1 0.65625 0.846281 0.499255
121 1 0.53125 0.923628 0.500115
122 1 0.59375 0.960222 0.500311
123 1 0.65625 0.923628 0.500115
109 1 0.78125 0.846281 0.499255
124 1 0.71875 0.960222 0.500311
125 1 0.78125 0.923628 0.500115
111 1 0.90625 0.846281 0.499255
126 1 0.84375 0.960222 0.500311
127 1 0.90625 0.923628 0.500115
128 1 0.96875 0.960222 0.500311
129 1 0.03125 0.0763721 0.533385
130 1 0.09375 0.0397784 0.533189
131 1 0.15625 0.0763721 0.533385
145 1 0.03125 0.153719 0.534245
147 1 0.15625 0.153719 0.534245
132 1 0.21875 0.0397784 0.533189
133 1 0.28125 0.0763721 0.533385
149 1 0.28125 0.153719 0.534245
134 1 0.34375 0.0397784 0.533189
135 1 0.40625 0.0763721 0.533385
136 1 0.46875 0.0397784 0.533189
151 1 0.40625 0.153719 0.534245
137 1 0.53125 0.0763721 0.533385
138 1 0.59375 0.0397784 0.533189
139 1 0.65625 0.0763721 0.533385
153 1 0.53125 0.153719 0.534245
155 1 0.65625 0.153719 0.534245
140 1 0.71875 0.0397784 0.533189
141 1 0.78125 0.0763721 0.533385
157 1 0.78125 0.153719 0.534245
142 1 0.84375 0.0397784 0.533189
143 1 0.90625 0.0763721 0.533385
144 1 0.96875 0.0397784 0.533189
159 1 0.90625 0.153719 0.534245
146 1 0.09375 0.191916 0.534075
161 1 0.03125 0.307195 0.534322
162 1 0.09375 0.269044 0.534595
163 1 0.15625 0.307195 0.534322
148 1 0.21875 0.191916 0.534075
164 1 0.21875 0.269044 0.534595
165 1 0.28125 0.307195 0.534322
150 1 0.34375 0.191916 0.534075
152 1 0.46875 0.191916 0.534075
166 1 0.34375 0.269044 0.534595
167 1 0.40625 0.307195 0.534322
168 1 0.46875 0.269044 0.534595
154 1 0.59375 0.191916 0.534075
169 1 0.53125 0.307195 0.534322
170 1 0.59375 0.269044 0.534595
171 1 0.65625 0.307195 0.534322
156 1 0.71875 0.191916 0.534075
172 1 0.71875 0.269044 0.534595
173 1 0.78125 0.307195 0.534322
158 1 0.84375 0.191916 0.534075
160 1 0.96875 0.191916 0.534075
174 1 0.84375 0.269044 0.534595
175 1 0.90625 0.307195 0.534322
176 1 0.96875 0.269044 0.534595
177 1 0.03125 0.38433 0.534805
178 1 0.09375 0.422473 0.534517
179 1 0.15625 0.38433 0.534805
180 1 0.21875 0.422473 0.534517
181 1 0.28125 0.38433 0.534805
182 1 0.34375 0.422473 0.534517
183 1 0.40625 0.38433 0.534805
184 1 0.46875 0.422473 0.534517
185 1 0.53125 0.38433 0.534805
186 1 0.59375 0.422473 0.534517
187 1 0.65625 0.38433 0.534805
188 1 0.71875 0.422473 0.534517
189 1 0.78125 0.38433 0.534805
190 1 0.84375 0.422473 0.534517
191 1 0.90625 0.38433 0.534805
192 1 0.96875 0.422473 0.534517
193 1 0.03125 0.537739 0.534674
194 1 0.09375 0.499603 0.534974
195 1 0.15625 0.537739 0.534674
209 1 0.03125 0.614862 0.53511
210 1 0.09375 0.652992 0.534799
211 1 0.15625 0.614862 0.53511
196 1 0.21875 0.499603 0.534974
197 1 0.28125 0.537739 0.534674
212 1 0.21875 0.652992 0.534799
213 1 0.28125 0.614862 0.53511
198 1 0.34375 0.499603 0.534974
199 1 0.40625 0.537739 0.534674
200 1 0.46875 0.499603 0.534974
214 1 0.34375 0.652992 0.534799
215 1 0.40625 0.614862 0.53511
216 1 0.46875 0.652992 0.534799
201 1 0.53125 0.537739 0.534674
202 1 0.59375 0.499603 0.534974
203 1 0.65625 0.537739 0.534674
217 1 0.53125 0.614862 0.53511
218 1 0.59375 0.652992 0.534799
219 1 0.65625 0.614862 0.53511
204 1 0.71875 0.499603 0.534974
205 1 0.78125 0.537739 0.534674
220 1 0.71875 0.652992 0.534799
221 1 0.78125 0.614862 0.53511
206 1 0.84375 0.499603 0.534974
207 1 0.90625 0.537739 0.534674
208 1 0.96875 0.499603 0.534974
222 1 0.84375 0.652992 0.534799
223 1 0.90625 0.614862 0.53511
224 1 0.96875 0.652992 0.534799
225 1 0.03125 0.768225 0.534891
226 1 0.09375 0.730112 0.535211
227 1 0.15625 0.768225 0.534891
228 1 0.21875 0.730112 0.535211
229 1 0.28125 0.768225 0.534891
230 1 0.34375 0.730112 0.535211
231 1 0.40625 0.768225 0.534891
232 1 0.46875 0.730112 0.535211
233 1 0.53125 0.768225 0.534891
234 1 0.59375 0.730112 0.535211
235 1 0.65625 0.768225 0.534891
236 1 0.71875 0.730112 0.535211
237 1 0.78125 0.768225 0.534891
238 1 0.84375 0.730112 0.535211
239 1 0.90625 0.768225 0.534891
240 1 0.96875 0.730112 0.535211
241 1 0.03125 0.845559 0.535265
242 1 0.09375 0.882092 0.53483
243 1 0.15625 0.845559 0.535265
244 1 0.21875 0.882092 0.53483
245 1 0.28125 0.845559 0.535265
246 1 0.34375 0.882092 0.53483
247 1 0.40625 0.845559 0.535265
248 1 0.46875 0.882092 0.53483
249 1 0.53125 0.845559 0.535265
250 1 0.59375 0.882092 0.53483
251 1 0.65625 0.845559 0.535265
252 1 0.71875 0.882092 0.53483
253 1 0.78125 0.845559 0.535265
254 1 0.84375 0.882092 0.53483
255 1 0.90625 0.845559 0.535265
256 1 0.96875 0.882092 0.53483
ITEM: TIMESTEP
312
ITEM: NUMBER OF ATOMS
256
ITEM: BOX BOUNDS pp pp pp
-9.7680000000000007e+00 9.7680000000000007e+00
-9.3499999999999996e+00 9.3499999999999996e+00
-5.0000000000000000e+01 5.0000000000000000e+01
ITEM: ATOMS id type xs ys zs
1 1 0.03125 0.154441 0.498235
2 1 0.09375 0.117908 0.49867
3 1 0.15625 0.154441 0.498235
4 1 0.21875 0.117908 0.49867
5 1 0.28125 0.154441 0.498235
6 1 0.34375 0.117908 0.49867
7 1 0.40625 0.154441 0.498235
8 1 0.46875 0.117908 0.49867
9 1 0.53125 0.154441 0.498235
10 1 0.59375 0.117908 0.49867
11 1 0.65625 0.154441 0.498235
12 1 0.71875 0.117908 0.49867
13 1 0.78125 0.154441 0.498235
14 1 0.84375 0.117908 0.49867
15 1 0.90625 0.154441 0.498235
16 1 0.96875 0.117908 0.49867
17 1 0.03125 0.231775 0.498609
18 1 0.09375 0.269888 0.498289
19 1 0.15625 0.231775 0.498609
20 1 0.21875 0.269888 0.498289
21 1 0.28125 0.231775 0.498609
22 1 0.34375 0.269888 0.498289
23 1 0.40625 0.231775 0.498609
24 1 0.46875 0.269888 0.498289
25 1 0.53125 0.231775 0.498609
26 1 0.59375 0.269888 0.498289
27 1 0.65625 0.231775 0.498609
28 1 0.71875 0.269888 0.498289
29 1 0.78125 0.231775 0.498609
30 1 0.84375 0.269888 0.498289
31 1 0.90625 0.231775 0.498609
32 1 0.96875 0.269888 0.498289
33 1 0.03125 0.385138 0.49839
34 1 0.09375 0.347008 0.498701
35 1 0.15625 0.385138 0.49839
49 1 0.03125 0.462261 0.498826
50 1 0.09375 0.500397 0.498526
51 1 0.15625 0.462261 0.498826
36 1 0.21875 0.347008 0.498701
37 1 0.28125 0.385138 0.49839
52 1 0.21875 0.500397 0.498526
53 1 0.28125 0.462261 0.498826
38 1 0.34375 0.347008 0.498701
39 1 0.40625 0.385138 0.49839
40 1 0.46875 0.347008 0.498701
54 1 0.34375 0.500397 0.498526
55 1 0.40625 0.462261 0.498826
56 1 0.46875 0.500397 0.498526
41 1 0.53125 0.385138 0.49839
42 1 0.59375 0.347008 0.498701
43 1 0.65625 0.385138 0.49839
57 1 0.53125 0.462261 0.498826
58 1 0.59375 0.500397 0.498526
59 1 0.65625 0.462261 0.498826
44 1 0.71875 0.347008 0.498701
45 1 0.78125 0.385138 0.49839
60 1 0.71875 0.500397 0.498526
61 1 0.78125 0.462261 0.498826
46 1 0.84375 0.347008 0.498701
47 1 0.90625 0.385138 0.49839
48 1 0.96875 0.347008 0.498701
62 1 0.84375 0.500397 0.498526
63 1 0.90625 0.462261 0.498826
64 1 0.96875 0.500397 0.498526
65 1 0.03125 0.61567 0.498695
66 1 0.09375 0.577527 0.498983
67 1 0.15625 0.61567 0.498695
68 1 0.21875 0.577527 0.498983
69 1 0.28125 0.61567 0.498695
70 1 0.34375 0.577527 0.498983
71 1 0.40625 0.61567 0.498695
72 1 0.46875 0.577527 0.498983
73 1 0.53125 0.61567 0.498695
74 1 0.59375 0.577527 0.498983
75 1 0.65625 0.61567 0.498695
76 1 0.71875 0.577527 0.498983
77 1 0.78125 0.61567 0.498695
78 1 0.84375 0.577527 0.498983
79 1 0.90625 0.61567 0.498695
80 1 0.96875 0.577527 0.498983
81 1 0.03125 0.692805 0.499178
82 1 0.09375 0.730956 0.498905
83 1 0.15625 0.692805 0.499178
98 1 0.09375 0.808084 0.499425
84 1 0.21875 0.730956 0.498905
85 1 0.28125 0.692805 0.499178
100 1 0.21875 0.808084 0.499425
86 1 0.34375 0.730956 0.498905
87 1 0.40625 0.692805 0.499178
88 1 0.46875 0.730956 0.498905
102 1 0.34375 0.808084 0.499425
104 1 0.46875 0.808084 0.499425
89 1 0.53125 0.692805 0.499178
90 1 0.59375 0.730956 0.498905
91 1 0.65625 0.692805 0.499178
106 1 0.59375 0.808084 0.499425
92 1 0.71875 0.730956 0.498905
93 1 0.78125 0.692805 0.499178
108 1 0.71875 0.808084 0.499425
94 1 0.84375 0.730956 0.498905
95 1 0.90625 0.692805 0.499178
96 1 0.96875 0.730956 0.498905
110 1 0.84375 0.808084 0.499425
112 1 0.96875 0.808084 0.499425
97 1 0.03125 0.846281 0.499255
99 1 0.15625 0.846281 0.499255
113 1 0.03125 0.923628 0.500115
114 1 0.09375 0.960222 0.500311
115 1 0.15625 0.923628 0.500115
101 1 0.28125 0.846281 0.499255
116 1 0.21875 0.960222 0.500311
117 1 0.28125 0.923628 0.500115
103 1 0.40625 0.846281 0.499255
118 1 0.34375 0.960222 0.500311
119 1 0.40625 0.923628 0.500115
120 1 0.46875 0.960222 0.500311
105 1 0.53125 0.846281 0.499255
107 1 0.65625 0.846281 0.499255
121 1 0.53125 0.923628 0.500115
122 1 0.59375 0.960222 0.500311
123 1 0.65625 0.923628 0.500115
109 1 0.78125 0.846281 0.499255
124 1 0.71875 0.960222 0.500311
125 1 0.78125 0.923628 0.500115
111 1 0.90625 0.846281 0.499255
126 1 0.84375 0.960222 0.500311
127 1 0.90625 0.923628 0.500115
128 1 0.96875 0.960222 0.500311
129 1 0.03125 0.0763721 0.533385
130 1 0.09375 0.0397784 0.533189
131 1 0.15625 0.0763721 0.533385
145 1 0.03125 0.153719 0.534245
147 1 0.15625 0.153719 0.534245
132 1 0.21875 0.0397784 0.533189
133 1 0.28125 0.0763721 0.533385
149 1 0.28125 0.153719 0.534245
134 1 0.34375 0.0397784 0.533189
135 1 0.40625 0.0763721 0.533385
136 1 0.46875 0.0397784 0.533189
151 1 0.40625 0.153719 0.534245
137 1 0.53125 0.0763721 0.533385
138 1 0.59375 0.0397784 0.533189
139 1 0.65625 0.0763721 0.533385
153 1 0.53125 0.153719 0.534245
155 1 0.65625 0.153719 0.534245
140 1 0.71875 0.0397784 0.533189
141 1 0.78125 0.0763721 0.533385
157 1 0.78125 0.153719 0.534245
142 1 0.84375 0.0397784 0.533189
143 1 0.90625 0.0763721 0.533385
144 1 0.96875 0.0397784 0.533189
159 1 0.90625 0.153719 0.534245
146 1 0.09375 0.191916 0.534075
161 1 0.03125 0.307195 0.534322
162 1 0.09375 0.269044 0.534595
163 1 0.15625 0.307195 0.534322
148 1 0.21875 0.191916 0.534075
164 1 0.21875 0.269044 0.534595
165 1 0.28125 0.307195 0.534322
150 1 0.34375 0.191916 0.534075
152 1 0.46875 0.191916 0.534075
166 1 0.34375 0.269044 0.534595
167 1 0.40625 0.307195 0.534322
168 1 0.46875 0.269044 0.534595
154 1 0.59375 0.191916 0.534075
169 1 0.53125 0.307195 0.534322
170 1 0.59375 0.269044 0.534595
171 1 0.65625 0.307195 0.534322
156 1 0.71875 0.191916 0.534075
172 1 0.71875 0.269044 0.534595
173 1 0.78125 0.307195 0.534322
158 1 0.84375 0.191916 0.534075
160 1 0.96875 0.191916 0.534075
174 1 0.84375 0.269044 0.534595
175 1 0.90625 0.307195 0.534322
176 1 0.96875 0.269044 0.534595
177 1 0.03125 0.38433 0.534805
178 1 0.09375 0.422473 0.534517
179 1 0.15625 0.38433 0.534805
180 1 0.21875 0.422473 0.534517
181 1 0.28125 0.38433 0.534805
182 1 0.34375 0.422473 0.534517
183 1 0.40625 0.38433 0.534805
184 1 0.46875 0.422473 0.534517
185 1 0.53125 0.38433 0.534805
186 1 0.59375 0.422473 0.534517
187 1 0.65625 0.38433 0.534805
188 1 0.71875 0.422473 0.534517
189 1 0.78125 0.38433 0.534805
190 1 0.84375 0.422473 0.534517
191 1 0.90625 0.38433 0.534805
192 1 0.96875 0.422473 0.534517
193 1 0.03125 0.537739 0.534674
194 1 0.09375 0.499603 0.534974
195 1 0.15625 0.537739 0.534674
209 1 0.03125 0.614862 0.53511
210 1 0.09375 0.652992 0.534799
211 1 0.15625 0.614862 0.53511
196 1 0.21875 0.499603 0.534974
197 1 0.28125 0.537739 0.534674
212 1 0.21875 0.652992 0.534799
213 1 0.28125 0.614862 0.53511
198 1 0.34375 0.499603 0.534974
199 1 0.40625 0.537739 0.534674
200 1 0.46875 0.499603 0.534974
214 1 0.34375 0.652992 0.534799
215 1 0.40625 0.614862 0.53511
216 1 0.46875 0.652992 0.534799
201 1 0.53125 0.537739 0.534674
202 1 0.59375 0.499603 0.534974
203 1 0.65625 0.537739 0.534674
217 1 0.53125 0.614862 0.53511
218 1 0.59375 0.652992 0.534799
219 1 0.65625 0.614862 0.53511
204 1 0.71875 0.499603 0.534974
205 1 0.78125 0.537739 0.534674
220 1 0.71875 0.652992 0.534799
221 1 0.78125 0.614862 0.53511
206 1 0.84375 0.499603 0.534974
207 1 0.90625 0.537739 0.534674
208 1 0.96875 0.499603 0.534974
222 1 0.84375 0.652992 0.534799
223 1 0.90625 0.614862 0.53511
224 1 0.96875 0.652992 0.534799
225 1 0.03125 0.768225 0.534891
226 1 0.09375 0.730112 0.535211
227 1 0.15625 0.768225 0.534891
228 1 0.21875 0.730112 0.535211
229 1 0.28125 0.768225 0.534891
230 1 0.34375 0.730112 0.535211
231 1 0.40625 0.768225 0.534891
232 1 0.46875 0.730112 0.535211
233 1 0.53125 0.768225 0.534891
234 1 0.59375 0.730112 0.535211
235 1 0.65625 0.768225 0.534891
236 1 0.71875 0.730112 0.535211
237 1 0.78125 0.768225 0.534891
238 1 0.84375 0.730112 0.535211
239 1 0.90625 0.768225 0.534891
240 1 0.96875 0.730112 0.535211
241 1 0.03125 0.845559 0.535265
242 1 0.09375 0.882092 0.53483
243 1 0.15625 0.845559 0.535265
244 1 0.21875 0.882092 0.53483
245 1 0.28125 0.845559 0.535265
246 1 0.34375 0.882092 0.53483
247 1 0.40625 0.845559 0.535265
248 1 0.46875 0.882092 0.53483
249 1 0.53125 0.845559 0.535265
250 1 0.59375 0.882092 0.53483
251 1 0.65625 0.845559 0.535265
252 1 0.71875 0.882092 0.53483
253 1 0.78125 0.845559 0.535265
254 1 0.84375 0.882092 0.53483
255 1 0.90625 0.845559 0.535265
256 1 0.96875 0.882092 0.53483
ITEM: TIMESTEP
500
ITEM: NUMBER OF ATOMS
256
ITEM: BOX BOUNDS pp pp pp
-9.7680000000000007e+00 9.7680000000000007e+00
-9.3499999999999996e+00 9.3499999999999996e+00
-5.0000000000000000e+01 5.0000000000000000e+01
ITEM: ATOMS id type xs ys zs
1 1 0.03125 0.154441 0.498235
2 1 0.09375 0.117908 0.49867
3 1 0.15625 0.154441 0.498235
4 1 0.21875 0.117908 0.49867
5 1 0.28125 0.154441 0.498235
6 1 0.34375 0.117908 0.49867
7 1 0.40625 0.154441 0.498235
8 1 0.46875 0.117908 0.49867
9 1 0.53125 0.154441 0.498235
10 1 0.59375 0.117908 0.49867
11 1 0.65625 0.154441 0.498235
12 1 0.71875 0.117908 0.49867
13 1 0.78125 0.154441 0.498235
14 1 0.84375 0.117908 0.49867
15 1 0.90625 0.154441 0.498235
16 1 0.96875 0.117908 0.49867
17 1 0.03125 0.231775 0.498609
18 1 0.09375 0.269888 0.498289
19 1 0.15625 0.231775 0.498609
20 1 0.21875 0.269888 0.498289
21 1 0.28125 0.231775 0.498609
22 1 0.34375 0.269888 0.498289
23 1 0.40625 0.231775 0.498609
24 1 0.46875 0.269888 0.498289
25 1 0.53125 0.231775 0.498609
26 1 0.59375 0.269888 0.498289
27 1 0.65625 0.231775 0.498609
28 1 0.71875 0.269888 0.498289
29 1 0.78125 0.231775 0.498609
30 1 0.84375 0.269888 0.498289
31 1 0.90625 0.231775 0.498609
32 1 0.96875 0.269888 0.498289
33 1 0.03125 0.385138 0.49839
34 1 0.09375 0.347008 0.498701
35 1 0.15625 0.385138 0.49839
49 1 0.03125 0.462261 0.498826
51 1 0.15625 0.462261 0.498826
36 1 0.21875 0.347008 0.498701
37 1 0.28125 0.385138 0.49839
53 1 0.28125 0.462261 0.498826
38 1 0.34375 0.347008 0.498701
39 1 0.40625 0.385138 0.49839
40 1 0.46875 0.347008 0.498701
55 1 0.40625 0.462261 0.498826
41 1 0.53125 0.385138 0.49839
42 1 0.59375 0.347008 0.498701
43 1 0.65625 0.385138 0.49839
57 1 0.53125 0.462261 0.498826
59 1 0.65625 0.462261 0.498826
44 1 0.71875 0.347008 0.498701
45 1 0.78125 0.385138 0.49839
61 1 0.78125 0.462261 0.498826
46 1 0.84375 0.347008 0.498701
47 1 0.90625 0.385138 0.49839
48 1 0.96875 0.347008 0.498701
63 1 0.90625 0.462261 0.498826
50 1 0.09375 0.500397 0.498526
65 1 0.03125 0.61567 0.498695
66 1 0.09375 0.577527 0.498983
67 1 0.15625 0.61567 0.498695
52 1 0.21875 0.500397 0.498526
68 1 0.21875 0.577527 0.498983
69 1 0.28125 0.61567 0.498695
54 1 0.34375 0.500397 0.498526
56 1 0.46875 0.500397 0.498526
70 1 0.34375 0.577527 0.498983
71 1 0.40625 0.61567 0.498695
72 1 0.46875 0.577527 0.498983
58 1 0.59375 0.500397 0.498526
73 1 0.53125 0.61567 0.498695
74 1 0.59375 0.577527 0.498983
75 1 0.65625 0.61567 0.498695
60 1 0.71875 0.500397 0.498526
76 1 0.71875 0.577527 0.498983
77 1 0.78125 0.61567 0.498695
62 1 0.84375 0.500397 0.498526
64 1 0.96875 0.500397 0.498526
78 1 0.84375 0.577527 0.498983
79 1 0.90625 0.61567 0.498695
80 1 0.96875 0.577527 0.498983
81 1 0.03125 0.692805 0.499178
82 1 0.09375 0.730956 0.498905
83 1 0.15625 0.692805 0.499178
98 1 0.09375 0.808084 0.499425
84 1 0.21875 0.730956 0.498905
85 1 0.28125 0.692805 0.499178
100 1 0.21875 0.808084 0.499425
86 1 0.34375 0.730956 0.498905
87 1 0.40625 0.692805 0.499178
88 1 0.46875 0.730956 0.498905
102 1 0.34375 0.808084 0.499425
104 1 0.46875 0.808084 0.499425
89 1 0.53125 0.692805 0.499178
90 1 0.59375 0.730956 0.498905
91 1 0.65625 0.692805 0.499178
106 1 0.59375 0.808084 0.499425
92 1 0.71875 0.730956 0.498905
93 1 0.78125 0.692805 0.499178
108 1 0.71875 0.808084 0.499425
94 1 0.84375 0.730956 0.498905
95 1 0.90625 0.692805 0.499178
96 1 0.96875 0.730956 0.498905
110 1 0.84375 0.808084 0.499425
112 1 0.96875 0.808084 0.499425
97 1 0.03125 0.846281 0.499255
99 1 0.15625 0.846281 0.499255
101 1 0.28125 0.846281 0.499255
103 1 0.40625 0.846281 0.499255
105 1 0.53125 0.846281 0.499255
107 1 0.65625 0.846281 0.499255
109 1 0.78125 0.846281 0.499255
111 1 0.90625 0.846281 0.499255
113 1 0.03125 0.923628 0.500115
114 1 0.09375 0.960222 0.500311
115 1 0.15625 0.923628 0.500115
116 1 0.21875 0.960222 0.500311
117 1 0.28125 0.923628 0.500115
118 1 0.34375 0.960222 0.500311
119 1 0.40625 0.923628 0.500115
120 1 0.46875 0.960222 0.500311
121 1 0.53125 0.923628 0.500115
122 1 0.59375 0.960222 0.500311
123 1 0.65625 0.923628 0.500115
124 1 0.71875 0.960222 0.500311
125 1 0.78125 0.923628 0.500115
126 1 0.84375 0.960222 0.500311
127 1 0.90625 0.923628 0.500115
128 1 0.96875 0.960222 0.500311
129 1 0.03125 0.0763721 0.533385
130 1 0.09375 0.0397784 0.533189
131 1 0.15625 0.0763721 0.533385
145 1 0.03125 0.153719 0.534245
147 1 0.15625 0.153719 0.534245
132 1 0.21875 0.0397784 0.533189
133 1 0.28125 0.0763721 0.533385
149 1 0.28125 0.153719 0.534245
134 1 0.34375 0.0397784 0.533189
135 1 0.40625 0.0763721 0.533385
136 1 0.46875 0.0397784 0.533189
151 1 0.40625 0.153719 0.534245
155 1 0.65625 0.153719 0.534245
137 1 0.53125 0.0763721 0.533385
138 1 0.59375 0.0397784 0.533189
139 1 0.65625 0.0763721 0.533385
153 1 0.53125 0.153719 0.534245
157 1 0.78125 0.153719 0.534245
141 1 0.78125 0.0763721 0.533385
140 1 0.71875 0.0397784 0.533189
159 1 0.90625 0.153719 0.534245
144 1 0.96875 0.0397784 0.533189
143 1 0.90625 0.0763721 0.533385
142 1 0.84375 0.0397784 0.533189
163 1 0.15625 0.307195 0.534322
162 1 0.09375 0.269044 0.534595
161 1 0.03125 0.307195 0.534322