LAMMPS (9 Sep 2010)
units	        metal 
atom_style	atomic
boundary p p p
read_data       data.graphene
Reading data file ...
  orthogonal box = (-9.768 -9.35 -50) to (9.768 9.35 50)
  1 by 1 by 8 processor grid
  256 atoms
pair_style meam
pair_coeff * * lib.meam C C.meam C


timestep        0.001 
neighbor        2.0 bin
thermo          10
thermo_style custom step temp press pxx pyy pzz vol etotal 
thermo_modify lost warn
dump		1 all atom 250 graph.lammpstrj

minimize 0.0 1.0e-8 1000 100000
WARNING: Resetting reneighboring criteria during minimization
Setting up minimization ...
Memory usage per processor = 0.835129 Mbytes
Step Temp Press Pxx Pyy Pzz Volume TotEng 
       0            0    48819.412    76852.342    69189.362    416.53312     36532.32   -1222.7522 
      10            0    4811.3072    -16000.49    28675.875    1758.5366     36532.32     -1638.43 
      20            0   -45576.859   -80003.706   -52726.362   -4000.5101     36532.32   -1978.9651 
      30            0   -37743.435   -63619.105   -49812.329    201.12824     36532.32   -2011.9698 
      40            0   -40597.741   -73226.646     -49296.5    729.92315     36532.32   -2039.3494 
      50            0   -39905.773   -71843.675   -48378.564    504.91913     36532.32   -2040.6366 
      60            0   -39895.385   -70668.232   -49253.728     235.8055     36532.32   -2041.4772 
      70            0   -38842.703   -68794.852    -47973.69    240.43452     36532.32   -2041.9466 
      80            0   -37983.498   -68466.631   -45392.556   -91.307149     36532.32   -2046.2313 
      90            0   -29927.976   -53878.064   -35684.716   -221.14936     36532.32   -2057.7029 
     100            0   -28506.252   -47449.313   -37757.896   -311.54659     36532.32   -2071.4018 
     110            0   -25904.175    -43730.28   -33910.683   -71.562861     36532.32   -2081.4392 
     120            0   -26568.259     -39078.3   -40246.247   -380.23024     36532.32      -2093.2 
     130            0   -25959.869   -37278.035   -40265.732   -335.83967     36532.32    -2102.762 
     140            0   -24891.315   -34932.523   -39049.137   -692.28551     36532.32   -2111.0154 
     150            0   -25072.741   -34341.134   -40657.458   -219.63066     36532.32   -2118.0914 
     160            0   -27572.554   -37501.929   -43545.167   -1670.5665     36532.32   -2121.0319 
     170            0   -26565.039   -36373.227   -42788.349   -533.53998     36532.32    -2130.269 
     180            0   -26057.878   -36033.054   -41755.923   -384.65651     36532.32   -2132.1769 
     190            0    -26046.54   -35802.712   -42075.333   -261.57414     36532.32   -2133.0015 
     200            0   -25316.249   -33928.511   -41144.364   -875.87253     36532.32   -2134.4631 
     210            0   -26326.285   -33700.189   -44271.618   -1007.0483     36532.32   -2141.2094 
     220            0   -27203.533   -37182.419   -43803.461   -624.71726     36532.32   -2146.8918 
     230            0   -28217.851   -38379.055   -44127.963   -2146.5344     36532.32   -2149.1096 
     240            0   -27241.503   -37501.765   -43624.825   -597.91954     36532.32    -2150.516 
     250            0   -27327.887   -37341.214    -43806.31   -836.13739     36532.32   -2151.3478 
     260            0   -29430.817   -39810.555   -47262.079   -1219.8172     36532.32    -2157.915 
     270            0   -29142.954   -39244.078   -45882.756   -2302.0293     36532.32    -2162.212 
     280            0   -28939.754   -39076.036   -46035.274   -1707.9527     36532.32   -2165.1017 
     290            0   -28875.578   -39268.171   -45028.085   -2330.4764     36532.32   -2168.4483 
     300            0    -30043.92   -40618.462   -46945.947    -2567.349     36532.32   -2172.1339 
     310            0   -31409.507   -41612.193   -49668.971   -2947.3576     36532.32   -2179.2062 
     320            0   -31747.494   -42692.446    -49589.28   -2960.7571     36532.32   -2183.8305 
     330            0   -32657.632     -41936.6   -52293.556   -3742.7401     36532.32   -2191.9879 
     340            0   -31799.486     -40667.1   -51536.221   -3195.1379     36532.32   -2196.9257 
     350            0   -31698.359   -40389.691    -52543.76   -2161.6264     36532.32   -2199.9651 
     360            0   -31267.373   -39800.134   -51587.171    -2414.813     36532.32   -2201.7564 
     370            0   -31187.583   -38729.469   -52139.462   -2693.8172     36532.32   -2205.7954 
     380            0    -30893.25   -38804.965    -51192.46   -2682.3247     36532.32    -2207.621 
     390            0   -31221.369   -39430.149   -50781.211   -3452.7472     36532.32   -2213.6207 
     400            0   -32346.721   -41694.944   -52584.769   -2760.4483     36532.32   -2221.0209 
     410            0   -34583.813    -42355.13   -56339.686   -5056.6241     36532.32   -2234.6989 
     420            0   -32999.019   -39552.232   -53665.575   -5779.2512     36532.32    -2253.551 
     430            0   -30904.782   -33438.607   -54385.298   -4890.4417     36532.32   -2275.0744 
     440            0   -31883.539   -33950.864   -58780.565   -2919.1868     36532.32   -2292.1487 
     450            0   -30669.489   -31522.132   -57650.592   -2835.7437     36532.32   -2305.3348 
     460            0   -29571.536   -29792.797   -56085.563   -2836.2477     36532.32   -2312.5935 
     470            0    -29127.58   -28642.771   -54641.815   -4098.1554     36532.32   -2331.5373 
     480            0   -28602.256   -27034.413   -56866.648    -1905.708     36532.32   -2342.2674 
     490            0   -30071.058   -26700.973   -59256.336   -4255.8651     36532.32   -2351.3511 
     500            0   -27839.936   -22905.205   -58973.592   -1641.0106     36532.32    -2362.579 
     510            0   -26697.351   -21412.926   -57692.352   -986.77551     36532.32   -2368.1891 
     520            0    -27890.62   -22085.209   -61759.242    172.59242     36532.32   -2376.0019 
     530            0   -26204.109    -18164.57   -60350.358   -97.397063     36532.32   -2384.3454 
     540            0   -26239.987   -17407.062   -61256.395   -56.503321     36532.32   -2386.8264 
     550            0    -26523.55   -17066.437   -62395.389   -108.82505     36532.32   -2387.8149 
     560            0   -26313.917   -17019.193   -62128.422    205.86264     36532.32   -2388.4801 
     570            0    -27013.54   -17476.581   -63762.754    198.71574     36532.32   -2389.7282 
     580            0   -26626.556   -16928.742   -63156.232    205.30609     36532.32    -2390.149 
     590            0   -26803.411   -17109.925   -63301.929    1.6217267     36532.32   -2390.4678 
     600            0   -26803.806   -17124.458   -63279.724   -7.2367794     36532.32   -2390.5582 
     610            0   -26775.394   -17104.916   -63229.847    8.5800957     36532.32   -2390.5831 
     620            0   -26771.175   -17129.214   -63188.915     4.604948     36532.32    -2390.595 
     630            0   -26794.912   -17110.776   -63282.345    8.3849636     36532.32   -2390.6218 
     640            0   -26779.472   -17100.119   -63240.401    2.1051431     36532.32   -2390.6296 
     650            0   -26781.255   -17093.808   -63248.344   -1.6119479     36532.32   -2390.6332 
     660            0   -26775.054    -17090.47   -63235.462   0.77052813     36532.32   -2390.6344 
     670            0    -26777.01    -17086.54   -63241.343   -3.1483322     36532.32   -2390.6368 
     680            0   -26764.663   -17074.882   -63218.118  -0.99005569     36532.32   -2390.6373 
     690            0   -26763.926   -17074.841   -63216.938 0.0012640933     36532.32   -2390.6375 
     700            0    -26761.29   -17072.098    -63209.81   -1.9612175     36532.32   -2390.6377 
     710            0   -26759.504   -17067.298   -63208.863   -2.3518327     36532.32    -2390.638 
     720            0   -26758.652   -17067.188   -63208.498  -0.27113645     36532.32    -2390.638 
     730            0   -26757.301   -17065.926   -63205.769  -0.20957724     36532.32    -2390.638 
     740            0   -26756.466   -17063.729     -63205.5  -0.16736562     36532.32   -2390.6381 
     750            0   -26756.008   -17063.633   -63204.336 -0.055257065     36532.32   -2390.6381 
     760            0   -26755.349   -17063.494   -63202.451  -0.10004264     36532.32   -2390.6381 
     770            0   -26754.017   -17060.598   -63201.191  -0.26274744     36532.32   -2390.6381 
     780            0   -26753.571   -17061.423    -63199.29 0.00052556527     36532.32   -2390.6381 
     790            0   -26753.446   -17059.953   -63200.088  -0.29791707     36532.32   -2390.6382 
     800            0   -26753.123   -17059.752   -63199.487   -0.1293831     36532.32   -2390.6382 
     810            0   -26753.005   -17059.679   -63199.185  -0.15068206     36532.32   -2390.6382 
     820            0   -26752.499   -17059.458   -63198.073  0.034225961     36532.32   -2390.6382 
     830            0   -26752.189   -17058.946   -63197.616 -0.0067040608     36532.32   -2390.6382 
     840            0   -26752.039   -17058.945   -63197.273   0.10179375     36532.32   -2390.6382 
     850            0   -26752.111    -17058.79   -63197.549 0.0058641542     36532.32   -2390.6382 
     860            0    -26752.05   -17058.669   -63197.392 -0.088641097     36532.32   -2390.6382 
     870            0   -26751.648   -17058.523   -63196.536   0.11579799     36532.32   -2390.6382 
     876            0   -26751.692   -17058.297   -63196.779 0.00066127851     36532.32   -2390.6382 
Loop time of 12.8449 on 8 procs for 876 steps with 256 atoms

Minimization stats:
  Stopping criterion = linesearch alpha is zero
  Energy initial, next-to-last, final = 
        -1222.75223255     -2390.63816894     -2390.63816894
  Force two-norm initial, final = 36.3377 0.00199405
  Force max component initial, final = 6.46505 0.000670706
  Final line search alpha, max atom move = 0.00390625 2.61995e-06
  Iterations, force evaluations = 876 4559

Pair  time (%) = 5.81694 (45.2858)
Neigh time (%) = 0.000569046 (0.00443011)
Comm  time (%) = 3.21451 (25.0255)
Outpt time (%) = 0.00388503 (0.0302456)
Other time (%) = 3.80904 (29.654)

Nlocal:    32 ave 256 max 0 min
Histogram: 7 0 0 0 0 0 0 0 0 1
Nghost:    141.5 ave 694 max 0 min
Histogram: 6 0 0 0 0 0 1 0 0 1
Neighs:    1166.62 ave 9333 max 0 min
Histogram: 7 0 0 0 0 0 0 0 0 1
FullNghs:  2333.25 ave 18666 max 0 min
Histogram: 7 0 0 0 0 0 0 0 0 1

Total # of neighbors = 18666
Ave neighs/atom = 72.9141
Neighbor list builds = 5
Dangerous builds = 0

fix 1 all nve
run		5000
Setting up run ...
Memory usage per processor = 0.832726 Mbytes
Step Temp Press Pxx Pyy Pzz Volume TotEng 
     876            0   -26751.692   -17058.297   -63196.779 0.00066127851     36532.32   -2390.6382 
     880 2.933968e-07   -26751.681    -17058.33   -63196.703 -0.0090342113     36532.32   -2390.6382 
     890 1.9492453e-06   -26751.666   -17058.269   -63196.722 -0.0071431912     36532.32   -2390.6382 
     900 5.366485e-06   -26751.596   -17058.239    -63196.56  0.010561581     36532.32   -2390.6382 
     910 9.8073971e-06   -26751.575   -17058.145   -63196.566 -0.015456816     36532.32   -2390.6382 
     920 1.4885592e-05   -26751.494   -17058.078   -63196.412 0.0081599749     36532.32   -2390.6382 
     930 1.9480741e-05   -26751.438   -17057.975   -63196.331 -0.0073853116     36532.32   -2390.6382 
     940 2.3297051e-05   -26751.333   -17057.851   -63196.151 0.0043854162     36532.32   -2390.6382 
     950 2.5381728e-05   -26751.235   -17057.717   -63195.981 -0.0055510568     36532.32   -2390.6382 
     960 2.5719617e-05   -26751.134   -17057.573    -63195.83 0.0007097227     36532.32   -2390.6382 
     970 2.4088237e-05   -26751.027   -17057.464   -63195.623  0.005464948     36532.32   -2390.6382 
     980 2.0776767e-05   -26750.973   -17057.319   -63195.575 -0.024991553     36532.32   -2390.6382 
     990 1.6363699e-05   -26750.855    -17057.23    -63195.34 0.0046276527     36532.32   -2390.6382 
    1000 1.1382365e-05   -26750.803   -17057.113   -63195.284 -0.011656456     36532.32   -2390.6382 
    1010 6.7020382e-06   -26750.712   -17057.044   -63195.111  0.020071234     36532.32   -2390.6382 
    1020 2.9762225e-06   -26750.704   -17056.982   -63195.118 -0.011916492     36532.32   -2390.6382 
    1030 7.2196078e-07   -26750.666   -17056.948   -63195.053 0.0034783442     36532.32   -2390.6382 
    1040 3.5523115e-07   -26750.662   -17056.946   -63195.039 -0.003071591     36532.32   -2390.6382 
    1050 1.8509815e-06   -26750.665   -17056.951   -63195.062  0.018951324     36532.32   -2390.6382 
    1060 4.9969328e-06   -26750.691   -17057.006   -63195.077 0.0083647651     36532.32   -2390.6382 
    1070 9.3564354e-06   -26750.766   -17057.053   -63195.241 -0.0021202394     36532.32   -2390.6382 
    1080 1.4201787e-05    -26750.81   -17057.177    -63195.27  0.017232762     36532.32   -2390.6382 
    1090 1.8875713e-05   -26750.921   -17057.259   -63195.499 -0.0059119897     36532.32   -2390.6382 
    1100 2.2638371e-05    -26750.97   -17057.383   -63195.537    0.0103597     36532.32   -2390.6382 
    1110 2.4933821e-05   -26751.082   -17057.493   -63195.739 -0.013741004     36532.32   -2390.6382 
    1120 2.545893e-05   -26751.161   -17057.633   -63195.872  0.022185374     36532.32   -2390.6382 
    1130 2.4083359e-05   -26751.292   -17057.784   -63196.084 -0.0088311138     36532.32   -2390.6382 
    1140 2.1079673e-05   -26751.386   -17057.902   -63196.248 -0.0073770659     36532.32   -2390.6382 
    1150 1.6870454e-05   -26751.464   -17058.035   -63196.351 -0.0055692179     36532.32   -2390.6382 
    1160 1.2091225e-05   -26751.528   -17058.099   -63196.504  0.018258316     36532.32   -2390.6382 
    1170 7.4832322e-06   -26751.569   -17058.199   -63196.515 0.0065571269     36532.32   -2390.6382 
    1180 3.7133515e-06   -26751.649    -17058.23   -63196.699 -0.016514892     36532.32   -2390.6382 
    1190 1.3454438e-06   -26751.662   -17058.321   -63196.679  0.011991462     36532.32   -2390.6382 
    1200 7.3539596e-07   -26751.696   -17058.314   -63196.774 0.0017900317     36532.32   -2390.6382 
    1210 1.9551796e-06   -26751.651    -17058.29   -63196.665 0.0029684769     36532.32   -2390.6382 
    1220 4.797106e-06   -26751.627   -17058.237   -63196.627 -0.016797319     36532.32   -2390.6382 
    1230 8.8677899e-06   -26751.574   -17058.174   -63196.563  0.014349261     36532.32   -2390.6382 
    1240 1.3481836e-05    -26751.53   -17058.115   -63196.463 -0.012025185     36532.32   -2390.6382 
    1250 1.803965e-05   -26751.457    -17057.99   -63196.363 -0.017990257     36532.32   -2390.6382 
    1260 2.1753547e-05   -26751.354   -17057.904   -63196.153 -0.0038375366     36532.32   -2390.6382 
    1270 2.4200287e-05    -26751.27   -17057.741   -63196.081  0.011096608     36532.32   -2390.6382 
    1280 2.4897626e-05   -26751.158   -17057.646   -63195.831 0.0023062572     36532.32   -2390.6382 
    1290 2.3884636e-05   -26751.089   -17057.485   -63195.762 -0.018295357     36532.32   -2390.6382 
    1300 2.1202473e-05   -26750.977   -17057.396   -63195.548  0.012590029     36532.32   -2390.6382 
    1310 1.7374857e-05     -26750.9   -17057.262   -63195.443 0.0063853212     36532.32   -2390.6382 
    1320 1.2888863e-05   -26750.811    -17057.15   -63195.286 0.0020713874     36532.32   -2390.6382 
    1330 8.4611628e-06   -26750.756   -17057.078   -63195.186 -0.0033749255     36532.32   -2390.6382 
    1340 4.7572544e-06   -26750.725    -17057.02   -63195.165  0.010787651     36532.32   -2390.6382 
    1350 2.2496003e-06   -26750.693   -17056.999   -63195.072 -0.0089368245     36532.32   -2390.6382 
    1360 1.4101252e-06   -26750.677   -17056.935   -63195.083 -0.015030624     36532.32   -2390.6382 
    1370  2.22255e-06   -26750.646   -17056.964   -63194.991  0.017140135     36532.32   -2390.6382 
    1380 4.6729767e-06   -26750.707   -17056.974   -63195.145 -0.0018555073     36532.32   -2390.6382 
    1390 8.2773934e-06   -26750.744   -17057.071   -63195.165 0.0025676012     36532.32   -2390.6382 
    1400 1.2590226e-05   -26750.823   -17057.137   -63195.319 -0.014536207     36532.32   -2390.6382 
    1410 1.6876789e-05   -26750.864   -17057.228   -63195.387  0.022781544     36532.32   -2390.6382 
    1420 2.0592557e-05   -26750.949   -17057.331   -63195.509 -0.0076957603     36532.32   -2390.6382 
    1430 2.3118605e-05   -26751.032   -17057.429   -63195.674 0.0078075052     36532.32   -2390.6382 
    1440 2.4148122e-05   -26751.129    -17057.59   -63195.807  0.010953236     36532.32   -2390.6382 
    1450 2.353574e-05    -26751.25   -17057.718   -63196.044  0.012218493     36532.32   -2390.6382 
    1460 2.1326265e-05   -26751.342   -17057.878   -63196.135 -0.012227486     36532.32   -2390.6382 
    1470 1.8006811e-05   -26751.429   -17057.944    -63196.34 -0.003580129     36532.32   -2390.6382 
    1480 1.3850762e-05   -26751.464   -17058.064   -63196.354  0.024891469     36532.32   -2390.6382 
    1490 9.7463359e-06   -26751.567   -17058.136   -63196.546 -0.017914316     36532.32   -2390.6382 
    1500 6.0266688e-06   -26751.621   -17058.236   -63196.616 -0.011394924     36532.32   -2390.6382 
    1510 3.4605064e-06   -26751.665   -17058.291   -63196.698 -0.0053917026     36532.32   -2390.6382 
    1520 2.2439184e-06    -26751.66   -17058.287   -63196.707  0.013608467     36532.32   -2390.6382 
    1530 2.6545154e-06    -26751.66   -17058.294    -63196.66 -0.024973275     36532.32   -2390.6382 
    1540 4.5431545e-06   -26751.639   -17058.236   -63196.678 -0.0029526258     36532.32   -2390.6382 
    1550 7.6663393e-06   -26751.592   -17058.223   -63196.562 0.0089840866     36532.32   -2390.6382 
    1560 1.1519284e-05   -26751.552   -17058.114   -63196.535 -0.0081938459     36532.32   -2390.6382 
    1570 1.5561366e-05    -26751.47   -17058.057   -63196.336 -0.018172703     36532.32   -2390.6382 
    1580 1.9179125e-05   -26751.394    -17057.91   -63196.283  0.010114728     36532.32   -2390.6382 
    1590 2.1849578e-05   -26751.283   -17057.812   -63196.057  0.021602872     36532.32   -2390.6382 
    1600 2.3234543e-05   -26751.215    -17057.68   -63195.945 -0.020392752     36532.32   -2390.6382 
    1610 2.3060673e-05   -26751.121   -17057.556   -63195.795 -0.011366697     36532.32   -2390.6382 
    1620 2.148678e-05   -26751.019   -17057.445   -63195.621  0.010176331     36532.32   -2390.6382 
    1630 1.8643679e-05    -26750.92   -17057.284   -63195.481 0.0060278941     36532.32   -2390.6382 
    1640 1.5031771e-05   -26750.849   -17057.216   -63195.316 -0.014873036     36532.32   -2390.6382 
    1650 1.1157774e-05   -26750.804   -17057.116   -63195.308  0.010567034     36532.32   -2390.6382 
    1660 7.5650459e-06   -26750.747   -17057.094   -63195.162  0.015949323     36532.32   -2390.6382 
    1670 4.8084003e-06   -26750.714   -17056.979   -63195.146 -0.015032657     36532.32   -2390.6382 
    1680 3.242978e-06   -26750.668   -17056.972   -63195.032 -0.0020166709     36532.32   -2390.6382 
    1690 3.0957963e-06   -26750.682   -17056.961   -63195.108  0.023682072     36532.32   -2390.6382 
    1700 4.3926201e-06   -26750.708    -17057.01   -63195.124 0.0089231604     36532.32   -2390.6382 
    1710 6.883648e-06   -26750.757   -17057.066   -63195.187 -0.019319815     36532.32   -2390.6382 
    1720 1.0267368e-05     -26750.8   -17057.108   -63195.296 0.0029150198     36532.32   -2390.6382 
    1730 1.3986051e-05   -26750.842   -17057.207   -63195.334  0.016048399     36532.32   -2390.6382 
    1740 1.7535086e-05   -26750.916   -17057.261   -63195.481 -0.0056167527     36532.32   -2390.6382 
    1750 2.0416562e-05   -26751.002    -17057.42   -63195.577 -0.0093710139     36532.32   -2390.6382 
    1760 2.2182951e-05    -26751.12   -17057.534   -63195.837  0.012323598     36532.32   -2390.6382 
    1770 2.2628937e-05   -26751.201   -17057.697   -63195.911 0.0038702515     36532.32   -2390.6382 
    1780 2.169449e-05   -26751.291    -17057.76   -63196.087 -0.024064928     36532.32   -2390.6382 
    1790 1.9477594e-05   -26751.348   -17057.878   -63196.177  0.011470552     36532.32   -2390.6382 
    1800 1.6404991e-05   -26751.442   -17058.002   -63196.339  0.015850777     36532.32   -2390.6382 
    1810 1.277333e-05   -26751.529     -17058.1   -63196.482 -0.0046655661     36532.32   -2390.6382 
    1820 9.2934072e-06   -26751.593   -17058.204   -63196.546 -0.030088671     36532.32   -2390.6382 
    1830 6.2506844e-06    -26751.62   -17058.212   -63196.662  0.015514204     36532.32   -2390.6382 
    1840 4.304122e-06    -26751.63   -17058.272   -63196.614 -0.0036119597     36532.32   -2390.6382 
    1850 3.4994131e-06   -26751.644   -17058.241   -63196.679  -0.01067017     36532.32   -2390.6382 
    1860 4.1774278e-06   -26751.636   -17058.277   -63196.613 -0.019076452     36532.32   -2390.6382 
    1870 5.9845469e-06    -26751.62   -17058.212   -63196.652 0.0045682419     36532.32   -2390.6382 
    1880 8.9292804e-06   -26751.561   -17058.168   -63196.503 -0.012387553     36532.32   -2390.6382 
    1890 1.2289961e-05   -26751.501   -17058.065   -63196.412 -0.026835964     36532.32   -2390.6382 
    1900 1.5868328e-05   -26751.411   -17057.956   -63196.292  0.014008289     36532.32   -2390.6382 
    1910 1.8917273e-05   -26751.338   -17057.879    -63196.13 -0.0045706354     36532.32   -2390.6382 
    1920 2.1159371e-05   -26751.261   -17057.734   -63196.046 -0.0021735711     36532.32   -2390.6382 
    1930 2.2221768e-05    -26751.17   -17057.648   -63195.836 -0.026293133     36532.32   -2390.6382 
    1940 2.1926731e-05   -26751.057   -17057.461   -63195.733  0.023966465     36532.32   -2390.6382 
    1950 2.0422822e-05   -26750.963    -17057.38   -63195.505 -0.0045648432     36532.32   -2390.6382 
    1960 1.7779058e-05   -26750.902   -17057.252   -63195.463 0.0094220691     36532.32   -2390.6382 
    1970 1.4535996e-05   -26750.841   -17057.207   -63195.314 -0.0010124777     36532.32   -2390.6382 
    1980 1.0998165e-05   -26750.779    -17057.09   -63195.258  0.010593032     36532.32   -2390.6382 
    1990 7.8045145e-06   -26750.725   -17057.024   -63195.152 0.00081931221     36532.32   -2390.6382 
    2000 5.2918188e-06     -26750.7   -17057.005   -63195.102 0.0066602507     36532.32   -2390.6382 
    2010 3.9321812e-06     -26750.7   -17056.979   -63195.145  0.025225101     36532.32   -2390.6382 
    2020 3.8012262e-06   -26750.714   -17057.034   -63195.108 0.00031184063     36532.32   -2390.6382 
    2030 5.0443965e-06   -26750.748    -17057.03   -63195.232  0.017565152     36532.32   -2390.6382 
    2040 7.374749e-06   -26750.779   -17057.121   -63195.225 0.0079150838     36532.32   -2390.6382 
    2050 1.0540189e-05   -26750.823   -17057.137   -63195.351  0.018643043     36532.32   -2390.6382 
    2060 1.4056165e-05   -26750.889   -17057.269   -63195.403 0.0053374611     36532.32   -2390.6382 
    2070 1.7413796e-05    -26750.99   -17057.369   -63195.615  0.012673421     36532.32   -2390.6382 
    2080 2.016579e-05   -26751.073   -17057.502    -63195.73  0.013586175     36532.32   -2390.6382 
    2090 2.1876629e-05    -26751.15   -17057.597   -63195.843 -0.010321859     36532.32   -2390.6382 
    2100 2.2324362e-05   -26751.226   -17057.687   -63195.993 0.0025318891     36532.32   -2390.6382 
    2110 2.1444386e-05   -26751.308   -17057.845   -63196.096  0.015137463     36532.32   -2390.6382 
    2120 1.9310431e-05   -26751.411   -17057.927   -63196.307 0.0015848925     36532.32   -2390.6382 
    2130 1.6309021e-05   -26751.478   -17058.059   -63196.355   -0.0193208     36532.32   -2390.6382 
    2140 1.2753369e-05   -26751.537   -17058.096   -63196.511 -0.0033576166     36532.32   -2390.6382 
    2150 9.2663856e-06   -26751.556   -17058.177   -63196.513  0.021473097     36532.32   -2390.6382 
    2160 6.2499901e-06   -26751.609   -17058.201   -63196.613 -0.014090982     36532.32   -2390.6382 
    2170 4.2196019e-06    -26751.62   -17058.248   -63196.612 0.00083708834     36532.32   -2390.6382 
    2180 3.4124744e-06   -26751.637   -17058.254   -63196.648 -0.0073926852     36532.32   -2390.6382 
    2190 4.010185e-06   -26751.604   -17058.205   -63196.619  0.012098104     36532.32   -2390.6382 
    2200 5.877588e-06   -26751.569   -17058.177   -63196.496  -0.03457527     36532.32   -2390.6382 
    2210 8.8166439e-06   -26751.513   -17058.073    -63196.46 -0.005974416     36532.32   -2390.6382 
    2220 1.234906e-05   -26751.445    -17058.04   -63196.299 0.0054017368     36532.32   -2390.6382 
    2230 1.6024583e-05   -26751.405   -17057.917   -63196.282  -0.01717584     36532.32   -2390.6382 
    2240 1.9269309e-05   -26751.311   -17057.829   -63196.074 -0.029171416     36532.32   -2390.6382 
    2250 2.163573e-05   -26751.216   -17057.676   -63195.954 -0.019125657     36532.32   -2390.6382 
    2260 2.2765136e-05   -26751.093   -17057.557   -63195.741  0.019348841     36532.32   -2390.6382 
    2270 2.247491e-05   -26751.052   -17057.461   -63195.668  -0.02615744     36532.32   -2390.6382 
    2280 2.0810356e-05   -26750.963   -17057.346   -63195.541 -0.0009034885     36532.32   -2390.6382 
    2290 1.7979827e-05   -26750.886   -17057.261   -63195.393 -0.0047414099     36532.32   -2390.6382 
    2300 1.4409538e-05   -26750.812   -17057.126    -63195.33   0.02002702     36532.32   -2390.6382 
    2310 1.0579545e-05   -26750.769   -17057.108   -63195.184 -0.015799775     36532.32   -2390.6382 
    2320 7.0926728e-06   -26750.739    -17057.02   -63195.203 0.0076477107     36532.32   -2390.6382 
    2330 4.3995269e-06   -26750.709   -17057.036   -63195.104  0.013973059     36532.32   -2390.6382 
    2340 2.9740012e-06   -26750.737   -17057.013     -63195.2  0.001544559     36532.32   -2390.6382 
    2350 2.9555237e-06   -26750.737   -17057.043   -63195.159 -0.0092190085     36532.32   -2390.6382 
    2360 4.4405653e-06   -26750.763   -17057.068   -63195.224 0.0026675056     36532.32   -2390.6382 
    2370 7.1540678e-06   -26750.797   -17057.134   -63195.273  0.016430322     36532.32   -2390.6382 
    2380 1.0764806e-05   -26750.893   -17057.251   -63195.422 -0.0059238527     36532.32   -2390.6382 
    2390 1.4731891e-05   -26750.956   -17057.307   -63195.553 -0.008322259     36532.32   -2390.6382 
    2400 1.845831e-05   -26751.003    -17057.43   -63195.586 0.0065723603     36532.32   -2390.6382 
    2410 2.1467248e-05   -26751.095   -17057.501   -63195.793 0.0093439123     36532.32   -2390.6382 
    2420 2.3181965e-05   -26751.183   -17057.673   -63195.876 -0.00042840056     36532.32   -2390.6382 
    2430 2.351711e-05   -26751.284   -17057.756     -63196.1 0.0041569688     36532.32   -2390.6382 
    2440 2.2183709e-05   -26751.342    -17057.88   -63196.154 0.0076725031     36532.32   -2390.6382 
    2450 1.9602804e-05   -26751.427   -17057.958   -63196.324 1.943378e-05     36532.32   -2390.6382 
    2460 1.5905789e-05   -26751.471   -17058.037   -63196.367 -0.0096246701     36532.32   -2390.6382 
    2470 1.1825267e-05   -26751.523   -17058.114   -63196.465 0.0092514895     36532.32   -2390.6382 
    2480 7.8164599e-06   -26751.577   -17058.171   -63196.558 -0.0033023246     36532.32   -2390.6382 
    2490 4.5611247e-06   -26751.609   -17058.237    -63196.59 -0.0016933125     36532.32   -2390.6382 
    2500 2.5139649e-06    -26751.62   -17058.196   -63196.637 -0.026182612     36532.32   -2390.6382 
    2510 1.9870546e-06   -26751.571    -17058.21   -63196.513 0.0090875976     36532.32   -2390.6382 
    2520 3.1142392e-06   -26751.575   -17058.154   -63196.562 -0.009922468     36532.32   -2390.6382 
    2530 5.6685023e-06    -26751.53    -17058.14   -63196.447 -0.0039315478     36532.32   -2390.6382 
    2540 9.400329e-06   -26751.495   -17058.054    -63196.43 -0.0013910693     36532.32   -2390.6382 
    2550 1.3607815e-05   -26751.415   -17057.973   -63196.277 0.0060521109     36532.32   -2390.6382 
    2560 1.7869874e-05   -26751.351   -17057.873   -63196.177 -0.002245029     36532.32   -2390.6382 
    2570 2.1319246e-05   -26751.262   -17057.752   -63196.025 -0.0067241494     36532.32   -2390.6382 
    2580 2.3681658e-05   -26751.172    -17057.66   -63195.874   0.01845928     36532.32   -2390.6382 
    2590 2.4365392e-05   -26751.106   -17057.521   -63195.798 0.00081260435     36532.32   -2390.6382 
    2600 2.3434956e-05   -26751.013    -17057.44   -63195.598 -0.0015116533     36532.32   -2390.6382 
    2610 2.0903041e-05   -26750.952   -17057.298   -63195.546 -0.011339584     36532.32   -2390.6382 
    2620 1.7178834e-05   -26750.859   -17057.246   -63195.354  0.022668598     36532.32   -2390.6382 
    2630 1.2803496e-05   -26750.833   -17057.153   -63195.344 -0.0011491689     36532.32   -2390.6382 
    2640 8.4185462e-06   -26750.772   -17057.092    -63195.22 -0.0027631238     36532.32   -2390.6382 
    2650 4.662578e-06   -26750.746   -17057.048   -63195.201 0.0093517909     36532.32   -2390.6382 
    2660 2.1434372e-06   -26750.717   -17057.017   -63195.156   0.02360151     36532.32   -2390.6382 
    2670 1.1821925e-06   -26750.742   -17057.053   -63195.172 -0.0011222074     36532.32   -2390.6382 
    2680 2.0052024e-06   -26750.768   -17057.057   -63195.251  0.005024507     36532.32   -2390.6382 
    2690 4.4470841e-06   -26750.792   -17057.146   -63195.251  0.020973762     36532.32   -2390.6382 
    2700 8.1945124e-06   -26750.839   -17057.151   -63195.385  0.018350458     36532.32   -2390.6382 
    2710 1.2680203e-05   -26750.886   -17057.261    -63195.38 -0.014977585     36532.32   -2390.6382 
    2720 1.7254261e-05   -26750.969    -17057.33   -63195.585 0.0081410549     36532.32   -2390.6382 
    2730 2.1196338e-05   -26751.039   -17057.476   -63195.655  0.014058133     36532.32   -2390.6382 
    2740 2.3990456e-05   -26751.139   -17057.578   -63195.839 0.0010301688     36532.32   -2390.6382 
    2750 2.507299e-05   -26751.217   -17057.674    -63195.95 -0.025472867     36532.32   -2390.6382 
    2760 2.4444991e-05   -26751.288   -17057.794   -63196.073 0.0024197364     36532.32   -2390.6382 
    2770 2.2003312e-05   -26751.347   -17057.867    -63196.18 0.0047015133     36532.32   -2390.6382 
    2780 1.8261207e-05   -26751.427   -17057.999   -63196.259 -0.022069834     36532.32   -2390.6382 
    2790 1.3661953e-05   -26751.506   -17058.042    -63196.46 -0.014450553     36532.32   -2390.6382 
    2800 8.9573418e-06   -26751.543   -17058.164   -63196.467 0.00077995661     36532.32   -2390.6382 
    2810 4.813048e-06   -26751.574   -17058.155   -63196.571 0.0027316245     36532.32   -2390.6382 
    2820 1.8929258e-06    -26751.59    -17058.21   -63196.521 -0.038057793     36532.32   -2390.6382 
    2830 5.8748163e-07   -26751.597   -17058.193   -63196.603 0.0034242296     36532.32   -2390.6382 
    2840 1.1795466e-06   -26751.575   -17058.188   -63196.539 0.00024081799     36532.32   -2390.6382 
    2850 3.4937624e-06   -26751.547   -17058.151   -63196.487 -0.0037607037     36532.32   -2390.6382 
    2860 7.2880993e-06   -26751.522   -17058.083   -63196.454 -0.028408647     36532.32   -2390.6382 
    2870 1.1933925e-05   -26751.469    -17058.05   -63196.362 0.0047941913     36532.32   -2390.6382 
    2880 1.6743183e-05   -26751.396    -17057.92   -63196.263 -0.0033707099     36532.32   -2390.6382 
    2890 2.1065657e-05   -26751.308   -17057.852   -63196.059  -0.01284563     36532.32   -2390.6382 
    2900 2.4103397e-05   -26751.244   -17057.689    -63196.03 -0.011564775     36532.32   -2390.6382 
    2910 2.5585235e-05   -26751.153   -17057.631   -63195.839  0.010949138     36532.32   -2390.6382 
    2920 2.507375e-05   -26751.078   -17057.497   -63195.741 0.0044011729     36532.32   -2390.6382 
    2930 2.2838534e-05   -26751.006   -17057.418    -63195.59 -0.010520966     36532.32   -2390.6382 
    2940 1.9021307e-05   -26750.939   -17057.313   -63195.521  0.017159028     36532.32   -2390.6382 
    2950 1.4374942e-05   -26750.866   -17057.204   -63195.403  0.010377887     36532.32   -2390.6382 
    2960 9.4118021e-06   -26750.799   -17057.145   -63195.261 0.0087839686     36532.32   -2390.6382 
    2970 5.0644075e-06   -26750.776    -17057.07   -63195.254 -0.0040769405     36532.32   -2390.6382 
    2980 1.806136e-06   -26750.756   -17057.088   -63195.202  0.023345993     36532.32   -2390.6382 
    2990 2.9459098e-07   -26750.757   -17057.036   -63195.238 0.0034560579     36532.32   -2390.6382 
    3000 6.2993844e-07   -26750.744   -17057.083   -63195.165  0.016188736     36532.32   -2390.6382 
    3010 2.841535e-06   -26750.778   -17057.067    -63195.27 0.0018023351     36532.32   -2390.6382 
    3020 6.5949336e-06   -26750.801   -17057.137   -63195.284  0.018535866     36532.32   -2390.6382 
    3030 1.1265032e-05   -26750.849   -17057.193   -63195.356 0.0027479608     36532.32   -2390.6382 
    3040 1.6263911e-05   -26750.907   -17057.274   -63195.464  0.015883049     36532.32   -2390.6382 
    3050 2.0716262e-05    -26750.99   -17057.393   -63195.589  0.011713288     36532.32   -2390.6382 
    3060 2.4048932e-05   -26751.073    -17057.47   -63195.752 0.0016992632     36532.32   -2390.6382 
    3070 2.5714758e-05   -26751.144   -17057.617   -63195.815 0.0011119087     36532.32   -2390.6382 
    3080 2.544162e-05   -26751.217   -17057.672   -63195.981 0.0020616403     36532.32   -2390.6382 
    3090 2.3348769e-05   -26751.286   -17057.814   -63196.043 -0.00032808204     36532.32   -2390.6382 
    3100 1.9623429e-05   -26751.373   -17057.873   -63196.235 -0.010706354     36532.32   -2390.6382 
    3110 1.4980549e-05   -26751.447   -17058.022   -63196.315 -0.0033420299     36532.32   -2390.6382 
    3120 9.9562254e-06   -26751.516   -17058.088   -63196.457 -0.0023244984     36532.32   -2390.6382 
    3130 5.4583425e-06   -26751.556   -17058.144     -63196.5 -0.022897394     36532.32   -2390.6382 
    3140 2.0305531e-06   -26751.566   -17058.179   -63196.511 -0.0080508661     36532.32   -2390.6382 
    3150 3.0269062e-07   -26751.576   -17058.169   -63196.557 -0.00042753637     36532.32   -2390.6382 
    3160 4.3317173e-07   -26751.587   -17058.215   -63196.538 -0.0069281386     36532.32   -2390.6382 
    3170 2.4889778e-06   -26751.594   -17058.169   -63196.589  -0.02386849     36532.32   -2390.6382 
    3180 6.0914523e-06   -26751.564   -17058.188   -63196.495 -0.007566914     36532.32   -2390.6382 
    3190 1.0733192e-05   -26751.504   -17058.059   -63196.458 0.0058214106     36532.32   -2390.6382 
    3200 1.5717959e-05    -26751.43   -17058.003    -63196.27   -0.0181925     36532.32   -2390.6382 
    3210 2.0248384e-05   -26751.365   -17057.876    -63196.22 0.00051906356     36532.32   -2390.6382 
    3220 2.373016e-05   -26751.311   -17057.821   -63196.102 -0.010122051     36532.32   -2390.6382 
    3230 2.5523937e-05   -26751.227   -17057.714   -63195.983  0.016643034     36532.32   -2390.6382 
    3240 2.5502755e-05   -26751.151   -17057.578    -63195.84 -0.035189741     36532.32   -2390.6382 
    3250 2.3533097e-05   -26751.046   -17057.483   -63195.676  0.019403087     36532.32   -2390.6382 
    3260 2.004836e-05   -26750.985   -17057.352   -63195.604 0.0012675258     36532.32   -2390.6382 
    3270 1.5466945e-05    -26750.91   -17057.301   -63195.437 0.0074559224     36532.32   -2390.6382 
    3280 1.0568047e-05   -26750.861   -17057.176   -63195.391  -0.01499345     36532.32   -2390.6382 
    3290 6.0163625e-06   -26750.799   -17057.155   -63195.259  0.016715499     36532.32   -2390.6382 
    3300 2.5469248e-06   -26750.768   -17057.066   -63195.261  0.023436203     36532.32   -2390.6382 
    3310 6.3118258e-07   -26750.754   -17057.069   -63195.181 -0.011561965     36532.32   -2390.6382 
    3320 5.7866836e-07   -26750.748   -17057.056   -63195.209  0.021440982     36532.32   -2390.6382 
    3330 2.3697215e-06   -26750.769   -17057.073   -63195.233 0.00034312039     36532.32   -2390.6382 
    3340 5.7414912e-06   -26750.767   -17057.104    -63195.22   0.02269018     36532.32   -2390.6382 
    3350 1.018391e-05   -26750.813   -17057.113     -63195.3 -0.024983305     36532.32   -2390.6382 
    3360 1.5005711e-05   -26750.857   -17057.232   -63195.364   0.02484345     36532.32   -2390.6382 
    3370 1.9547812e-05   -26750.954   -17057.307   -63195.557 0.00091028743     36532.32   -2390.6382 
    3380 2.3020162e-05   -26751.013   -17057.439   -63195.595 -0.0059593728     36532.32   -2390.6382 
    3390 2.5062095e-05   -26751.072   -17057.474   -63195.735 -0.0083292596     36532.32   -2390.6382 
    3400 2.5197493e-05   -26751.128     -17057.6   -63195.801  0.016032951     36532.32   -2390.6382 
    3410 2.358775e-05   -26751.228   -17057.704   -63195.988 0.0095816974     36532.32   -2390.6382 
    3420 2.0339111e-05   -26751.332    -17057.84   -63196.135 -0.021084075     36532.32   -2390.6382 
    3430 1.6046019e-05   -26751.398   -17057.957   -63196.244 0.0077372708     36532.32   -2390.6382 
    3440 1.1311804e-05   -26751.461    -17058.01   -63196.375 0.0031882501     36532.32   -2390.6382 
    3450 6.8432202e-06   -26751.495   -17058.098   -63196.382 -0.0053132566     36532.32   -2390.6382 
    3460 3.3450252e-06   -26751.548   -17058.113   -63196.511 -0.020494974     36532.32   -2390.6382 
    3470 1.2782352e-06    -26751.58   -17058.215   -63196.528 0.0031002776     36532.32   -2390.6382 
    3480 1.0000738e-06   -26751.622   -17058.217   -63196.645 -0.0035966485     36532.32   -2390.6382 
    3490 2.4601262e-06   -26751.612   -17058.241   -63196.569 -0.026335451     36532.32   -2390.6382 
    3500 5.5486514e-06   -26751.574   -17058.161   -63196.554 -0.0050540646     36532.32   -2390.6382 
    3510 9.6009018e-06   -26751.527   -17058.119   -63196.466 0.0030060978     36532.32   -2390.6382 
    3520 1.4272462e-05   -26751.497   -17058.077   -63196.414 -7.6041208e-05     36532.32   -2390.6382 
    3530 1.8550339e-05   -26751.462   -17057.997   -63196.367  -0.02197647     36532.32   -2390.6382 
    3540 2.2126238e-05   -26751.367   -17057.921   -63196.186 0.0045266746     36532.32   -2390.6382 
    3550 2.4191711e-05    -26751.28   -17057.753   -63196.101  0.015343568     36532.32   -2390.6382 
    3560 2.4669062e-05   -26751.191   -17057.676   -63195.892 -0.006071778     36532.32   -2390.6382 
    3570 2.3369552e-05   -26751.123   -17057.537    -63195.84 0.0066279181     36532.32   -2390.6382 
    3580 2.055415e-05   -26751.039   -17057.475   -63195.648 0.0066122327     36532.32   -2390.6382 
    3590 1.6647774e-05   -26750.964   -17057.333   -63195.578  0.019129277     36532.32   -2390.6382 
    3600 1.2225898e-05   -26750.889   -17057.246   -63195.405 -0.016234421     36532.32   -2390.6382 
    3610 7.9429057e-06   -26750.816   -17057.152   -63195.315   0.01919891     36532.32   -2390.6382 
    3620 4.4501574e-06    -26750.78   -17057.088   -63195.253 0.0021787054     36532.32   -2390.6382 
    3630 2.2434445e-06   -26750.755   -17057.086   -63195.198  0.018944527     36532.32   -2390.6382 
    3640 1.6097033e-06   -26750.762   -17057.039   -63195.229 -0.017554079     36532.32   -2390.6382 
    3650 2.7145763e-06   -26750.722   -17057.053   -63195.128  0.015658321     36532.32   -2390.6382 
    3660 5.2516823e-06   -26750.739   -17057.018   -63195.202 0.0030351265     36532.32   -2390.6382 
    3670 8.9614079e-06   -26750.769   -17057.104   -63195.213 0.0085210535     36532.32   -2390.6382 
    3680 1.3206136e-05   -26750.847    -17057.17   -63195.371 -0.0002507368     36532.32   -2390.6382 
    3690 1.7355972e-05   -26750.884   -17057.261     -63195.4 0.0093916275     36532.32   -2390.6382 
    3700 2.0883154e-05   -26750.943   -17057.317    -63195.52 0.0072575265     36532.32   -2390.6382 
    3710 2.3130259e-05   -26751.009   -17057.397   -63195.622 -0.0088499408     36532.32   -2390.6382 
    3720 2.3949481e-05    -26751.09   -17057.542   -63195.737 0.0090184789     36532.32   -2390.6382 
    3730 2.3091196e-05   -26751.193   -17057.641   -63195.921 -0.015786432     36532.32   -2390.6382 
    3740 2.0780125e-05   -26751.268   -17057.791   -63196.019 0.0064400068     36532.32   -2390.6382 
    3750 1.7371214e-05    -26751.36   -17057.851   -63196.201 -0.027369242     36532.32   -2390.6382 
    3760 1.3310844e-05   -26751.391   -17057.964    -63196.22  0.011450356     36532.32   -2390.6382 
    3770 9.2871356e-06   -26751.474   -17058.024   -63196.378 -0.019816026     36532.32   -2390.6382 
    3780 5.8110894e-06   -26751.528   -17058.129   -63196.457 0.0025572345     36532.32   -2390.6382 
    3790 3.4344688e-06   -26751.601   -17058.201   -63196.583 -0.019342715     36532.32   -2390.6382 
    3800 2.4466982e-06   -26751.602   -17058.221   -63196.589  0.002854608     36532.32   -2390.6382 
    3810 3.0466041e-06   -26751.606   -17058.226   -63196.582 -0.011253866     36532.32   -2390.6382 
    3820 5.013784e-06     -26751.6   -17058.182   -63196.608  -0.01069708     36532.32   -2390.6382 
    3830 8.2189319e-06   -26751.577   -17058.208   -63196.528 0.0060050472     36532.32   -2390.6382 
    3840 1.1975164e-05   -26751.559    -17058.13   -63196.541 -0.0066034653     36532.32   -2390.6382 
    3850 1.5957811e-05   -26751.498   -17058.093   -63196.401 -0.0015413381     36532.32   -2390.6382 
    3860 1.9369179e-05   -26751.441   -17057.956   -63196.349 -0.019217554     36532.32   -2390.6382 
    3870 2.1906557e-05   -26751.335   -17057.872   -63196.151   0.01715355     36532.32   -2390.6382 
    3880 2.3058517e-05   -26751.264   -17057.747   -63196.044 -0.00036853842     36532.32   -2390.6382 
    3890 2.2796948e-05    -26751.18   -17057.643   -63195.897 -0.00048514648     36532.32   -2390.6382 
    3900 2.1044224e-05   -26751.102   -17057.536   -63195.773 0.0025103012     36532.32   -2390.6382 
    3910 1.8226179e-05   -26751.008   -17057.397   -63195.642  0.015783428     36532.32   -2390.6382 
    3920 1.4572199e-05    -26750.92   -17057.311   -63195.454 0.0050255363     36532.32   -2390.6382 
    3930 1.0820389e-05   -26750.861   -17057.176   -63195.398 -0.0089867809     36532.32   -2390.6382 
    3940 7.3398813e-06   -26750.788   -17057.146   -63195.241  0.021621003     36532.32   -2390.6382 
    3950 4.7445801e-06   -26750.757    -17057.05   -63195.242  0.020385086     36532.32   -2390.6382 
    3960 3.3573052e-06   -26750.728   -17057.042   -63195.135 -0.006798374     36532.32   -2390.6382 
    3970 3.3361399e-06   -26750.718   -17056.993   -63195.157 -0.0048714588     36532.32   -2390.6382 
    3980 4.751665e-06   -26750.713   -17057.022   -63195.132  0.015936519     36532.32   -2390.6382 
    3990 7.2705329e-06   -26750.736    -17057.05   -63195.179  0.022528542     36532.32   -2390.6382 
    4000 1.0652384e-05   -26750.791   -17057.098   -63195.246 -0.028796338     36532.32   -2390.6382 
    4010 1.4279853e-05   -26750.822   -17057.172   -63195.307  0.013287799     36532.32   -2390.6382 
    4020 1.7745739e-05   -26750.891   -17057.227   -63195.443 -0.0034604054     36532.32   -2390.6382 
    4030 2.0465553e-05    -26750.95   -17057.369   -63195.495  0.013575595     36532.32   -2390.6382 
    4040 2.2126844e-05   -26751.065   -17057.457   -63195.704 -0.033839589     36532.32   -2390.6382 
    4050 2.245704e-05   -26751.129   -17057.606   -63195.798  0.017283896     36532.32   -2390.6382 
    4060 2.1417758e-05   -26751.216    -17057.68   -63195.976 0.0091340772     36532.32   -2390.6382 
    4070 1.9212482e-05   -26751.294   -17057.806   -63196.055 -0.020621142     36532.32   -2390.6382 
    4080 1.6061989e-05   -26751.374   -17057.905   -63196.209 -0.0083813732     36532.32   -2390.6382 
    4090 1.2553457e-05   -26751.457   -17058.018   -63196.346 -0.005974109     36532.32   -2390.6382 
    4100 9.0512306e-06   -26751.517   -17058.119    -63196.45  0.017261238     36532.32   -2390.6382 
    4110 6.1822254e-06    -26751.59   -17058.164    -63196.56 -0.045992279     36532.32   -2390.6382 
    4120 4.257125e-06    -26751.59   -17058.223   -63196.562  0.013273778     36532.32   -2390.6382 
    4130 3.6193962e-06   -26751.619   -17058.204   -63196.634 -0.021112102     36532.32   -2390.6382 
    4140 4.3099149e-06   -26751.609   -17058.257   -63196.588  0.016640953     36532.32   -2390.6382 
    4150 6.2415392e-06   -26751.635   -17058.226   -63196.649  -0.03183447     36532.32   -2390.6382 
    4160 9.150524e-06   -26751.594   -17058.208   -63196.585  0.011439674     36532.32   -2390.6382 
    4170 1.2554675e-05   -26751.543   -17058.119   -63196.506 -0.0050448298     36532.32   -2390.6382 
    4180 1.6080619e-05    -26751.47   -17058.031   -63196.377 -0.0014088606     36532.32   -2390.6382 
    4190 1.9056304e-05   -26751.399   -17057.948   -63196.255  0.004688857     36532.32   -2390.6382 
    4200 2.1272215e-05   -26751.329   -17057.821   -63196.163 -0.0018276025     36532.32   -2390.6382 
    4210 2.2182895e-05   -26751.237    -17057.74   -63195.985  0.015261825     36532.32   -2390.6382 
    4220 2.1878989e-05    -26751.16   -17057.581   -63195.893 -0.0059650831     36532.32   -2390.6382 
    4230 2.0233216e-05   -26751.053   -17057.496   -63195.677  0.015880003     36532.32   -2390.6382 
    4240 1.7595628e-05   -26750.967   -17057.324   -63195.567 -0.0092442045     36532.32   -2390.6382 
    4250 1.4275653e-05   -26750.871   -17057.253   -63195.384  0.025564485     36532.32   -2390.6382 
    4260 1.0782595e-05   -26750.817   -17057.142   -63195.321  0.011951425     36532.32   -2390.6382 
    4270 7.5836718e-06   -26750.771   -17057.081   -63195.238 0.0061136159     36532.32   -2390.6382 
    4280 5.1636847e-06   -26750.725   -17057.028   -63195.144 -0.001750399     36532.32   -2390.6382 
    4290 3.8448355e-06   -26750.692   -17056.982   -63195.118  0.022655744     36532.32   -2390.6382 
    4300 3.8225094e-06   -26750.686   -17057.001   -63195.077   0.01785571     36532.32   -2390.6382 
    4310 5.1384058e-06   -26750.709   -17056.969   -63195.147 -0.010996047     36532.32   -2390.6382 
    4320 7.523944e-06   -26750.725   -17057.056   -63195.125 0.0049133764     36532.32   -2390.6382 
    4330 1.0779693e-05   -26750.774   -17057.076   -63195.269  0.021938535     36532.32   -2390.6382 
    4340 1.4279863e-05   -26750.846   -17057.214   -63195.319 -0.0049553334     36532.32   -2390.6382 
    4350 1.7678159e-05   -26750.919    -17057.27   -63195.472 -0.014375566     36532.32   -2390.6382 
    4360 2.0383283e-05   -26750.993   -17057.406   -63195.579 0.0056400181     36532.32   -2390.6382 
    4370 2.2037698e-05   -26751.068   -17057.503    -63195.72   0.02035125     36532.32   -2390.6382 
    4380 2.2417998e-05   -26751.177   -17057.619   -63195.884 -0.029533201     36532.32   -2390.6382 
    4390 2.1415535e-05   -26751.253   -17057.761   -63195.989 -0.0077102021     36532.32   -2390.6382 
    4400 1.9200997e-05   -26751.349   -17057.867   -63196.198  0.015632798     36532.32   -2390.6382 
    4410 1.6076453e-05   -26751.436    -17058.02   -63196.294 0.0066160409     36532.32   -2390.6382 
    4420 1.2475352e-05   -26751.518   -17058.054   -63196.464 -0.034715575     36532.32   -2390.6382 
    4430 8.9269924e-06   -26751.549   -17058.172   -63196.477 0.00078884172     36532.32   -2390.6382 
    4440 5.9613151e-06   -26751.586   -17058.185   -63196.596  0.022626215     36532.32   -2390.6382 
    4450 3.9374614e-06   -26751.639   -17058.268   -63196.628 -0.022911071     36532.32   -2390.6382 
    4460 3.3026302e-06   -26751.655   -17058.267   -63196.679 -0.018966916     36532.32   -2390.6382 
    4470 3.9394417e-06   -26751.658   -17058.274   -63196.696 -0.0032655764     36532.32   -2390.6382 
    4480 6.0250176e-06   -26751.613   -17058.242   -63196.614  0.015094742     36532.32   -2390.6382 
    4490 9.0180821e-06   -26751.587   -17058.155   -63196.561 -0.044638052     36532.32   -2390.6382 
    4500 1.2693801e-05   -26751.503   -17058.104   -63196.411 0.0037375581     36532.32   -2390.6382 
    4510 1.6389585e-05   -26751.455   -17057.985   -63196.384 0.0043600516     36532.32   -2390.6382 
    4520 1.9658709e-05   -26751.377   -17057.927   -63196.207 0.0040728725     36532.32   -2390.6382 
    4530 2.1948957e-05   -26751.303   -17057.765   -63196.106  -0.03792122     36532.32   -2390.6382 
    4540 2.2993242e-05   -26751.186   -17057.675   -63195.903  0.021325204     36532.32   -2390.6382 
    4550 2.2551066e-05   -26751.089    -17057.52   -63195.762  0.013974937     36532.32   -2390.6382 
    4560 2.0723659e-05   -26751.004   -17057.396   -63195.603 -0.011900627     36532.32   -2390.6382 
    4570 1.7757945e-05   -26750.908   -17057.281   -63195.438 -0.0047861913     36532.32   -2390.6382 
    4580 1.4016573e-05   -26750.844   -17057.171   -63195.376  0.015634451     36532.32   -2390.6382 
    4590 1.0170996e-05    -26750.78   -17057.124   -63195.228  0.013109495     36532.32   -2390.6382 
    4600 6.5883834e-06   -26750.743   -17057.018   -63195.186 -0.026011973     36532.32   -2390.6382 
    4610 4.0324474e-06   -26750.684   -17057.007   -63195.063  0.018017523     36532.32   -2390.6382 
    4620 2.6545232e-06   -26750.677   -17056.934     -63195.1 0.0026439526     36532.32   -2390.6382 
    4630 2.8534863e-06   -26750.675   -17056.974   -63195.051 0.0017438176     36532.32   -2390.6382 
    4640 4.5076566e-06   -26750.703    -17056.98   -63195.109 -0.020910902     36532.32   -2390.6382 
    4650 7.4179829e-06   -26750.742   -17057.068    -63195.18  0.022946241     36532.32   -2390.6382 
    4660 1.1188518e-05   -26750.805   -17057.142   -63195.272 -0.00097366428     36532.32   -2390.6382 
    4670 1.5243651e-05   -26750.876   -17057.209   -63195.408 -0.012169648     36532.32   -2390.6382 
    4680 1.900825e-05   -26750.931   -17057.332   -63195.461 0.0012172297     36532.32   -2390.6382 
    4690 2.1928753e-05   -26751.019   -17057.414   -63195.654  0.011198786     36532.32   -2390.6382 
    4700 2.3542123e-05   -26751.119    -17057.59   -63195.764 -0.0012667158     36532.32   -2390.6382 
    4710 2.3642611e-05   -26751.232   -17057.683   -63195.999 -0.013426658     36532.32   -2390.6382 
    4720 2.2124267e-05   -26751.317   -17057.861   -63196.102  0.011149249     36532.32   -2390.6382 
    4730 1.9296474e-05   -26751.406   -17057.929   -63196.286 -0.0034334249     36532.32   -2390.6382 
    4740 1.5435172e-05   -26751.478   -17058.049   -63196.377 -0.0069844845     36532.32   -2390.6382 
    4750 1.1252269e-05   -26751.536   -17058.126   -63196.483 0.0018196778     36532.32   -2390.6382 
    4760 7.1876982e-06   -26751.596   -17058.205   -63196.594  0.010162697     36532.32   -2390.6382 
    4770 4.058948e-06   -26751.642   -17058.278   -63196.646 -0.0033012373     36532.32   -2390.6382 
    4780 2.093479e-06   -26751.685   -17058.281   -63196.763 -0.010018058     36532.32   -2390.6382 
    4790 1.8635734e-06   -26751.664    -17058.32   -63196.688  0.015984228     36532.32   -2390.6382 
    4800 3.1583966e-06    -26751.64   -17058.244   -63196.678 0.0031221695     36532.32   -2390.6382 
    4810 6.0330825e-06   -26751.597    -17058.23   -63196.564 0.0012547805     36532.32   -2390.6382 
    4820 9.8820516e-06   -26751.566   -17058.128   -63196.568 -0.0016544106     36532.32   -2390.6382 
    4830 1.4289969e-05     -26751.5   -17058.084   -63196.424 0.0082214082     36532.32   -2390.6382 
    4840 1.8498542e-05   -26751.415   -17057.952   -63196.291 -0.00069367614     36532.32   -2390.6382 
    4850 2.1938604e-05    -26751.33   -17057.837   -63196.144 -0.008380521     36532.32   -2390.6382 
    4860 2.4076051e-05   -26751.223   -17057.715   -63195.971  0.018609041     36532.32   -2390.6382 
    4870 2.4557592e-05   -26751.133   -17057.556   -63195.833 -0.0092128343     36532.32   -2390.6382 
    4880 2.3339647e-05   -26751.019   -17057.451   -63195.614 0.0079819392     36532.32   -2390.6382 
    4890 2.0541473e-05   -26750.952   -17057.302   -63195.551 -0.0040581493     36532.32   -2390.6382 
    4900 1.6619338e-05   -26750.858   -17057.238   -63195.363   0.02651759     36532.32   -2390.6382 
    4910 1.2086932e-05   -26750.792     -17057.1   -63195.267 -0.0077696789     36532.32   -2390.6382 
    4920 7.7045431e-06   -26750.724    -17057.05    -63195.13 0.0073832264     36532.32   -2390.6382 
    4930 4.0115903e-06     -26750.7   -17056.975   -63195.129 0.0042851141     36532.32   -2390.6382 
    4940 1.7077971e-06   -26750.672   -17056.956   -63195.069 0.0091042041     36532.32   -2390.6382 
    4950 9.8519257e-07   -26750.654   -17056.951   -63195.017 0.0049708746     36532.32   -2390.6382 
    4960 2.135788e-06   -26750.681   -17056.959   -63195.085 8.1311872e-06     36532.32   -2390.6382 
    4970 4.8306511e-06   -26750.721   -17057.046   -63195.132  0.013547225     36532.32   -2390.6382 
    4980 8.831853e-06   -26750.784   -17057.069   -63195.259 -0.023474893     36532.32   -2390.6382 
    4990 1.3429683e-05   -26750.821    -17057.19   -63195.276 0.0035334758     36532.32   -2390.6382 
    5000 1.8025669e-05   -26750.904   -17057.253   -63195.453 -0.0067059974     36532.32   -2390.6382 
    5010 2.1874865e-05   -26750.987   -17057.407   -63195.562 0.0076580973     36532.32   -2390.6382 
    5020 2.4433004e-05   -26751.091   -17057.503   -63195.748 -0.022098559     36532.32   -2390.6382 
    5030 2.5276918e-05   -26751.184   -17057.655   -63195.892 -0.0041117345     36532.32   -2390.6382 
    5040 2.4284106e-05   -26751.287   -17057.785   -63196.071 -0.0042303128     36532.32   -2390.6382 
    5050 2.1595012e-05   -26751.376    -17057.89    -63196.23 -0.0081844822     36532.32   -2390.6382 
    5060 1.7573487e-05   -26751.439   -17058.017   -63196.297 -0.0037873348     36532.32   -2390.6382 
    5070 1.2875258e-05   -26751.523   -17058.081   -63196.483 -0.0054220218     36532.32   -2390.6382 
    5080 8.1254198e-06   -26751.592   -17058.218   -63196.558 0.00026907966     36532.32   -2390.6382 
    5090 4.1299537e-06   -26751.656   -17058.245   -63196.707 -0.017918137     36532.32   -2390.6382 
    5100 1.4054766e-06   -26751.667   -17058.321   -63196.682 0.0010271124     36532.32   -2390.6382 
    5110 4.3399957e-07   -26751.671    -17058.29   -63196.723 -0.0010729726     36532.32   -2390.6382 
    5120 1.3425945e-06   -26751.659   -17058.295   -63196.676 -0.0050271711     36532.32   -2390.6382 
    5130 3.9724068e-06   -26751.639   -17058.248    -63196.66 -0.0092108761     36532.32   -2390.6382 
    5140 8.0198997e-06   -26751.604   -17058.199   -63196.605 -0.0061333732     36532.32   -2390.6382 
    5150 1.2750309e-05   -26751.534   -17058.136   -63196.471   0.00482807     36532.32   -2390.6382 
    5160 1.7620771e-05   -26751.459   -17057.993   -63196.378  -0.00614834     36532.32   -2390.6382 
    5170 2.1718186e-05   -26751.348   -17057.896   -63196.152 0.0053022493     36532.32   -2390.6382 
    5180 2.4607179e-05   -26751.267    -17057.73    -63196.07 -0.0015680409     36532.32   -2390.6382 
    5190 2.5684656e-05   -26751.167   -17057.646   -63195.855 -0.0005268285     36532.32   -2390.6382 
    5200 2.4909398e-05   -26751.081   -17057.488   -63195.754 -0.00063316354     36532.32   -2390.6382 
    5210 2.2308001e-05   -26750.971   -17057.374   -63195.541 0.0018282719     36532.32   -2390.6382 
    5220 1.8306533e-05   -26750.874   -17057.227   -63195.402 0.0066605885     36532.32   -2390.6382 
    5230 1.3496866e-05   -26750.797   -17057.123   -63195.266 -0.001013087     36532.32   -2390.6382 
    5240 8.5794885e-06   -26750.742   -17057.062   -63195.173  0.010653677     36532.32   -2390.6382 
    5250 4.3448867e-06   -26750.713   -17056.989   -63195.147 -0.0015007845     36532.32   -2390.6382 
    5260 1.3540858e-06   -26750.661   -17056.977   -63195.022   0.01511388     36532.32   -2390.6382 
    5270 1.6286629e-07   -26750.656   -17056.912   -63195.057 0.00043740416     36532.32   -2390.6382 
    5280 8.3253364e-07   -26750.654   -17056.959   -63195.016  0.014837878     36532.32   -2390.6382 
    5290 3.3920339e-06   -26750.713   -17056.986   -63195.148 -0.0045028236     36532.32   -2390.6382 
    5300 7.3348508e-06   -26750.748   -17057.077    -63195.17 0.0044523323     36532.32   -2390.6382 
    5310 1.2173635e-05   -26750.806   -17057.136   -63195.287 0.0061224789     36532.32   -2390.6382 
    5320 1.7114881e-05   -26750.867   -17057.225   -63195.385 0.0082689549     36532.32   -2390.6382 
    5330 2.1423418e-05   -26750.956   -17057.347   -63195.523 0.0020800197     36532.32   -2390.6382 
    5340 2.4507841e-05   -26751.063   -17057.465   -63195.718 -0.0061314572     36532.32   -2390.6382 
    5350 2.5794636e-05   -26751.155    -17057.63   -63195.838 0.0043667738     36532.32   -2390.6382 
    5360 2.5223007e-05   -26751.257   -17057.717   -63196.051 -0.0044955154     36532.32   -2390.6382 
    5370 2.2756022e-05   -26751.318   -17057.861   -63196.099  0.005355795     36532.32   -2390.6382 
    5380 1.8862421e-05   -26751.415   -17057.932   -63196.305 -0.0076773701     36532.32   -2390.6382 
    5390 1.4060398e-05   -26751.499   -17058.087   -63196.419  0.009149056     36532.32   -2390.6382 
    5400 9.1261454e-06   -26751.593   -17058.181   -63196.588 -0.0098925172     36532.32   -2390.6382 
    5410 4.7469279e-06   -26751.633   -17058.253    -63196.64 -0.0057610079     36532.32   -2390.6382 
    5420 1.6499967e-06   -26751.642   -17058.267   -63196.652 -0.0070721113     36532.32   -2390.6382 
    5430 2.0490159e-07   -26751.653   -17058.267   -63196.701 0.0094498055     36532.32   -2390.6382 
    5440 7.3684877e-07   -26751.664   -17058.311   -63196.678 -0.0031435336     36532.32   -2390.6382 
    5450 3.055695e-06   -26751.679    -17058.28   -63196.741 -0.015217669     36532.32   -2390.6382 
    5460 6.8791604e-06   -26751.626   -17058.268   -63196.605 -0.005934896     36532.32   -2390.6382 
    5470 1.1625371e-05   -26751.561   -17058.127   -63196.558 0.0021645069     36532.32   -2390.6382 
    5480 1.6519485e-05   -26751.464   -17058.047    -63196.34 -0.0036771922     36532.32   -2390.6382 
    5490 2.0929089e-05   -26751.387   -17057.903   -63196.244 -0.015270595     36532.32   -2390.6382 
    5500 2.4082833e-05   -26751.315   -17057.831   -63196.117 0.0011593286     36532.32   -2390.6382 
    5510 2.560447e-05   -26751.226   -17057.705   -63195.978 0.0049110539     36532.32   -2390.6382 
    5520 2.5190047e-05   -26751.128    -17057.56   -63195.811 -0.013496283     36532.32   -2390.6382 
    5530 2.2991028e-05   -26750.985   -17057.397   -63195.555 -0.0037231423     36532.32   -2390.6382 
    5540 1.9233877e-05   -26750.897   -17057.246   -63195.458  0.014826065     36532.32   -2390.6382 
    5550 1.4642099e-05   -26750.818   -17057.188   -63195.281  0.013709555     36532.32   -2390.6382 
    5560 9.7133713e-06   -26750.794   -17057.087   -63195.273 -0.022460829     36532.32   -2390.6382 
    5570 5.4133427e-06   -26750.715   -17057.042   -63195.099 -0.003925278     36532.32   -2390.6382 
    5580 2.1543558e-06   -26750.668   -17056.939   -63195.083  0.018902207     36532.32   -2390.6382 
    5590 6.1644986e-07   -26750.645   -17056.934   -63195.007  0.004436112     36532.32   -2390.6382 
    5600 8.7746127e-07   -26750.657   -17056.934   -63195.025 -0.010776493     36532.32   -2390.6382 
    5610 2.9615101e-06   -26750.697   -17056.988   -63195.102 0.0010646534     36532.32   -2390.6382 
    5620 6.5231339e-06   -26750.721    -17057.04    -63195.15  0.027497618     36532.32   -2390.6382 
    5630 1.1030891e-05   -26750.794   -17057.097   -63195.276 -0.0088157044     36532.32   -2390.6382 
    5640 1.5785246e-05   -26750.832   -17057.202   -63195.301 0.0052449353     36532.32   -2390.6382 
    5650 2.0127002e-05    -26750.94   -17057.297   -63195.535  0.012261525     36532.32   -2390.6382 
    5660 2.3346199e-05   -26751.024   -17057.459   -63195.634   0.02141954     36532.32   -2390.6382 
    5670 2.5033229e-05   -26751.138   -17057.548   -63195.844 -0.021291872     36532.32   -2390.6382 
    5680 2.4894868e-05   -26751.198   -17057.685   -63195.911 0.0019028787     36532.32   -2390.6382 
    5690 2.3001114e-05   -26751.289   -17057.791   -63196.099  0.024641528     36532.32   -2390.6382 
    5700 1.9601016e-05   -26751.406   -17057.936    -63196.28 -0.0025830896     36532.32   -2390.6382 
    5710 1.5272787e-05   -26751.492   -17058.063   -63196.396 -0.016193917     36532.32   -2390.6382 
    5720 1.0570641e-05   -26751.558   -17058.135   -63196.531 -0.0075032949     36532.32   -2390.6382 
    5730 6.3399603e-06   -26751.574   -17058.197   -63196.547  0.020184276     36532.32   -2390.6382 
    5740 3.024763e-06   -26751.631   -17058.213   -63196.668 -0.011617846     36532.32   -2390.6382 
    5750 1.3219008e-06   -26751.646   -17058.302   -63196.637 0.0015818237     36532.32   -2390.6382 
    5760 1.2717858e-06   -26751.687   -17058.303   -63196.758 0.0013977148     36532.32   -2390.6382 
    5770 3.0253585e-06   -26751.666   -17058.312   -63196.692 0.0048392964     36532.32   -2390.6382 
    5780 6.215239e-06   -26751.624   -17058.213   -63196.639 -0.018650877     36532.32   -2390.6382 
    5790 1.0379586e-05   -26751.543   -17058.143   -63196.496 0.0094925099     36532.32   -2390.6382 
    5800 1.4919319e-05   -26751.483   -17058.068   -63196.392  0.012469105     36532.32   -2390.6382 
    5810 1.9089009e-05   -26751.446   -17057.976   -63196.351 -0.0095977443     36532.32   -2390.6382 
    5820 2.2384819e-05   -26751.361   -17057.897   -63196.171 -0.016075206     36532.32   -2390.6382 
    5830 2.4167285e-05   -26751.257   -17057.728   -63196.047 0.0038464645     36532.32   -2390.6382 
    5840 2.4403038e-05   -26751.132   -17057.608   -63195.784 -0.0047793819     36532.32   -2390.6382 
    5850 2.2806681e-05    -26751.04   -17057.421   -63195.691 -0.0089095485     36532.32   -2390.6382 
    5860 1.9930458e-05   -26750.949   -17057.363   -63195.482 -0.0020082609     36532.32   -2390.6382 
    5870 1.5899952e-05   -26750.881   -17057.229    -63195.42 0.0046298222     36532.32   -2390.6382 
    5876 1.332985e-05   -26750.841    -17057.18   -63195.347 0.0043039637     36532.32   -2390.6382 
Loop time of 15.8352 on 8 procs for 5000 steps with 256 atoms

Pair  time (%) = 7.00449 (44.2337)
Neigh time (%) = 0 (0)
Comm  time (%) = 3.96204 (25.0205)
Outpt time (%) = 0.506932 (3.20131)
Other time (%) = 4.36172 (27.5445)

Nlocal:    32 ave 256 max 0 min
Histogram: 7 0 0 0 0 0 0 0 0 1
Nghost:    143.5 ave 702 max 0 min
Histogram: 6 0 0 0 0 0 1 0 0 1
Neighs:    1172 ave 9376 max 0 min
Histogram: 7 0 0 0 0 0 0 0 0 1
FullNghs:  2344 ave 18752 max 0 min
Histogram: 7 0 0 0 0 0 0 0 0 1

Total # of neighbors = 18752
Ave neighs/atom = 73.25
Neighbor list builds = 0
Dangerous builds = 0

