LAMMPS (22 Dec 2022)
  using 1 OpenMP thread(s) per MPI task
Loaded 1 plugins from C:\Program Files\LAMMPS 64-bit 23Jun2022\plugins
Loaded 0 plugins from C:\Program Files\LAMMPS 64-bit 23Jun2022-MPI\plugins
Loaded 1 plugins from C:\Program Files\LAMMPS 64-bit 22Dec2022-MSMPI\plugins
Loaded 1 plugins from C:\Program Files\LAMMPS 64-bit 28Mar2023-MPI\plugins
# graphene

echo both
units	        metal
atom_style	atomic
boundary p p p
read_data       data.graphene
Reading data file ...
  orthogonal box = (-9.768 -9.35 -50) to (9.768 9.35 50)
  1 by 1 by 8 MPI processor grid
  reading atoms ...
  256 atoms
  read_data CPU = 0.002 seconds
pair_style meam
pair_coeff * * lib.meam C C.meam C


timestep        0.001
neighbor        2.0 bin
thermo          10
thermo_style custom step temp press pxx pyy pzz vol etotal
thermo_modify lost warn
dump		1 all atom 250 graph.lammpstrj

minimize 0.0 1.0e-8 1000 100000
Neighbor list info ...
  update: every = 1 steps, delay = 0 steps, check = yes
  max neighbors/atom: 2000, page size: 100000
  master list distance cutoff = 6
  ghost atom cutoff = 6
  binsize = 3, bins = 7 7 34
  2 neighbor lists, perpetual/occasional/extra = 2 0 0
  (1) pair meam, perpetual
      attributes: full, newton on
      pair build: full/bin/atomonly
      stencil: full/bin/3d
      bin: standard
  (2) pair meam, perpetual, half/full from (1)
      attributes: half, newton on
      pair build: halffull/newton
      stencil: none
      bin: none
Per MPI rank memory allocation (min/avg/max) = 9.585 | 9.876 | 11.4 Mbytes
   Step          Temp          Press           Pxx            Pyy            Pzz           Volume         TotEng    
         0   0              193.55839      860.65962     -1373.0333      1093.0489      36532.32      -1818.1929    
        10   0             -3667.5949     -539.30489     -10763.939      300.4589       36532.32      -1822.9273    
        20   0             -3654.9781     -525.61043     -10693.336      254.01206      36532.32      -1823.3523    
        30   0             -3449.678      -495.07159     -10032.189      178.2262       36532.32      -1823.473     
        40   0             -3506.164      -549.19082     -10014.992      45.690549      36532.32      -1823.501     
        50   0             -3534.9036     -561.13783     -10064.533      20.960201      36532.32      -1823.5079    
        60   0             -3544.3476     -559.09423     -10078.634      4.685956       36532.32      -1823.5089    
        70   0             -3536.4439     -564.60298     -10037.306     -7.4224567      36532.32      -1823.5093    
        80   0             -3520.226      -565.0621      -9985.1702     -10.44588       36532.32      -1823.5096    
        90   0             -3510.4859     -564.45925     -9962.8062     -4.1921802      36532.32      -1823.5097    
       100   0             -3507.7146     -563.23067     -9959.4104     -0.50276793     36532.32      -1823.5098    
       110   0             -3507.5486     -563.22686     -9959.0139     -0.40509421     36532.32      -1823.5098    
       120   0             -3507.2138     -563.14913     -9958.2504     -0.24176034     36532.32      -1823.5098    
       130   0             -3506.6402     -563.12077     -9956.8735      0.073845693    36532.32      -1823.5098    
       140   0             -3506.4673     -563.11728     -9956.4497      0.16492513     36532.32      -1823.5098    
       150   0             -3506.4467     -563.1281      -9956.2844      0.072509269    36532.32      -1823.5098    
       160   0             -3506.4124     -563.16711     -9956.0779      0.0076628465   36532.32      -1823.5098    
       170   0             -3506.3767     -563.16844     -9955.961      -0.00062362855  36532.32      -1823.5098    
       180   0             -3506.3553     -563.17046     -9955.8923     -0.0032354506   36532.32      -1823.5098    
       190   0             -3506.3389     -563.17149     -9955.8418     -0.0033217911   36532.32      -1823.5098    
       200   0             -3506.3424     -563.17083     -9955.8534     -0.0030486456   36532.32      -1823.5098    
       210   0             -3506.3442     -563.17012     -9955.8606     -0.0020335377   36532.32      -1823.5098    
       220   0             -3506.3426     -563.16965     -9955.8575     -0.00056097736  36532.32      -1823.5098    
       230   0             -3506.3417     -563.16972     -9955.8552     -0.00010667304  36532.32      -1823.5098    
       240   0             -3506.3414     -563.16977     -9955.8546     -1.6619764e-05  36532.32      -1823.5098    
       250   0             -3506.3411     -563.16974     -9955.8537      7.3646606e-05  36532.32      -1823.5098    
       260   0             -3506.3411     -563.16974     -9955.8536      5.0531144e-05  36532.32      -1823.5098    
       270   0             -3506.3411     -563.16975     -9955.8536      2.0715466e-05  36532.32      -1823.5098    
       280   0             -3506.3411     -563.16976     -9955.8535     -1.5586111e-07  36532.32      -1823.5098    
       290   0             -3506.3411     -563.16976     -9955.8535     -3.3547889e-06  36532.32      -1823.5098    
       300   0             -3506.3411     -563.16976     -9955.8535     -2.3955742e-06  36532.32      -1823.5098    
       310   0             -3506.3411     -563.16976     -9955.8534     -1.1097946e-06  36532.32      -1823.5098    
       312   0             -3506.3411     -563.16976     -9955.8534     -1.01946e-06    36532.32      -1823.5098    
Loop time of 0.460492 on 8 procs for 312 steps with 256 atoms

75.9% CPU use with 8 MPI tasks x 1 OpenMP threads

Minimization stats:
  Stopping criterion = force tolerance
  Energy initial, next-to-last, final = 
     -1818.19292201987  -1823.50977701694  -1823.50977701694
  Force two-norm initial, final = 24.62597 8.302585e-09
  Force max component initial, final = 3.5609216 1.1841158e-09
  Final line search alpha, max atom move = 1 1.1841158e-09
  Iterations, force evaluations = 312 624

MPI task timing breakdown:
Section |  min time  |  avg time  |  max time  |%varavg| %total
---------------------------------------------------------------
Pair    | 0.000107   | 0.099944   | 0.44683    |  55.2 | 21.70
Neigh   | 0          | 0          | 0          |   0.0 |  0.00
Comm    | 7.5e-05    | 0.013312   | 0.099718   |  28.4 |  2.89
Output  | 0.000776   | 0.00082575 | 0.000982   |   0.0 |  0.18
Modify  | 0          | 0          | 0          |   0.0 |  0.00
Other   |            | 0.3464     |            |       | 75.23

Nlocal:             32 ave         256 max           0 min
Histogram: 7 0 0 0 0 0 0 0 0 1
Nghost:            137 ave         676 max           0 min
Histogram: 6 0 0 0 0 0 1 0 0 1
Neighs:            978 ave        7824 max           0 min
Histogram: 7 0 0 0 0 0 0 0 0 1
FullNghs:         1956 ave       15648 max           0 min
Histogram: 7 0 0 0 0 0 0 0 0 1

Total # of neighbors = 15648
Ave neighs/atom = 61.125
Neighbor list builds = 0
Dangerous builds = 0

fix 1 all nve
run		5000
Per MPI rank memory allocation (min/avg/max) = 8.461 | 8.782 | 10.27 Mbytes
   Step          Temp          Press           Pxx            Pyy            Pzz           Volume         TotEng    
       312   0             -3506.3411     -563.16976     -9955.8534     -1.0194599e-06  36532.32      -1823.5098    
       320   1.1617257e-17 -3506.3411     -563.16976     -9955.8534     -1.0188772e-06  36532.32      -1823.5098    
       330   2.9592881e-17 -3506.3411     -563.16976     -9955.8534     -9.8298624e-07  36532.32      -1823.5098    
       340   5.048467e-17  -3506.3411     -563.16976     -9955.8534     -9.1011007e-07  36532.32      -1823.5098    
       350   6.5103477e-17 -3506.3411     -563.16976     -9955.8534     -8.4332912e-07  36532.32      -1823.5098    
       360   7.0782495e-17 -3506.3411     -563.16976     -9955.8534     -7.7119847e-07  36532.32      -1823.5098    
       370   6.7175177e-17 -3506.3411     -563.16976     -9955.8534     -6.5712329e-07  36532.32      -1823.5098    
       380   6.2991088e-17 -3506.3411     -563.16976     -9955.8534     -5.3588505e-07  36532.32      -1823.5098    
       390   6.111132e-17  -3506.3411     -563.16976     -9955.8534     -4.1839383e-07  36532.32      -1823.5098    
       400   5.9371985e-17 -3506.3411     -563.16976     -9955.8534     -2.4177432e-07  36532.32      -1823.5098    
       410   6.0387506e-17 -3506.3411     -563.16976     -9955.8534     -1.0919737e-08  36532.32      -1823.5098    
       420   6.4295406e-17 -3506.3411     -563.16976     -9955.8534      2.2536273e-07  36532.32      -1823.5098    
       430   6.9174636e-17 -3506.3411     -563.16976     -9955.8534      5.0055226e-07  36532.32      -1823.5098    
       440   7.186814e-17  -3506.3411     -563.16976     -9955.8534      8.1651411e-07  36532.32      -1823.5098    
       450   7.4027041e-17 -3506.3411     -563.16976     -9955.8534      1.0848074e-06  36532.32      -1823.5098    
       460   6.793983e-17  -3506.3411     -563.16976     -9955.8534      1.2933586e-06  36532.32      -1823.5098    
       470   5.7273229e-17 -3506.3411     -563.16976     -9955.8534      1.4680028e-06  36532.32      -1823.5098    
       480   4.4117975e-17 -3506.3411     -563.16976     -9955.8534      1.5349658e-06  36532.32      -1823.5098    
       490   4.0444525e-17 -3506.3411     -563.16976     -9955.8534      1.4653534e-06  36532.32      -1823.5098    
       500   4.5576611e-17 -3506.3411     -563.16976     -9955.8534      1.3341636e-06  36532.32      -1823.5098    
       510   5.7366825e-17 -3506.3411     -563.16976     -9955.8534      1.1350969e-06  36532.32      -1823.5098    
       520   7.1242713e-17 -3506.3411     -563.16976     -9955.8534      8.2875157e-07  36532.32      -1823.5098    
       530   7.7450925e-17 -3506.3411     -563.16976     -9955.8534      4.8764907e-07  36532.32      -1823.5098    
       540   7.5488427e-17 -3506.3411     -563.16976     -9955.8534      1.630606e-07   36532.32      -1823.5098    
       550   6.6992231e-17 -3506.3411     -563.16976     -9955.8534     -1.698526e-07   36532.32      -1823.5098    
       560   5.7647809e-17 -3506.3411     -563.16976     -9955.8534     -4.7545337e-07  36532.32      -1823.5098    
       570   4.5507941e-17 -3506.3411     -563.16976     -9955.8534     -7.1035974e-07  36532.32      -1823.5098    
       580   3.60841e-17   -3506.3411     -563.16976     -9955.8534     -8.9920888e-07  36532.32      -1823.5098    
       590   2.7412278e-17 -3506.3411     -563.16976     -9955.8534     -1.0301097e-06  36532.32      -1823.5098    
       600   2.3610929e-17 -3506.3411     -563.16976     -9955.8534     -1.0722248e-06  36532.32      -1823.5098    
       610   2.7269794e-17 -3506.3411     -563.16976     -9955.8534     -1.0582552e-06  36532.32      -1823.5098    
       620   3.8175555e-17 -3506.3411     -563.16976     -9955.8534     -1.0021325e-06  36532.32      -1823.5098    
       630   5.1357501e-17 -3506.3411     -563.16976     -9955.8534     -8.8504834e-07  36532.32      -1823.5098    
       640   5.6069769e-17 -3506.3411     -563.16976     -9955.8534     -7.3537168e-07  36532.32      -1823.5098    
       650   5.296964e-17  -3506.3411     -563.16976     -9955.8534     -5.7671176e-07  36532.32      -1823.5098    
       660   4.6186572e-17 -3506.3411     -563.16976     -9955.8534     -3.9818315e-07  36532.32      -1823.5098    
       670   4.3000625e-17 -3506.3411     -563.16976     -9955.8534     -2.1851492e-07  36532.32      -1823.5098    
       680   5.0442187e-17 -3506.3411     -563.16976     -9955.8534     -5.0172535e-08  36532.32      -1823.5098    
       690   6.5673374e-17 -3506.3411     -563.16976     -9955.8534      1.2744657e-07  36532.32      -1823.5098    
       700   8.2223953e-17 -3506.3411     -563.16976     -9955.8534      2.9414914e-07  36532.32      -1823.5098    
       710   9.1906362e-17 -3506.3411     -563.16976     -9955.8534      4.2112291e-07  36532.32      -1823.5098    
       720   9.2241109e-17 -3506.3411     -563.16976     -9955.8534      5.3716316e-07  36532.32      -1823.5098    
       730   8.4650918e-17 -3506.3411     -563.16976     -9955.8534      6.4709825e-07  36532.32      -1823.5098    
       740   6.8913562e-17 -3506.3411     -563.16976     -9955.8534      7.0721648e-07  36532.32      -1823.5098    
       750   5.4407511e-17 -3506.3411     -563.16976     -9955.8534      7.2421126e-07  36532.32      -1823.5098    
       760   4.1965606e-17 -3506.3411     -563.16976     -9955.8534      7.3240994e-07  36532.32      -1823.5098    
       770   3.5247112e-17 -3506.3411     -563.16976     -9955.8534      7.2171406e-07  36532.32      -1823.5098    
       780   3.6506986e-17 -3506.3411     -563.16976     -9955.8534      6.9453532e-07  36532.32      -1823.5098    
       790   4.7015077e-17 -3506.3411     -563.16976     -9955.8534      6.8052452e-07  36532.32      -1823.5098    
       800   6.174549e-17  -3506.3411     -563.16976     -9955.8534      6.6777266e-07  36532.32      -1823.5098    
       810   7.2308977e-17 -3506.3411     -563.16976     -9955.8534      6.3907169e-07  36532.32      -1823.5098    
       820   7.306555e-17  -3506.3411     -563.16976     -9955.8534      6.11384e-07    36532.32      -1823.5098    
       830   6.2192282e-17 -3506.3411     -563.16976     -9955.8534      5.6185293e-07  36532.32      -1823.5098    
       840   4.7156798e-17 -3506.3411     -563.16976     -9955.8534      4.4284436e-07  36532.32      -1823.5098    
       850   3.5408695e-17 -3506.3411     -563.16976     -9955.8534      2.7144329e-07  36532.32      -1823.5098    
       860   3.6939693e-17 -3506.3411     -563.16976     -9955.8534      6.5539108e-08  36532.32      -1823.5098    
       870   4.5489522e-17 -3506.3411     -563.16976     -9955.8534     -2.1062415e-07  36532.32      -1823.5098    
       880   5.4445879e-17 -3506.3411     -563.16976     -9955.8534     -5.3562014e-07  36532.32      -1823.5098    
       890   5.8660327e-17 -3506.3411     -563.16976     -9955.8534     -8.3718292e-07  36532.32      -1823.5098    
       900   5.3995264e-17 -3506.3411     -563.16976     -9955.8534     -1.1122727e-06  36532.32      -1823.5098    
       910   4.457122e-17  -3506.3411     -563.16976     -9955.8534     -1.3553526e-06  36532.32      -1823.5098    
       920   3.704428e-17  -3506.3411     -563.16976     -9955.8534     -1.4987096e-06  36532.32      -1823.5098    
       930   3.2688324e-17 -3506.3411     -563.16976     -9955.8534     -1.5480902e-06  36532.32      -1823.5098    
       940   3.1418727e-17 -3506.3411     -563.16976     -9955.8534     -1.5521001e-06  36532.32      -1823.5098    
       950   3.3528559e-17 -3506.3411     -563.16976     -9955.8534     -1.4628493e-06  36532.32      -1823.5098    
       960   4.308479e-17  -3506.3411     -563.16976     -9955.8534     -1.2656122e-06  36532.32      -1823.5098    
       970   5.8498193e-17 -3506.3411     -563.16976     -9955.8534     -1.0513419e-06  36532.32      -1823.5098    
       980   7.6768047e-17 -3506.3411     -563.16976     -9955.8534     -8.1786222e-07  36532.32      -1823.5098    
       990   9.2295811e-17 -3506.3411     -563.16976     -9955.8534     -5.0131023e-07  36532.32      -1823.5098    
      1000   9.6430584e-17 -3506.3411     -563.16976     -9955.8534     -1.6479636e-07  36532.32      -1823.5098    
      1010   9.0297427e-17 -3506.3411     -563.16976     -9955.8534      1.3860225e-07  36532.32      -1823.5098    
      1020   7.505351e-17  -3506.3411     -563.16976     -9955.8534      4.6683646e-07  36532.32      -1823.5098    
      1030   6.2698846e-17 -3506.3411     -563.16976     -9955.8534      7.9622015e-07  36532.32      -1823.5098    
      1040   5.46687e-17   -3506.3411     -563.16976     -9955.8534      1.0446649e-06  36532.32      -1823.5098    
      1050   5.3957853e-17 -3506.3411     -563.16976     -9955.8534      1.235954e-06   36532.32      -1823.5098    
      1060   5.6339253e-17 -3506.3411     -563.16976     -9955.8534      1.378948e-06   36532.32      -1823.5098    
      1070   5.8448454e-17 -3506.3411     -563.16976     -9955.8534      1.4109405e-06  36532.32      -1823.5098    
      1080   5.5980763e-17 -3506.3411     -563.16976     -9955.8534      1.353987e-06   36532.32      -1823.5098    
      1090   5.1659628e-17 -3506.3411     -563.16976     -9955.8534      1.2575241e-06  36532.32      -1823.5098    
      1100   4.9642282e-17 -3506.3411     -563.16976     -9955.8534      1.0914804e-06  36532.32      -1823.5098    
      1110   4.2674636e-17 -3506.3411     -563.16976     -9955.8534      8.7070244e-07  36532.32      -1823.5098    
      1120   3.8378285e-17 -3506.3411     -563.16976     -9955.8534      6.6387793e-07  36532.32      -1823.5098    
      1130   3.4262632e-17 -3506.3411     -563.16976     -9955.8534      4.6938413e-07  36532.32      -1823.5098    
      1140   3.5952008e-17 -3506.3411     -563.16976     -9955.8534      2.8018664e-07  36532.32      -1823.5098    
      1150   4.4122616e-17 -3506.3411     -563.16976     -9955.8534      1.3301898e-07  36532.32      -1823.5098    
      1160   6.0252998e-17 -3506.3411     -563.16976     -9955.8534      1.4710577e-08  36532.32      -1823.5098    
      1170   7.331328e-17  -3506.3411     -563.16976     -9955.8534     -9.5761199e-08  36532.32      -1823.5098    
      1180   7.337603e-17  -3506.3411     -563.16976     -9955.8534     -1.6797541e-07  36532.32      -1823.5098    
      1190   6.3261227e-17 -3506.3411     -563.16976     -9955.8534     -2.2156702e-07  36532.32      -1823.5098    
      1200   4.4423733e-17 -3506.3411     -563.16976     -9955.8534     -3.0521316e-07  36532.32      -1823.5098    
      1210   2.7657068e-17 -3506.3411     -563.16976     -9955.8534     -3.9111478e-07  36532.32      -1823.5098    
      1220   2.3749244e-17 -3506.3411     -563.16976     -9955.8534     -4.6807315e-07  36532.32      -1823.5098    
      1230   3.2273213e-17 -3506.3411     -563.16976     -9955.8534     -5.8503485e-07  36532.32      -1823.5098    
      1240   4.4502201e-17 -3506.3411     -563.16976     -9955.8534     -7.2168906e-07  36532.32      -1823.5098    
      1250   5.8169497e-17 -3506.3411     -563.16976     -9955.8534     -8.2370588e-07  36532.32      -1823.5098    
      1260   6.8645438e-17 -3506.3411     -563.16976     -9955.8534     -9.0842203e-07  36532.32      -1823.5098    
      1270   7.4195596e-17 -3506.3411     -563.16976     -9955.8534     -9.7436099e-07  36532.32      -1823.5098    
      1280   7.4509307e-17 -3506.3411     -563.16976     -9955.8534     -9.6429797e-07  36532.32      -1823.5098    
      1290   7.4116515e-17 -3506.3411     -563.16976     -9955.8534     -8.7746803e-07  36532.32      -1823.5098    
      1300   6.885352e-17  -3506.3411     -563.16976     -9955.8534     -7.4298172e-07  36532.32      -1823.5098    
      1310   6.5059718e-17 -3506.3411     -563.16976     -9955.8534     -5.34553e-07    36532.32      -1823.5098    
      1320   6.5528713e-17 -3506.3411     -563.16976     -9955.8534     -2.529023e-07   36532.32      -1823.5098    
      1330   7.1097089e-17 -3506.3411     -563.16976     -9955.8534      3.4438252e-08  36532.32      -1823.5098    
      1340   7.7693963e-17 -3506.3411     -563.16976     -9955.8534      3.0803911e-07  36532.32      -1823.5098    
      1350   8.0987783e-17 -3506.3411     -563.16976     -9955.8534      5.8832473e-07  36532.32      -1823.5098    
      1360   7.6147214e-17 -3506.3411     -563.16976     -9955.8534      8.338387e-07   36532.32      -1823.5098    
      1370   5.6875356e-17 -3506.3411     -563.16976     -9955.8534      1.0085824e-06  36532.32      -1823.5098    
      1380   3.7408102e-17 -3506.3411     -563.16976     -9955.8534      1.1405319e-06  36532.32      -1823.5098    
      1390   1.9709359e-17 -3506.3411     -563.16976     -9955.8534      1.2219084e-06  36532.32      -1823.5098    
      1400   1.7316423e-17 -3506.3411     -563.16976     -9955.8534      1.2219056e-06  36532.32      -1823.5098    
      1410   2.3645842e-17 -3506.3411     -563.16976     -9955.8534      1.1698235e-06  36532.32      -1823.5098    
      1420   3.6415797e-17 -3506.3411     -563.16976     -9955.8534      1.0684645e-06  36532.32      -1823.5098    
      1430   4.9131374e-17 -3506.3411     -563.16976     -9955.8534      8.7375829e-07  36532.32      -1823.5098    
      1440   5.6132308e-17 -3506.3411     -563.16976     -9955.8534      6.1483474e-07  36532.32      -1823.5098    
      1450   6.2917673e-17 -3506.3411     -563.16976     -9955.8534      3.3090482e-07  36532.32      -1823.5098    
      1460   6.3496864e-17 -3506.3411     -563.16976     -9955.8534     -1.0611469e-08  36532.32      -1823.5098    
      1470   6.1750528e-17 -3506.3411     -563.16976     -9955.8534     -3.7932193e-07  36532.32      -1823.5098    
      1480   5.3411739e-17 -3506.3411     -563.16976     -9955.8534     -6.8990104e-07  36532.32      -1823.5098    
      1490   4.5681587e-17 -3506.3411     -563.16976     -9955.8534     -9.5022243e-07  36532.32      -1823.5098    
      1500   3.988705e-17  -3506.3411     -563.16976     -9955.8534     -1.165764e-06   36532.32      -1823.5098    
      1510   4.3429123e-17 -3506.3411     -563.16976     -9955.8534     -1.2715915e-06  36532.32      -1823.5098    
      1520   5.4675863e-17 -3506.3411     -563.16976     -9955.8534     -1.282346e-06   36532.32      -1823.5098    
      1530   6.6130135e-17 -3506.3411     -563.16976     -9955.8534     -1.2479347e-06  36532.32      -1823.5098    
      1540   7.1261207e-17 -3506.3411     -563.16976     -9955.8534     -1.1380733e-06  36532.32      -1823.5098    
      1550   6.5257029e-17 -3506.3411     -563.16976     -9955.8534     -9.7367344e-07  36532.32      -1823.5098    
      1560   5.5774304e-17 -3506.3411     -563.16976     -9955.8534     -8.3359486e-07  36532.32      -1823.5098    
      1570   4.7271622e-17 -3506.3411     -563.16976     -9955.8534     -7.0010963e-07  36532.32      -1823.5098    
      1580   4.8072796e-17 -3506.3411     -563.16976     -9955.8534     -5.4576702e-07  36532.32      -1823.5098    
      1590   5.6071903e-17 -3506.3411     -563.16976     -9955.8534     -4.1540783e-07  36532.32      -1823.5098    
      1600   6.7760721e-17 -3506.3411     -563.16976     -9955.8534     -3.0065519e-07  36532.32      -1823.5098    
      1610   8.0460186e-17 -3506.3411     -563.16976     -9955.8534     -1.6361396e-07  36532.32      -1823.5098    
      1620   8.7961407e-17 -3506.3411     -563.16976     -9955.8534     -2.6577206e-08  36532.32      -1823.5098    
      1630   8.8853209e-17 -3506.3411     -563.16976     -9955.8534      1.1396903e-07  36532.32      -1823.5098    
      1640   8.3275451e-17 -3506.3411     -563.16976     -9955.8534      2.832398e-07   36532.32      -1823.5098    
      1650   6.942104e-17  -3506.3411     -563.16976     -9955.8534      4.4617704e-07  36532.32      -1823.5098    
      1660   5.1445145e-17 -3506.3411     -563.16976     -9955.8534      5.9461845e-07  36532.32      -1823.5098    
      1670   3.2680614e-17 -3506.3411     -563.16976     -9955.8534      7.6295433e-07  36532.32      -1823.5098    
      1680   2.1254287e-17 -3506.3411     -563.16976     -9955.8534      9.1513753e-07  36532.32      -1823.5098    
      1690   2.1055562e-17 -3506.3411     -563.16976     -9955.8534      1.0160653e-06  36532.32      -1823.5098    
      1700   3.1994441e-17 -3506.3411     -563.16976     -9955.8534      1.1098672e-06  36532.32      -1823.5098    
      1710   4.6335396e-17 -3506.3411     -563.16976     -9955.8534      1.1958901e-06  36532.32      -1823.5098    
      1720   5.1874106e-17 -3506.3411     -563.16976     -9955.8534      1.2221737e-06  36532.32      -1823.5098    
      1730   4.9137908e-17 -3506.3411     -563.16976     -9955.8534      1.2052855e-06  36532.32      -1823.5098    
      1740   4.1432236e-17 -3506.3411     -563.16976     -9955.8534      1.1658126e-06  36532.32      -1823.5098    
      1750   3.6461246e-17 -3506.3411     -563.16976     -9955.8534      1.0588922e-06  36532.32      -1823.5098    
      1760   3.945587e-17  -3506.3411     -563.16976     -9955.8534      8.8709221e-07  36532.32      -1823.5098    
      1770   5.0357523e-17 -3506.3411     -563.16976     -9955.8534      7.0134586e-07  36532.32      -1823.5098    
      1780   6.0911909e-17 -3506.3411     -563.16976     -9955.8534      4.7280442e-07  36532.32      -1823.5098    
      1790   6.9309007e-17 -3506.3411     -563.16976     -9955.8534      1.6702883e-07  36532.32      -1823.5098    
      1800   7.510684e-17  -3506.3411     -563.16976     -9955.8534     -1.4427059e-07  36532.32      -1823.5098    
      1810   7.4805948e-17 -3506.3411     -563.16976     -9955.8534     -4.2624386e-07  36532.32      -1823.5098    
      1820   7.145634e-17  -3506.3411     -563.16976     -9955.8534     -7.3663342e-07  36532.32      -1823.5098    
      1830   6.4549125e-17 -3506.3411     -563.16976     -9955.8534     -1.0407426e-06  36532.32      -1823.5098    
      1840   5.3671118e-17 -3506.3411     -563.16976     -9955.8534     -1.2501988e-06  36532.32      -1823.5098    
      1850   4.2718775e-17 -3506.3411     -563.16976     -9955.8534     -1.3986496e-06  36532.32      -1823.5098    
      1860   3.7831994e-17 -3506.3411     -563.16976     -9955.8534     -1.506801e-06   36532.32      -1823.5098    
      1870   4.5096307e-17 -3506.3411     -563.16976     -9955.8534     -1.4892327e-06  36532.32      -1823.5098    
      1880   5.8800618e-17 -3506.3411     -563.16976     -9955.8534     -1.3497538e-06  36532.32      -1823.5098    
      1890   7.5576484e-17 -3506.3411     -563.16976     -9955.8534     -1.1573497e-06  36532.32      -1823.5098    
      1900   8.4617411e-17 -3506.3411     -563.16976     -9955.8534     -8.8108689e-07  36532.32      -1823.5098    
      1910   8.2377201e-17 -3506.3411     -563.16976     -9955.8534     -5.2916854e-07  36532.32      -1823.5098    
      1920   7.376433e-17  -3506.3411     -563.16976     -9955.8534     -2.0589269e-07  36532.32      -1823.5098    
      1930   6.0713049e-17 -3506.3411     -563.16976     -9955.8534      8.6421602e-08  36532.32      -1823.5098    
      1940   5.4218723e-17 -3506.3411     -563.16976     -9955.8534      3.8014363e-07  36532.32      -1823.5098    
      1950   4.8138682e-17 -3506.3411     -563.16976     -9955.8534      5.9448932e-07  36532.32      -1823.5098    
      1960   4.8115125e-17 -3506.3411     -563.16976     -9955.8534      7.0627874e-07  36532.32      -1823.5098    
      1970   4.8436493e-17 -3506.3411     -563.16976     -9955.8534      7.8725193e-07  36532.32      -1823.5098    
      1980   4.751767e-17  -3506.3411     -563.16976     -9955.8534      8.2330335e-07  36532.32      -1823.5098    
      1990   4.6470064e-17 -3506.3411     -563.16976     -9955.8534      7.9444544e-07  36532.32      -1823.5098    
      2000   4.5273095e-17 -3506.3411     -563.16976     -9955.8534      7.6440826e-07  36532.32      -1823.5098    
      2010   4.1002509e-17 -3506.3411     -563.16976     -9955.8534      7.3069951e-07  36532.32      -1823.5098    
      2020   2.8740762e-17 -3506.3411     -563.16976     -9955.8534      6.5406623e-07  36532.32      -1823.5098    
      2030   2.0917116e-17 -3506.3411     -563.16976     -9955.8534      5.7741368e-07  36532.32      -1823.5098    
      2040   1.7241032e-17 -3506.3411     -563.16976     -9955.8534      5.0627626e-07  36532.32      -1823.5098    
      2050   2.979547e-17  -3506.3411     -563.16976     -9955.8534      3.8887409e-07  36532.32      -1823.5098    
      2060   5.212045e-17  -3506.3411     -563.16976     -9955.8534      2.5555148e-07  36532.32      -1823.5098    
      2070   7.7271753e-17 -3506.3411     -563.16976     -9955.8534      1.4560198e-07  36532.32      -1823.5098    
      2080   9.0834581e-17 -3506.3411     -563.16976     -9955.8534      2.2241112e-08  36532.32      -1823.5098    
      2090   9.0142203e-17 -3506.3411     -563.16976     -9955.8534     -1.1251977e-07  36532.32      -1823.5098    
      2100   8.0755265e-17 -3506.3411     -563.16976     -9955.8534     -2.1572145e-07  36532.32      -1823.5098    
      2110   6.4837561e-17 -3506.3411     -563.16976     -9955.8534     -3.0281327e-07  36532.32      -1823.5098    
      2120   5.4754275e-17 -3506.3411     -563.16976     -9955.8534     -3.9678706e-07  36532.32      -1823.5098    
      2130   5.0561083e-17 -3506.3411     -563.16976     -9955.8534     -4.8745762e-07  36532.32      -1823.5098    
      2140   5.3235345e-17 -3506.3411     -563.16976     -9955.8534     -5.9018182e-07  36532.32      -1823.5098    
      2150   5.6844063e-17 -3506.3411     -563.16976     -9955.8534     -7.2018635e-07  36532.32      -1823.5098    
      2160   6.3384581e-17 -3506.3411     -563.16976     -9955.8534     -8.5041743e-07  36532.32      -1823.5098    
      2170   6.7635083e-17 -3506.3411     -563.16976     -9955.8534     -9.6481502e-07  36532.32      -1823.5098    
      2180   6.942765e-17  -3506.3411     -563.16976     -9955.8534     -1.064192e-06   36532.32      -1823.5098    
      2190   6.4511373e-17 -3506.3411     -563.16976     -9955.8534     -1.119015e-06   36532.32      -1823.5098    
      2200   5.6932049e-17 -3506.3411     -563.16976     -9955.8534     -1.0992583e-06  36532.32      -1823.5098    
      2210   4.7114278e-17 -3506.3411     -563.16976     -9955.8534     -1.0032662e-06  36532.32      -1823.5098    
      2220   4.2178883e-17 -3506.3411     -563.16976     -9955.8534     -8.2218277e-07  36532.32      -1823.5098    
      2230   4.9021372e-17 -3506.3411     -563.16976     -9955.8534     -5.524563e-07   36532.32      -1823.5098    
      2240   5.9648835e-17 -3506.3411     -563.16976     -9955.8534     -2.2823578e-07  36532.32      -1823.5098    
      2250   7.0856381e-17 -3506.3411     -563.16976     -9955.8534      1.2608979e-07  36532.32      -1823.5098    
      2260   7.1861606e-17 -3506.3411     -563.16976     -9955.8534      5.0576731e-07  36532.32      -1823.5098    
      2270   6.3896589e-17 -3506.3411     -563.16976     -9955.8534      8.6379573e-07  36532.32      -1823.5098    
      2280   4.6601885e-17 -3506.3411     -563.16976     -9955.8534      1.1546469e-06  36532.32      -1823.5098    
      2290   3.240879e-17  -3506.3411     -563.16976     -9955.8534      1.3963933e-06  36532.32      -1823.5098    
      2300   2.3349576e-17 -3506.3411     -563.16976     -9955.8534      1.5777798e-06  36532.32      -1823.5098    
      2310   2.2604362e-17 -3506.3411     -563.16976     -9955.8534      1.639198e-06   36532.32      -1823.5098    
      2320   2.5216422e-17 -3506.3411     -563.16976     -9955.8534      1.5995216e-06  36532.32      -1823.5098    
      2330   3.0889384e-17 -3506.3411     -563.16976     -9955.8534      1.5077762e-06  36532.32      -1823.5098    
      2340   4.2048496e-17 -3506.3411     -563.16976     -9955.8534      1.3326146e-06  36532.32      -1823.5098    
      2350   5.3780084e-17 -3506.3411     -563.16976     -9955.8534      1.0786918e-06  36532.32      -1823.5098    
      2360   6.8484721e-17 -3506.3411     -563.16976     -9955.8534      8.2102253e-07  36532.32      -1823.5098    
      2370   7.5427049e-17 -3506.3411     -563.16976     -9955.8534      5.5094168e-07  36532.32      -1823.5098    
      2380   7.5100866e-17 -3506.3411     -563.16976     -9955.8534      2.432191e-07   36532.32      -1823.5098    
      2390   6.7083572e-17 -3506.3411     -563.16976     -9955.8534     -2.5859237e-08  36532.32      -1823.5098    
      2400   6.2396559e-17 -3506.3411     -563.16976     -9955.8534     -2.3852893e-07  36532.32      -1823.5098    
      2410   6.3266197e-17 -3506.3411     -563.16976     -9955.8534     -4.608452e-07   36532.32      -1823.5098    
      2420   6.9733992e-17 -3506.3411     -563.16976     -9955.8534     -6.5975347e-07  36532.32      -1823.5098    
      2430   7.9208839e-17 -3506.3411     -563.16976     -9955.8534     -7.8826761e-07  36532.32      -1823.5098    
      2440   8.2247285e-17 -3506.3411     -563.16976     -9955.8534     -9.0077293e-07  36532.32      -1823.5098    
      2450   7.6307213e-17 -3506.3411     -563.16976     -9955.8534     -9.974945e-07   36532.32      -1823.5098    
      2460   6.3037633e-17 -3506.3411     -563.16976     -9955.8534     -1.0260326e-06  36532.32      -1823.5098    
      2470   4.9171489e-17 -3506.3411     -563.16976     -9955.8534     -1.0188767e-06  36532.32      -1823.5098    
      2480   3.7928447e-17 -3506.3411     -563.16976     -9955.8534     -9.9389963e-07  36532.32      -1823.5098    
      2490   3.3039809e-17 -3506.3411     -563.16976     -9955.8534     -9.1451546e-07  36532.32      -1823.5098    
      2500   3.417651e-17  -3506.3411     -563.16976     -9955.8534     -8.156188e-07   36532.32      -1823.5098    
      2510   4.2288474e-17 -3506.3411     -563.16976     -9955.8534     -7.3058915e-07  36532.32      -1823.5098    
      2520   5.3862695e-17 -3506.3411     -563.16976     -9955.8534     -6.2057421e-07  36532.32      -1823.5098    
      2530   6.638498e-17  -3506.3411     -563.16976     -9955.8534     -5.069589e-07   36532.32      -1823.5098    
      2540   7.5600894e-17 -3506.3411     -563.16976     -9955.8534     -4.3808244e-07  36532.32      -1823.5098    
      2550   7.3747569e-17 -3506.3411     -563.16976     -9955.8534     -3.6694989e-07  36532.32      -1823.5098    
      2560   5.9169144e-17 -3506.3411     -563.16976     -9955.8534     -2.6150589e-07  36532.32      -1823.5098    
      2570   4.1387444e-17 -3506.3411     -563.16976     -9955.8534     -1.5212933e-07  36532.32      -1823.5098    
      2580   2.6409355e-17 -3506.3411     -563.16976     -9955.8534     -1.0146144e-08  36532.32      -1823.5098    
      2590   2.3054436e-17 -3506.3411     -563.16976     -9955.8534      1.9593048e-07  36532.32      -1823.5098    
      2600   3.3805937e-17 -3506.3411     -563.16976     -9955.8534      4.1455286e-07  36532.32      -1823.5098    
      2610   4.8986773e-17 -3506.3411     -563.16976     -9955.8534      6.274075e-07   36532.32      -1823.5098    
      2620   5.7549682e-17 -3506.3411     -563.16976     -9955.8534      8.5899583e-07  36532.32      -1823.5098    
      2630   5.6594054e-17 -3506.3411     -563.16976     -9955.8534      1.0551882e-06  36532.32      -1823.5098    
      2640   5.2157208e-17 -3506.3411     -563.16976     -9955.8534      1.1553714e-06  36532.32      -1823.5098    
      2650   4.4935624e-17 -3506.3411     -563.16976     -9955.8534      1.1874584e-06  36532.32      -1823.5098    
      2660   4.3861138e-17 -3506.3411     -563.16976     -9955.8534      1.1596005e-06  36532.32      -1823.5098    
      2670   5.0166218e-17 -3506.3411     -563.16976     -9955.8534      1.028386e-06   36532.32      -1823.5098    
      2680   5.8765595e-17 -3506.3411     -563.16976     -9955.8534      8.1606753e-07  36532.32      -1823.5098    
      2690   6.9934946e-17 -3506.3411     -563.16976     -9955.8534      5.8057154e-07  36532.32      -1823.5098    
      2700   8.3160341e-17 -3506.3411     -563.16976     -9955.8534      3.1643119e-07  36532.32      -1823.5098    
      2710   9.3355545e-17 -3506.3411     -563.16976     -9955.8534      2.1360712e-08  36532.32      -1823.5098    
      2720   9.6056871e-17 -3506.3411     -563.16976     -9955.8534     -2.6098093e-07  36532.32      -1823.5098    
      2730   8.972348e-17  -3506.3411     -563.16976     -9955.8534     -5.2577778e-07  36532.32      -1823.5098    
      2740   7.5296982e-17 -3506.3411     -563.16976     -9955.8534     -7.8226128e-07  36532.32      -1823.5098    
      2750   5.3812477e-17 -3506.3411     -563.16976     -9955.8534     -9.8806706e-07  36532.32      -1823.5098    
      2760   3.7070929e-17 -3506.3411     -563.16976     -9955.8534     -1.1329123e-06  36532.32      -1823.5098    
      2770   3.2064099e-17 -3506.3411     -563.16976     -9955.8534     -1.2465871e-06  36532.32      -1823.5098    
      2780   3.6217157e-17 -3506.3411     -563.16976     -9955.8534     -1.2910968e-06  36532.32      -1823.5098    
      2790   4.4797427e-17 -3506.3411     -563.16976     -9955.8534     -1.2275885e-06  36532.32      -1823.5098    
      2800   5.2419712e-17 -3506.3411     -563.16976     -9955.8534     -1.0984317e-06  36532.32      -1823.5098    
      2810   5.4426932e-17 -3506.3411     -563.16976     -9955.8534     -9.1305876e-07  36532.32      -1823.5098    
      2820   4.9923142e-17 -3506.3411     -563.16976     -9955.8534     -6.4653667e-07  36532.32      -1823.5098    
      2830   4.8710621e-17 -3506.3411     -563.16976     -9955.8534     -3.5097045e-07  36532.32      -1823.5098    
      2840   4.6182986e-17 -3506.3411     -563.16976     -9955.8534     -6.5427509e-08  36532.32      -1823.5098    
      2850   4.586364e-17  -3506.3411     -563.16976     -9955.8534      2.3471207e-07  36532.32      -1823.5098    
      2860   4.4621331e-17 -3506.3411     -563.16976     -9955.8534      5.0722471e-07  36532.32      -1823.5098    
      2870   4.6387137e-17 -3506.3411     -563.16976     -9955.8534      7.0013954e-07  36532.32      -1823.5098    
      2880   5.0334084e-17 -3506.3411     -563.16976     -9955.8534      8.5727538e-07  36532.32      -1823.5098    
      2890   5.5495861e-17 -3506.3411     -563.16976     -9955.8534      9.7869011e-07  36532.32      -1823.5098    
      2900   6.4710759e-17 -3506.3411     -563.16976     -9955.8534      1.006765e-06   36532.32      -1823.5098    
      2910   6.4211358e-17 -3506.3411     -563.16976     -9955.8534      9.834211e-07   36532.32      -1823.5098    
      2920   5.5004921e-17 -3506.3411     -563.16976     -9955.8534      9.6393217e-07  36532.32      -1823.5098    
      2930   3.9574122e-17 -3506.3411     -563.16976     -9955.8534      9.1245897e-07  36532.32      -1823.5098    
      2940   3.0018886e-17 -3506.3411     -563.16976     -9955.8534      8.3177863e-07  36532.32      -1823.5098    
      2950   3.0161226e-17 -3506.3411     -563.16976     -9955.8534      7.7218789e-07  36532.32      -1823.5098    
      2960   4.3901521e-17 -3506.3411     -563.16976     -9955.8534      7.2284294e-07  36532.32      -1823.5098    
      2970   6.4546477e-17 -3506.3411     -563.16976     -9955.8534      6.718609e-07   36532.32      -1823.5098    
      2980   8.0886966e-17 -3506.3411     -563.16976     -9955.8534      6.3917944e-07  36532.32      -1823.5098    
      2990   8.9535942e-17 -3506.3411     -563.16976     -9955.8534      5.9731426e-07  36532.32      -1823.5098    
      3000   9.0718055e-17 -3506.3411     -563.16976     -9955.8534      5.1455951e-07  36532.32      -1823.5098    
      3010   8.4882787e-17 -3506.3411     -563.16976     -9955.8534      4.0308744e-07  36532.32      -1823.5098    
      3020   7.3297057e-17 -3506.3411     -563.16976     -9955.8534      2.4815845e-07  36532.32      -1823.5098    
      3030   6.4265704e-17 -3506.3411     -563.16976     -9955.8534      2.8895843e-08  36532.32      -1823.5098    
      3040   5.6106135e-17 -3506.3411     -563.16976     -9955.8534     -2.2544438e-07  36532.32      -1823.5098    
      3050   5.0465989e-17 -3506.3411     -563.16976     -9955.8534     -4.9944492e-07  36532.32      -1823.5098    
      3060   5.0881818e-17 -3506.3411     -563.16976     -9955.8534     -7.8983018e-07  36532.32      -1823.5098    
      3070   5.5367595e-17 -3506.3411     -563.16976     -9955.8534     -1.0480564e-06  36532.32      -1823.5098    
      3080   5.7010462e-17 -3506.3411     -563.16976     -9955.8534     -1.2497148e-06  36532.32      -1823.5098    
      3090   5.3822621e-17 -3506.3411     -563.16976     -9955.8534     -1.4100239e-06  36532.32      -1823.5098    
      3100   4.1499182e-17 -3506.3411     -563.16976     -9955.8534     -1.4967071e-06  36532.32      -1823.5098    
      3110   2.6524402e-17 -3506.3411     -563.16976     -9955.8534     -1.4858539e-06  36532.32      -1823.5098    
      3120   1.5711869e-17 -3506.3411     -563.16976     -9955.8534     -1.4246095e-06  36532.32      -1823.5098    
      3130   2.0772591e-17 -3506.3411     -563.16976     -9955.8534     -1.3226607e-06  36532.32      -1823.5098    
      3140   3.6235098e-17 -3506.3411     -563.16976     -9955.8534     -1.1380301e-06  36532.32      -1823.5098    
      3150   5.4382047e-17 -3506.3411     -563.16976     -9955.8534     -8.9109347e-07  36532.32      -1823.5098    
      3160   7.053917e-17  -3506.3411     -563.16976     -9955.8534     -6.2308983e-07  36532.32      -1823.5098    
      3170   7.4286971e-17 -3506.3411     -563.16976     -9955.8534     -3.132387e-07   36532.32      -1823.5098    
      3180   7.2112366e-17 -3506.3411     -563.16976     -9955.8534      3.8491085e-08  36532.32      -1823.5098    
      3190   6.2881996e-17 -3506.3411     -563.16976     -9955.8534      3.8002412e-07  36532.32      -1823.5098    
      3200   5.5923623e-17 -3506.3411     -563.16976     -9955.8534      7.0091033e-07  36532.32      -1823.5098    
      3210   4.7022992e-17 -3506.3411     -563.16976     -9955.8534      1.0011498e-06  36532.32      -1823.5098    
      3220   4.1965654e-17 -3506.3411     -563.16976     -9955.8534      1.219995e-06   36532.32      -1823.5098    
      3230   4.0723607e-17 -3506.3411     -563.16976     -9955.8534      1.327255e-06   36532.32      -1823.5098    
      3240   4.6091272e-17 -3506.3411     -563.16976     -9955.8534      1.3547984e-06  36532.32      -1823.5098    
      3250   5.8950549e-17 -3506.3411     -563.16976     -9955.8534      1.2918259e-06  36532.32      -1823.5098    
      3260   7.0702511e-17 -3506.3411     -563.16976     -9955.8534      1.1230611e-06  36532.32      -1823.5098    
      3270   7.9121193e-17 -3506.3411     -563.16976     -9955.8534      9.1028991e-07  36532.32      -1823.5098    
      3280   7.4712038e-17 -3506.3411     -563.16976     -9955.8534      6.9159305e-07  36532.32      -1823.5098    
      3290   6.7062807e-17 -3506.3411     -563.16976     -9955.8534      4.5126834e-07  36532.32      -1823.5098    
      3300   5.8396741e-17 -3506.3411     -563.16976     -9955.8534      2.2872977e-07  36532.32      -1823.5098    
      3310   5.8323214e-17 -3506.3411     -563.16976     -9955.8534      6.1907505e-08  36532.32      -1823.5098    
      3320   6.3510521e-17 -3506.3411     -563.16976     -9955.8534     -8.7805812e-08  36532.32      -1823.5098    
      3330   7.1213418e-17 -3506.3411     -563.16976     -9955.8534     -2.1683147e-07  36532.32      -1823.5098    
      3340   7.8033618e-17 -3506.3411     -563.16976     -9955.8534     -2.8931274e-07  36532.32      -1823.5098    
      3350   7.5119385e-17 -3506.3411     -563.16976     -9955.8534     -3.5968649e-07  36532.32      -1823.5098    
      3360   6.683034e-17  -3506.3411     -563.16976     -9955.8534     -4.5567074e-07  36532.32      -1823.5098    
      3370   5.4189157e-17 -3506.3411     -563.16976     -9955.8534     -5.1224645e-07  36532.32      -1823.5098    
      3380   3.9623344e-17 -3506.3411     -563.16976     -9955.8534     -5.4632162e-07  36532.32      -1823.5098    
      3390   2.624379e-17  -3506.3411     -563.16976     -9955.8534     -6.1435181e-07  36532.32      -1823.5098    
      3400   1.6079591e-17 -3506.3411     -563.16976     -9955.8534     -6.6078975e-07  36532.32      -1823.5098    
      3410   1.3364116e-17 -3506.3411     -563.16976     -9955.8534     -6.6083139e-07  36532.32      -1823.5098    
      3420   2.1254388e-17 -3506.3411     -563.16976     -9955.8534     -6.7397274e-07  36532.32      -1823.5098    
      3430   3.8254351e-17 -3506.3411     -563.16976     -9955.8534     -6.692835e-07   36532.32      -1823.5098    
      3440   5.9468806e-17 -3506.3411     -563.16976     -9955.8534     -5.9900296e-07  36532.32      -1823.5098    
      3450   7.0577088e-17 -3506.3411     -563.16976     -9955.8534     -5.2134326e-07  36532.32      -1823.5098    
      3460   7.0023347e-17 -3506.3411     -563.16976     -9955.8534     -4.4008424e-07  36532.32      -1823.5098    
      3470   6.0392791e-17 -3506.3411     -563.16976     -9955.8534     -2.9196259e-07  36532.32      -1823.5098    
      3480   5.1330384e-17 -3506.3411     -563.16976     -9955.8534     -1.1358749e-07  36532.32      -1823.5098    
      3490   4.8382755e-17 -3506.3411     -563.16976     -9955.8534      5.2533863e-08  36532.32      -1823.5098    
      3500   5.5075174e-17 -3506.3411     -563.16976     -9955.8534      2.5356234e-07  36532.32      -1823.5098    
      3510   6.594658e-17  -3506.3411     -563.16976     -9955.8534      4.8337351e-07  36532.32      -1823.5098    
      3520   7.1761097e-17 -3506.3411     -563.16976     -9955.8534      6.8644395e-07  36532.32      -1823.5098    
      3530   7.3450298e-17 -3506.3411     -563.16976     -9955.8534      8.7292147e-07  36532.32      -1823.5098    
      3540   6.8664347e-17 -3506.3411     -563.16976     -9955.8534      1.0500769e-06  36532.32      -1823.5098    
      3550   6.2875242e-17 -3506.3411     -563.16976     -9955.8534      1.1864188e-06  36532.32      -1823.5098    
      3560   5.4451717e-17 -3506.3411     -563.16976     -9955.8534      1.2821343e-06  36532.32      -1823.5098    
      3570   4.9594368e-17 -3506.3411     -563.16976     -9955.8534      1.3315856e-06  36532.32      -1823.5098    
      3580   4.600215e-17  -3506.3411     -563.16976     -9955.8534      1.2988688e-06  36532.32      -1823.5098    
      3590   4.6378528e-17 -3506.3411     -563.16976     -9955.8534      1.1856965e-06  36532.32      -1823.5098    
      3600   5.6991227e-17 -3506.3411     -563.16976     -9955.8534      1.0077607e-06  36532.32      -1823.5098    
      3610   7.0298942e-17 -3506.3411     -563.16976     -9955.8534      7.4711826e-07  36532.32      -1823.5098    
      3620   8.2668219e-17 -3506.3411     -563.16976     -9955.8534      4.0778949e-07  36532.32      -1823.5098    
      3630   8.5410314e-17 -3506.3411     -563.16976     -9955.8534      3.1243227e-08  36532.32      -1823.5098    
      3640   7.7437328e-17 -3506.3411     -563.16976     -9955.8534     -3.5863225e-07  36532.32      -1823.5098    
      3650   6.0167245e-17 -3506.3411     -563.16976     -9955.8534     -7.3989794e-07  36532.32      -1823.5098    
      3660   4.0774653e-17 -3506.3411     -563.16976     -9955.8534     -1.0629568e-06  36532.32      -1823.5098    
      3670   3.1134876e-17 -3506.3411     -563.16976     -9955.8534     -1.3011943e-06  36532.32      -1823.5098    
      3680   2.8515151e-17 -3506.3411     -563.16976     -9955.8534     -1.458956e-06   36532.32      -1823.5098    
      3690   3.1715035e-17 -3506.3411     -563.16976     -9955.8534     -1.5173118e-06  36532.32      -1823.5098    
      3700   3.6743821e-17 -3506.3411     -563.16976     -9955.8534     -1.4711179e-06  36532.32      -1823.5098    
      3710   4.0010136e-17 -3506.3411     -563.16976     -9955.8534     -1.3710973e-06  36532.32      -1823.5098    
      3720   4.0904989e-17 -3506.3411     -563.16976     -9955.8534     -1.2403676e-06  36532.32      -1823.5098    
      3730   4.3092545e-17 -3506.3411     -563.16976     -9955.8534     -1.0589813e-06  36532.32      -1823.5098    
      3740   4.6820705e-17 -3506.3411     -563.16976     -9955.8534     -8.5824611e-07  36532.32      -1823.5098    
      3750   4.4800586e-17 -3506.3411     -563.16976     -9955.8534     -6.7988601e-07  36532.32      -1823.5098    
      3760   4.4760079e-17 -3506.3411     -563.16976     -9955.8534     -4.970129e-07   36532.32      -1823.5098    
      3770   4.6670994e-17 -3506.3411     -563.16976     -9955.8534     -2.9789896e-07  36532.32      -1823.5098    
      3780   5.7250634e-17 -3506.3411     -563.16976     -9955.8534     -1.1225646e-07  36532.32      -1823.5098    
      3790   7.3136731e-17 -3506.3411     -563.16976     -9955.8534      7.302516e-08   36532.32      -1823.5098    
      3800   8.9379042e-17 -3506.3411     -563.16976     -9955.8534      2.6165998e-07  36532.32      -1823.5098    
      3810   9.6903753e-17 -3506.3411     -563.16976     -9955.8534      4.0995213e-07  36532.32      -1823.5098    
      3820   8.8058528e-17 -3506.3411     -563.16976     -9955.8534      5.317778e-07   36532.32      -1823.5098    
      3830   7.163325e-17  -3506.3411     -563.16976     -9955.8534      6.5343622e-07  36532.32      -1823.5098    
      3840   5.1015775e-17 -3506.3411     -563.16976     -9955.8534      7.2655837e-07  36532.32      -1823.5098    
      3850   3.9939506e-17 -3506.3411     -563.16976     -9955.8534      7.5644999e-07  36532.32      -1823.5098    
      3860   3.7282547e-17 -3506.3411     -563.16976     -9955.8534      8.0608946e-07  36532.32      -1823.5098    
      3870   4.5618479e-17 -3506.3411     -563.16976     -9955.8534      8.4658538e-07  36532.32      -1823.5098    
      3880   5.6340921e-17 -3506.3411     -563.16976     -9955.8534      8.5510422e-07  36532.32      -1823.5098    
      3890   6.4709151e-17 -3506.3411     -563.16976     -9955.8534      8.9131125e-07  36532.32      -1823.5098    
      3900   7.1029939e-17 -3506.3411     -563.16976     -9955.8534      9.3315469e-07  36532.32      -1823.5098    
      3910   7.1999154e-17 -3506.3411     -563.16976     -9955.8534      9.2004011e-07  36532.32      -1823.5098    
      3920   6.605015e-17  -3506.3411     -563.16976     -9955.8534      8.9073149e-07  36532.32      -1823.5098    
      3930   5.566361e-17  -3506.3411     -563.16976     -9955.8534      8.3653502e-07  36532.32      -1823.5098    
      3940   4.6642411e-17 -3506.3411     -563.16976     -9955.8534      6.7689584e-07  36532.32      -1823.5098    
      3950   3.8604796e-17 -3506.3411     -563.16976     -9955.8534      4.5086273e-07  36532.32      -1823.5098    
      3960   4.0826352e-17 -3506.3411     -563.16976     -9955.8534      2.1997563e-07  36532.32      -1823.5098    
      3970   4.9226933e-17 -3506.3411     -563.16976     -9955.8534     -7.0286733e-08  36532.32      -1823.5098    
      3980   5.868206e-17  -3506.3411     -563.16976     -9955.8534     -4.1232362e-07  36532.32      -1823.5098    
      3990   5.9566037e-17 -3506.3411     -563.16976     -9955.8534     -7.0881831e-07  36532.32      -1823.5098    
      4000   5.1326218e-17 -3506.3411     -563.16976     -9955.8534     -9.5790258e-07  36532.32      -1823.5098    
      4010   3.4390145e-17 -3506.3411     -563.16976     -9955.8534     -1.1807829e-06  36532.32      -1823.5098    
      4020   2.1311141e-17 -3506.3411     -563.16976     -9955.8534     -1.3124055e-06  36532.32      -1823.5098    
      4030   1.9591099e-17 -3506.3411     -563.16976     -9955.8534     -1.3336897e-06  36532.32      -1823.5098    
      4040   2.8879945e-17 -3506.3411     -563.16976     -9955.8534     -1.2847789e-06  36532.32      -1823.5098    
      4050   4.4398367e-17 -3506.3411     -563.16976     -9955.8534     -1.1460815e-06  36532.32      -1823.5098    
      4060   5.9166519e-17 -3506.3411     -563.16976     -9955.8534     -9.0692743e-07  36532.32      -1823.5098    
      4070   7.3438624e-17 -3506.3411     -563.16976     -9955.8534     -6.2500048e-07  36532.32      -1823.5098    
      4080   8.0702499e-17 -3506.3411     -563.16976     -9955.8534     -3.2071785e-07  36532.32      -1823.5098    
      4090   8.7830368e-17 -3506.3411     -563.16976     -9955.8534      1.316717e-08   36532.32      -1823.5098    
      4100   8.5484218e-17 -3506.3411     -563.16976     -9955.8534      3.2549033e-07  36532.32      -1823.5098    
      4110   7.9853262e-17 -3506.3411     -563.16976     -9955.8534      5.7883961e-07  36532.32      -1823.5098    
      4120   6.8315522e-17 -3506.3411     -563.16976     -9955.8534      7.9211337e-07  36532.32      -1823.5098    
      4130   5.7660381e-17 -3506.3411     -563.16976     -9955.8534      9.5238576e-07  36532.32      -1823.5098    
      4140   5.4295142e-17 -3506.3411     -563.16976     -9955.8534      1.0372431e-06  36532.32      -1823.5098    
      4150   5.5952638e-17 -3506.3411     -563.16976     -9955.8534      1.0776517e-06  36532.32      -1823.5098    
      4160   6.3365091e-17 -3506.3411     -563.16976     -9955.8534      1.0786813e-06  36532.32      -1823.5098    
      4170   6.4215405e-17 -3506.3411     -563.16976     -9955.8534      1.0126344e-06  36532.32      -1823.5098    
      4180   6.0705791e-17 -3506.3411     -563.16976     -9955.8534      9.1507268e-07  36532.32      -1823.5098    
      4190   4.9731338e-17 -3506.3411     -563.16976     -9955.8534      8.1493448e-07  36532.32      -1823.5098    
      4200   4.0604713e-17 -3506.3411     -563.16976     -9955.8534      6.6302632e-07  36532.32      -1823.5098    
      4210   3.5280398e-17 -3506.3411     -563.16976     -9955.8534      4.6229267e-07  36532.32      -1823.5098    
      4220   3.8314607e-17 -3506.3411     -563.16976     -9955.8534      2.7669133e-07  36532.32      -1823.5098    
      4230   4.4727936e-17 -3506.3411     -563.16976     -9955.8534      8.8271136e-08  36532.32      -1823.5098    
      4240   5.2632999e-17 -3506.3411     -563.16976     -9955.8534     -1.2726249e-07  36532.32      -1823.5098    
      4250   6.1505625e-17 -3506.3411     -563.16976     -9955.8534     -3.0208645e-07  36532.32      -1823.5098    
      4260   6.5390044e-17 -3506.3411     -563.16976     -9955.8534     -4.2218923e-07  36532.32      -1823.5098    
      4270   6.6871134e-17 -3506.3411     -563.16976     -9955.8534     -5.4131559e-07  36532.32      -1823.5098    
      4280   6.1053742e-17 -3506.3411     -563.16976     -9955.8534     -6.3038396e-07  36532.32      -1823.5098    
      4290   4.855344e-17  -3506.3411     -563.16976     -9955.8534     -6.6775303e-07  36532.32      -1823.5098    
      4300   3.1254277e-17 -3506.3411     -563.16976     -9955.8534     -7.2480158e-07  36532.32      -1823.5098    
      4310   1.9173667e-17 -3506.3411     -563.16976     -9955.8534     -8.0573207e-07  36532.32      -1823.5098    
      4320   1.9913291e-17 -3506.3411     -563.16976     -9955.8534     -8.6319492e-07  36532.32      -1823.5098    
      4330   3.4544698e-17 -3506.3411     -563.16976     -9955.8534     -9.3971333e-07  36532.32      -1823.5098    
      4340   5.525078e-17  -3506.3411     -563.16976     -9955.8534     -1.048839e-06   36532.32      -1823.5098    
      4350   7.2648497e-17 -3506.3411     -563.16976     -9955.8534     -1.1144978e-06  36532.32      -1823.5098    
      4360   7.6840569e-17 -3506.3411     -563.16976     -9955.8534     -1.1260025e-06  36532.32      -1823.5098    
      4370   7.1905424e-17 -3506.3411     -563.16976     -9955.8534     -1.100227e-06   36532.32      -1823.5098    
      4380   6.5272928e-17 -3506.3411     -563.16976     -9955.8534     -9.8647855e-07  36532.32      -1823.5098    
      4390   6.1486592e-17 -3506.3411     -563.16976     -9955.8534     -7.8511819e-07  36532.32      -1823.5098    
      4400   6.3603977e-17 -3506.3411     -563.16976     -9955.8534     -5.4554499e-07  36532.32      -1823.5098    
      4410   7.0168065e-17 -3506.3411     -563.16976     -9955.8534     -2.4809757e-07  36532.32      -1823.5098    
      4420   7.9163215e-17 -3506.3411     -563.16976     -9955.8534      9.9777379e-08  36532.32      -1823.5098    
      4430   8.269023e-17  -3506.3411     -563.16976     -9955.8534      4.2025899e-07  36532.32      -1823.5098    
      4440   8.2851571e-17 -3506.3411     -563.16976     -9955.8534      7.1082027e-07  36532.32      -1823.5098    
      4450   7.7631974e-17 -3506.3411     -563.16976     -9955.8534      9.9780553e-07  36532.32      -1823.5098    
      4460   6.4228098e-17 -3506.3411     -563.16976     -9955.8534      1.2263268e-06  36532.32      -1823.5098    
      4470   4.6109769e-17 -3506.3411     -563.16976     -9955.8534      1.376566e-06   36532.32      -1823.5098    
      4480   2.9496881e-17 -3506.3411     -563.16976     -9955.8534      1.4894956e-06  36532.32      -1823.5098    
      4490   1.801541e-17  -3506.3411     -563.16976     -9955.8534      1.5414869e-06  36532.32      -1823.5098    
      4500   1.9216981e-17 -3506.3411     -563.16976     -9955.8534      1.5016412e-06  36532.32      -1823.5098    
      4510   3.469042e-17  -3506.3411     -563.16976     -9955.8534      1.4033474e-06  36532.32      -1823.5098    
      4520   5.190771e-17  -3506.3411     -563.16976     -9955.8534      1.2454052e-06  36532.32      -1823.5098    
      4530   6.3688981e-17 -3506.3411     -563.16976     -9955.8534      1.0026308e-06  36532.32      -1823.5098    
      4540   6.6612494e-17 -3506.3411     -563.16976     -9955.8534      7.1510861e-07  36532.32      -1823.5098    
      4550   6.0156909e-17 -3506.3411     -563.16976     -9955.8534      4.155202e-07   36532.32      -1823.5098    
      4560   5.0717806e-17 -3506.3411     -563.16976     -9955.8534      8.7466537e-08  36532.32      -1823.5098    
      4570   4.4816854e-17 -3506.3411     -563.16976     -9955.8534     -2.443322e-07   36532.32      -1823.5098    
      4580   4.5147579e-17 -3506.3411     -563.16976     -9955.8534     -5.2876402e-07  36532.32      -1823.5098    
      4590   4.5625484e-17 -3506.3411     -563.16976     -9955.8534     -7.5931704e-07  36532.32      -1823.5098    
      4600   4.7594885e-17 -3506.3411     -563.16976     -9955.8534     -9.3289846e-07  36532.32      -1823.5098    
      4610   5.0459363e-17 -3506.3411     -563.16976     -9955.8534     -1.0312021e-06  36532.32      -1823.5098    
      4620   5.2536991e-17 -3506.3411     -563.16976     -9955.8534     -1.0634147e-06  36532.32      -1823.5098    
      4630   5.8567545e-17 -3506.3411     -563.16976     -9955.8534     -1.0363234e-06  36532.32      -1823.5098    
      4640   6.0437515e-17 -3506.3411     -563.16976     -9955.8534     -9.3963757e-07  36532.32      -1823.5098    
      4650   5.8440824e-17 -3506.3411     -563.16976     -9955.8534     -8.0434198e-07  36532.32      -1823.5098    
      4660   5.0531784e-17 -3506.3411     -563.16976     -9955.8534     -6.6778656e-07  36532.32      -1823.5098    
      4670   4.6753564e-17 -3506.3411     -563.16976     -9955.8534     -5.1219795e-07  36532.32      -1823.5098    
      4680   5.1582442e-17 -3506.3411     -563.16976     -9955.8534     -3.4767936e-07  36532.32      -1823.5098    
      4690   6.4748262e-17 -3506.3411     -563.16976     -9955.8534     -2.3423502e-07  36532.32      -1823.5098    
      4700   8.2049167e-17 -3506.3411     -563.16976     -9955.8534     -1.584987e-07   36532.32      -1823.5098    
      4710   9.2934917e-17 -3506.3411     -563.16976     -9955.8534     -7.3936488e-08  36532.32      -1823.5098    
      4720   9.5441331e-17 -3506.3411     -563.16976     -9955.8534     -1.4921465e-08  36532.32      -1823.5098    
      4730   8.4670112e-17 -3506.3411     -563.16976     -9955.8534      1.6520458e-08  36532.32      -1823.5098    
      4740   6.9719087e-17 -3506.3411     -563.16976     -9955.8534      9.322034e-08   36532.32      -1823.5098    
      4750   5.2432474e-17 -3506.3411     -563.16976     -9955.8534      2.0028694e-07  36532.32      -1823.5098    
      4760   4.0489738e-17 -3506.3411     -563.16976     -9955.8534      2.9637647e-07  36532.32      -1823.5098    
      4770   3.2595915e-17 -3506.3411     -563.16976     -9955.8534      4.4452644e-07  36532.32      -1823.5098    
      4780   3.0833752e-17 -3506.3411     -563.16976     -9955.8534      6.4041567e-07  36532.32      -1823.5098    
      4790   3.4664984e-17 -3506.3411     -563.16976     -9955.8534      7.7772633e-07  36532.32      -1823.5098    
      4800   3.9814685e-17 -3506.3411     -563.16976     -9955.8534      8.7078954e-07  36532.32      -1823.5098    
      4810   4.8895728e-17 -3506.3411     -563.16976     -9955.8534      9.6941256e-07  36532.32      -1823.5098    
      4820   5.1882467e-17 -3506.3411     -563.16976     -9955.8534      9.8757954e-07  36532.32      -1823.5098    
      4830   4.6723337e-17 -3506.3411     -563.16976     -9955.8534      8.9538181e-07  36532.32      -1823.5098    
      4840   3.8176678e-17 -3506.3411     -563.16976     -9955.8534      7.7826002e-07  36532.32      -1823.5098    
      4850   3.2469307e-17 -3506.3411     -563.16976     -9955.8534      6.2057935e-07  36532.32      -1823.5098    
      4860   3.6172943e-17 -3506.3411     -563.16976     -9955.8534      3.7839475e-07  36532.32      -1823.5098    
      4870   5.1121929e-17 -3506.3411     -563.16976     -9955.8534      1.2493536e-07  36532.32      -1823.5098    
      4880   6.9213046e-17 -3506.3411     -563.16976     -9955.8534     -1.1899875e-07  36532.32      -1823.5098    
      4890   8.1459376e-17 -3506.3411     -563.16976     -9955.8534     -4.071162e-07   36532.32      -1823.5098    
      4900   7.9476441e-17 -3506.3411     -563.16976     -9955.8534     -6.9296877e-07  36532.32      -1823.5098    
      4910   6.9821596e-17 -3506.3411     -563.16976     -9955.8534     -9.3200073e-07  36532.32      -1823.5098    
      4920   5.4303007e-17 -3506.3411     -563.16976     -9955.8534     -1.1740222e-06  36532.32      -1823.5098    
      4930   4.3309474e-17 -3506.3411     -563.16976     -9955.8534     -1.3923695e-06  36532.32      -1823.5098    
      4940   3.9557795e-17 -3506.3411     -563.16976     -9955.8534     -1.5055799e-06  36532.32      -1823.5098    
      4950   4.1664069e-17 -3506.3411     -563.16976     -9955.8534     -1.5328415e-06  36532.32      -1823.5098    
      4960   4.915809e-17  -3506.3411     -563.16976     -9955.8534     -1.4923091e-06  36532.32      -1823.5098    
      4970   5.9247271e-17 -3506.3411     -563.16976     -9955.8534     -1.3353365e-06  36532.32      -1823.5098    
      4980   7.4401545e-17 -3506.3411     -563.16976     -9955.8534     -1.076871e-06   36532.32      -1823.5098    
      4990   8.3689495e-17 -3506.3411     -563.16976     -9955.8534     -7.6962869e-07  36532.32      -1823.5098    
      5000   8.8140577e-17 -3506.3411     -563.16976     -9955.8534     -4.1155688e-07  36532.32      -1823.5098    
      5010   8.0170479e-17 -3506.3411     -563.16976     -9955.8534     -3.0171259e-08  36532.32      -1823.5098    
      5020   6.846609e-17  -3506.3411     -563.16976     -9955.8534      3.0379962e-07  36532.32      -1823.5098    
      5030   5.4362158e-17 -3506.3411     -563.16976     -9955.8534      5.843558e-07   36532.32      -1823.5098    
      5040   4.8028195e-17 -3506.3411     -563.16976     -9955.8534      8.2492174e-07  36532.32      -1823.5098    
      5050   5.1309314e-17 -3506.3411     -563.16976     -9955.8534      9.8669318e-07  36532.32      -1823.5098    
      5060   5.4553684e-17 -3506.3411     -563.16976     -9955.8534      1.066436e-06   36532.32      -1823.5098    
      5070   5.8716094e-17 -3506.3411     -563.16976     -9955.8534      1.1124016e-06  36532.32      -1823.5098    
      5080   5.321613e-17  -3506.3411     -563.16976     -9955.8534      1.126776e-06   36532.32      -1823.5098    
      5090   4.3715968e-17 -3506.3411     -563.16976     -9955.8534      1.0934053e-06  36532.32      -1823.5098    
      5100   3.0837772e-17 -3506.3411     -563.16976     -9955.8534      1.0425305e-06  36532.32      -1823.5098    
      5110   2.411596e-17  -3506.3411     -563.16976     -9955.8534      9.9131409e-07  36532.32      -1823.5098    
      5120   2.2418196e-17 -3506.3411     -563.16976     -9955.8534      9.2247599e-07  36532.32      -1823.5098    
      5130   2.4239318e-17 -3506.3411     -563.16976     -9955.8534      8.4376181e-07  36532.32      -1823.5098    
      5140   3.171101e-17  -3506.3411     -563.16976     -9955.8534      7.6444554e-07  36532.32      -1823.5098    
      5150   4.4647078e-17 -3506.3411     -563.16976     -9955.8534      6.6297938e-07  36532.32      -1823.5098    
      5160   6.1715993e-17 -3506.3411     -563.16976     -9955.8534      5.4273825e-07  36532.32      -1823.5098    
      5170   7.7549598e-17 -3506.3411     -563.16976     -9955.8534      4.228739e-07   36532.32      -1823.5098    
      5180   8.6760873e-17 -3506.3411     -563.16976     -9955.8534      2.823416e-07   36532.32      -1823.5098    
      5190   8.2265675e-17 -3506.3411     -563.16976     -9955.8534      1.1125943e-07  36532.32      -1823.5098    
      5200   6.7085033e-17 -3506.3411     -563.16976     -9955.8534     -6.6766612e-08  36532.32      -1823.5098    
      5210   5.1871672e-17 -3506.3411     -563.16976     -9955.8534     -2.5863974e-07  36532.32      -1823.5098    
      5220   4.4854111e-17 -3506.3411     -563.16976     -9955.8534     -4.6481246e-07  36532.32      -1823.5098    
      5230   4.776637e-17  -3506.3411     -563.16976     -9955.8534     -6.457452e-07   36532.32      -1823.5098    
      5240   5.8583152e-17 -3506.3411     -563.16976     -9955.8534     -8.0780515e-07  36532.32      -1823.5098    
      5250   6.8303702e-17 -3506.3411     -563.16976     -9955.8534     -9.7101646e-07  36532.32      -1823.5098    
      5260   7.1839587e-17 -3506.3411     -563.16976     -9955.8534     -1.0851547e-06  36532.32      -1823.5098    
      5270   6.6754747e-17 -3506.3411     -563.16976     -9955.8534     -1.1384603e-06  36532.32      -1823.5098    
      5280   6.2341491e-17 -3506.3411     -563.16976     -9955.8534     -1.1828289e-06  36532.32      -1823.5098    
      5290   5.5870261e-17 -3506.3411     -563.16976     -9955.8534     -1.184836e-06   36532.32      -1823.5098    
      5300   5.2186052e-17 -3506.3411     -563.16976     -9955.8534     -1.0954277e-06  36532.32      -1823.5098    
      5310   5.2370912e-17 -3506.3411     -563.16976     -9955.8534     -9.7164402e-07  36532.32      -1823.5098    
      5312   5.2652081e-17 -3506.3411     -563.16976     -9955.8534     -9.4553506e-07  36532.32      -1823.5098    
Loop time of 2.74431 on 8 procs for 5000 steps with 256 atoms

Performance: 157.416 ns/day, 0.152 hours/ns, 1821.949 timesteps/s, 466.419 katom-step/s
72.1% CPU use with 8 MPI tasks x 1 OpenMP threads

MPI task timing breakdown:
Section |  min time  |  avg time  |  max time  |%varavg| %total
---------------------------------------------------------------
Pair    | 0.000784   | 0.60478    | 2.6328     | 135.2 | 22.04
Neigh   | 0          | 0          | 0          |   0.0 |  0.00
Comm    | 0.000702   | 0.07358    | 0.51214    |  61.7 |  2.68
Output  | 0.012963   | 0.21684    | 0.28554    |  25.2 |  7.90
Modify  | 0.000538   | 0.0017692  | 0.005737   |   4.8 |  0.06
Other   |            | 1.847      |            |       | 67.32

Nlocal:             32 ave         144 max           0 min
Histogram: 6 0 0 0 0 0 0 1 0 1
Nghost:            137 ave         564 max           0 min
Histogram: 6 0 0 0 0 0 0 0 0 2
Neighs:            948 ave        4872 max           0 min
Histogram: 6 0 0 0 0 1 0 0 0 1
FullNghs:         1896 ave        8440 max           0 min
Histogram: 6 0 0 0 0 0 0 1 0 1

Total # of neighbors = 15168
Ave neighs/atom = 59.25
Neighbor list builds = 0
Dangerous builds = 0

Total wall time: 0:00:03
