# LAMMPS data file written by OVITO
60 atoms
4 atom types
0.0 26.1108913 xlo xhi
0.0 22.6126938 ylo yhi
0.0 14.0797577 zlo zhi
-13.0554123 6.2887473e-04 -7.6809588e-04 xy xz yz

Masses

1  12.000
2  12.000
3  1.001
4  0.001

Atoms

1 1 1 -1.6830551 7.9778944 7.91323
2 1 1 -3.8695252 8.5620442 8.2932396
3 1 1 1.3405249 4.0721045 7.91324
4 1 1 2.3631249 3.4599247 8.6547404
5 1 1 2.9396548 5.6735549 8.2932396
6 1 1 -1.6642051 9.1695738 8.6547404
7 1 1 10.089035 1.2208746 8.2932396
8 1 1 9.5016546 3.4064846 7.91323
9 1 1 8.4602051 2.8269747 8.6547404
10 1 2 -3.015305 7.6215048 7.7005902
11 1 2 -3.052665 9.5912543 8.8147202
12 1 2 3.422545 4.4515348 8.8147202
13 1 2 1.698005 5.4040547 7.7006002
14 1 2 8.7892447 1.4136946 8.8147202
15 1 2 10.4764347 2.4309247 7.7005902
16 1 1 -8.2107611 19.2842407 7.91323
17 1 1 -10.3972311 19.868391 8.2932396
18 1 1 -5.1871815 15.3784514 7.91324
19 1 1 -4.1645813 14.7662716 8.6547404
20 1 1 -3.5880513 16.9799024 8.2932396
21 1 1 -8.1919117 20.4759217 8.6547404
22 1 1 3.5613289 12.5272217 8.2932396
23 1 1 2.9739486 14.7128315 7.91323
24 1 1 1.932499 14.1333218 8.6547404
25 1 2 -9.5430107 18.9278526 7.7005902
26 1 2 -9.5803709 20.8976022 8.8147202
27 1 2 -3.1051612 15.7578812 8.8147202
28 1 2 -4.8297014 16.7104016 7.7006002
29 1 2 2.2615385 12.7200413 8.8147202
30 1 2 3.9487286 13.7372713 7.7005902
31 1 1 11.3723908 7.9778944 7.91323
32 1 1 9.1859207 8.5620442 8.2932396
33 1 1 14.3959704 4.0721045 7.91324
34 1 1 15.4185705 3.4599247 8.6547404
35 1 1 15.9951 5.6735549 8.2932396
36 1 1 11.3912411 9.1695738 8.6547404
37 1 1 23.1444817 1.2208746 8.2932396
38 1 1 22.5571003 3.4064846 7.91323
39 1 1 21.5156517 2.8269747 8.6547404
40 1 2 10.0401402 7.6215048 7.7005902
41 1 2 10.0027809 9.5912543 8.8147202
42 1 2 16.4779911 4.4515348 8.8147202
43 1 2 14.7534504 5.4040547 7.7006002
44 1 2 21.8446904 1.4136946 8.8147202
45 1 2 23.5318795 2.4309247 7.7005902
46 1 1 4.8446846 19.2842407 7.91323
47 1 1 2.6582144 19.868391 8.2932396
48 1 1 7.8682642 15.3784514 7.91324
49 1 1 8.8908644 14.7662716 8.6547404
50 1 1 9.4673939 16.9799024 8.2932396
51 1 1 4.8635346 20.4759217 8.6547404
52 1 1 16.6167755 12.5272217 8.2932396
53 1 1 16.0293942 14.7128315 7.91323
54 1 1 14.9879446 14.1333218 8.6547404
55 1 2 3.5124345 18.9278526 7.7005902
56 1 2 3.4750746 20.8976022 8.8147202
57 1 2 9.950285 15.7578812 8.8147202
58 1 2 8.2257443 16.7104016 7.7006002
59 1 2 15.3169842 12.7200413 8.8147202
60 1 2 17.0041733 13.7372713 7.7005902

Velocities

1 0.0 0.0 0.0
2 0.0 0.0 0.0
3 0.0 0.0 0.0
4 0.0 0.0 0.0
5 0.0 0.0 0.0
6 0.0 0.0 0.0
7 0.0 0.0 0.0
8 0.0 0.0 0.0
9 0.0 0.0 0.0
10 0.0 0.0 0.0
11 0.0 0.0 0.0
12 0.0 0.0 0.0
13 0.0 0.0 0.0
14 0.0 0.0 0.0
15 0.0 0.0 0.0
16 0.0 0.0 0.0
17 0.0 0.0 0.0
18 0.0 0.0 0.0
19 0.0 0.0 0.0
20 0.0 0.0 0.0
21 0.0 0.0 0.0
22 0.0 0.0 0.0
23 0.0 0.0 0.0
24 0.0 0.0 0.0
25 0.0 0.0 0.0
26 0.0 0.0 0.0
27 0.0 0.0 0.0
28 0.0 0.0 0.0
29 0.0 0.0 0.0
30 0.0 0.0 0.0
31 0.0 0.0 0.0
32 0.0 0.0 0.0
33 0.0 0.0 0.0
34 0.0 0.0 0.0
35 0.0 0.0 0.0
36 0.0 0.0 0.0
37 0.0 0.0 0.0
38 0.0 0.0 0.0
39 0.0 0.0 0.0
40 0.0 0.0 0.0
41 0.0 0.0 0.0
42 0.0 0.0 0.0
43 0.0 0.0 0.0
44 0.0 0.0 0.0
45 0.0 0.0 0.0
46 0.0 0.0 0.0
47 0.0 0.0 0.0
48 0.0 0.0 0.0
49 0.0 0.0 0.0
50 0.0 0.0 0.0
51 0.0 0.0 0.0
52 0.0 0.0 0.0
53 0.0 0.0 0.0
54 0.0 0.0 0.0
55 0.0 0.0 0.0
56 0.0 0.0 0.0
57 0.0 0.0 0.0
58 0.0 0.0 0.0
59 0.0 0.0 0.0
60 0.0 0.0 0.0
