# LAMMPS data file written by OVITO
196 atoms
4 atom types
0.0 26.1108913 xlo xhi
0.0 22.6126938 ylo yhi
0.0 14.0797577 zlo zhi
-13.0554123 6.2887473e-04 -7.6809588e-04 xy xz yz

Masses

1  12.000
2  12.000
3  1.001
4  0.001

Atoms

1 1 1 0.554918 1.9456346 7.0771799
2 1 1 1.575725 1.2798047 7.79735
3 1 1 -2.6327551 4.6838546 6.1659002
4 1 1 -0.2262191 4.2310448 6.1659002
5 1 1 -1.0373402 6.5415745 6.1659002
6 1 1 -3.4500752 6.8482448 6.65344
7 1 1 -5.6399651 10.0794439 7.6504698
8 1 1 -3.3990052 10.8685446 8.3945799
9 1 1 3.9221352 1.7819848 8.3217697
10 1 1 5.5371452 0.0523396 8.3217697
11 1 1 1.2457349 6.1672049 6.65344
12 1 1 0.5513139 8.3607645 7.0771799
13 1 1 0.6175449 9.5777245 7.7973399
14 1 1 7.856245 0.4751036 8.3945799
15 1 1 6.2275548 2.3158047 8.3217697
16 1 1 6.9658652 4.5989547 7.7973399
17 1 1 4.7018848 4.1128249 8.3945799
18 1 1 5.1389451 6.4481249 7.6504698
19 1 1 3.0358949 7.7897449 7.2014299
20 1 1 3.1324449 10.2353439 7.6504698
21 1 1 11.3634348 2.4410348 6.65344
22 1 1 11.8735352 0.0794356 7.2014299
23 1 1 8.0528946 5.1500745 7.0771699
24 1 1 7.3051248 7.5873046 7.2014198
25 1 1 5.2289548 8.9209442 7.2772999
26 1 2 -0.7087851 1.3918545 6.7829099
27 1 2 -1.5469451 3.7410646 6.06527
28 1 2 0.617765 3.3848148 6.95083
29 1 2 -2.3967252 6.0726347 6.06527
30 1 2 -4.7269449 11.179944 7.92981
31 1 2 2.5875049 2.1294248 8.3570004
32 1 2 4.2071447 0.4443267 8.3200703
33 1 2 4.9266048 2.7378147 8.3200703
34 1 2 0.0473679 5.6427846 6.06528
35 1 2 1.662755 7.5432549 6.7829099
36 1 2 -0.7264741 7.6956048 6.95083
37 1 2 -0.6241391 10.0291443 8.3570004
38 1 2 6.5530849 0.9679946 8.3200703
39 1 2 7.195765 3.2979148 8.3570004
40 1 2 5.6355548 5.1071448 7.92981
41 1 2 3.7332349 6.6614647 7.7331901
42 1 2 1.722805 10.4757443 7.92981
43 1 2 3.7664447 9.0074844 7.3003502
44 1 2 10.5477352 0.0396586 7.7331901
45 1 2 9.2678347 4.3760548 6.95083
46 1 2 8.2051649 6.5213647 6.7828999
47 1 2 5.885265 7.6110945 7.3003502
48 1 2 7.9335748 8.755354 7.7331801
49 1 2 6.0351548 10.1442442 7.3003502
50 1 1 -5.9727884 13.2519817 7.0771799
51 1 1 -4.9519812 12.5861511 7.79735
52 1 1 -9.1604614 15.990202 6.1659002
53 1 1 -6.7539253 15.5373917 6.1659002
54 1 1 -7.5650463 17.8479214 6.1659002
55 1 1 -9.9777814 18.1545906 6.65344
56 1 1 -12.1676712 21.3857918 7.6504698
57 1 1 -9.9267112 22.1748924 8.3945799
58 1 1 -2.6055711 13.0883312 8.3217697
59 1 1 -0.990561 11.3586865 8.3217697
60 1 1 -5.281971 17.4735527 6.65344
61 1 1 -5.9763924 19.6671105 7.0771799
62 1 1 -5.910161 20.8840714 7.7973399
63 1 1 1.3285389 11.7814503 8.3945799
64 1 1 -0.3001514 13.6221514 8.3217697
65 1 1 0.438159 15.905302 7.7973399
66 1 1 -1.8258214 15.4191723 8.3945799
67 1 1 -1.3887611 17.7544709 7.6504698
68 1 1 -3.4918113 19.0960922 7.2014299
69 1 1 -3.3952613 21.5416909 7.6504698
70 1 1 4.8357287 13.7473812 6.65344
71 1 1 5.345829 11.3857823 7.2014299
72 1 1 1.5251885 16.4564209 7.0771699
73 1 1 0.7774186 18.893652 7.2014198
74 1 1 -1.2987514 20.2272911 7.2772999
75 1 2 -7.2364912 12.6982012 6.7829099
76 1 2 -8.0746517 15.047411 6.06527
77 1 2 -5.9099412 14.6911621 6.95083
78 1 2 -8.9244308 17.3789826 6.06527
79 1 2 -11.2546511 22.48629 7.92981
80 1 2 -3.9402014 13.435772 8.3570004
81 1 2 -2.3205614 11.7506733 8.3200703
82 1 2 -1.6011014 14.0441618 8.3200703
83 1 2 -6.4803381 16.949131 6.06528
84 1 2 -4.8649512 18.8496018 6.7829099
85 1 2 -7.2541804 19.0019512 6.95083
86 1 2 -7.151845 21.3354912 8.3570004
87 1 2 0.0253787 12.2743416 8.3200703
88 1 2 0.6680589 14.6042614 8.3570004
89 1 2 -0.8921514 16.4134922 7.92981
90 1 2 -2.7944713 17.9678116 7.7331901
91 1 2 -4.8049011 21.7820912 7.92981
92 1 2 -2.7612615 20.3138313 7.3003502
93 1 2 4.0200291 11.3460055 7.7331901
94 1 2 2.7401285 15.6824017 6.95083
95 1 2 1.6774588 17.8277111 6.7828999
96 1 2 -0.6424413 18.9174424 7.3003502
97 1 2 1.4058685 20.0617008 7.7331801
98 1 2 -0.4925514 21.4505921 7.3003502
99 1 1 13.610364 1.9456346 7.0771799
100 1 1 14.6311703 1.2798047 7.79735
101 1 1 10.4226904 4.6838546 6.1659002
102 1 1 12.8292265 4.2310448 6.1659002
103 1 1 12.0181055 6.5415745 6.1659002
104 1 1 9.6053705 6.8482448 6.65344
105 1 1 7.4154806 10.0794439 7.6504698
106 1 1 9.6564408 10.8685446 8.3945799
107 1 1 16.977581 1.7819848 8.3217697
108 1 1 18.5925904 0.0523396 8.3217697
109 1 1 14.3011809 6.1672049 6.65344
110 1 1 13.6067601 8.3607645 7.0771799
111 1 1 13.6729908 9.5777245 7.7973399
112 1 1 20.9116898 0.4751036 8.3945799
113 1 1 19.283001 2.3158047 8.3217697
114 1 1 20.0213108 4.5989547 7.7973399
115 1 1 17.75733 4.1128249 8.3945799
116 1 1 18.1943913 6.4481249 7.6504698
117 1 1 16.091341 7.7897449 7.2014299
118 1 1 16.187891 10.2353439 7.6504698
119 1 1 24.4188805 2.4410348 6.65344
120 1 1 24.9289818 0.0794356 7.2014299
121 1 1 21.1083412 5.1500745 7.0771699
122 1 1 20.3605709 7.5873046 7.2014198
123 1 1 18.284401 8.9209442 7.2772999
124 1 2 12.3466606 1.3918545 6.7829099
125 1 2 11.5085011 3.7410646 6.06527
126 1 2 13.6732111 3.3848148 6.95083
127 1 2 10.65872 6.0726347 6.06527
128 1 2 8.3285008 11.179944 7.92981
129 1 2 15.6429501 2.1294248 8.3570004
130 1 2 17.2625904 0.4443267 8.3200703
131 1 2 17.98205 2.7378147 8.3200703
132 1 2 13.1028137 5.6427846 6.06528
133 1 2 14.7182007 7.5432549 6.7829099
134 1 2 12.3289719 7.6956048 6.95083
135 1 2 12.4313069 10.0291443 8.3570004
136 1 2 19.6085301 0.9679946 8.3200703
137 1 2 20.2512112 3.2979148 8.3570004
138 1 2 18.691 5.1071448 7.92981
139 1 2 16.7886811 6.6614647 7.7331901
140 1 2 14.7782507 10.4757443 7.92981
141 1 2 16.8218899 9.0074844 7.3003502
142 1 2 23.60318 0.0396586 7.7331901
143 1 2 22.3232803 4.3760548 6.95083
144 1 2 21.2606106 6.5213647 6.7828999
145 1 2 18.9407102 7.6110945 7.3003502
146 1 2 20.9890214 8.755354 7.7331801
147 1 2 19.090601 10.1442442 7.3003502
148 1 1 7.0826573 13.2519817 7.0771799
149 1 1 8.1034641 12.5861511 7.79735
150 1 1 3.8949846 15.990202 6.1659002
151 1 1 6.3015204 15.5373917 6.1659002
152 1 1 5.4903994 17.8479214 6.1659002
153 1 1 3.0776644 18.1545906 6.65344
154 1 1 0.8877746 21.3857918 7.6504698
155 1 1 3.1287344 22.1748924 8.3945799
156 1 1 10.4498749 13.0883312 8.3217697
157 1 1 12.0648842 11.3586865 8.3217697
158 1 1 7.7734747 17.4735527 6.65344
159 1 1 7.0790534 19.6671105 7.0771799
160 1 1 7.1452847 20.8840714 7.7973399
161 1 1 14.3839846 11.7814503 8.3945799
162 1 1 12.7552948 13.6221514 8.3217697
163 1 1 13.4936047 15.905302 7.7973399
164 1 1 11.2296238 15.4191723 8.3945799
165 1 1 11.6666851 17.7544709 7.6504698
166 1 1 9.5636349 19.0960922 7.2014299
167 1 1 9.6601849 21.5416909 7.6504698
168 1 1 17.8911744 13.7473812 6.65344
169 1 1 18.4012756 11.3857823 7.2014299
170 1 1 14.5806341 16.4564209 7.0771699
171 1 1 13.8328648 18.893652 7.2014198
172 1 1 11.7566948 20.2272911 7.2772999
173 1 2 5.8189545 12.6982012 6.7829099
174 1 2 4.9807944 15.047411 6.06527
175 1 2 7.1455045 14.6911621 6.95083
176 1 2 4.1310144 17.3789826 6.06527
177 1 2 1.8007946 22.48629 7.92981
178 1 2 9.1152439 13.435772 8.3570004
179 1 2 10.7348843 11.7506733 8.3200703
180 1 2 11.4543438 14.0441618 8.3200703
181 1 2 6.5751076 16.949131 6.06528
182 1 2 8.1904945 18.8496018 6.7829099
183 1 2 5.8012653 19.0019512 6.95083
184 1 2 5.9036008 21.3354912 8.3570004
185 1 2 13.0808239 12.2743416 8.3200703
186 1 2 13.723505 14.6042614 8.3570004
187 1 2 12.1632938 16.4134922 7.92981
188 1 2 10.2609749 17.9678116 7.7331901
189 1 2 8.2505446 21.7820912 7.92981
190 1 2 10.2941837 20.3138313 7.3003502
191 1 2 17.0754738 11.3460055 7.7331901
192 1 2 15.7955742 15.6824017 6.95083
193 1 2 14.7329045 17.8277111 6.7828999
194 1 2 12.4130039 18.9174424 7.3003502
195 1 2 14.4613142 20.0617008 7.7331801
196 1 2 12.5628948 21.4505921 7.3003502

Velocities

1 0.0 0.0 0.0
2 0.0 0.0 0.0
3 0.0 0.0 0.0
4 0.0 0.0 0.0
5 0.0 0.0 0.0
6 0.0 0.0 0.0
7 0.0 0.0 0.0
8 0.0 0.0 0.0
9 0.0 0.0 0.0
10 0.0 0.0 0.0
11 0.0 0.0 0.0
12 0.0 0.0 0.0
13 0.0 0.0 0.0
14 0.0 0.0 0.0
15 0.0 0.0 0.0
16 0.0 0.0 0.0
17 0.0 0.0 0.0
18 0.0 0.0 0.0
19 0.0 0.0 0.0
20 0.0 0.0 0.0
21 0.0 0.0 0.0
22 0.0 0.0 0.0
23 0.0 0.0 0.0
24 0.0 0.0 0.0
25 0.0 0.0 0.0
26 0.0 0.0 0.0
27 0.0 0.0 0.0
28 0.0 0.0 0.0
29 0.0 0.0 0.0
30 0.0 0.0 0.0
31 0.0 0.0 0.0
32 0.0 0.0 0.0
33 0.0 0.0 0.0
34 0.0 0.0 0.0
35 0.0 0.0 0.0
36 0.0 0.0 0.0
37 0.0 0.0 0.0
38 0.0 0.0 0.0
39 0.0 0.0 0.0
40 0.0 0.0 0.0
41 0.0 0.0 0.0
42 0.0 0.0 0.0
43 0.0 0.0 0.0
44 0.0 0.0 0.0
45 0.0 0.0 0.0
46 0.0 0.0 0.0
47 0.0 0.0 0.0
48 0.0 0.0 0.0
49 0.0 0.0 0.0
50 0.0 0.0 0.0
51 0.0 0.0 0.0
52 0.0 0.0 0.0
53 0.0 0.0 0.0
54 0.0 0.0 0.0
55 0.0 0.0 0.0
56 0.0 0.0 0.0
57 0.0 0.0 0.0
58 0.0 0.0 0.0
59 0.0 0.0 0.0
60 0.0 0.0 0.0
61 0.0 0.0 0.0
62 0.0 0.0 0.0
63 0.0 0.0 0.0
64 0.0 0.0 0.0
65 0.0 0.0 0.0
66 0.0 0.0 0.0
67 0.0 0.0 0.0
68 0.0 0.0 0.0
69 0.0 0.0 0.0
70 0.0 0.0 0.0
71 0.0 0.0 0.0
72 0.0 0.0 0.0
73 0.0 0.0 0.0
74 0.0 0.0 0.0
75 0.0 0.0 0.0
76 0.0 0.0 0.0
77 0.0 0.0 0.0
78 0.0 0.0 0.0
79 0.0 0.0 0.0
80 0.0 0.0 0.0
81 0.0 0.0 0.0
82 0.0 0.0 0.0
83 0.0 0.0 0.0
84 0.0 0.0 0.0
85 0.0 0.0 0.0
86 0.0 0.0 0.0
87 0.0 0.0 0.0
88 0.0 0.0 0.0
89 0.0 0.0 0.0
90 0.0 0.0 0.0
91 0.0 0.0 0.0
92 0.0 0.0 0.0
93 0.0 0.0 0.0
94 0.0 0.0 0.0
95 0.0 0.0 0.0
96 0.0 0.0 0.0
97 0.0 0.0 0.0
98 0.0 0.0 0.0
99 0.0 0.0 0.0
100 0.0 0.0 0.0
101 0.0 0.0 0.0
102 0.0 0.0 0.0
103 0.0 0.0 0.0
104 0.0 0.0 0.0
105 0.0 0.0 0.0
106 0.0 0.0 0.0
107 0.0 0.0 0.0
108 0.0 0.0 0.0
109 0.0 0.0 0.0
110 0.0 0.0 0.0
111 0.0 0.0 0.0
112 0.0 0.0 0.0
113 0.0 0.0 0.0
114 0.0 0.0 0.0
115 0.0 0.0 0.0
116 0.0 0.0 0.0
117 0.0 0.0 0.0
118 0.0 0.0 0.0
119 0.0 0.0 0.0
120 0.0 0.0 0.0
121 0.0 0.0 0.0
122 0.0 0.0 0.0
123 0.0 0.0 0.0
124 0.0 0.0 0.0
125 0.0 0.0 0.0
126 0.0 0.0 0.0
127 0.0 0.0 0.0
128 0.0 0.0 0.0
129 0.0 0.0 0.0
130 0.0 0.0 0.0
131 0.0 0.0 0.0
132 0.0 0.0 0.0
133 0.0 0.0 0.0
134 0.0 0.0 0.0
135 0.0 0.0 0.0
136 0.0 0.0 0.0
137 0.0 0.0 0.0
138 0.0 0.0 0.0
139 0.0 0.0 0.0
140 0.0 0.0 0.0
141 0.0 0.0 0.0
142 0.0 0.0 0.0
143 0.0 0.0 0.0
144 0.0 0.0 0.0
145 0.0 0.0 0.0
146 0.0 0.0 0.0
147 0.0 0.0 0.0
148 0.0 0.0 0.0
149 0.0 0.0 0.0
150 0.0 0.0 0.0
151 0.0 0.0 0.0
152 0.0 0.0 0.0
153 0.0 0.0 0.0
154 0.0 0.0 0.0
155 0.0 0.0 0.0
156 0.0 0.0 0.0
157 0.0 0.0 0.0
158 0.0 0.0 0.0
159 0.0 0.0 0.0
160 0.0 0.0 0.0
161 0.0 0.0 0.0
162 0.0 0.0 0.0
163 0.0 0.0 0.0
164 0.0 0.0 0.0
165 0.0 0.0 0.0
166 0.0 0.0 0.0
167 0.0 0.0 0.0
168 0.0 0.0 0.0
169 0.0 0.0 0.0
170 0.0 0.0 0.0
171 0.0 0.0 0.0
172 0.0 0.0 0.0
173 0.0 0.0 0.0
174 0.0 0.0 0.0
175 0.0 0.0 0.0
176 0.0 0.0 0.0
177 0.0 0.0 0.0
178 0.0 0.0 0.0
179 0.0 0.0 0.0
180 0.0 0.0 0.0
181 0.0 0.0 0.0
182 0.0 0.0 0.0
183 0.0 0.0 0.0
184 0.0 0.0 0.0
185 0.0 0.0 0.0
186 0.0 0.0 0.0
187 0.0 0.0 0.0
188 0.0 0.0 0.0
189 0.0 0.0 0.0
190 0.0 0.0 0.0
191 0.0 0.0 0.0
192 0.0 0.0 0.0
193 0.0 0.0 0.0
194 0.0 0.0 0.0
195 0.0 0.0 0.0
196 0.0 0.0 0.0
