ITEM: TIMESTEP
0
ITEM: NUMBER OF ATOMS
18000
ITEM: BOX BOUNDS pp pp pp
-9.5613229752988360e-02 2.7436613229753256e+01
-9.0864351700602697e-02 2.7431864351700526e+01
-1.1090968952152593e+00 3.2920109689521541e+02
ITEM: ATOMS id type x y z c_peratom fx fy fz 
362 3 5.20233 5.46553 4.08345 -27.9638 1.15264 -1.23762 0.42671 
1801 2 5.27664 2.57234 1.46062 -25.2027 2.09142 1.82239 1.15403 
3061 3 2.52291 5.49687 1.47963 -27.9977 -0.788578 -1.12628 -0.605294 
4502 2 2.68774 2.73256 4.18203 -25.0987 -0.209725 -0.35303 1.19425 
6001 1 1.4137 1.13403 0.295419 -8.17065 -1.26067 0.110878 1.12327 
7501 1 3.96121 4.13013 2.33178 -7.51239 -1.22914 0.366899 0.878262 
9001 1 4.32376 3.79268 -0.315062 -6.68951 -1.33035 -1.13326 3.13262 
10501 1 1.0079 1.48879 3.35528 -7.8737 -0.433967 -1.60616 -1.10725 
12001 1 3.59574 1.3635 2.61403 -7.77689 2.60857 2.26879 2.4411 
13501 1 1.49602 4.03555 0.167067 -7.26251 0.474022 0.0436087 0.551606 
15001 1 1.32524 4.06604 3.06587 -7.99318 -1.23812 1.69694 -0.958393 
16501 1 4.18486 1.41061 0.104936 -7.27074 -1.49075 -3.50455 -0.878899 
16561 1 3.78257 6.396 -0.0878951 -8.41495 0.090495 -0.160005 1.53619 
9002 1 4.46872 3.65146 5.19803 -7.71504 -0.517303 1.2983 0.242997 
15301 1 6.35255 4.03448 3.39091 -6.74747 1.39806 -2.08599 0.407616 
16562 1 3.57709 6.69598 5.43997 -8.53628 0.49817 -1.02527 0.169121 
6302 1 6.38344 0.914779 5.60422 -8.92654 -0.0662529 0.712562 -0.251782 
12061 1 4.12937 6.66641 2.94551 -8.35003 -1.57262 0.014362 -1.12936 
6361 1 6.76378 6.61407 -0.0563926 -7.57645 -0.337467 -0.538518 -0.573024 
6301 1 7.02951 0.947346 -0.235392 -6.46945 -2.45865 0.892983 0.493975 
13801 1 7.2615 3.7516 0.953324 -7.39516 -0.613332 -1.45362 -2.02471 
10801 1 6.81496 1.13883 2.66215 -8.38486 -0.956846 0.326044 1.26094 
662 2 10.965 5.28832 4.58497 -25.3654 -2.88922 2.14351 -1.99924 
2101 2 10.8704 2.69639 1.38932 -24.6141 -0.333409 1.06944 4.70988 
3361 2 8.40609 5.49479 1.57563 -25.8583 2.0492 -0.879614 0.557343 
4802 2 7.54753 2.40853 4.47778 -24.0423 1.39768 2.27133 -1.71398 
6601 1 11.9628 1.51936 -0.017787 -7.96874 -0.664578 -0.290008 1.25581 
7801 1 9.58195 4.08419 3.15667 -6.75466 -2.80538 -0.624884 0.36121 
9301 1 9.8923 4.21434 0.206051 -7.95037 -1.93256 -2.69243 -0.828282 
11101 1 12.4283 1.23319 3.01456 -8.37976 -0.60347 0.218422 -0.647226 
12301 1 9.75015 0.898062 2.89407 -6.99122 -0.683694 0.686061 1.34888 
14101 1 12.5249 4.54084 0.189177 -7.57339 -0.89921 -1.96479 -0.869657 
15601 1 11.9723 4.1466 2.945 -6.56093 2.39759 -2.5752 0.0632092 
16801 1 9.31719 1.41441 0.56902 -6.9177 0.577416 0.465982 -1.47412 
16861 1 9.89171 6.64588 0.472431 -6.43142 0.0459931 0.989657 -1.35342 
11161 1 12.3853 6.6897 2.76229 -7.45522 -0.0775502 2.05309 0.961996 
602 3 10.9476 0.0306111 4.20363 -28.7582 -0.725356 -1.7925 -0.353058 
14102 1 12.1898 3.77602 5.68724 -8.88528 2.66625 1.77584 0.218212 
5102 2 13.5332 2.74276 4.22884 -24.5203 0.495276 -0.333533 -1.33663 
10861 1 6.8257 6.51346 2.45716 -7.22444 -1.81705 1.83638 2.82554 
4801 3 8.12105 2.61486 -0.837537 -28.5225 0.0804406 -0.984561 -0.146646 
6602 1 11.6663 1.14341 5.76619 -7.73028 1.73549 -1.08244 -0.378355 
5101 2 13.5404 2.61448 -1.04267 -25.8247 1.96802 0.0863102 -2.4533 
961 3 16.3243 5.30589 -1.04972 -27.2801 -0.284885 -0.011508 -1.4826 
3661 3 13.7509 5.75218 1.14328 -27.9833 -1.28342 -0.518623 2.13286 
962 2 16.0531 5.44349 4.19178 -24.4629 4.42794 0.70289 -2.59377 
2401 2 16.2737 2.86754 1.71071 -24.7005 0.649012 -2.61205 -1.76869 
3961 3 18.9448 5.20011 1.59679 -28.3481 2.34206 1.25004 -0.453576 
5402 2 19.0535 2.77816 4.43135 -25.2083 -0.568041 -2.00275 0.693539 
6901 1 17.1526 1.47344 -0.0595499 -7.25561 1.69496 -0.155112 0.923825 
8101 1 14.7845 4.1264 2.82494 -8.11632 0.30314 1.10676 -1.02231 
9601 1 14.9295 3.839 0.127529 -8.08496 2.55589 2.69921 0.774997 
11401 1 17.8219 1.20019 2.95189 -7.70024 0.819006 0.984521 -0.759642 
12601 1 15.1423 1.43493 3.0091 -7.60027 -0.301226 -0.117168 0.886916 
14401 1 17.7346 4.1929 0.377106 -8.21102 -3.10061 0.291383 -0.810758 
15901 1 17.6848 4.14192 3.0534 -8.1064 -1.66479 -0.155559 -1.60153 
17101 1 14.6299 1.12789 0.31243 -6.87865 -0.116583 -0.299997 0.681648 
14402 1 17.6811 4.04332 5.5709 -7.35479 -0.329371 0.733911 1.89878 
8401 1 20.2602 4.0621 3.1134 -7.81888 1.3705 0.412476 -2.1739 
17162 1 15.015 6.6748 5.44272 -7.23574 -4.36459 2.40976 1.33803 
9901 1 20.1489 3.59177 0.45488 -6.75882 1.23251 -0.624293 -0.142945 
17401 1 19.7521 0.964903 -0.000458432 -7.63926 0.811592 -0.5347 0.203515 
9902 1 20.5181 4.07162 5.59575 -7.33411 0.350311 1.50282 1.29605 
902 2 16.2348 -0.0134896 4.48188 -25.3438 -2.30208 -0.678904 -1.28662 
9602 1 15.027 4.10637 5.401 -8.12312 -2.66345 -3.14783 4.07091 
12901 1 20.6573 1.30673 3.27714 -8.45558 -3.62061 3.33583 -2.84353 
1501 3 27.3998 2.21671 1.80249 -27.8409 -0.0588425 2.96728 0.000228558 
62 2 27.3567 5.48014 4.14186 -24.2148 2.24389 -2.43845 1.90928 
1262 2 21.7599 5.36897 4.24679 -25.3446 1.13267 0.46697 -0.982857 
2701 2 21.6765 2.548 1.7195 -24.6701 -0.170582 2.23037 -1.98314 
4261 2 24.6915 5.39789 1.36647 -25.1472 -1.28495 -0.446198 3.47315 
5702 2 24.4708 2.29853 4.04731 -24.5465 -1.1305 2.8552 1.09994 
7201 1 22.7138 1.46742 -0.0428823 -7.97457 0.579042 -1.19518 0.428657 
8701 1 25.7135 3.5799 2.81016 -6.75928 2.66404 0.710184 0.581254 
10201 1 26.313 4.21701 0.412067 -7.27326 -1.08294 -2.07599 0.222918 
11701 1 23.2243 1.0889 2.44547 -7.97073 -0.303654 0.404911 2.4621 
13201 1 25.8633 0.948081 3.08995 -7.5565 0.482301 -0.382292 0.537655 
14701 1 23.1942 3.94178 0.210006 -8.4694 -0.940792 3.9089 0.696523 
16201 1 23.1872 3.85023 2.81135 -7.07723 -2.02614 -0.28673 1.66298 
17701 1 26.1085 1.29663 0.717275 -7.50704 -0.544862 0.286508 -3.5817 
13261 1 25.9389 6.50198 3.15041 -7.64586 -1.86463 2.02044 -3.13847 
11761 1 23.0712 6.56599 2.67256 -6.65845 0.946591 -1.11709 -0.605549 
17461 1 20.6531 6.28679 0.299928 -7.03347 0.0477874 -1.06877 -0.440141 
17761 1 26.0118 6.77099 0.165662 -7.87635 -1.28471 1.9136 1.04833 
5701 2 24.3031 2.72137 -1.00185 -23.792 1.34143 -4.40693 -1.58293 
1202 2 21.7156 -0.0281524 4.27735 -23.9201 1.37592 -4.06202 3.36241 
10202 1 25.7739 4.69147 5.5651 -6.9203 4.31012 -3.79471 -3.18673 
7202 1 23.0488 1.05727 5.62164 -8.33616 1.22025 1.87458 -0.79729 
17702 1 25.8816 1.4064 5.68697 -8.35387 -0.903049 0.686409 1.37239 
6061 1 1.04772 6.88922 0.256323 -7.00101 1.48356 -2.61708 -0.73489 
6062 1 0.808135 6.84691 5.56847 -7.61677 -0.0326246 -0.556608 0.452615 
10561 1 1.25846 6.91409 2.80917 -8.44872 0.766752 -1.95882 0.859161 
422 2 5.241 11.1772 4.57841 -24.3913 -0.158227 -0.398697 -2.09741 
1861 2 5.30384 7.70962 1.39731 -25.032 -0.241917 2.08343 0.0512788 
3121 2 2.35877 10.9875 1.64149 -24.4116 -0.345964 -2.48236 -0.167121 
4562 2 2.59392 8.27928 4.0105 -24.2642 -3.28316 -1.71772 2.67998 
6121 1 1.00418 12.3077 0.0226079 -8.05364 0.268633 -0.40344 1.31856 
7561 1 3.70692 9.19993 2.58207 -6.98823 -0.0947615 2.80751 -1.91881 
9061 1 3.94506 8.89951 0.00311505 -7.30565 1.31079 1.0598 -0.596485 
10621 1 1.01851 12.2615 2.92884 -8.51192 0.196748 -0.848965 1.19248 
12121 1 3.79798 12.3022 3.00231 -8.32307 -0.177591 -0.254934 1.31531 
13561 1 1.3479 9.33118 0.277558 -6.95694 -1.25945 2.79961 0.618027 
15061 1 0.898943 9.58189 2.94681 -8.05819 1.23342 1.16373 0.128404 
16621 1 3.77853 11.9248 0.385336 -8.02403 1.20808 -0.894166 -2.09057 
9062 1 3.99618 9.47089 5.35581 -8.35515 -0.233114 1.45916 -1.78952 
10921 1 6.55177 12.3609 3.08672 -8.07958 -0.229413 0.223799 1.04356 
13861 1 6.51215 9.27199 0.297079 -7.88647 1.35942 0.369971 0.477111 
6362 1 6.64707 6.87034 5.23672 -8.39267 -2.98294 -1.04006 1.55973 
6122 1 1.05404 12.6943 5.70555 -8.75588 -1.45209 -2.04169 0.246301 
6421 1 6.56161 11.949 0.556768 -8.10745 -1.79827 1.53307 -2.32292 
15361 1 6.2407 9.35103 3.13636 -7.59549 1.30004 0.744921 -0.512532 
13862 1 6.78175 9.99337 5.68186 -7.76875 -0.591449 -1.03147 -0.367122 
421 2 5.18052 10.4916 -0.990907 -24.3824 -1.74783 2.39376 -0.964129 
1921 3 4.98902 13.3996 1.38754 -28.2269 1.26218 1.21173 1.68425 
13562 1 1.31776 9.57448 5.56147 -7.3762 -1.0116 1.09578 -1.92138 
721 2 10.6383 10.9679 -1.10605 -23.9321 -1.67853 -3.02586 2.33326 
6661 1 12.388 7.0925 -0.116929 -7.79365 1.95427 0.849421 0.128374 
12361 1 9.55657 7.03287 2.98609 -6.46527 -0.117403 -0.152569 1.55179 
722 2 10.4196 11.0254 4.8511 -25.4767 2.07495 2.52021 -2.75539 
2161 2 11.0915 8.16199 1.65137 -25.5295 -1.5161 -0.181777 -0.272364 
3421 2 7.85165 10.7481 1.79894 -25.1916 0.481349 -0.601453 1.05453 
4862 2 7.75719 8.40841 4.38511 -24.5055 3.53785 -0.707662 -0.603446 
6721 1 11.9005 12.2557 0.705599 -8.2229 0.788595 0.976881 -1.25316 
7861 1 9.1795 9.81073 3.31073 -7.15643 -0.284117 -1.78891 1.43588 
9361 1 9.24559 9.1971 0.713093 -7.4411 0.314049 1.00168 -2.48842 
11221 1 11.9129 12.3987 3.72596 -7.10434 -0.276225 -0.207398 -1.45297 
12421 1 9.21058 12.2382 3.31849 -7.27656 -0.0792181 2.37893 -1.40235 
14161 1 12.2238 9.74937 0.18439 -7.964 0.176522 -1.07857 -1.12252 
15661 1 12.3076 9.67193 3.0567 -7.35979 -2.24213 -0.727866 -1.82447 
16921 1 9.18581 11.9665 0.453678 -7.83265 0.655306 0.627171 -1.36115 
3721 2 13.5691 11.0297 1.66515 -25.1639 -0.362969 -0.414483 0.555503 
5162 2 13.6154 8.30123 4.10984 -24.4742 -2.03217 -3.65029 -0.231727 
4922 3 7.93311 13.5912 4.29332 -28.2891 -0.878229 1.60084 0.564998 
4861 2 8.09708 8.2613 -1.09274 -24.6343 0.379358 -2.14116 0.881831 
4921 2 7.74164 13.4618 -0.82488 -24.7161 1.79258 -0.761178 -1.9321 
2221 2 10.6545 13.6189 1.72506 -24.1915 -0.820344 0.278268 3.44855 
5222 2 13.3222 13.6202 4.80494 -24.2397 0.0562624 0.590036 -1.16479 
6961 1 17.8242 6.95417 0.288057 -8.00951 0.275587 -0.385593 -0.724773 
12661 1 14.8856 6.99186 2.55106 -7.75873 0.578888 -1.07464 0.76362 
12961 1 20.4638 6.89345 2.97513 -7.77054 -2.50031 -0.549119 1.21851 
11461 1 17.5433 6.93646 2.97989 -8.18338 0.211531 -1.52657 -0.143065 
17161 1 15.2232 6.89799 0.00896707 -8.69135 -0.625217 -0.675896 -1.36817 
1022 2 16.0478 10.924 4.43851 -24.9382 1.29797 -0.0958632 -0.267955 
2461 2 16.4182 8.27773 1.49359 -24.5526 -0.210403 -0.559443 1.10225 
4021 2 18.8626 10.81 1.61074 -24.9093 2.87645 2.48645 2.04516 
5462 2 18.8338 8.03986 4.34696 -25.0534 0.381203 2.05962 0.557814 
7021 1 17.8415 12.2262 0.352549 -8.35661 -1.89322 2.015 0.0930642 
8161 1 14.8136 9.61296 2.9343 -7.18641 1.83763 0.314566 0.986387 
9661 1 15.3162 9.94504 0.577485 -7.85891 -0.0899949 -0.332886 -2.51292 
11521 1 17.7614 12.1993 3.08984 -7.14012 -0.569162 3.02514 -0.675168 
12721 1 14.9702 12.2807 3.1932 -7.59508 -1.19308 1.56548 -2.48337 
14461 1 17.948 9.63307 -0.00148264 -9.14738 -0.943569 -1.50554 0.572975 
15961 1 17.502 9.69965 3.15619 -7.15978 -1.08816 -2.17287 -1.89659 
17221 1 14.5489 12.5094 0.212659 -7.5684 2.62237 -0.634113 2.94886 
14462 1 17.1306 9.36582 5.7545 -7.86502 0.46633 3.48723 -1.16864 
8461 1 19.9876 9.79582 3.1063 -7.20375 2.47382 -2.74642 -0.664402 
13021 1 20.5026 12.3672 2.71763 -6.74202 -0.802614 0.813936 1.6872 
9962 1 19.9033 9.66425 5.71993 -7.48119 1.3267 -3.23823 -0.209607 
9961 1 20.3827 8.92111 0.0950829 -7.64697 0.256094 1.38612 0.0774598 
17522 1 19.9501 12.1035 5.50186 -6.86348 0.542267 2.22823 -1.06008 
1021 2 16.5888 10.9811 -0.918188 -23.5051 -4.38483 1.95314 -3.23612 
9662 1 14.3003 9.27635 5.75981 -7.25249 3.16125 2.37688 3.09826 
7022 1 17.3801 12.6014 5.76122 -7.53664 -2.12913 -1.16051 0.15514 
7261 1 23.3231 6.96037 -0.00622927 -8.36451 0.342694 -0.667266 -0.726059 
122 2 27.1329 10.8643 4.31824 -24.324 -0.428002 -0.419906 0.0775285 
1561 2 27.3762 8.15222 1.6702 -24.8752 -1.87091 -0.0311158 -1.63762 
17521 1 20.5681 12.0483 0.123758 -6.19494 -1.90956 -0.585166 0.939247 
1322 2 21.4919 10.88 4.34766 -25.7115 0.190593 1.47925 -0.584257 
2761 2 21.6811 7.90124 1.49072 -25.4349 1.82186 0.139955 -0.129492 
4321 2 24.2355 10.8131 1.69423 -25.494 0.19644 1.1352 1.18032 
5762 3 24.431 8.11511 4.67907 -28.6565 -0.976577 1.67745 -4.95231 
7321 1 23.0136 12.5249 0.746998 -6.50894 1.65525 -1.16257 -3.13838 
8761 1 25.8105 9.25486 3.21062 -6.89288 0.235085 -0.79033 -1.60677 
10261 1 25.6672 9.64715 0.329352 -8.40209 1.64525 -1.05103 -0.339495 
11821 1 23.1128 12.5208 3.14979 -6.93242 -0.257236 -0.549625 3.01734 
13321 1 25.6414 11.9121 3.09483 -7.37242 1.316 1.63845 -1.00459 
14761 1 23.0099 9.84644 0.110672 -7.82193 0.101012 -1.06937 -0.13701 
16261 1 22.9703 9.20656 2.88125 -7.28573 -0.291489 2.18384 -0.636759 
17821 1 25.8145 12.3711 0.201501 -7.59412 0.198462 0.380913 0.985732 
10262 1 25.4661 9.82308 5.60856 -8.17793 3.22241 -0.296865 0.123395 
14762 1 22.7608 9.46364 5.53497 -7.74402 1.37076 0.0343231 -0.0336811 
7262 1 23.0455 6.8189 5.31984 -7.64163 -0.0602024 -1.1604 2.99615 
1621 2 27.3752 13.5788 1.71008 -24.3452 -1.24173 1.00739 -2.65377 
1321 3 21.7352 10.9507 -1.03656 -28.7946 -1.081 0.635894 0.238783 
5761 3 24.713 8.21278 -1.02902 -27.4039 -1.02871 -0.185197 -0.466118 
5821 2 24.3401 13.6391 -1.07347 -25.2723 1.62393 -0.0263794 2.43985 
17822 1 25.5918 12.7491 5.6609 -7.31708 1.48083 -2.26296 0.236678 
4622 2 2.45881 13.7296 4.47278 -23.9751 2.83192 -1.6674 -4.4309 
482 3 5.1388 16.5215 4.13473 -29.8102 0.811408 -0.876768 1.25907 
1981 2 5.30691 18.8361 1.60553 -24.4882 -0.997083 4.32153 -2.21104 
3181 2 2.45884 16.2816 1.5514 -26.0713 0.248728 -0.0825214 0.0964601 
4682 3 2.13859 19.4145 4.38095 -29.1293 2.14986 -0.649626 1.38074 
6181 1 1.42443 17.8808 0.470263 -6.75141 -3.00692 1.69087 -1.39575 
7621 1 3.72389 15.1185 3.10578 -7.14822 0.548872 -1.11449 -0.221416 
9121 1 3.94266 14.4716 0.033418 -7.0845 -1.24094 0.267911 0.55039 
10681 1 1.18038 17.8584 3.16228 -7.49323 -0.470188 0.177098 -0.0862811 
12181 1 3.85343 17.6998 2.58845 -7.52456 -0.115314 -0.166596 1.41296 
13621 1 1.23234 15.129 0.0694663 -7.15821 -1.51616 -0.78786 -0.263496 
15121 1 1.22051 14.9571 2.91275 -7.16073 -0.407152 -0.187721 -0.304272 
16681 1 3.6618 17.203 -0.148816 -7.08653 3.16606 0.982827 -0.313384 
13622 1 1.82228 15.4102 5.42632 -7.98685 -1.74654 2.44281 2.41936 
182 2 -0.00460352 16.5351 4.55708 -24.2617 0.463192 -0.5138 -3.63884 
9181 1 3.93681 20.3134 0.115539 -7.75951 -0.552027 -2.09946 -0.642467 
9182 1 3.63318 20.4954 5.65833 -7.27396 0.0910998 1.28583 2.54156 
6481 1 6.71182 17.589 0.383506 -7.85048 -0.353603 -1.01916 0.361795 
15421 1 6.23877 15.3761 2.56704 -6.64145 1.13 -0.125838 -1.10432 
13921 1 6.41941 14.8979 0.0512374 -7.45273 1.98218 -1.97231 2.53569 
10981 1 6.49168 18.0265 3.13311 -8.29086 0.929563 -1.78218 1.17067 
13982 1 6.58527 20.381 5.65094 -7.709 0.381936 0.866237 0.0158756 
13682 1 0.557171 20.3486 5.71047 -6.37233 0.486893 3.92847 -3.10119 
13981 1 6.55788 20.0458 0.1224 -8.01704 0.476247 2.44011 -1.7357 
16682 1 3.90655 17.8895 5.52514 -7.25363 -2.20058 -0.340004 -0.541162 
4981 3 8.01615 18.9679 -1.06456 -28.6071 0.706695 -1.37852 -0.577017 
5221 2 13.1722 13.6831 -0.852552 -24.7548 2.09659 0.669275 -3.42138 
782 2 10.7736 16.3713 4.41911 -24.6009 0.943316 1.51863 1.71431 
2281 2 10.5269 19.211 1.60821 -24.8958 2.05254 -0.393383 -0.199645 
3481 3 7.89425 16.5461 1.81963 -27.8036 -0.433385 -1.71782 -0.823942 
4982 2 8.02628 19.2433 4.20074 -24.8963 -2.35039 1.36514 3.26376 
6781 1 12.1171 17.8978 0.434985 -6.93409 -0.848189 1.05597 -2.38265 
7921 1 9.51458 15.1245 3.30413 -8.1372 -2.23454 -1.3365 -2.16004 
9421 1 9.19433 14.6774 0.596402 -7.76158 -1.16856 1.24576 -0.563541 
11281 1 12.1226 17.642 2.84646 -7.45013 -2.34475 2.42554 3.77697 
12481 1 9.09054 17.9398 2.86942 -8.43249 1.82559 -2.52573 0.176544 
14221 1 12.2108 15.2004 0.347125 -8.06738 -2.60157 -1.1234 0.796683 
15721 1 12.2239 15.0138 3.35917 -7.70075 -0.13126 -0.264858 -0.885402 
16981 1 9.45255 17.7332 0.197389 -7.50963 -0.502646 -1.23565 0.690483 
6782 1 11.7385 18.0142 5.68549 -6.95782 0.701907 -2.27674 -2.83895 
3781 2 13.5156 16.3566 1.88349 -25.628 -0.0177347 -0.451698 -2.08045 
5282 2 13.4734 19.3156 4.28396 -24.5712 -1.47007 -1.52427 1.39916 
7981 1 9.13012 20.4979 2.86034 -7.33254 1.0653 1.23962 -0.741809 
9481 1 9.31259 20.3371 0.0708145 -8.24408 0.345302 0.95741 -0.128125 
13922 1 7.03603 15.3185 4.87147 -6.58806 1.23886 -0.132962 1.50119 
5281 2 13.4605 19.1826 -0.913715 -25.264 0.393627 -1.14287 -1.70967 
14282 1 12.2183 20.4499 5.66624 -7.81701 -0.892406 3.2837 -0.159352 
2521 2 16.3632 13.7453 1.69533 -23.9252 -0.984565 -0.499859 0.95924 
5522 3 19.272 13.7343 4.29756 -28.8621 -0.0193253 -0.753944 0.705504 
1082 2 16.1903 16.4331 4.25491 -23.6881 -0.849414 0.78131 1.59684 
2581 2 16.1895 18.9623 1.63838 -24.9146 -0.140154 1.27174 -2.28838 
4081 3 19.1052 16.4149 1.76458 -26.9298 -0.127906 0.128065 -1.26929 
5582 2 18.8006 19.2491 4.33763 -23.5519 2.0648 1.1685 1.137 
7081 1 17.3629 17.5955 0.369948 -7.31074 1.90882 -1.72575 0.644852 
8221 1 14.8849 14.9994 3.24665 -7.9258 0.457147 -0.194123 -0.949232 
9721 1 14.8711 15.2782 0.442213 -6.7392 2.40587 -4.6202 0.516692 
11581 1 17.7252 17.9829 3.09291 -8.46346 -0.56071 -1.90977 -1.08649 
12781 1 14.8097 17.8978 3.05946 -8.68072 1.17494 -0.504659 0.862626 
14521 1 18.033 14.7899 0.569472 -8.47 -0.922253 1.34663 1.01739 
16021 1 17.6846 15.4047 3.21417 -8.44111 1.93974 -2.85639 -2.72529 
17281 1 14.7188 17.5434 0.331208 -6.58878 0.274536 4.45241 -0.279792 
14522 1 18.5647 14.9952 5.67162 -5.99933 -2.10079 -0.910141 0.430881 
5521 3 19.0498 13.9166 -0.886086 -28.3975 2.13326 -2.48413 -1.41935 
17581 1 20.3568 17.5888 -0.285624 -8.42205 0.426256 2.55085 1.45386 
16081 1 17.2024 20.509 2.79951 -7.83847 2.23464 1.75991 1.63045 
9781 1 14.9864 20.3817 0.0660236 -7.75137 1.0807 -0.0567218 1.72542 
14581 1 17.7549 20.2564 -0.0210812 -6.8096 -1.01702 0.773326 -0.146237 
17582 1 20.1499 17.7751 5.50089 -7.56934 -0.0674087 1.26422 -1.97243 
1381 3 21.7656 16.2702 -0.935278 -27.9938 1.28725 -0.867331 -0.589452 
2821 3 21.9648 13.971 1.87514 -29.2807 2.05704 -3.91226 -2.66235 
1681 2 27.4221 19.2932 1.62248 -24.5291 0.435659 -6.15977 0.767869 
10021 1 20.6623 15.1871 0.383544 -7.57531 -1.23896 -1.30526 0.240834 
5822 3 24.3594 13.8003 4.47425 -28.4428 0.199731 -1.20918 -0.00320173 
13081 1 20.6747 17.7994 2.58136 -8.71148 -2.71768 -0.460805 -0.822913 
8521 1 20.9117 15.0101 2.83639 -7.78102 -4.07935 3.22587 2.40263 
1382 2 21.737 16.8717 4.24591 -24.2696 -1.31775 -3.9225 -1.27163 
2881 2 21.8338 19.0456 1.14195 -24.148 0.251305 2.18144 1.56275 
4381 2 24.787 16.4581 1.80934 -24.8075 -0.643774 -0.243362 -2.56036 
5882 3 24.4782 19.0363 4.22781 -28.793 1.86256 1.94738 0.160108 
7381 1 23.4247 17.6796 0.247732 -8.6913 -2.02275 0.228912 0.404389 
8821 1 26.2664 15.0821 2.84449 -7.63714 -1.62625 -0.148409 0.816205 
10321 1 25.7655 15.3202 -0.0245706 -7.15471 1.43369 -0.360499 0.629169 
11881 1 23.2098 18.0157 2.97305 -7.65559 0.232941 -2.69582 -0.308785 
13381 1 25.9518 17.8467 3.14972 -8.25477 0.165755 -1.14103 0.259018 
14821 1 23.2712 15.0186 0.464729 -6.73926 -0.763971 0.852312 1.36198 
16321 1 23.6044 15.2636 3.19037 -8.13684 -1.02231 0.137473 1.38727 
17881 1 26.1241 18.0094 -0.128645 -8.03507 0.709669 0.236034 1.30476 
8881 1 26.2114 20.3838 2.80385 -7.18911 -2.91661 2.11638 2.78124 
16381 1 23.4595 20.3807 2.50583 -7.24228 -0.30072 1.93133 -0.528364 
10022 1 20.9335 14.9336 5.37471 -6.57435 2.2949 -0.566981 0.154452 
14882 1 23.0082 20.0482 4.99923 -7.18146 -3.14081 -1.02209 1.7171 
302 2 5.03731 27.0395 4.60181 -23.2772 1.21227 0.746657 -0.0935871 
3001 2 2.52489 27.3508 1.73529 -24.4265 -0.913183 -1.29716 -2.80263 
15481 1 6.57568 20.7394 2.692 -6.81141 -0.837731 -1.45322 0.83361 
7681 1 3.88799 20.6934 3.14631 -6.71998 -0.277803 0.487829 -1.52621 
15181 1 1.22925 20.682 3.15785 -7.35917 0.142034 1.06935 0.0701356 
13681 1 0.905802 20.6368 0.584721 -6.81891 2.88655 2.19328 -3.35915 
542 2 5.35421 21.9253 4.47623 -25.6988 -2.37647 -2.1309 -1.27917 
2041 2 5.15159 24.3529 1.3967 -24.5236 0.799334 1.13935 2.44402 
3241 2 2.47344 22.0553 1.68253 -25.3795 -2.35798 -2.18262 2.77674 
4742 3 2.50791 24.6673 4.59355 -28.3879 0.444831 -1.1263 -0.0295806 
6241 1 0.979772 23.1059 0.333603 -7.48669 -0.00704232 2.81025 -0.926437 
7741 1 3.56059 26.3408 3.36205 -7.69943 -1.84681 -1.33743 0.132679 
9241 1 3.77945 25.8211 0.526564 -7.84006 0.970761 0.791036 -1.04509 
10741 1 1.0689 23.4586 3.08653 -7.64232 -1.10988 0.387043 0.692322 
12241 1 3.57307 23.7018 3.12062 -7.3472 1.55412 -1.49619 -1.22118 
13741 1 1.4079 25.833 0.0339494 -8.09475 -3.77242 0.957072 1.7464 
15241 1 0.890185 26.2549 2.65687 -8.21542 -1.47156 0.0834662 1.05609 
16741 1 3.78159 22.8919 0.337299 -8.00356 2.68854 2.54494 -1.81141 
11041 1 6.43577 23.2597 3.1375 -6.70828 0.129078 -0.28718 -3.97587 
14041 1 6.42276 25.9423 0.0100831 -7.53447 0.0538485 -1.73324 1.39293 
13742 1 1.09685 25.6547 5.72718 -8.09733 -0.0841268 2.19588 -0.377758 
15541 1 6.28242 25.6925 2.98379 -7.30979 -1.66659 3.42181 -0.203103 
6542 1 6.75565 23.1756 5.54062 -7.09295 0.574702 -0.739137 4.14633 
3301 3 8.08416 27.304 1.73689 -28.693 0.530329 0.886788 -2.37622 
15781 1 11.732 20.9647 3.01589 -7.06386 2.41374 -3.91656 -1.98678 
3601 2 13.4929 27.3889 1.57549 -24.7558 0.32504 -0.87256 1.25961 
14281 1 12.4026 20.674 0.388425 -7.72305 -2.88935 -0.00912211 -0.575822 
6541 1 6.79013 23.1034 0.113803 -9.08486 -4.31608 0.628336 -1.84395 
842 2 10.7636 22.0879 4.39405 -24.6804 -1.9202 1.13907 1.23067 
2341 2 10.6649 24.5048 1.55012 -25.1398 -0.453587 0.717052 0.459107 
3541 2 7.89177 21.8867 1.36979 -24.1541 0.205118 -4.32096 5.38105 
5042 2 7.78949 24.7653 4.3167 -25.8046 2.12229 -3.31268 -0.690726 
6841 1 12.258 23.6309 -0.168337 -7.505 -3.56765 -2.7077 2.7062 
8041 1 8.82019 25.7304 2.77769 -6.67146 1.30353 1.35656 -3.29065 
9541 1 9.40952 25.9925 0.209263 -8.14605 0.28444 -0.520203 -0.66568 
11341 1 12.3867 23.4768 2.61646 -7.28109 -0.656849 -0.310222 0.617529 
12541 1 9.47906 23.2685 3.14883 -6.78623 -0.562277 -0.335607 -2.26617 
14341 1 12.4241 26.3011 0.0243105 -7.7484 -0.951805 -0.233491 -0.675385 
15841 1 11.7355 25.9224 2.82221 -7.32131 0.538394 2.43058 -0.305674 
17041 1 9.31967 22.977 0.384202 -8.21869 3.65031 2.61832 -1.57076 
5342 2 13.4064 24.7121 4.29805 -25.1737 0.162703 0.188334 -1.74804 
9542 1 9.47018 26.405 5.10274 -7.07009 -1.59755 0.468979 2.8993 
3841 2 13.6288 22.1397 1.41481 -25.035 0.544691 -0.625405 -0.568123 
5041 2 7.94877 24.5774 -1.03949 -24.1546 0.5921 2.26522 -0.0844506 
14342 1 12.1018 25.9985 5.49431 -7.75768 1.00441 3.64174 1.32824 
9482 1 9.56684 20.6702 5.68584 -7.90489 -0.530536 2.3034 -1.03284 
17042 1 9.30361 23.7199 5.64289 -7.05781 0.602367 -1.56572 1.99595 
6842 1 12.015 23.5654 5.46278 -7.79383 -0.506677 -3.80586 1.62996 
3901 3 18.861 27.3574 1.52942 -27.5647 0.381486 0.995822 0.712601 
901 3 16.2336 27.2469 -0.980194 -28.1586 -0.28505 2.98967 0.435007 
8581 1 20.29 20.6334 2.93173 -7.74949 -0.418742 -2.98804 0.781476 
8281 1 14.6351 20.7058 3.15227 -7.91076 -0.0399908 1.13947 -0.449716 
1142 2 16.1847 22.2221 4.26875 -23.4667 -1.10214 -1.835 0.0689979 
2641 2 16.4866 24.622 1.59006 -24.2284 -0.429709 0.308044 -0.23866 
4141 2 18.9733 21.9337 1.67931 -25.4064 0.984721 -0.497815 -1.86226 
5642 2 18.8904 24.934 4.23676 -24.6529 0.196944 -2.80385 2.73171 
7141 1 17.553 23.1242 0.366766 -7.36209 0.353648 0.0256868 -0.598438 
8341 1 14.5167 26.1698 3.2413 -7.40086 0.836484 1.6791 -1.8038 
9841 1 15.2815 25.8803 0.338054 -7.67975 -2.06259 0.346771 0.098453 
11641 1 17.6836 23.2826 2.98299 -8.62448 0.833272 0.642375 1.78321 
12841 1 15.0204 23.4237 2.66305 -8.22018 0.0886153 -0.361059 0.902334 
14641 1 17.7794 26.0697 0.486977 -8.47463 0.40521 0.184105 -2.24392 
16141 1 17.2925 26.0616 3.22026 -7.99722 -0.180645 -0.752171 -1.59781 
17341 1 14.874 23.0772 -0.391267 -7.07809 -0.503601 0.660923 1.76886 
8641 1 19.908 26.0004 2.76745 -7.71772 2.02329 1.32573 -1.59181 
17641 1 20.3145 23.5349 0.246881 -6.80171 0.156457 -3.67178 0.275109 
10141 1 20.5071 25.8922 0.199576 -7.01605 -0.339144 3.64369 -1.40261 
10081 1 20.263 20.5818 0.0974958 -7.35738 0.864563 -0.442899 0.340778 
17642 1 20.3229 23.6304 5.46713 -6.7679 -0.0887088 0.0871625 0.857633 
17342 1 14.6609 23.4367 5.57874 -8.25823 1.81478 -1.93405 0.23862 
10142 1 20.0906 26.4463 5.40649 -7.64326 0.519365 -0.410245 0.92313 
2 2 27.1497 27.4053 4.47372 -24.3365 3.20368 0.236613 -0.675735 
4201 2 24.6491 27.3211 1.38989 -24.6022 -1.29618 0.49861 -0.0824185 
7442 1 23.3278 22.7871 5.50798 -7.06718 -0.98846 2.05108 -0.261108 
242 2 27.2728 22.1338 4.46321 -25.6955 -0.285539 -1.70377 -1.64371 
10381 1 25.7421 20.6678 0.211578 -7.67932 0.33927 -2.70804 -1.9003 
14881 1 22.8396 20.6938 -0.0277891 -6.45947 1.29335 -2.88926 1.47136 
1741 3 27.3562 24.8081 1.52545 -27.905 -1.3965 -2.13366 0.295918 
13141 1 20.563 23.0932 2.94749 -6.34809 -0.760635 1.62303 -1.18436 
1442 2 22.0829 21.6697 3.88522 -25.4075 -0.4891 1.82725 0.0497821 
2941 2 21.81 24.7624 1.57034 -26.0489 -1.06202 -2.84956 -0.168368 
4441 3 24.933 21.6127 1.52719 -28.9834 -3.16987 4.12616 1.78441 
5942 2 24.2852 24.7726 4.27176 -25.3991 1.77405 -2.33732 -0.911107 
7441 1 23.1797 23.2471 -0.082674 -6.17185 -2.55619 0.171867 1.83969 
8941 1 25.6347 25.9835 2.67649 -7.72354 1.35126 -2.77205 1.85846 
10441 1 25.8496 26.2023 -0.0624826 -7.79151 2.3695 -0.900936 -0.207616 
11941 1 23.1446 23.3579 2.79933 -7.01083 0.581876 -0.211246 0.0323254 
13441 1 25.7973 23.0629 2.78043 -6.39032 1.36773 0.0492097 0.282946 
14941 1 23.1915 25.9978 0.351695 -7.5955 0.103712 1.01868 -1.29824 
16441 1 22.7894 26.0335 3.10623 -7.67789 0.61647 -0.0841442 -0.951774 
17941 1 25.7575 23.4058 0.212889 -6.65217 2.35813 -0.323253 1.61419 
14942 1 22.9889 25.9498 5.63531 -7.51519 -0.132048 -0.973122 0.118007 
17942 1 26.0327 23.6936 5.26703 -7.14008 0.571972 0.00216087 2.65391 
10442 1 25.9335 26.1811 5.71633 -8.0894 -1.20248 0.182709 0.820085 
10382 1 25.5418 20.8796 5.53524 -6.72206 0.811476 0.523671 0.773245 
13502 1 1.63816 3.92373 5.81951 -7.42716 -0.858867 0.668174 -0.330673 
16502 1 3.79669 1.17348 5.80395 -7.7798 -0.821493 -0.874366 -0.739921 
6002 1 0.992248 1.14476 6.03454 -7.23485 -0.203507 -1.51622 0.422921 
363 2 5.2595 5.03529 9.719 -24.4871 1.27909 4.41129 2.7119 
1802 2 5.1033 2.58641 7.08236 -24.9092 0.781238 -0.351985 -0.805633 
3062 2 2.24007 5.47259 7.23457 -24.3214 0.177062 2.13311 -1.43359 
4503 3 2.49282 2.84865 9.96406 -27.4134 -0.899253 -1.30036 -0.418664 
6003 1 0.868844 1.39901 11.5549 -7.73397 1.8969 -0.932413 -2.75431 
7502 1 3.98216 4.52566 8.13477 -8.19407 -1.58447 -1.72623 -1.1322 
9003 1 3.63169 3.98198 11.259 -8.48283 1.39947 0.157341 -0.00271305 
10502 1 0.84635 1.29813 8.6945 -8.01319 2.72527 -1.81978 2.17745 
12002 1 3.79881 1.56809 8.54706 -7.58079 -1.34297 0.455447 -0.593071 
13503 1 0.749885 4.47812 11.2667 -7.77647 2.05025 -1.22705 -1.26736 
15002 1 1.23995 3.94059 8.56845 -8.02609 1.4737 1.14053 0.868103 
16503 1 3.31446 1.23972 11.0117 -7.54022 0.785263 -1.16514 1.27265 
16563 1 3.65581 6.73004 10.7371 -6.92051 0.360445 -2.02508 1.19794 
3002 2 2.43839 -0.0838726 7.31561 -24.547 -0.448552 1.12181 -1.24863 
303 2 5.09242 -0.0276834 10.0877 -25.4228 1.16665 -0.395724 -0.918645 
15302 1 6.07649 3.21623 8.9346 -7.34588 -0.182792 2.44565 -0.545835 
6303 1 5.9935 1.57197 11.1493 -7.73136 1.64543 0.0407484 2.05782 
10802 1 6.77693 0.911831 8.48035 -6.78193 -0.211081 -2.31125 -0.810809 
10862 1 6.51018 6.27083 8.1559 -7.07206 -0.719767 -0.468381 0.0647023 
6363 1 6.7007 6.64736 10.921 -7.74403 -0.134596 0.70528 0.482078 
13802 1 7.15529 3.85965 6.07221 -7.35735 -1.55439 0.106992 0.895146 
13803 1 6.88832 4.07417 11.4916 -7.98704 -1.54861 -1.06546 -0.288942 
16802 1 9.03413 1.50451 5.86332 -7.26102 -0.133232 0.0348887 -1.86502 
9302 1 9.73972 4.54691 6.4126 -6.76118 0.974455 -1.39948 -1.41613 
663 3 10.6624 5.49976 9.80206 -29.2917 -1.59849 -1.02217 0.131455 
2102 2 10.8517 2.69955 6.97969 -24.7056 -3.66985 -0.0843069 1.92578 
3362 3 8.03096 5.6051 7.06261 -29.4989 1.47519 -0.775316 -0.0514141 
4803 2 7.93224 2.61871 9.78831 -25.5461 0.48223 0.324008 1.92493 
6603 1 11.836 0.960281 11.1794 -6.88228 -0.113277 1.7229 1.44549 
7802 1 8.9565 4.48538 8.94364 -6.23298 -1.82036 -0.748908 -0.995195 
9303 1 9.71467 4.17006 11.1795 -6.97974 -0.566152 -0.343738 3.45967 
11102 1 12.1205 1.27564 8.49147 -8.25286 -1.64585 -0.839406 -2.43484 
12302 1 9.30526 1.74899 8.37011 -7.62559 2.16715 -1.35347 0.981652 
14103 1 12.2604 3.84785 11.4074 -7.4628 1.64276 -0.584037 -0.824091 
15602 1 11.8851 4.05999 8.5434 -8.12385 -0.343981 -0.552326 -0.925196 
16803 1 9.11114 1.22658 11.268 -7.41281 -1.24712 1.63163 -0.0717055 
3662 2 13.4905 5.35555 7.13557 -23.8972 -2.13955 2.73197 -1.77927 
11162 1 11.8667 6.66368 8.65862 -7.87529 0.585425 0.971496 -0.712805 
6663 1 11.9382 6.65212 11.3584 -7.59506 0.552298 -0.104693 -0.663844 
5103 2 13.3023 2.69192 9.55098 -24.8283 0.453234 0.494771 4.83222 
3663 2 13.4242 5.4825 12.5839 -26.0739 0.429557 0.839508 1.04844 
603 2 10.4365 0.196689 9.58416 -25.1393 0.316926 -1.93819 1.51618 
3363 2 8.16926 5.46938 12.4897 -24.1966 -0.350523 -0.0690481 -2.11722 
17102 1 14.4382 1.32129 5.82411 -8.05671 1.03282 1.16383 -0.911593 
6902 1 17.3093 1.25315 5.77291 -7.47097 1.62643 1.80646 -0.124753 
17402 1 20.2276 1.5761 6.23444 -7.06339 -0.688959 -1.24898 -0.299548 
963 3 16.207 5.24663 9.95023 -28.7147 0.161991 1.61845 -1.49876 
2402 2 16.189 2.70682 6.98557 -24.8022 1.21404 -0.281205 1.463 
3962 2 18.9177 5.56538 7.02504 -25.4327 -1.53424 -2.63673 0.533319 
5403 3 19.0809 2.46283 9.74238 -27.6921 -2.63864 1.07238 -0.0232225 
6903 1 17.2194 1.29942 11.1028 -8.02416 2.09092 -2.02415 0.0553032 
8102 1 14.4841 4.44457 8.71058 -7.78498 2.22348 -3.62865 0.719863 
9603 1 15.0707 4.15588 11.3404 -7.3008 -2.03883 0.284928 -1.82844 
11402 1 17.4397 1.16941 8.46556 -6.78918 1.33272 1.17616 -0.14025 
12602 1 14.8159 1.67201 8.53051 -6.40681 1.9878 0.586371 -5.60164 
14403 1 17.5645 3.93623 11.029 -7.19926 0.941236 0.345511 -0.167658 
15902 1 17.6111 3.98797 8.3773 -7.22845 -2.00928 0.0147378 -0.485847 
17103 1 14.4731 1.02906 10.6552 -6.28185 0.519114 0.388456 5.23503 
9903 1 20.2093 4.1739 11.215 -7.72559 1.78321 -2.42006 -2.72195 