ITEM: TIMESTEP
0
ITEM: NUMBER OF ATOMS
7200
ITEM: BOX BOUNDS xy xz yz pp pp pp
-1.3969359240097674e+00 1.4533293592401117e+02 0.0000000000000000e+00
-1.9408916347967953e-01 2.1784489163479449e+01 0.0000000000000000e+00
4.8660990128253090e-02 2.5711339009871438e+01 0.0000000000000000e+00
ITEM: ATOMS id type x y z c_peratom fx fy fz 
6 1 0.566275 0.505244 1.88364 -7.1871 0.257182 0.779671 2.32332 
1446 1 0.376718 0.439484 7.09592 -8.32231 -0.260923 1.03063 0.620433 
736 1 8.70368 12.7155 2.19532 -7.76909 -0.340242 0.409573 -0.807412 
246 1 -0.733029 3.66334 2.91927 -7.40951 -0.0840861 -0.879562 2.04316 
1686 1 -0.538612 3.51899 8.37661 -8.19567 -0.405063 -1.94434 -0.917486 
3136 1 8.63065 5.60291 12.6089 -8.48024 0.638219 -0.15308 0.751477 
486 1 0.212648 7.9239 2.07279 -7.62934 2.56203 0.0990115 2.4295 
1926 1 0.212407 8.05539 7.55945 -7.93327 -0.689306 -0.974504 -2.85319 
23 1 9.83694 0.668391 5.55795 -8.85484 -0.502461 -2.40603 1.63504 
726 1 -0.403328 11.0587 3.2952 -7.82238 -0.319879 -0.148086 1.53973 
2166 1 -0.401966 11.0193 8.49803 -7.69268 1.68484 -0.0254515 0.0885032 
2423 1 10.469 15.3135 10.7751 -7.25499 -1.9994 1.62732 1.06672 
966 1 0.483335 15.2668 2.04751 -8.39035 -1.37041 -0.812143 -1.43962 
2406 1 0.602459 15.2054 7.13363 -8.30591 -0.433951 2.12611 1.01549 
2183 1 10.6932 12.302 10.0294 -7.87961 0.338749 -2.86146 -1.50239 
1206 1 -0.31747 18.2084 3.00184 -8.29764 -0.583547 0.525179 -0.312968 
2646 1 -0.4146 18.1624 8.22997 -8.94025 -1.54607 0.00850564 -1.62979 
3858 1 7.68973 15.1828 12.444 -8.03748 1.17225 1.86324 0.721323 
12 1 3.39995 0.384944 2.97021 -8.25762 -1.18446 -0.783357 -0.0958356 
1452 1 3.51107 0.228297 7.97024 -8.57806 -2.18575 -0.748542 2.30661 
3846 1 0.324863 15.3065 12.3454 -7.85913 0.564759 0.671993 1.05623 
252 1 3.63526 4.38312 2.45795 -7.02423 0.583887 -0.950418 -1.66449 
1692 1 3.99573 4.44157 7.15212 -7.65896 -0.565581 1.52378 2.76804 
1216 1 8.87356 20.1508 2.02672 -8.02447 -1.4772 1.50243 1.56595 
492 1 3.13913 7.08685 3.2411 -7.96491 -1.15009 2.3222 0.898961 
1932 1 3.32716 7.19059 8.17918 -8.49852 -0.86366 -0.532223 0.685958 
1685 1 -0.765434 4.09902 10.8069 -8.76582 0.0179013 0.379262 1.44135 
732 1 3.91471 11.6929 2.28511 -8.48299 0.48682 -3.12073 2.33854 
2172 1 4.02238 11.8687 7.40533 -7.57061 -0.146253 -2.30116 -0.171783 
2170 1 6.09114 13.2432 8.24482 -8.3881 1.11358 0.934802 1.28741 
972 1 3.17955 14.1725 2.99419 -7.93212 -1.34522 1.73354 1.29086 
2412 1 3.41002 14.4861 8.35198 -7.69112 -1.73189 -1.31343 0.246382 
1460 2 10.6274 2.20371 6.4617 -28.9753 0.0167284 3.6826 -0.052136 
1212 1 3.7228 18.9668 2.71169 -8.11428 0.458454 -0.367309 -2.4997 
2652 1 4.30173 19.0571 7.61984 -6.77426 -3.12677 -1.97912 -2.87168 
2663 1 10.4701 19.5222 9.86205 -8.33649 -1.68667 0.218072 0.939892 
18 1 7.54123 0.640667 2.33514 -8.68545 0.86449 0.510393 -0.683803 
1458 1 7.44855 0.569554 7.4041 -7.9757 2.79303 2.03153 -0.483047 
1223 1 10.4643 19.5829 4.59993 -7.91115 1.73501 -0.749391 0.786386 
258 1 6.82536 3.68588 3.34491 -7.22673 -0.0715825 0.395162 0.490061 
1698 1 7.11985 3.93597 8.4172 -8.12485 -0.961272 0.0865264 1.32656 
2645 1 -0.97951 19.0143 10.826 -7.95598 -1.03884 -0.457667 -0.962853 
498 1 7.83052 8.19966 2.34092 -7.52564 -0.874352 -1.7442 -2.38489 
1938 1 7.85215 8.37145 7.34481 -8.03822 -0.798985 -3.13278 0.894872 
1943 1 9.96935 8.14699 11.2118 -7.85935 0.363898 -0.46683 -1.88167 
738 1 7.0238 10.6391 3.42894 -7.78507 -2.37691 2.41172 -1.07542 
2178 1 7.20853 10.5619 8.56931 -7.92745 -1.61475 1.17652 -2.56562 
260 2 10.4647 6.00291 1.1413 -28.5451 -1.25769 1.0517 1.9982 
978 1 7.26868 15.2913 2.40624 -7.51952 2.08321 1.26963 0.126731 
2418 1 7.87702 15.2334 7.35363 -6.56559 -0.576306 0.0677786 3.65051 
1936 1 9.81807 9.93637 8.31128 -7.72055 -0.173933 0.297975 1.04423 
1218 1 6.83402 18.4039 3.23101 -8.03029 -1.30919 -0.278213 -0.970648 
2658 1 6.99319 18.049 8.36628 -8.25293 -1.52949 -0.843051 0.351826 
6017 1 6.57304 4.40572 0.596113 -7.73446 -0.9414 0.769797 -1.60174 
6251 1 2.7794 7.92355 0.767123 -7.94171 0.99042 1.38787 -0.555201 
976 1 9.07324 17.1309 2.92528 -8.42216 1.18042 -0.28101 -0.552754 
2656 1 8.79006 20.0047 7.31273 -8.00596 -1.18375 0.545214 0.00834826 
3378 1 7.80485 8.13372 12.714 -8.45626 -2.40066 0.0904664 -2.05904 
483 1 1.52039 10.152 0.500385 -7.52992 0.29479 0.555509 -0.262862 
2416 1 9.43647 17.0266 8.14974 -7.59413 -1.12192 0.96459 3.06716 
2660 2 10.3014 20.7967 6.38548 -27.9575 1.78444 -1.97502 -0.241922 
24 1 10.6668 0.308008 2.91215 -8.47486 -3.13909 -1.31327 -1.52735 
1940 2 10.6552 10.0158 6.41334 -28.0552 -0.433697 -3.09884 1.37846 
3612 1 4.18986 11.6408 12.3065 -8.41372 0.771284 0.0376153 2.45775 
725 1 -0.771181 11.6804 6.04649 -7.57402 -2.73756 -0.0952414 -2.01894 
15 1 8.90112 3.24962 0.555391 -8.33235 0.101734 -0.754478 -0.790318 
503 1 10.1046 7.8775 5.68424 -7.96683 0.546239 0.389007 -0.663492 
495 1 8.5657 10.4687 0.489029 -7.85627 0.510735 -3.42652 2.34763 
2176 1 8.84153 12.7928 7.41549 -8.77979 -1.50397 -1.56536 -0.945399 
983 1 9.88063 15.3746 5.75658 -8.33286 1.14499 -3.39663 -1.52576 
2898 1 7.79549 0.893346 12.4941 -7.37033 0.248806 -2.12791 2.51327 
6485 1 -0.71296 11.529 0.590866 -7.86251 0.106872 2.58349 -1.28146 
5 1 -0.515615 1.30076 4.56286 -8.28321 -1.74257 -0.986123 -0.078606 
1445 1 -0.155402 1.17625 9.90322 -8.67251 -1.59916 0.305758 -1.83387 
249 1 5.18458 6.77859 0.424611 -7.0997 -1.0685 -1.55042 0.0240291 
2164 1 1.44539 12.5213 7.2135 -7.07809 1.01628 0.660767 2.82489 
485 1 -0.621838 8.63176 4.86807 -7.75722 2.83601 -1.33934 0.732034 
1925 1 -0.17078 8.61646 9.89289 -7.69749 -1.82214 -0.997946 1.75756 
1204 1 1.58789 20.1252 1.97564 -7.61893 -1.43175 -1.7269 1.01933 
2404 1 2.21015 17.125 8.25329 -8.01766 0.612831 0.368335 -0.36033 
965 1 -0.586125 15.8531 4.643 -8.14663 1.79959 2.23888 1.13411 
2405 1 -0.357031 15.9653 9.80938 -7.68616 -2.65389 -0.56056 -0.331646 
3132 1 4.05143 4.50613 12.3949 -7.74393 -1.01336 -0.512319 0.567398 
1220 2 10.4929 20.9148 1.1521 -29.2089 1.16215 -1.1995 0.343622 
11 1 2.83692 0.906495 5.63331 -7.92202 -0.0907756 -0.150106 -0.74549 
1451 1 2.83404 0.654248 10.8531 -8.5144 1.85196 -0.697672 -1.92497 
251 1 3.0463 4.8925 4.90955 -7.44884 -2.81928 -0.572875 0.13929 
1691 1 3.27982 4.97174 9.93596 -8.08741 -1.32108 0.0149037 -1.147 
491 1 2.34021 7.9759 5.78456 -8.57374 0.374183 -0.520901 -0.827776 
1931 1 2.86291 8.09699 10.8334 -8.60674 -0.575246 -0.997047 -1.81195 
731 1 3.20441 12.2806 5.0893 -8.2504 1.2963 -1.28504 -3.26761 
2171 1 3.30005 12.1122 9.99311 -8.13366 -0.461303 0.214246 -0.0568695 
971 1 2.72742 15.3615 5.4379 -7.74345 0.186291 -0.0849289 -0.0276747 
2411 1 2.75542 15.1993 10.7765 -7.57375 -0.290545 0.968136 0.597877 
1211 1 2.89632 19.4868 5.17753 -7.13843 1.95191 -1.96865 -0.386312 
2651 1 3.24535 19.8646 9.79185 -8.12554 0.90583 -1.16379 1.25732 
17 1 7.04927 1.1262 4.93731 -8.90887 -2.71312 -1.09727 0.182686 
1457 1 6.95438 1.38932 10.269 -7.01543 0.0734089 0.333416 -3.63475 
257 1 6.26516 4.17193 6.03416 -7.17791 -0.0775892 2.31575 -1.63402 
1697 1 6.32697 4.3113 11.2362 -7.32672 0.95018 2.96711 -2.01063 
497 1 6.88846 8.50634 4.73852 -7.24498 0.106425 0.963005 2.4293 
1937 1 6.73722 8.45287 10.1437 -8.38605 2.3672 -0.45184 1.15416 
737 1 6.25751 11.5637 5.71726 -8.82409 2.00503 1.031 2.59037 
2177 1 6.44285 11.7679 10.7511 -8.13812 -0.99169 0.333539 -0.751027 
977 1 6.95412 15.6222 5.28943 -6.72783 -0.778663 1.44695 -4.11308 
2417 1 7.07063 15.4717 10.0142 -8.31024 -2.34015 1.32902 -0.691173 
1217 1 6.25777 19.0127 5.91441 -7.82347 0.485284 1.52009 -1.62742 
2657 1 6.51236 18.9498 10.7903 -8.54248 1.07053 -1.36073 0.203574 
2890 1 5.20217 1.90365 12.3273 -8.16054 -1.49689 -1.93867 2.30697 
1464 1 10.6329 0.184233 8.19404 -8.96561 -2.00288 -2.05959 -2.00915 
1696 1 8.95141 5.41276 7.2675 -8.13018 -0.661755 1.73139 0.810544 
504 1 10.7512 7.05775 3.15578 -8.04776 -0.330526 0.537165 -0.075987 
2900 2 10.536 2.55437 11.5276 -27.988 1.97552 1.05528 1.845 
2644 1 1.5146 20.1065 7.43833 -8.19997 -0.056833 0.410018 -1.23429 
490 1 5.16877 8.95613 2.25769 -8.63686 -1.85789 1.44857 -0.680612 
2420 2 10.3861 16.9611 6.61582 -28.8151 1.50127 2.6039 -0.582964 
970 1 4.974 16.4704 2.46067 -8.03327 0.302221 1.0168 -0.628877 
256 1 8.54807 5.47429 2.30723 -8.125 1.94727 0.860242 -0.45911 
3370 1 4.94715 8.96651 12.491 -8.55614 1.64263 0.0788918 -0.655248 
1210 1 5.63116 20.7793 3.08247 -7.80831 1.361 0.52876 -0.422235 
2 2 -0.392623 2.34839 1.42307 -29.6923 0.717967 -0.0199176 -0.593029 
1442 2 -0.748231 2.23527 6.47359 -27.3869 4.07206 1.3251 -0.746238 
2882 2 -0.277115 2.15714 11.6234 -28.079 0.533228 2.25273 1.03398 
242 2 -0.30551 6.13221 1.34296 -29.668 -3.7498 1.14832 -1.55167 
1682 2 -0.708327 6.18992 6.35251 -28.3362 1.27408 -0.00697294 1.99038 
3122 2 -0.328297 6.16747 11.6998 -27.4162 0.828208 0.96531 -1.7739 
482 2 -0.431845 9.88753 1.67711 -30.0983 0.603672 -1.41595 -2.55045 
1922 2 -0.236004 9.83146 6.71417 -29.1026 -1.0157 0.61053 -0.346543 
3362 2 -0.491759 9.75491 11.5454 -29.3074 -2.14527 3.34937 -0.607783 
722 2 -0.292062 13.502 1.22586 -28.0613 -0.310632 -0.671856 1.18373 
2162 2 -0.266255 13.5525 6.60535 -29.1855 0.161515 -1.44126 -0.84709 
3602 2 -0.774345 13.8259 11.4849 -28.932 3.32004 -1.03787 -1.02612 
962 2 -0.527629 16.9529 1.2771 -28.7928 1.56127 0.24004 -0.857872 
2402 2 -0.637753 16.9335 6.5341 -27.9554 2.40331 1.08792 -2.10552 
3842 2 -0.371062 17.2528 11.561 -29.3068 0.809751 -0.598842 0.385733 
1202 2 -0.388123 20.7473 1.30859 -29.2334 1.44374 0.744217 -0.240286 
2642 2 -0.238745 20.5764 6.26696 -27.6231 0.967459 1.37711 1.7815 
4082 2 -0.529225 20.9368 11.676 -29.2797 1.06144 -2.80848 -0.987091 
8 2 3.06338 2.26709 1.45154 -29.3985 3.6498 0.702987 1.26813 
1448 2 3.55137 2.60652 6.68962 -28.9246 -1.79432 0.0558743 -1.18699 
2888 2 3.43117 2.60566 11.7403 -28.8484 0.91798 0.441346 -2.58569 
248 2 2.976 6.0883 1.50677 -29.2659 1.55225 -0.705371 0.64954 
1688 2 2.86888 6.06125 6.44403 -28.4153 0.796476 0.764678 0.358283 
3128 2 3.27574 6.17926 11.537 -28.7267 -0.253042 0.776165 1.58675 
488 2 3.43786 9.91829 1.50793 -28.116 -1.93796 -1.00791 -1.4437 
1928 2 3.18232 9.85757 6.43266 -28.1523 0.0932983 1.20085 1.66953 
3368 2 3.16177 9.9289 11.5295 -28.6999 2.48254 0.310392 1.78004 
728 2 3.17978 13.2367 1.35146 -28.6027 0.179325 2.91376 -1.28107 
2168 2 3.32665 13.6523 6.45453 -29.5126 -1.88192 0.468182 2.30552 
3608 2 3.31927 13.4 11.9276 -28.6792 -0.414283 1.454 -2.82238 
968 2 3.53909 17.1663 1.26912 -28.4495 -3.55666 -0.430656 1.07016 
2408 2 3.10367 17.2946 6.43049 -29.4407 0.186974 -0.0712852 1.83137 
3848 2 3.39336 17.0325 11.4801 -28.7197 -2.4235 0.190108 1.70652 
1208 2 3.29737 20.7609 1.41976 -28.4081 -0.514352 0.42511 1.14406 
2648 2 3.14211 21.104 6.41144 -28.6508 -0.38074 -3.67216 0.134384 
4088 2 3.49222 20.7114 11.5612 -28.1051 -2.19169 -0.127893 1.4968 
14 2 7.09109 2.70713 1.34743 -29.3341 -0.854203 -0.774589 1.76923 
1454 2 6.95612 2.52896 6.59767 -28.6563 0.493563 -0.143708 0.626542 
2894 2 7.00276 2.66212 11.8073 -29.6845 0.976881 -1.20465 -1.2391 
254 2 6.91321 6.2147 1.47098 -29.3731 0.0922415 1.83489 -1.85825 
1694 2 7.02714 6.27016 6.725 -28.556 0.218015 -0.612075 -2.46097 
3134 2 6.97308 6.55251 11.5602 -28.2232 0.822034 -1.78594 -0.0257775 
494 2 6.78141 9.87142 1.51296 -29.0628 1.69476 -0.836793 -0.834161 
1934 2 6.95934 9.83178 6.45925 -28.0645 -0.778683 -0.838403 0.31847 
3374 2 6.77208 9.79588 11.7434 -28.2321 0.232851 0.860216 -3.25544 
734 2 6.98256 13.6812 1.34176 -29.4796 -0.472311 -0.981307 0.648215 
2174 2 7.13296 13.7176 6.35063 -29.2405 -1.53123 1.18882 0.628802 
3614 2 6.94729 13.4061 11.5971 -28.8407 0.41513 1.36089 1.70247 
974 2 6.96549 17.2768 1.317 -28.8183 -0.00442633 -0.543711 0.690291 
2414 2 6.78403 17.2559 6.45881 -29.5278 -0.756417 -3.07502 1.2298 
3854 2 6.81368 16.9889 11.5666 -27.9205 -0.820966 -0.418212 1.29616 
1214 2 6.95847 21.059 1.37587 -28.6655 -1.00406 -1.25739 -1.06421 
2654 2 6.95014 20.9176 6.19736 -28.4038 -1.45876 -0.225382 3.43741 
4094 2 7.05139 20.9074 11.6294 -28.9037 1.06646 1.51504 0.452107 
3380 2 10.7079 10.0484 11.6095 -29.2596 -0.529118 -0.197319 1.15203 
964 1 2.31182 16.7782 3.20688 -7.76628 -0.368759 1.57233 0.023313 
3850 1 4.85358 16.3916 12.6658 -7.56869 2.59221 -0.142667 0.599105 
6965 1 -0.800547 18.7119 0.469346 -7.92945 -2.30285 2.68778 0.54727 
1690 1 5.99237 6.53575 8.22892 -8.71832 -0.489131 -1.24184 0.947675 
2886 1 0.450556 0.49246 12.3953 -8.44448 1.25742 -0.173338 2.0847 
245 1 -1.2774 4.25373 5.38383 -8.73679 2.07302 -1.16955 4.32125 
730 1 5.65011 13.3678 3.19459 -7.40741 0.607877 -0.0173 0.377766 
20 2 10.7069 2.50284 1.41926 -28.6406 -1.49966 0.10731 1.68887 
963 1 1.40016 17.3189 0.583722 -7.29728 1.30982 2.44776 -0.380865 
1703 1 10.7479 5.01573 9.87857 -8.64589 -0.654807 -1.29074 0.159687 
3604 1 1.56377 12.6065 12.2598 -7.43916 0.430385 1.13053 1.86882 
984 1 10.5351 15.0057 3.02901 -8.7695 0.99992 -0.486499 0.929946 
6977 1 6.49734 19.2661 0.506492 -8.22891 -2.34475 -1.80533 1.38499 
3 1 1.55728 2.95407 0.634171 -7.68274 -1.56332 1.4104 -1.18148 
729 1 5.14902 14.1002 0.660309 -7.82456 -1.12591 -0.2538 -1.8197 
975 1 8.90383 17.9284 0.486092 -7.48348 -1.15612 -1.54405 1.09248 
1450 1 5.21045 1.9551 7.52149 -7.77123 1.40931 -0.485982 -1.67875 
1 2 1.40113 0.823129 4.04218 -28.9744 0.170008 -1.3452 0.0514019 
1441 2 1.68395 0.678555 9.02763 -28.1073 -1.56655 -1.29116 0.505246 
241 2 1.03803 4.20204 3.99109 -29.0982 1.21005 -0.809417 1.00983 
1681 2 1.22328 4.17178 9.45242 -28.3968 0.232352 0.989947 -2.31021 
481 2 1.27406 8.10392 3.91851 -28.1424 -0.912195 -1.15835 0.498997 
1921 2 1.5631 7.96886 9.07688 -28.4471 -0.772055 -1.07321 0.250743 
721 2 1.56396 11.6488 4.06401 -28.7139 -1.84418 1.82602 -0.577613 
2161 2 1.48668 11.6259 9.30616 -28.9618 -1.46097 1.55538 -1.07806 
961 2 1.12949 15.2935 3.87893 -28.7373 2.57516 -0.756349 0.843656 
2401 2 1.53658 15.3038 9.07722 -29.4669 -0.0753071 1.04307 0.501627 
1201 2 1.27702 18.7151 3.89887 -28.7625 2.63465 1.55671 -0.198264 
2641 2 1.21588 18.9512 9.0159 -29.0932 1.90872 0.158342 1.81396 
7 2 5.1041 0.763712 3.84771 -28.4621 0.459713 1.03887 -0.554728 
1447 2 5.00868 0.662424 9.17882 -29.1138 3.56921 1.01192 0.672098 
247 2 4.98458 4.52726 4.14588 -30.5074 0.254407 1.10161 -0.586304 
1687 2 5.19913 4.70244 9.22845 -29.0327 -0.0841439 -1.98729 -0.12043 
487 2 5.03657 8.13393 4.04438 -28.8215 1.09035 -3.58695 -0.439226 
1927 2 5.03324 8.16849 9.03099 -28.2403 -0.513328 -1.08192 0.0815967 
727 2 5.16733 11.8302 4.24954 -27.8749 -1.30557 0.0984396 -2.19402 
2167 2 5.0955 11.7057 8.99594 -28.4839 0.780272 -0.293716 0.878431 
967 2 4.66051 15.2057 3.94545 -29.3653 1.56173 0.714485 1.40202 
2407 2 5.14358 15.1713 9.1906 -28.6904 -0.429718 -0.262542 -2.3488 
1207 2 4.97101 18.994 4.24994 -29.0869 -0.184266 1.3099 -0.560757 
2647 2 5.12093 19.0177 9.22096 -28.6094 1.52378 1.57755 -0.546212 
13 2 8.70866 0.639566 3.93831 -28.0481 1.70938 2.22243 -1.30114 
1453 2 8.77506 0.969879 9.10865 -28.2228 -3.65199 -4.57051 1.59817 
253 2 8.57333 4.45994 4.10115 -30.0847 1.09554 -1.50738 0.326421 
1693 2 8.95795 4.40376 8.98651 -28.0218 -0.179344 0.827145 1.20503 
493 2 8.97473 8.08286 3.90678 -29.0648 -1.30805 -1.56464 1.71175 
1933 2 8.69831 8.45974 9.30231 -28.7272 1.17221 0.111482 -0.573338 
733 2 8.63189 11.5555 4.13284 -28.5866 1.33305 1.8063 -2.59509 
2173 2 8.63182 11.8278 9.21116 -28.5721 0.880865 -0.854245 0.637755 
973 2 8.78595 15.499 4.04035 -28.7769 -3.09397 -1.61434 0.525695 
2413 2 8.90415 15.3848 9.42318 -29.1874 1.0768 -0.0756876 -1.56782 
1213 2 8.72786 18.9018 3.72955 -28.7345 0.476459 1.18354 0.00081904 
2653 2 8.51118 18.8153 9.23089 -28.6556 1.6099 2.27109 -0.535796 
10 1 5.36765 2.04134 2.06069 -7.12946 -2.23719 -1.12055 0.916252 
1443 1 1.04781 2.72349 5.67685 -7.39149 1.14146 3.12883 0.929248 
2883 1 1.59404 2.92029 10.9617 -8.26 -0.681963 0.844834 -0.290558 
3616 1 8.84604 12.2545 12.5718 -7.51859 0.562616 2.34996 -1.12404 
1683 1 0.509831 6.08288 4.69638 -8.43546 0.880753 1.15678 0.850813 
3123 1 0.940322 6.18395 10.1204 -8.54903 0.59035 0.0466531 -0.336734 
16 1 9.23592 2.63046 3.11548 -7.18152 -0.721036 -0.926891 -1.67441 
1923 1 1.46305 10.3514 5.61258 -8.26353 -0.346739 -1.18092 -0.264495 
3363 1 1.41911 10.3499 10.9798 -7.90407 -0.472253 0.614774 -1.95901 
1456 1 9.3876 2.48272 8.45973 -8.45181 -0.194748 2.58225 -3.48506 
2163 1 0.895269 13.625 4.95932 -7.6541 -0.0150536 -1.59719 -2.59035 
3603 1 0.778296 13.6943 9.80284 -7.47127 -0.104479 -2.73783 -0.152394 
724 1 1.24121 12.598 2.0921 -7.97858 1.63215 0.211863 0.984144 
2403 1 1.24209 17.753 5.70408 -7.95345 -0.613534 -2.15515 0.355423 
3843 1 1.37794 17.5754 10.5616 -7.53076 2.05696 0.480992 0.563019 
1463 1 9.82028 0.962655 10.8108 -8.17675 1.43898 -3.09945 0.311159 
2643 1 1.05203 20.8612 4.61338 -8.25257 -2.02364 0.92955 0.394983 
4083 1 0.856646 20.6788 9.9326 -7.15249 -0.378919 2.07475 0.152607 
3620 2 10.6825 13.3282 11.6886 -29.8134 -0.582459 2.10947 0.115739 
1449 1 4.50476 2.70213 4.74087 -7.74806 0.707922 -2.69648 0.45673 
2889 1 4.7123 2.76854 9.84552 -7.01395 -1.26705 -0.907071 0.81666 
4100 2 10.337 20.9762 11.6114 -28.6061 0.648502 -1.00836 -0.870109 
1689 1 5.01453 6.6675 5.37575 -7.54721 -0.787875 -0.15188 2.39499 
3129 1 5.17869 6.63895 10.7015 -8.45885 -1.09427 -0.321735 -0.130566 
2410 1 4.82058 16.1328 7.31688 -6.63354 2.18544 2.11639 2.30928 
1929 1 4.38489 9.84765 4.76964 -8.97628 -0.92954 0.739428 -1.11521 
3369 1 4.74409 9.88428 9.82328 -8.21683 -2.22872 0.860398 1.22958 
3124 1 1.4912 5.3874 12.5025 -8.42438 -1.19017 0.341312 -0.976314 
2169 1 5.10696 14.1254 5.75873 -7.54897 -0.28777 -2.61206 -1.72697 
3609 1 5.00352 14.2133 10.9611 -8.01778 1.6003 -1.76641 -0.157983 
250 1 5.73126 6.14878 2.91808 -7.18524 -0.673472 0.237714 1.43045 
2409 1 4.48329 17.2153 5.16802 -7.79137 2.06758 0.638653 -3.45391 
3849 1 4.84342 17.0287 10.0741 -9.14931 -0.164105 1.03355 -0.55958 
5771 1 2.70099 0.555628 0.359247 -7.81614 -0.158451 -0.49473 -0.320522 
2649 1 4.77344 21.1214 5.35269 -8.20397 3.23315 2.05895 0.458662 
4089 1 5.42244 21.2385 10.7138 -8.24216 -4.28857 0.700202 0.197102 
4096 1 8.77661 19.8705 12.2285 -8.51392 -0.593746 -0.658904 1.58892 
1455 1 8.68183 3.18146 5.75226 -7.55101 0.499196 -1.39956 1.20557 
2895 1 8.89799 3.44707 11.0187 -8.18184 -0.57258 1.15549 -1.36429 
1930 1 4.86225 9.15364 7.23555 -8.61212 2.31118 0.526954 -0.367384 
1695 1 7.79378 6.18625 4.99203 -7.49489 2.19431 -0.489122 -1.83861 
3135 1 8.3896 6.4318 10.0358 -8.55381 -0.279848 -1.27187 -0.97383 
2650 1 5.91402 20.8689 8.22283 -6.50401 -0.544157 -0.370945 -0.0950091 
1935 1 8.7753 10.4256 5.76858 -8.7843 0.792093 1.30837 0.526132 
3375 1 8.60367 10.4104 10.7559 -8.08011 2.12445 -1.81535 0.0520387 
4092 1 4.26374 18.8348 12.3596 -8.29928 -0.650184 1.8755 -1.36443 
2175 1 8.00542 13.4023 4.52102 -7.83258 0.440056 0.0644916 2.11016 
3615 1 8.55675 13.535 10.4237 -8.03669 -0.179952 -0.600997 -1.99256 
496 1 9.48677 9.90556 3.33983 -7.81654 1.35168 -0.272558 -1.66658 
2415 1 8.43759 17.6809 5.36373 -7.88585 2.63949 -0.00917505 1.04219 
3855 1 8.80724 17.348 10.6987 -8.73853 -0.412637 0.694073 0.856615 
2165 1 -1.09771 11.9173 10.7852 -7.27621 -0.0311466 -0.158873 0.148385 
2655 1 8.2531 20.6671 4.66661 -8.82835 -1.53977 1.54545 0.317307 
4095 1 8.15192 21.0327 9.98335 -7.62216 2.14014 -1.20162 -0.984935 
4 1 1.86929 2.44366 3.18361 -7.89323 -0.523682 1.55496 -0.546905 
1444 1 2.39075 2.56001 8.42916 -8.23087 -2.19457 -0.108215 -0.411018 
244 1 1.03216 5.20584 2.29527 -7.71625 3.4911 1.83953 -0.907748 
1684 1 0.922361 5.4132 7.37769 -7.84693 2.83959 0.199473 -0.701125 
484 1 1.92951 9.83252 3.06326 -8.78608 1.60966 -0.56279 0.535498 
1924 1 2.16101 9.72057 8.37193 -8.75373 0.817699 1.58476 -0.496687 
980 2 10.5254 16.9842 1.43437 -28.9836 1.75588 1.37601 -1.39729 
5783 1 9.97734 0.875959 0.229903 -8.21328 -0.468353 -0.675268 2.46277 
2424 1 10.5886 14.4726 8.388 -7.90724 -1.20732 1.18277 -0.46897 
740 2 10.5403 13.4654 1.61949 -28.7709 0.0334376 -1.07775 -0.830485 
2180 2 10.6031 13.417 6.76434 -28.0591 1.28248 2.00599 -2.47149 
3366 1 0.263951 8.53083 12.6825 -7.65897 1.3074 -4.18569 0.383871 
3140 2 10.4393 6.0453 11.6118 -29.0321 0.846174 1.11011 0.230539 
1205 1 -0.87062 18.9278 5.4356 -8.51589 -0.569495 1.65009 1.3868 
1209 1 4.93336 21.6276 0.703551 -8.11601 1.3764 -2.05563 -0.623777 
6743 1 9.84669 15.2248 0.662488 -8.33741 0.328192 0.144022 -0.486729 
6263 1 9.92474 8.0294 0.704152 -8.44174 1.56369 1.26294 -1.15886 
6005 1 -0.694839 4.20435 0.457256 -7.59953 -0.930096 0.547213 -2.68033 
6497 1 6.35502 11.601 0.678658 -7.92212 -1.5825 1.70119 0.279434 
743 1 10.5273 12.6689 4.58969 -8.05717 0.614427 -0.937151 2.49384 
500 2 10.4579 9.94197 1.36877 -28.7567 0.821578 0.769545 0.845658 
263 1 10.5264 4.8759 4.72399 -7.27606 -0.212003 2.77514 1.28786 
1944 1 10.8211 7.29942 8.46994 -7.54854 -1.22165 0.123739 0.312586 
958 1 -1.34534 13.6661 3.16096 -7.42935 1.4102 -0.117947 -2.12843 
4084 1 1.37073 19.6312 12.3601 -7.04555 1.01725 2.48113 -0.288491 
1700 2 10.8041 5.99632 6.71349 -28.9322 -0.650501 2.06805 -0.531878 
6503 1 10.4912 11.989 0.0539819 -7.32201 0.317896 0.425363 -1.42792 
5784 1 10.5082 0.177588 23.4285 -7.56305 1.07335 -0.388078 0.435905 
5766 1 0.482592 0.755844 22.5872 -7.88481 -0.283513 -0.858735 1.7743 
3358 1 -1.21394 6.14443 13.3051 -8.65834 -0.481656 -1.20585 0.665189 
6006 1 -0.520564 3.65569 23.4176 -7.91408 -0.372188 -0.413073 1.20985 
4343 1 10.4712 0.708687 20.9335 -8.66766 -0.906568 1.3281 -2.64293 
6246 1 0.396316 8.13666 22.7966 -7.29511 1.12853 -0.539647 -0.264033 
5544 1 9.35158 19.3117 17.5085 -8.48905 -1.64323 -0.253035 2.76091 
6486 1 -0.406864 10.9963 23.6099 -6.90615 1.9093 0.311319 0.983354 
255 1 8.4267 6.30296 25.2384 -7.5426 -0.712857 0.471669 1.85569 
6726 1 0.401428 15.2662 22.6118 -8.09666 1.59722 0.519623 0.191265 
5526 1 -0.610123 20.1863 18.6981 -7.7393 -0.692749 1.32477 -1.14267 
6966 1 -0.395382 18.0553 23.7871 -8.10743 0.10544 1.7823 -2.84636 
4332 1 2.99264 2.09817 18.8258 -8.23719 -0.532949 0.453263 -2.82589 
5772 1 3.29222 0.0692671 23.5916 -7.93118 -0.5242 -1.10672 -0.678345 
4572 1 2.22779 4.79836 17.4021 -7.33757 -0.115501 -1.65184 2.78259 
6012 1 4.04199 4.51265 22.5551 -8.1191 -1.76561 -1.15097 1.75848 
4812 1 2.8572 9.53274 18.5423 -8.1516 0.945991 0.0424998 0.1709 
6252 1 3.40089 7.39351 23.5546 -8.3816 -1.50338 -0.662198 0.823811 
5052 1 1.65771 12.5932 17.6486 -7.70908 0.402061 -0.513463 1.34912 
6492 1 4.07603 11.737 22.5695 -7.98599 0.270249 -0.700874 2.52869 
5292 1 2.94049 16.891 18.6729 -8.71306 -0.466869 -0.956755 -1.04355 
6732 1 3.45882 14.5631 23.4511 -7.40984 -1.07017 -0.656277 -0.0272734 
5532 1 2.04401 19.667 17.6606 -8.34364 0.392117 -1.41655 -0.623246 
6972 1 4.19201 19.2325 22.623 -8.32884 -0.504209 -1.12687 -0.249467 
4338 1 5.63396 1.09343 17.4156 -7.92913 -0.86796 -0.113898 1.25418 
5778 1 7.61391 0.723775 22.6112 -7.43007 -0.238405 -0.692326 -0.10675 
4578 1 6.41422 5.66086 18.418 -7.23713 2.2725 0.909204 1.50645 
6018 1 6.65142 3.70588 23.6196 -7.07767 1.04802 -0.868141 -0.329742 
4818 1 5.91025 8.65292 17.7313 -8.16676 0.443025 -0.00770371 -1.18512 
6258 1 8.08494 7.9674 22.6528 -7.97847 -0.510866 1.53305 -0.636197 
5058 1 6.95634 12.8985 18.3259 -7.41616 -2.32829 -1.05271 -0.81959 
6498 1 6.90061 11.0674 23.7938 -7.29998 -0.815432 -1.25994 -0.540917 
5298 1 5.69975 15.5268 17.3962 -7.97387 -0.418219 2.3956 1.30559 
6738 1 7.77704 15.3269 22.7005 -7.83562 0.208371 -1.42997 -0.952589 
5538 1 6.7853 20.4085 18.6397 -8.50302 0.967229 -0.0667563 -1.13036 
6978 1 7.1115 18.1363 23.8568 -7.41686 -3.38219 0.017593 -1.71258 
3844 1 2.14705 17.2268 13.1644 -7.78531 -0.550483 -1.75829 1.62748 
5543 1 10.2915 19.1544 20.1957 -7.9072 0.466662 0.639549 -0.427596 
3606 1 -0.304685 10.9974 13.2594 -7.53993 -1.04194 -0.941384 1.4484 
3618 1 6.90747 10.7301 13.3072 -8.15705 0.215003 -0.258132 1.21454 
3126 1 -0.169244 3.20932 13.4894 -7.83193 -0.345028 1.43633 -0.801265 
3856 1 9.73401 17.0029 13.3875 -8.45535 -0.574994 1.54779 -0.664067 
4344 1 10.1964 2.02838 18.4496 -8.23413 0.285872 -1.3978 1.22946 
5060 2 10.4481 13.6289 16.4498 -28.9554 -0.996182 0.448727 2.39043 
6245 1 -0.548065 8.46949 25.3675 -6.03275 0.299531 0.769078 -0.160977 
4824 1 10.315 9.55504 18.5639 -7.74182 -0.845773 -0.250256 -1.19661 
6980 2 10.5422 20.858 21.8247 -28.508 -3.99727 -1.8512 2.51943 
5046 1 -1.07222 12.9562 18.5033 -8.44463 3.94439 0.451401 0.545736 
2885 1 -0.394289 0.667355 15.251 -8.0474 -1.26795 2.39916 -1.52301 
4325 1 -0.662872 0.859834 20.3069 -7.52001 2.21502 -0.200024 0.832873 
4098 1 6.87563 18.2335 13.5927 -8.58621 0.337883 -1.58991 -2.88621 
3125 1 -0.770371 4.55163 15.7377 -7.39193 1.69434 -0.868641 -1.42004 
4565 1 -0.408806 4.58288 20.8576 -7.93486 -1.38565 1.06175 -0.961045 
5064 1 9.46958 12.0071 17.4885 -7.72628 -0.140206 -1.22765 -0.736711 
3365 1 -0.281877 8.1453 15.1669 -8.12372 -0.868903 0.763131 1.38197 
4805 1 -0.908837 8.14069 20.2795 -7.83682 1.14865 -1.30797 -0.357034 
735 1 8.19914 13.5476 25.1522 -7.82549 -1.12407 -1.14145 1.79314 
3605 1 -0.156072 11.9127 15.6819 -8.12529 -2.56739 -0.6628 -0.159308 
5045 1 -0.388014 11.7185 20.9984 -7.51877 -0.93829 2.36549 -2.78019 
6725 1 -0.428096 15.9284 25.0552 -7.79472 -0.648954 -2.44266 1.27515 
3845 1 -0.660955 15.3563 15.0952 -8.25684 3.68956 1.51928 1.08558 
5285 1 -0.768717 15.5875 19.9545 -7.55967 1.104 -2.79451 1.62076 
6257 1 6.64235 8.63525 25.3026 -7.30633 3.65389 0.689026 0.639466 
4085 1 -0.525036 19.0814 15.8078 -7.27824 -0.486627 0.35239 1.15253 
5525 1 -0.347005 19.1171 21.1273 -8.01032 -2.08141 0.572128 0.135579 
1215 1 8.05106 20.9289 25.307 -7.16258 0.665677 2.60497 -0.281482 
2891 1 3.03552 1.04327 15.9732 -8.6547 0.823509 -1.49886 -1.21636 
4331 1 3.27911 0.846807 20.9281 -8.55647 -0.599797 -0.327326 0.902807 
3372 1 3.15814 7.23906 13.4032 -7.72219 1.18437 0.227257 0.467441 
3131 1 3.3953 4.64382 15.0409 -7.59828 0.961839 0.0560959 0.452761 
4571 1 2.93199 4.9044 20.1054 -8.45031 0.00282273 -0.99794 1.26016 
6740 2 10.7137 17.303 21.8847 -29.1691 -3.22444 -0.612723 -0.121026 
3371 1 3.19588 8.13335 16.1441 -7.30468 -1.58576 2.93001 -1.43042 
4811 1 3.20194 8.40327 21.0061 -7.8896 0.285585 -1.47042 -1.01376 
6971 1 3.27102 19.191 25.3559 -9.08982 0.865027 1.1401 1.80302 
3611 1 3.2487 11.8294 15.5262 -7.32418 -0.458397 1.78487 -2.48499 
5051 1 2.93948 11.9318 20.2497 -7.90067 0.0895222 -0.916468 -1.51091 
5777 1 6.76857 1.35208 25.3344 -7.9091 2.3924 0.0982628 0.517196 
3851 1 3.23634 15.6615 15.9701 -8.7867 -1.60539 1.53569 0.167057 
5291 1 3.09361 15.4574 20.8413 -7.74751 0.881411 1.32196 -0.993041 
6020 2 10.5038 5.9989 22.0899 -28.3578 0.94396 0.846187 -2.61488 
4091 1 2.99437 19.1824 15.0528 -7.53394 2.94297 -1.35061 0.82579 
5531 1 3.16561 19.0842 20.1683 -8.43138 -0.91994 1.88431 1.36462 
5304 1 10.0932 16.5909 18.394 -7.97598 0.440569 -0.763039 0.929679 
2897 1 6.82274 0.836749 15.1482 -7.87415 -1.04479 0.780489 -0.321531 
4337 1 6.57478 1.0691 20.2847 -8.64085 2.50804 -0.40973 -0.952038 
489 1 4.40934 9.89649 25.3183 -7.98055 -0.207595 -0.596714 0.849978 
3137 1 6.74648 4.66057 15.9342 -7.64385 0.919579 0.749657 -1.39907 
4577 1 6.68617 4.72591 20.8671 -8.43399 0.813873 -3.43571 -1.1634 
2903 1 10.3575 0.798613 15.5892 -8.04911 1.90067 -0.367941 2.44028 
3377 1 7.05091 8.28406 15.0805 -8.13578 -0.610717 0.477459 1.88158 
4817 1 6.71901 8.25011 20.4125 -8.46935 0.0817183 -0.139071 -0.347493 
5540 2 10.112 20.7551 16.6038 -28.204 1.55258 2.61778 -2.13251 
3617 1 6.94492 11.8706 15.556 -8.43601 0.684971 0.369793 1.25972 
5057 1 6.80275 11.9279 20.9864 -7.7408 -0.556742 -3.01711 -2.22941 
5296 1 7.37571 17.5444 18.7093 -8.38456 -0.0570101 -0.330809 -1.6653 
3857 1 6.7655 15.5535 15.0611 -7.45618 0.937115 -1.80841 -1.42736 
5297 1 6.76193 15.4897 20.2103 -8.34416 -0.0686213 -1.11904 0.879118 
5050 1 4.22631 13.9069 18.5684 -8.65813 -0.990933 -0.609781 0.699652 
4097 1 6.91641 19.2499 15.9533 -8.26215 -0.377 -0.749007 0.311136 
5537 1 6.75779 19.1693 21.1292 -8.11358 0.684862 -0.996746 -0.676407 
5536 1 8.26267 0.382836 17.273 -8.1506 1.42158 -1.76221 2.67238 
3863 1 10.3977 15.6358 15.6625 -8.42923 2.01382 -1.47824 0.43291 
6730 1 5.32734 16.5158 22.8389 -8.10064 -2.06041 0.869547 -1.45858 
3610 1 6.12146 13.3681 13.408 -7.82204 -1.46773 -0.20612 0.411394 
3838 1 -1.23616 13.4387 13.4308 -8.25226 -1.96142 1.55072 -1.51153 
9 1 4.41554 2.68567 25.335 -7.39827 -0.721219 0.891929 -0.130995 
6016 1 8.81465 5.27503 22.6592 -7.81127 0.0374684 -0.616221 -0.666063 
4576 1 8.53431 7.52376 17.6188 -8.26186 -0.909716 1.72739 1.52178 
723 1 1.42334 13.4885 25.2696 -8.42605 -3.96617 1.00298 0.631405 
4816 1 7.6247 10.3411 18.7574 -8.5227 -0.814152 -2.45108 -0.00301591 
6500 2 10.4702 13.3138 21.9163 -28.7164 -0.705726 0.351967 -0.0677043 
6496 1 8.75844 12.3247 22.8515 -6.99955 0.836255 4.44514 -2.71589 
4318 1 -1.20503 20.4814 13.4945 -7.33223 -0.785223 2.55596 0.30199 
6976 1 8.83927 20.0914 22.8025 -7.42618 -0.284309 0.104812 -0.903072 
6970 1 5.75739 20.8482 23.775 -7.57108 0.345955 0.697774 -0.32267 
6264 1 10.5513 7.32411 23.6167 -8.86391 0.166669 0.09539 0.127493 
5290 1 4.72857 18.7632 17.7375 -8.37121 0.103749 -0.978361 -1.95661 
3138 1 7.01886 3.35824 13.7239 -8.239 1.20962 0.175164 -0.25667 
6736 1 9.56557 17.1859 23.75 -6.88998 0.709393 -0.985502 -0.6919 
4322 2 -0.559007 2.78106 16.85 -29.1108 -0.170558 -0.0648385 -1.27877 
5762 2 -0.74799 2.74893 21.5885 -28.986 2.65566 -1.58714 1.41896 
4562 2 -0.643242 6.45629 16.6666 -29.3495 1.09931 0.466503 -0.772488 
6002 2 -0.45609 6.61301 21.7678 -29.1208 -0.322289 -1.0857 0.462745 
4802 2 -0.666909 10.2027 16.4196 -28.1134 0.712773 -3.02072 1.7368 
6242 2 -0.547863 9.94665 21.7474 -29.945 -1.07294 -0.736785 2.84898 
5042 2 -0.35426 13.8131 16.7361 -29.0022 0.227731 -0.619049 -0.982636 
6482 2 -0.468557 13.7582 21.7697 -29.4032 0.226587 -2.04889 -0.698306 
5282 2 -0.769721 17.1579 16.7924 -28.3534 0.0282343 1.54307 -0.341727 