ITEM: TIMESTEP
0
ITEM: NUMBER OF ATOMS
16000
ITEM: BOX BOUNDS pp pp pp
0.0000000000000000e+00 6.4579999999999998e+01
0.0000000000000000e+00 6.4579999999999998e+01
0.0000000000000000e+00 6.4579999999999998e+01
ITEM: ATOMS id type x y z
1 1 0 0 0
2 1 3.229 0 0
11 1 0 3.229 0
12 1 3.229 3.229 0
101 1 0 0 3.229
102 1 3.229 0 3.229
111 1 0 3.229 3.229
112 1 3.229 3.229 3.229
8001 2 1.6145 1.6145 1.6145
8002 2 4.8435 1.6145 1.6145
8011 2 1.6145 4.8435 1.6145
8012 2 4.8435 4.8435 1.6145
8101 2 1.6145 1.6145 4.8435
8102 2 4.8435 1.6145 4.8435
8111 2 1.6145 4.8435 4.8435
8112 2 4.8435 4.8435 4.8435
3 1 6.458 0 0
4 1 9.687 0 0
13 1 6.458 3.229 0
14 1 9.687 3.229 0
103 1 6.458 0 3.229
104 1 9.687 0 3.229
113 1 6.458 3.229 3.229
114 1 9.687 3.229 3.229
8003 2 8.0725 1.6145 1.6145
8013 2 8.0725 4.8435 1.6145
8103 2 8.0725 1.6145 4.8435
8113 2 8.0725 4.8435 4.8435
5 1 12.916 0 0
15 1 12.916 3.229 0
105 1 12.916 0 3.229
115 1 12.916 3.229 3.229
8004 2 11.3015 1.6145 1.6145
8005 2 14.5305 1.6145 1.6145
8014 2 11.3015 4.8435 1.6145
8015 2 14.5305 4.8435 1.6145
8104 2 11.3015 1.6145 4.8435
8105 2 14.5305 1.6145 4.8435
8114 2 11.3015 4.8435 4.8435
8115 2 14.5305 4.8435 4.8435
6 1 16.145 0 0
7 1 19.374 0 0
16 1 16.145 3.229 0
17 1 19.374 3.229 0
106 1 16.145 0 3.229
107 1 19.374 0 3.229
116 1 16.145 3.229 3.229
117 1 19.374 3.229 3.229
8006 2 17.7595 1.6145 1.6145
8007 2 20.9885 1.6145 1.6145
8016 2 17.7595 4.8435 1.6145
8017 2 20.9885 4.8435 1.6145
8106 2 17.7595 1.6145 4.8435
8107 2 20.9885 1.6145 4.8435
8116 2 17.7595 4.8435 4.8435
8117 2 20.9885 4.8435 4.8435
8 1 22.603 0 0
9 1 25.832 0 0
18 1 22.603 3.229 0
19 1 25.832 3.229 0
108 1 22.603 0 3.229
109 1 25.832 0 3.229
118 1 22.603 3.229 3.229
119 1 25.832 3.229 3.229
8008 2 24.2175 1.6145 1.6145
8018 2 24.2175 4.8435 1.6145
8108 2 24.2175 1.6145 4.8435
8118 2 24.2175 4.8435 4.8435
10 1 29.061 0 0
20 1 29.061 3.229 0
110 1 29.061 0 3.229
120 1 29.061 3.229 3.229
8009 2 27.4465 1.6145 1.6145
8010 2 30.6755 1.6145 1.6145
8019 2 27.4465 4.8435 1.6145
8020 2 30.6755 4.8435 1.6145
8109 2 27.4465 1.6145 4.8435
8110 2 30.6755 1.6145 4.8435
8119 2 27.4465 4.8435 4.8435
8120 2 30.6755 4.8435 4.8435
21 1 0 6.458 0
22 1 3.229 6.458 0
31 1 0 9.687 0
32 1 3.229 9.687 0
121 1 0 6.458 3.229
122 1 3.229 6.458 3.229
131 1 0 9.687 3.229
132 1 3.229 9.687 3.229
8021 2 1.6145 8.0725 1.6145
8022 2 4.8435 8.0725 1.6145
8121 2 1.6145 8.0725 4.8435
8122 2 4.8435 8.0725 4.8435
23 1 6.458 6.458 0
24 1 9.687 6.458 0
33 1 6.458 9.687 0
34 1 9.687 9.687 0
123 1 6.458 6.458 3.229
124 1 9.687 6.458 3.229
133 1 6.458 9.687 3.229
134 1 9.687 9.687 3.229
8023 2 8.0725 8.0725 1.6145
8123 2 8.0725 8.0725 4.8435
25 1 12.916 6.458 0
35 1 12.916 9.687 0
125 1 12.916 6.458 3.229
135 1 12.916 9.687 3.229
8024 2 11.3015 8.0725 1.6145
8025 2 14.5305 8.0725 1.6145
8124 2 11.3015 8.0725 4.8435
8125 2 14.5305 8.0725 4.8435
26 1 16.145 6.458 0
27 1 19.374 6.458 0
36 1 16.145 9.687 0
37 1 19.374 9.687 0
126 1 16.145 6.458 3.229
127 1 19.374 6.458 3.229
136 1 16.145 9.687 3.229
137 1 19.374 9.687 3.229
8026 2 17.7595 8.0725 1.6145
8027 2 20.9885 8.0725 1.6145
8126 2 17.7595 8.0725 4.8435
8127 2 20.9885 8.0725 4.8435
28 1 22.603 6.458 0
29 1 25.832 6.458 0
38 1 22.603 9.687 0
39 1 25.832 9.687 0
128 1 22.603 6.458 3.229
129 1 25.832 6.458 3.229
138 1 22.603 9.687 3.229
139 1 25.832 9.687 3.229
8028 2 24.2175 8.0725 1.6145
8128 2 24.2175 8.0725 4.8435
30 1 29.061 6.458 0
40 1 29.061 9.687 0
130 1 29.061 6.458 3.229
140 1 29.061 9.687 3.229
8029 2 27.4465 8.0725 1.6145
8030 2 30.6755 8.0725 1.6145
8129 2 27.4465 8.0725 4.8435
8130 2 30.6755 8.0725 4.8435
41 1 0 12.916 0
42 1 3.229 12.916 0
141 1 0 12.916 3.229
142 1 3.229 12.916 3.229
8031 2 1.6145 11.3015 1.6145
8032 2 4.8435 11.3015 1.6145
8041 2 1.6145 14.5305 1.6145
8042 2 4.8435 14.5305 1.6145
8131 2 1.6145 11.3015 4.8435
8132 2 4.8435 11.3015 4.8435
8141 2 1.6145 14.5305 4.8435
8142 2 4.8435 14.5305 4.8435
43 1 6.458 12.916 0
44 1 9.687 12.916 0
143 1 6.458 12.916 3.229
144 1 9.687 12.916 3.229
8033 2 8.0725 11.3015 1.6145
8043 2 8.0725 14.5305 1.6145
8133 2 8.0725 11.3015 4.8435
8143 2 8.0725 14.5305 4.8435
45 1 12.916 12.916 0
145 1 12.916 12.916 3.229
8034 2 11.3015 11.3015 1.6145
8035 2 14.5305 11.3015 1.6145
8044 2 11.3015 14.5305 1.6145
8045 2 14.5305 14.5305 1.6145
8134 2 11.3015 11.3015 4.8435
8135 2 14.5305 11.3015 4.8435
8144 2 11.3015 14.5305 4.8435
8145 2 14.5305 14.5305 4.8435
46 1 16.145 12.916 0
47 1 19.374 12.916 0
146 1 16.145 12.916 3.229
147 1 19.374 12.916 3.229
8036 2 17.7595 11.3015 1.6145
8037 2 20.9885 11.3015 1.6145
8046 2 17.7595 14.5305 1.6145
8047 2 20.9885 14.5305 1.6145
8136 2 17.7595 11.3015 4.8435
8137 2 20.9885 11.3015 4.8435
8146 2 17.7595 14.5305 4.8435
8147 2 20.9885 14.5305 4.8435
48 1 22.603 12.916 0
49 1 25.832 12.916 0
148 1 22.603 12.916 3.229
149 1 25.832 12.916 3.229
8038 2 24.2175 11.3015 1.6145
8048 2 24.2175 14.5305 1.6145
8138 2 24.2175 11.3015 4.8435
8148 2 24.2175 14.5305 4.8435
50 1 29.061 12.916 0
150 1 29.061 12.916 3.229
8039 2 27.4465 11.3015 1.6145
8040 2 30.6755 11.3015 1.6145
8049 2 27.4465 14.5305 1.6145
8050 2 30.6755 14.5305 1.6145
8139 2 27.4465 11.3015 4.8435
8140 2 30.6755 11.3015 4.8435
8149 2 27.4465 14.5305 4.8435
8150 2 30.6755 14.5305 4.8435
51 1 0 16.145 0
52 1 3.229 16.145 0
61 1 0 19.374 0
62 1 3.229 19.374 0
151 1 0 16.145 3.229
152 1 3.229 16.145 3.229
161 1 0 19.374 3.229
162 1 3.229 19.374 3.229
8051 2 1.6145 17.7595 1.6145
8052 2 4.8435 17.7595 1.6145
8061 2 1.6145 20.9885 1.6145
8062 2 4.8435 20.9885 1.6145
8151 2 1.6145 17.7595 4.8435
8152 2 4.8435 17.7595 4.8435
8161 2 1.6145 20.9885 4.8435
8162 2 4.8435 20.9885 4.8435
53 1 6.458 16.145 0
54 1 9.687 16.145 0
63 1 6.458 19.374 0
64 1 9.687 19.374 0
153 1 6.458 16.145 3.229
154 1 9.687 16.145 3.229
163 1 6.458 19.374 3.229
164 1 9.687 19.374 3.229
8053 2 8.0725 17.7595 1.6145
8063 2 8.0725 20.9885 1.6145
8153 2 8.0725 17.7595 4.8435
8163 2 8.0725 20.9885 4.8435
55 1 12.916 16.145 0
65 1 12.916 19.374 0
155 1 12.916 16.145 3.229
165 1 12.916 19.374 3.229
8054 2 11.3015 17.7595 1.6145
8055 2 14.5305 17.7595 1.6145
8064 2 11.3015 20.9885 1.6145
8065 2 14.5305 20.9885 1.6145
8154 2 11.3015 17.7595 4.8435
8155 2 14.5305 17.7595 4.8435
8164 2 11.3015 20.9885 4.8435
8165 2 14.5305 20.9885 4.8435
56 1 16.145 16.145 0
57 1 19.374 16.145 0
66 1 16.145 19.374 0
67 1 19.374 19.374 0
156 1 16.145 16.145 3.229
157 1 19.374 16.145 3.229
166 1 16.145 19.374 3.229
167 1 19.374 19.374 3.229
8056 2 17.7595 17.7595 1.6145
8057 2 20.9885 17.7595 1.6145
8066 2 17.7595 20.9885 1.6145
8067 2 20.9885 20.9885 1.6145
8156 2 17.7595 17.7595 4.8435
8157 2 20.9885 17.7595 4.8435
8166 2 17.7595 20.9885 4.8435
8167 2 20.9885 20.9885 4.8435
58 1 22.603 16.145 0
59 1 25.832 16.145 0
68 1 22.603 19.374 0
69 1 25.832 19.374 0
158 1 22.603 16.145 3.229
159 1 25.832 16.145 3.229
168 1 22.603 19.374 3.229
169 1 25.832 19.374 3.229
8058 2 24.2175 17.7595 1.6145
8068 2 24.2175 20.9885 1.6145
8158 2 24.2175 17.7595 4.8435
8168 2 24.2175 20.9885 4.8435
60 1 29.061 16.145 0
70 1 29.061 19.374 0
160 1 29.061 16.145 3.229
170 1 29.061 19.374 3.229
8059 2 27.4465 17.7595 1.6145
8060 2 30.6755 17.7595 1.6145
8069 2 27.4465 20.9885 1.6145
8070 2 30.6755 20.9885 1.6145
8159 2 27.4465 17.7595 4.8435
8160 2 30.6755 17.7595 4.8435
8169 2 27.4465 20.9885 4.8435
8170 2 30.6755 20.9885 4.8435
71 1 0 22.603 0
72 1 3.229 22.603 0
81 1 0 25.832 0
82 1 3.229 25.832 0
171 1 0 22.603 3.229
172 1 3.229 22.603 3.229
181 1 0 25.832 3.229
182 1 3.229 25.832 3.229
8071 2 1.6145 24.2175 1.6145
8072 2 4.8435 24.2175 1.6145
8171 2 1.6145 24.2175 4.8435
8172 2 4.8435 24.2175 4.8435
73 1 6.458 22.603 0
74 1 9.687 22.603 0
83 1 6.458 25.832 0
84 1 9.687 25.832 0
173 1 6.458 22.603 3.229
174 1 9.687 22.603 3.229
183 1 6.458 25.832 3.229
184 1 9.687 25.832 3.229
8073 2 8.0725 24.2175 1.6145
8173 2 8.0725 24.2175 4.8435
75 1 12.916 22.603 0
85 1 12.916 25.832 0
175 1 12.916 22.603 3.229
185 1 12.916 25.832 3.229
8074 2 11.3015 24.2175 1.6145
8075 2 14.5305 24.2175 1.6145
8174 2 11.3015 24.2175 4.8435
8175 2 14.5305 24.2175 4.8435
76 1 16.145 22.603 0
77 1 19.374 22.603 0
86 1 16.145 25.832 0
87 1 19.374 25.832 0
176 1 16.145 22.603 3.229
177 1 19.374 22.603 3.229
186 1 16.145 25.832 3.229
187 1 19.374 25.832 3.229
8076 2 17.7595 24.2175 1.6145
8077 2 20.9885 24.2175 1.6145
8176 2 17.7595 24.2175 4.8435
8177 2 20.9885 24.2175 4.8435
78 1 22.603 22.603 0
79 1 25.832 22.603 0
88 1 22.603 25.832 0
89 1 25.832 25.832 0
178 1 22.603 22.603 3.229
179 1 25.832 22.603 3.229
188 1 22.603 25.832 3.229
189 1 25.832 25.832 3.229
8078 2 24.2175 24.2175 1.6145
8178 2 24.2175 24.2175 4.8435
80 1 29.061 22.603 0
90 1 29.061 25.832 0
180 1 29.061 22.603 3.229
190 1 29.061 25.832 3.229
8079 2 27.4465 24.2175 1.6145
8080 2 30.6755 24.2175 1.6145
8179 2 27.4465 24.2175 4.8435
8180 2 30.6755 24.2175 4.8435
91 1 0 29.061 0
92 1 3.229 29.061 0
191 1 0 29.061 3.229
192 1 3.229 29.061 3.229
8081 2 1.6145 27.4465 1.6145
8082 2 4.8435 27.4465 1.6145
8091 2 1.6145 30.6755 1.6145
8092 2 4.8435 30.6755 1.6145
8181 2 1.6145 27.4465 4.8435
8182 2 4.8435 27.4465 4.8435
8191 2 1.6145 30.6755 4.8435
8192 2 4.8435 30.6755 4.8435
93 1 6.458 29.061 0
94 1 9.687 29.061 0
193 1 6.458 29.061 3.229
194 1 9.687 29.061 3.229
8083 2 8.0725 27.4465 1.6145
8093 2 8.0725 30.6755 1.6145
8183 2 8.0725 27.4465 4.8435
8193 2 8.0725 30.6755 4.8435
95 1 12.916 29.061 0
195 1 12.916 29.061 3.229
8084 2 11.3015 27.4465 1.6145
8085 2 14.5305 27.4465 1.6145
8094 2 11.3015 30.6755 1.6145
8095 2 14.5305 30.6755 1.6145
8184 2 11.3015 27.4465 4.8435
8185 2 14.5305 27.4465 4.8435
8194 2 11.3015 30.6755 4.8435
8195 2 14.5305 30.6755 4.8435
96 1 16.145 29.061 0
97 1 19.374 29.061 0
196 1 16.145 29.061 3.229
197 1 19.374 29.061 3.229
8086 2 17.7595 27.4465 1.6145
8087 2 20.9885 27.4465 1.6145
8096 2 17.7595 30.6755 1.6145
8097 2 20.9885 30.6755 1.6145
8186 2 17.7595 27.4465 4.8435
8187 2 20.9885 27.4465 4.8435
8196 2 17.7595 30.6755 4.8435
8197 2 20.9885 30.6755 4.8435
98 1 22.603 29.061 0
99 1 25.832 29.061 0
198 1 22.603 29.061 3.229
199 1 25.832 29.061 3.229
8088 2 24.2175 27.4465 1.6145
8098 2 24.2175 30.6755 1.6145
8188 2 24.2175 27.4465 4.8435
8198 2 24.2175 30.6755 4.8435
100 1 29.061 29.061 0
200 1 29.061 29.061 3.229
8089 2 27.4465 27.4465 1.6145
8090 2 30.6755 27.4465 1.6145
8099 2 27.4465 30.6755 1.6145
8100 2 30.6755 30.6755 1.6145
8189 2 27.4465 27.4465 4.8435
8190 2 30.6755 27.4465 4.8435
8199 2 27.4465 30.6755 4.8435
8200 2 30.6755 30.6755 4.8435
201 1 0 0 6.458
202 1 3.229 0 6.458
211 1 0 3.229 6.458
212 1 3.229 3.229 6.458
301 1 0 0 9.687
302 1 3.229 0 9.687
311 1 0 3.229 9.687
312 1 3.229 3.229 9.687
8201 2 1.6145 1.6145 8.0725
8202 2 4.8435 1.6145 8.0725
8211 2 1.6145 4.8435 8.0725
8212 2 4.8435 4.8435 8.0725
203 1 6.458 0 6.458
204 1 9.687 0 6.458
213 1 6.458 3.229 6.458
214 1 9.687 3.229 6.458
303 1 6.458 0 9.687
304 1 9.687 0 9.687
313 1 6.458 3.229 9.687
314 1 9.687 3.229 9.687
8203 2 8.0725 1.6145 8.0725
8213 2 8.0725 4.8435 8.0725
205 1 12.916 0 6.458
215 1 12.916 3.229 6.458
305 1 12.916 0 9.687
315 1 12.916 3.229 9.687
8204 2 11.3015 1.6145 8.0725
8205 2 14.5305 1.6145 8.0725
8214 2 11.3015 4.8435 8.0725
8215 2 14.5305 4.8435 8.0725
206 1 16.145 0 6.458
207 1 19.374 0 6.458
216 1 16.145 3.229 6.458
217 1 19.374 3.229 6.458
306 1 16.145 0 9.687
307 1 19.374 0 9.687
316 1 16.145 3.229 9.687
317 1 19.374 3.229 9.687
8206 2 17.7595 1.6145 8.0725
8207 2 20.9885 1.6145 8.0725
8216 2 17.7595 4.8435 8.0725
8217 2 20.9885 4.8435 8.0725
208 1 22.603 0 6.458
209 1 25.832 0 6.458
218 1 22.603 3.229 6.458
219 1 25.832 3.229 6.458
308 1 22.603 0 9.687
309 1 25.832 0 9.687
318 1 22.603 3.229 9.687
319 1 25.832 3.229 9.687
8208 2 24.2175 1.6145 8.0725
8218 2 24.2175 4.8435 8.0725
210 1 29.061 0 6.458
220 1 29.061 3.229 6.458
310 1 29.061 0 9.687
320 1 29.061 3.229 9.687
8209 2 27.4465 1.6145 8.0725
8210 2 30.6755 1.6145 8.0725
8219 2 27.4465 4.8435 8.0725
8220 2 30.6755 4.8435 8.0725
221 1 0 6.458 6.458
222 1 3.229 6.458 6.458
231 1 0 9.687 6.458
232 1 3.229 9.687 6.458
321 1 0 6.458 9.687
322 1 3.229 6.458 9.687
331 1 0 9.687 9.687
332 1 3.229 9.687 9.687
8221 2 1.6145 8.0725 8.0725
8222 2 4.8435 8.0725 8.0725
223 1 6.458 6.458 6.458
224 1 9.687 6.458 6.458
233 1 6.458 9.687 6.458
234 1 9.687 9.687 6.458
323 1 6.458 6.458 9.687
324 1 9.687 6.458 9.687
333 1 6.458 9.687 9.687
334 1 9.687 9.687 9.687
8223 2 8.0725 8.0725 8.0725
225 1 12.916 6.458 6.458
235 1 12.916 9.687 6.458
325 1 12.916 6.458 9.687
335 1 12.916 9.687 9.687
8224 2 11.3015 8.0725 8.0725
8225 2 14.5305 8.0725 8.0725
226 1 16.145 6.458 6.458
227 1 19.374 6.458 6.458
236 1 16.145 9.687 6.458
237 1 19.374 9.687 6.458
326 1 16.145 6.458 9.687
327 1 19.374 6.458 9.687
336 1 16.145 9.687 9.687
337 1 19.374 9.687 9.687
8226 2 17.7595 8.0725 8.0725
8227 2 20.9885 8.0725 8.0725
228 1 22.603 6.458 6.458
229 1 25.832 6.458 6.458
238 1 22.603 9.687 6.458
239 1 25.832 9.687 6.458
328 1 22.603 6.458 9.687
329 1 25.832 6.458 9.687
338 1 22.603 9.687 9.687
339 1 25.832 9.687 9.687
8228 2 24.2175 8.0725 8.0725
230 1 29.061 6.458 6.458
240 1 29.061 9.687 6.458
330 1 29.061 6.458 9.687
340 1 29.061 9.687 9.687
8229 2 27.4465 8.0725 8.0725
8230 2 30.6755 8.0725 8.0725
241 1 0 12.916 6.458
242 1 3.229 12.916 6.458
341 1 0 12.916 9.687
342 1 3.229 12.916 9.687
8231 2 1.6145 11.3015 8.0725
8232 2 4.8435 11.3015 8.0725
8241 2 1.6145 14.5305 8.0725
8242 2 4.8435 14.5305 8.0725
243 1 6.458 12.916 6.458
244 1 9.687 12.916 6.458
343 1 6.458 12.916 9.687
344 1 9.687 12.916 9.687
8233 2 8.0725 11.3015 8.0725
8243 2 8.0725 14.5305 8.0725
245 1 12.916 12.916 6.458
345 1 12.916 12.916 9.687
8234 2 11.3015 11.3015 8.0725
8235 2 14.5305 11.3015 8.0725
8244 2 11.3015 14.5305 8.0725
8245 2 14.5305 14.5305 8.0725
246 1 16.145 12.916 6.458
247 1 19.374 12.916 6.458
346 1 16.145 12.916 9.687
347 1 19.374 12.916 9.687
8236 2 17.7595 11.3015 8.0725
8237 2 20.9885 11.3015 8.0725
8246 2 17.7595 14.5305 8.0725
8247 2 20.9885 14.5305 8.0725
248 1 22.603 12.916 6.458
249 1 25.832 12.916 6.458
348 1 22.603 12.916 9.687
349 1 25.832 12.916 9.687
8238 2 24.2175 11.3015 8.0725
8248 2 24.2175 14.5305 8.0725
250 1 29.061 12.916 6.458
350 1 29.061 12.916 9.687
8239 2 27.4465 11.3015 8.0725
8240 2 30.6755 11.3015 8.0725
8249 2 27.4465 14.5305 8.0725
8250 2 30.6755 14.5305 8.0725
251 1 0 16.145 6.458
252 1 3.229 16.145 6.458
261 1 0 19.374 6.458
262 1 3.229 19.374 6.458
351 1 0 16.145 9.687
352 1 3.229 16.145 9.687
361 1 0 19.374 9.687
362 1 3.229 19.374 9.687
8251 2 1.6145 17.7595 8.0725
8252 2 4.8435 17.7595 8.0725
8261 2 1.6145 20.9885 8.0725
8262 2 4.8435 20.9885 8.0725
253 1 6.458 16.145 6.458
254 1 9.687 16.145 6.458
263 1 6.458 19.374 6.458
264 1 9.687 19.374 6.458
353 1 6.458 16.145 9.687
354 1 9.687 16.145 9.687
363 1 6.458 19.374 9.687
364 1 9.687 19.374 9.687
8253 2 8.0725 17.7595 8.0725
8263 2 8.0725 20.9885 8.0725
255 1 12.916 16.145 6.458
265 1 12.916 19.374 6.458
355 1 12.916 16.145 9.687
365 1 12.916 19.374 9.687
8254 2 11.3015 17.7595 8.0725
8255 2 14.5305 17.7595 8.0725
8264 2 11.3015 20.9885 8.0725
8265 2 14.5305 20.9885 8.0725
256 1 16.145 16.145 6.458
257 1 19.374 16.145 6.458
266 1 16.145 19.374 6.458
267 1 19.374 19.374 6.458
356 1 16.145 16.145 9.687
357 1 19.374 16.145 9.687
366 1 16.145 19.374 9.687
367 1 19.374 19.374 9.687
8256 2 17.7595 17.7595 8.0725
8257 2 20.9885 17.7595 8.0725
8266 2 17.7595 20.9885 8.0725
8267 2 20.9885 20.9885 8.0725
258 1 22.603 16.145 6.458
259 1 25.832 16.145 6.458
268 1 22.603 19.374 6.458
269 1 25.832 19.374 6.458
358 1 22.603 16.145 9.687
359 1 25.832 16.145 9.687
368 1 22.603 19.374 9.687
369 1 25.832 19.374 9.687
8258 2 24.2175 17.7595 8.0725
8268 2 24.2175 20.9885 8.0725
260 1 29.061 16.145 6.458
270 1 29.061 19.374 6.458
360 1 29.061 16.145 9.687
370 1 29.061 19.374 9.687
8259 2 27.4465 17.7595 8.0725
8260 2 30.6755 17.7595 8.0725
8269 2 27.4465 20.9885 8.0725
8270 2 30.6755 20.9885 8.0725
271 1 0 22.603 6.458
272 1 3.229 22.603 6.458
281 1 0 25.832 6.458
282 1 3.229 25.832 6.458
371 1 0 22.603 9.687
372 1 3.229 22.603 9.687
381 1 0 25.832 9.687
382 1 3.229 25.832 9.687
8271 2 1.6145 24.2175 8.0725
8272 2 4.8435 24.2175 8.0725
273 1 6.458 22.603 6.458
274 1 9.687 22.603 6.458
283 1 6.458 25.832 6.458
284 1 9.687 25.832 6.458
373 1 6.458 22.603 9.687
374 1 9.687 22.603 9.687
383 1 6.458 25.832 9.687
384 1 9.687 25.832 9.687
8273 2 8.0725 24.2175 8.0725
275 1 12.916 22.603 6.458
285 1 12.916 25.832 6.458
375 1 12.916 22.603 9.687
385 1 12.916 25.832 9.687
8274 2 11.3015 24.2175 8.0725
8275 2 14.5305 24.2175 8.0725
276 1 16.145 22.603 6.458
277 1 19.374 22.603 6.458
286 1 16.145 25.832 6.458
287 1 19.374 25.832 6.458
376 1 16.145 22.603 9.687
377 1 19.374 22.603 9.687
386 1 16.145 25.832 9.687
387 1 19.374 25.832 9.687
8276 2 17.7595 24.2175 8.0725
8277 2 20.9885 24.2175 8.0725
278 1 22.603 22.603 6.458
279 1 25.832 22.603 6.458
288 1 22.603 25.832 6.458
289 1 25.832 25.832 6.458
378 1 22.603 22.603 9.687
379 1 25.832 22.603 9.687
388 1 22.603 25.832 9.687
389 1 25.832 25.832 9.687
8278 2 24.2175 24.2175 8.0725
280 1 29.061 22.603 6.458
290 1 29.061 25.832 6.458
380 1 29.061 22.603 9.687
390 1 29.061 25.832 9.687
8279 2 27.4465 24.2175 8.0725
8280 2 30.6755 24.2175 8.0725
291 1 0 29.061 6.458
292 1 3.229 29.061 6.458
391 1 0 29.061 9.687
392 1 3.229 29.061 9.687
8281 2 1.6145 27.4465 8.0725
8282 2 4.8435 27.4465 8.0725
8291 2 1.6145 30.6755 8.0725
8292 2 4.8435 30.6755 8.0725
293 1 6.458 29.061 6.458
294 1 9.687 29.061 6.458
393 1 6.458 29.061 9.687
394 1 9.687 29.061 9.687
8283 2 8.0725 27.4465 8.0725
8293 2 8.0725 30.6755 8.0725
295 1 12.916 29.061 6.458
395 1 12.916 29.061 9.687
8284 2 11.3015 27.4465 8.0725
8285 2 14.5305 27.4465 8.0725
8294 2 11.3015 30.6755 8.0725
8295 2 14.5305 30.6755 8.0725
296 1 16.145 29.061 6.458
297 1 19.374 29.061 6.458
396 1 16.145 29.061 9.687
397 1 19.374 29.061 9.687
8286 2 17.7595 27.4465 8.0725
8287 2 20.9885 27.4465 8.0725
8296 2 17.7595 30.6755 8.0725
8297 2 20.9885 30.6755 8.0725
298 1 22.603 29.061 6.458
299 1 25.832 29.061 6.458
398 1 22.603 29.061 9.687
399 1 25.832 29.061 9.687
8288 2 24.2175 27.4465 8.0725
8298 2 24.2175 30.6755 8.0725
300 1 29.061 29.061 6.458
400 1 29.061 29.061 9.687
8289 2 27.4465 27.4465 8.0725
8290 2 30.6755 27.4465 8.0725
8299 2 27.4465 30.6755 8.0725
8300 2 30.6755 30.6755 8.0725
401 1 0 0 12.916
402 1 3.229 0 12.916
411 1 0 3.229 12.916
412 1 3.229 3.229 12.916
8301 2 1.6145 1.6145 11.3015
8302 2 4.8435 1.6145 11.3015
8311 2 1.6145 4.8435 11.3015
8312 2 4.8435 4.8435 11.3015
8401 2 1.6145 1.6145 14.5305
8402 2 4.8435 1.6145 14.5305
8411 2 1.6145 4.8435 14.5305
8412 2 4.8435 4.8435 14.5305
403 1 6.458 0 12.916
404 1 9.687 0 12.916
413 1 6.458 3.229 12.916
414 1 9.687 3.229 12.916
8303 2 8.0725 1.6145 11.3015
8313 2 8.0725 4.8435 11.3015
8403 2 8.0725 1.6145 14.5305
8413 2 8.0725 4.8435 14.5305
405 1 12.916 0 12.916
415 1 12.916 3.229 12.916
8304 2 11.3015 1.6145 11.3015
8305 2 14.5305 1.6145 11.3015
8314 2 11.3015 4.8435 11.3015
8315 2 14.5305 4.8435 11.3015
8404 2 11.3015 1.6145 14.5305
8405 2 14.5305 1.6145 14.5305
8414 2 11.3015 4.8435 14.5305
8415 2 14.5305 4.8435 14.5305
406 1 16.145 0 12.916
407 1 19.374 0 12.916
416 1 16.145 3.229 12.916
417 1 19.374 3.229 12.916
8306 2 17.7595 1.6145 11.3015
8307 2 20.9885 1.6145 11.3015
8316 2 17.7595 4.8435 11.3015
8317 2 20.9885 4.8435 11.3015
8406 2 17.7595 1.6145 14.5305
8407 2 20.9885 1.6145 14.5305
8416 2 17.7595 4.8435 14.5305
8417 2 20.9885 4.8435 14.5305
408 1 22.603 0 12.916
409 1 25.832 0 12.916
418 1 22.603 3.229 12.916
419 1 25.832 3.229 12.916
8308 2 24.2175 1.6145 11.3015
8318 2 24.2175 4.8435 11.3015
8408 2 24.2175 1.6145 14.5305
8418 2 24.2175 4.8435 14.5305
410 1 29.061 0 12.916
420 1 29.061 3.229 12.916
8309 2 27.4465 1.6145 11.3015
8310 2 30.6755 1.6145 11.3015
8319 2 27.4465 4.8435 11.3015
8320 2 30.6755 4.8435 11.3015
8409 2 27.4465 1.6145 14.5305
8410 2 30.6755 1.6145 14.5305
8419 2 27.4465 4.8435 14.5305
8420 2 30.6755 4.8435 14.5305
421 1 0 6.458 12.916
422 1 3.229 6.458 12.916
431 1 0 9.687 12.916
432 1 3.229 9.687 12.916
8321 2 1.6145 8.0725 11.3015
8322 2 4.8435 8.0725 11.3015
8421 2 1.6145 8.0725 14.5305
8422 2 4.8435 8.0725 14.5305
423 1 6.458 6.458 12.916
424 1 9.687 6.458 12.916
433 1 6.458 9.687 12.916
434 1 9.687 9.687 12.916
8323 2 8.0725 8.0725 11.3015
8423 2 8.0725 8.0725 14.5305
425 1 12.916 6.458 12.916
435 1 12.916 9.687 12.916
8324 2 11.3015 8.0725 11.3015
8325 2 14.5305 8.0725 11.3015
8424 2 11.3015 8.0725 14.5305
8425 2 14.5305 8.0725 14.5305
426 1 16.145 6.458 12.916
427 1 19.374 6.458 12.916
436 1 16.145 9.687 12.916
437 1 19.374 9.687 12.916
8326 2 17.7595 8.0725 11.3015
8327 2 20.9885 8.0725 11.3015
8426 2 17.7595 8.0725 14.5305
8427 2 20.9885 8.0725 14.5305
428 1 22.603 6.458 12.916
429 1 25.832 6.458 12.916
438 1 22.603 9.687 12.916
439 1 25.832 9.687 12.916
8328 2 24.2175 8.0725 11.3015
8428 2 24.2175 8.0725 14.5305
430 1 29.061 6.458 12.916
440 1 29.061 9.687 12.916
8329 2 27.4465 8.0725 11.3015
8330 2 30.6755 8.0725 11.3015
8429 2 27.4465 8.0725 14.5305
8430 2 30.6755 8.0725 14.5305
441 1 0 12.916 12.916
442 1 3.229 12.916 12.916
8331 2 1.6145 11.3015 11.3015
8332 2 4.8435 11.3015 11.3015
8341 2 1.6145 14.5305 11.3015
8342 2 4.8435 14.5305 11.3015
8431 2 1.6145 11.3015 14.5305
8432 2 4.8435 11.3015 14.5305
8441 2 1.6145 14.5305 14.5305
8442 2 4.8435 14.5305 14.5305
443 1 6.458 12.916 12.916
444 1 9.687 12.916 12.916
8333 2 8.0725 11.3015 11.3015
8343 2 8.0725 14.5305 11.3015
8433 2 8.0725 11.3015 14.5305
8443 2 8.0725 14.5305 14.5305
445 1 12.916 12.916 12.916
8334 2 11.3015 11.3015 11.3015
8335 2 14.5305 11.3015 11.3015
8344 2 11.3015 14.5305 11.3015
8345 2 14.5305 14.5305 11.3015
8434 2 11.3015 11.3015 14.5305
8435 2 14.5305 11.3015 14.5305
8444 2 11.3015 14.5305 14.5305
8445 2 14.5305 14.5305 14.5305
446 1 16.145 12.916 12.916
447 1 19.374 12.916 12.916
8336 2 17.7595 11.3015 11.3015
8337 2 20.9885 11.3015 11.3015
8346 2 17.7595 14.5305 11.3015
8347 2 20.9885 14.5305 11.3015
8436 2 17.7595 11.3015 14.5305
8437 2 20.9885 11.3015 14.5305
8446 2 17.7595 14.5305 14.5305
8447 2 20.9885 14.5305 14.5305
448 1 22.603 12.916 12.916
449 1 25.832 12.916 12.916
8338 2 24.2175 11.3015 11.3015
8348 2 24.2175 14.5305 11.3015
8438 2 24.2175 11.3015 14.5305
8448 2 24.2175 14.5305 14.5305
450 1 29.061 12.916 12.916
8339 2 27.4465 11.3015 11.3015
8340 2 30.6755 11.3015 11.3015
8349 2 27.4465 14.5305 11.3015
8350 2 30.6755 14.5305 11.3015
8439 2 27.4465 11.3015 14.5305
8440 2 30.6755 11.3015 14.5305
8449 2 27.4465 14.5305 14.5305
8450 2 30.6755 14.5305 14.5305
451 1 0 16.145 12.916
452 1 3.229 16.145 12.916
461 1 0 19.374 12.916
462 1 3.229 19.374 12.916
8351 2 1.6145 17.7595 11.3015
8352 2 4.8435 17.7595 11.3015
8361 2 1.6145 20.9885 11.3015
8362 2 4.8435 20.9885 11.3015
8451 2 1.6145 17.7595 14.5305
8452 2 4.8435 17.7595 14.5305
8461 2 1.6145 20.9885 14.5305
8462 2 4.8435 20.9885 14.5305
453 1 6.458 16.145 12.916
454 1 9.687 16.145 12.916
463 1 6.458 19.374 12.916
464 1 9.687 19.374 12.916
8353 2 8.0725 17.7595 11.3015
8363 2 8.0725 20.9885 11.3015
8453 2 8.0725 17.7595 14.5305
8463 2 8.0725 20.9885 14.5305
455 1 12.916 16.145 12.916
465 1 12.916 19.374 12.916
8354 2 11.3015 17.7595 11.3015
8355 2 14.5305 17.7595 11.3015
8364 2 11.3015 20.9885 11.3015
8365 2 14.5305 20.9885 11.3015
8454 2 11.3015 17.7595 14.5305
8455 2 14.5305 17.7595 14.5305
8464 2 11.3015 20.9885 14.5305
8465 2 14.5305 20.9885 14.5305
456 1 16.145 16.145 12.916
457 1 19.374 16.145 12.916
466 1 16.145 19.374 12.916
467 1 19.374 19.374 12.916
8356 2 17.7595 17.7595 11.3015
8357 2 20.9885 17.7595 11.3015
8366 2 17.7595 20.9885 11.3015
8367 2 20.9885 20.9885 11.3015
8456 2 17.7595 17.7595 14.5305
8457 2 20.9885 17.7595 14.5305
8466 2 17.7595 20.9885 14.5305
8467 2 20.9885 20.9885 14.5305
458 1 22.603 16.145 12.916
459 1 25.832 16.145 12.916
468 1 22.603 19.374 12.916
469 1 25.832 19.374 12.916
8358 2 24.2175 17.7595 11.3015
8368 2 24.2175 20.9885 11.3015
8458 2 24.2175 17.7595 14.5305
8468 2 24.2175 20.9885 14.5305
460 1 29.061 16.145 12.916
470 1 29.061 19.374 12.916
8359 2 27.4465 17.7595 11.3015
8360 2 30.6755 17.7595 11.3015
8369 2 27.4465 20.9885 11.3015
8370 2 30.6755 20.9885 11.3015
8459 2 27.4465 17.7595 14.5305
8460 2 30.6755 17.7595 14.5305
8469 2 27.4465 20.9885 14.5305
8470 2 30.6755 20.9885 14.5305
471 1 0 22.603 12.916
472 1 3.229 22.603 12.916
481 1 0 25.832 12.916
482 1 3.229 25.832 12.916
8371 2 1.6145 24.2175 11.3015
8372 2 4.8435 24.2175 11.3015
8471 2 1.6145 24.2175 14.5305
8472 2 4.8435 24.2175 14.5305
473 1 6.458 22.603 12.916
474 1 9.687 22.603 12.916
483 1 6.458 25.832 12.916
484 1 9.687 25.832 12.916
8373 2 8.0725 24.2175 11.3015
8473 2 8.0725 24.2175 14.5305
475 1 12.916 22.603 12.916
485 1 12.916 25.832 12.916
8374 2 11.3015 24.2175 11.3015
8375 2 14.5305 24.2175 11.3015
8474 2 11.3015 24.2175 14.5305
8475 2 14.5305 24.2175 14.5305
476 1 16.145 22.603 12.916
477 1 19.374 22.603 12.916
486 1 16.145 25.832 12.916
487 1 19.374 25.832 12.916
8376 2 17.7595 24.2175 11.3015
8377 2 20.9885 24.2175 11.3015
8476 2 17.7595 24.2175 14.5305
8477 2 20.9885 24.2175 14.5305
478 1 22.603 22.603 12.916
479 1 25.832 22.603 12.916
488 1 22.603 25.832 12.916
489 1 25.832 25.832 12.916
8378 2 24.2175 24.2175 11.3015
8478 2 24.2175 24.2175 14.5305
480 1 29.061 22.603 12.916
490 1 29.061 25.832 12.916
8379 2 27.4465 24.2175 11.3015
8380 2 30.6755 24.2175 11.3015
8479 2 27.4465 24.2175 14.5305
8480 2 30.6755 24.2175 14.5305
491 1 0 29.061 12.916
492 1 3.229 29.061 12.916
8381 2 1.6145 27.4465 11.3015
8382 2 4.8435 27.4465 11.3015
8391 2 1.6145 30.6755 11.3015
8392 2 4.8435 30.6755 11.3015
8481 2 1.6145 27.4465 14.5305
8482 2 4.8435 27.4465 14.5305
8491 2 1.6145 30.6755 14.5305
8492 2 4.8435 30.6755 14.5305
493 1 6.458 29.061 12.916
494 1 9.687 29.061 12.916
8383 2 8.0725 27.4465 11.3015
8393 2 8.0725 30.6755 11.3015
8483 2 8.0725 27.4465 14.5305
8493 2 8.0725 30.6755 14.5305
495 1 12.916 29.061 12.916
8384 2 11.3015 27.4465 11.3015
8385 2 14.5305 27.4465 11.3015
8394 2 11.3015 30.6755 11.3015
8395 2 14.5305 30.6755 11.3015
8484 2 11.3015 27.4465 14.5305
8485 2 14.5305 27.4465 14.5305
8494 2 11.3015 30.6755 14.5305
8495 2 14.5305 30.6755 14.5305
496 1 16.145 29.061 12.916
497 1 19.374 29.061 12.916
8386 2 17.7595 27.4465 11.3015
8387 2 20.9885 27.4465 11.3015
8396 2 17.7595 30.6755 11.3015
8397 2 20.9885 30.6755 11.3015
8486 2 17.7595 27.4465 14.5305
8487 2 20.9885 27.4465 14.5305
8496 2 17.7595 30.6755 14.5305
8497 2 20.9885 30.6755 14.5305
498 1 22.603 29.061 12.916
499 1 25.832 29.061 12.916
8388 2 24.2175 27.4465 11.3015
8398 2 24.2175 30.6755 11.3015
8488 2 24.2175 27.4465 14.5305
8498 2 24.2175 30.6755 14.5305
500 1 29.061 29.061 12.916
8389 2 27.4465 27.4465 11.3015
8390 2 30.6755 27.4465 11.3015
8399 2 27.4465 30.6755 11.3015
8400 2 30.6755 30.6755 11.3015
8489 2 27.4465 27.4465 14.5305
8490 2 30.6755 27.4465 14.5305
8499 2 27.4465 30.6755 14.5305
8500 2 30.6755 30.6755 14.5305
501 1 0 0 16.145
502 1 3.229 0 16.145
511 1 0 3.229 16.145
512 1 3.229 3.229 16.145
601 1 0 0 19.374
602 1 3.229 0 19.374
611 1 0 3.229 19.374
612 1 3.229 3.229 19.374
8501 2 1.6145 1.6145 17.7595
8502 2 4.8435 1.6145 17.7595
8511 2 1.6145 4.8435 17.7595
8512 2 4.8435 4.8435 17.7595
8601 2 1.6145 1.6145 20.9885
8602 2 4.8435 1.6145 20.9885
8611 2 1.6145 4.8435 20.9885
8612 2 4.8435 4.8435 20.9885
503 1 6.458 0 16.145
504 1 9.687 0 16.145
513 1 6.458 3.229 16.145
514 1 9.687 3.229 16.145
603 1 6.458 0 19.374
604 1 9.687 0 19.374
613 1 6.458 3.229 19.374
614 1 9.687 3.229 19.374
8503 2 8.0725 1.6145 17.7595
8513 2 8.0725 4.8435 17.7595
8603 2 8.0725 1.6145 20.9885
8613 2 8.0725 4.8435 20.9885
505 1 12.916 0 16.145
515 1 12.916 3.229 16.145
605 1 12.916 0 19.374
615 1 12.916 3.229 19.374
8504 2 11.3015 1.6145 17.7595
8505 2 14.5305 1.6145 17.7595
8514 2 11.3015 4.8435 17.7595
8515 2 14.5305 4.8435 17.7595
8604 2 11.3015 1.6145 20.9885
8605 2 14.5305 1.6145 20.9885
8614 2 11.3015 4.8435 20.9885
8615 2 14.5305 4.8435 20.9885
506 1 16.145 0 16.145
507 1 19.374 0 16.145
516 1 16.145 3.229 16.145
517 1 19.374 3.229 16.145
606 1 16.145 0 19.374
607 1 19.374 0 19.374
616 1 16.145 3.229 19.374
617 1 19.374 3.229 19.374
8506 2 17.7595 1.6145 17.7595
8507 2 20.9885 1.6145 17.7595
8516 2 17.7595 4.8435 17.7595
8517 2 20.9885 4.8435 17.7595
8606 2 17.7595 1.6145 20.9885
8607 2 20.9885 1.6145 20.9885
8616 2 17.7595 4.8435 20.9885
8617 2 20.9885 4.8435 20.9885
508 1 22.603 0 16.145
509 1 25.832 0 16.145
518 1 22.603 3.229 16.145
519 1 25.832 3.229 16.145
608 1 22.603 0 19.374
609 1 25.832 0 19.374
618 1 22.603 3.229 19.374
619 1 25.832 3.229 19.374
8508 2 24.2175 1.6145 17.7595
8518 2 24.2175 4.8435 17.7595
8608 2 24.2175 1.6145 20.9885
8618 2 24.2175 4.8435 20.9885
510 1 29.061 0 16.145
520 1 29.061 3.229 16.145
610 1 29.061 0 19.374
620 1 29.061 3.229 19.374
8509 2 27.4465 1.6145 17.7595
8510 2 30.6755 1.6145 17.7595
8519 2 27.4465 4.8435 17.7595