LAMMPS data file via write_data, version 22 Dec 2022, timestep = 193

32 atoms
2 atom types

-0.34630359906661445 10.03811159906659 xlo xhi
-0.34630359906661445 10.03811159906659 ylo yhi
-0.17635742237340737 5.111975422373375 zlo zhi

Masses

1 95.95
2 28.085

Atoms # atomic

5 2 -0.34630359906659675 -0.34630359906660607 1.145725788813636 0 0 0
12 2 4.84590399999994 4.845903999999981 1.1457257888136345 0 0 0
31 1 -0.34630359906637065 4.845903999999981 1.145725788807683 0 0 0
13 1 2.1353671019484306 0.372833123295664 -0.17635742237289254 0 0 0
20 1 4.1267672776377164 2.364233298984953 -0.17635742237289964 0 0 0
9 2 1.5086861130945888 2.9909142878387933 -0.17635742237213936 0 0 0
2 2 2.9909142878387933 1.5086861130945879 2.4678090000010053 0 0 0
27 1 0.3728331232956654 2.135367101948431 2.467809000000675 0 0 0
24 1 2.3642332989849546 4.126767277637715 2.4678090000007233 0 0 0
28 1 2.364233298984953 5.565040722362267 -0.1763574223728206 0 0 0
25 1 0.3728331232956646 7.556440898051555 -0.17635742237276286 0 0 0
4 2 2.9909142878387933 8.183121886905397 -0.1763574223723703 0 0 0
19 1 2.135367101948428 9.318974876704319 2.4678090000005093 0 0 0
16 1 4.126767277637715 7.327574701015033 2.4678090000004906 0 0 0
7 2 1.5086861130945883 6.7008937121611885 2.467809000001176 0 0 0
22 1 4.8459039999999955 -0.34630359906655667 1.145725788808842 0 0 0
26 1 9.31897487670432 2.1353671019484284 -0.1763574223727229 0 0 0
29 1 7.327574701015033 4.126767277637715 -0.17635742237266427 0 0 0
1 2 6.700893712161189 1.5086861130945879 -0.17635742237236052 0 0 0
10 2 8.183121886905397 2.9909142878387933 2.467809000001256 0 0 0
18 1 7.556440898051554 0.3728331232956644 2.467809000000514 0 0 0
15 1 5.565040722362268 2.364233298984952 2.4678090000005293 0 0 0
8 2 8.1831218869054 6.700893712161189 -0.17635742237223528 0 0 0
17 1 5.56504072236227 7.327574701015029 -0.17635742237286944 0 0 0
14 1 7.556440898051554 9.318974876704319 -0.17635742237287566 0 0 0
11 2 4.845904000000048 4.845904000000004 3.7898922111870257 0 0 0
6 2 10.03811159906658 10.038111599066589 3.789892211187027 -1 -1 0
21 1 4.8459039999999876 10.038111599066541 3.789892211182234 0 -1 0
32 1 10.038111599066355 4.8459040000000035 3.7898922111810744 -1 0 0
23 1 7.327574701015029 5.565040722362268 2.4678090000005644 0 0 0
30 1 9.318974876704322 7.556440898051554 2.467809000000616 0 0 0
3 2 6.700893712161189 8.1831218869054 2.4678090000010307 0 0 0

Velocities

5 0 0 0
12 0 0 0
31 0 0 0
13 0 0 0
20 0 0 0
9 0 0 0
2 0 0 0
27 0 0 0
24 0 0 0
28 0 0 0
25 0 0 0
4 0 0 0
19 0 0 0
16 0 0 0
7 0 0 0
22 0 0 0
26 0 0 0
29 0 0 0
1 0 0 0
10 0 0 0
18 0 0 0
15 0 0 0
8 0 0 0
17 0 0 0
14 0 0 0
11 0 0 0
6 0 0 0
21 0 0 0
32 0 0 0
23 0 0 0
30 0 0 0
3 0 0 0
