LAMMPS data file via write_data, version 22 Dec 2022, timestep = 116

6 atoms
2 atom types

-0.15529088046260162 3.375666880462592 xlo xhi
-0.15529088046260162 3.375666880462592 ylo yhi
-0.3794558339079637 8.248497833907933 zlo zhi

Masses

1 95.95
2 28.085

Atoms # atomic

3 2 1.6101879999999942 1.6101879999999942 1.0837250858664758 0 0 0
2 1 1.6101879999999942 1.6101879999999942 3.9345209999999846 0 0 0
6 2 1.6101879999999942 1.6101879999999942 6.785316914133493 0 0 0
1 1 3.375666880462591 3.375666880462591 -0.3794558339079632 -1 -1 0
4 2 3.375666880462591 3.375666880462591 2.471340080225544 -1 -1 0
5 2 3.375666880462591 3.3756668804625916 5.3977019197744225 -1 -1 0

Velocities

3 0 0 0
2 0 0 0
6 0 0 0
1 0 0 0
4 0 0 0
5 0 0 0
