LAMMPS data file via write_data, version 22 Dec 2022, timestep = 103

6 atoms
2 atom types

-0.1491160370558417 3.369492037055832 xlo xhi
-0.1491160370558417 3.369492037055832 ylo yhi
-0.36436750195193834 8.23340950195191 zlo zhi

Masses

1 95.95
2 28.085

Atoms # atomic

3 2 1.6101879999999942 1.6101879999999942 1.0533444293634837 0 0 0
2 1 1.6101879999999942 1.6101879999999942 3.934520999999985 0 0 0
6 2 1.6101879999999942 1.6101879999999942 6.815697570636486 0 0 0
1 1 3.369492037055831 3.369492037055831 -0.3643675019519379 -1 -1 0
4 2 3.3694920370558314 3.3694920370558314 2.5168090686845628 -1 -1 0
5 2 3.3694920370558314 3.3694920370558314 5.352232931315406 -1 -1 0

Velocities

3 0 0 0
2 0 0 0
6 0 0 0
1 0 0 0
4 0 0 0
5 0 0 0
