LAMMPS (22 Dec 2022)
  using 1 OpenMP thread(s) per MPI task
Loaded 1 plugins from C:\Program Files\LAMMPS 64-bit 23Jun2022\plugins
Loaded 0 plugins from C:\Program Files\LAMMPS 64-bit 23Jun2022-MPI\plugins
Loaded 1 plugins from C:\Program Files\LAMMPS 64-bit 22Dec2022-MSMPI\plugins
Loaded 1 plugins from C:\Program Files\LAMMPS 64-bit 28Mar2023-MPI\plugins
# Compute elastic constant tensor for a crystal
#
# Written by Aidan Thompson (Sandia, athomps@sandia.gov)
#
#  This script uses the following three include files.
#
#   init.mod      (must be modified for different crystal structures)
# 	       	  Define units, deformation parameters and initial
#		  configuration of the atoms and simulation cell.
#
#
#   potential.mod    (must be modified for different pair styles)
# 		     Define pair style and other attributes
#		     not stored in restart file
#
#
#   displace.mod    (displace.mod should not need to be modified)
# 		    Perform positive and negative box displacements
# 		    in direction ${dir} and size ${up}.
# 		    It uses the resultant changes
#		    in stress to compute one
# 		    row of the elastic stiffness tensor
#
#		    Inputs variables:
#		    	   dir = the Voigt deformation component
#		    		    (1,2,3,4,5,6)
#		    Global constants:
#       	    	   up = the deformation magnitude (strain units)
#       		   cfac = conversion from LAMMPS pressure units to
#               	   output units for elastic constants
#
#
#  To run this on a different system, it should only be necessary to
#  modify the files init.mod and potential.mod. In order to calculate
#  the elastic constants correctly, care must be taken to specify
#  the correct units in init.mod (units, cfac and cunits). It is also
#  important to verify that the minimization of energy w.r.t atom
#  positions in the deformed cell is fully converged.
#  One indication of this is that the elastic constants are insensitive
#  to the choice of the variable ${up} in init.mod. Another is to check
#  the final max and two-norm forces reported in the log file. If you know
#  that minimization is not required, you can set maxiter = 0.0 in
#  init.mod.
#

include init.mod
# NOTE: This script can be modified for different atomic structures,
# units, etc. See in.elastic for more info.
#

# Define the finite deformation size. Try several values of this
# variable to verify that results do not depend on it.
variable up equal 1.0e-6

# Define the amount of random jiggle for atoms
# This prevents atoms from staying on saddle points
variable atomjiggle equal 1.0e-5

# Uncomment one of these blocks, depending on what units
# you are using in LAMMPS and for output

# metal units, elastic constants in eV/A^3
#units		metal
#variable cfac equal 6.2414e-7
#variable cunits string eV/A^3

# metal units, elastic constants in GPa
units		metal
variable cfac equal 1.0e-4
variable cunits string GPa

# real units, elastic constants in GPa
#units		real
#variable cfac equal 1.01325e-4
#variable cunits string GPa

# Define minimization parameters
variable etol equal 0.0
variable ftol equal 1.0e-10
variable maxiter equal 100
variable maxeval equal 1000
variable dmax equal 1.0e-2

# generate the box and atom positions using a diamond lattice

dimension    3
boundary     p p p
read_data    data.in
Reading data file ...
  orthogonal box = (-0.14911604 -0.14911604 -0.3643675) to (3.369492 3.369492 8.2334095)
  1 by 1 by 4 MPI processor grid
  reading atoms ...
  6 atoms
  reading velocities ...
  6 velocities
  read_data CPU = 0.001 seconds
#replicate    2 3 4
replicate    2 3 4
Replication is creating a 2x3x4 = 24 times larger system...
  orthogonal box = (-0.14911604 -0.14911604 -0.3643675) to (6.8881001 10.406708 34.026741)
  1 by 1 by 4 MPI processor grid
  144 atoms
  replicate CPU = 0.000 seconds
change_box   all triclinic
Changing box ...
  triclinic box = (-0.14911604 -0.14911604 -0.3643675) to (6.8881001 10.406708 34.026741) with tilt (0 0 0)

# Need to set mass to something, just to satisfy LAMMPS
mass 1 1.0e-20

include potential.mod
# NOTE: This script can be modified for different pair styles
# See in.elastic for more info.

# Choose potential
#-----------------------
#pair_style	sw
#pair_coeff * * Si.sw Si
#-----------------------
#pair_style morse	2.83994742	# D0[eV] a[1/A] r0[A] rc[A], 1NN for BCC
#pair_coeff 1 1	2.1173	1.0202	2.4595	2.6497	#	Fe-Fe
#-----------------------
#pair_style smatb # R0(A)   p       q     A(eV)   xi(eV)  Rcs(A)   Rc(A), 4NN: Rcs=4NN, Rc=(4NN+5NN)/2
#pair_coeff 1 1	2.4802	7.0149	2.3779	0.3144	3.0551	4.033	4.176	#	Co	Co
#-----------------------
#pair_style eam/alloy
#pair_coeff * * AlCrFeCoNi_Zhou04.eam.alloy Fe
#-----------------------
pair_style meam
pair_coeff * * ./../../library.meam Mo Si ./../../MoSi.meam Mo Si
#-----------------------

# Setup neighbor style
neighbor 1.0 nsq
neigh_modify once no every 1 delay 0 check yes

# Setup minimization style
min_style	     cg
min_modify	     dmax ${dmax} line quadratic
min_modify	     dmax 0.01 line quadratic

# Setup output
thermo		1
thermo_style custom step temp pe press pxx pyy pzz pxy pxz pyz lx ly lz vol
thermo_modify norm no

# Compute initial state
fix 3 all box/relax  aniso 0.0
minimize ${etol} ${ftol} ${maxiter} ${maxeval}
minimize 0 ${ftol} ${maxiter} ${maxeval}
minimize 0 1e-10 ${maxiter} ${maxeval}
minimize 0 1e-10 100 ${maxeval}
minimize 0 1e-10 100 1000
Neighbor list info ...
  update: every = 1 steps, delay = 0 steps, check = yes
  max neighbors/atom: 2000, page size: 100000
  master list distance cutoff = 5.3
  ghost atom cutoff = 5.3
  2 neighbor lists, perpetual/occasional/extra = 2 0 0
  (1) pair meam, perpetual
      attributes: full, newton on
      pair build: full/nsq
      stencil: none
      bin: none
  (2) pair meam, perpetual, half/full from (1)
      attributes: half, newton on
      pair build: halffull/newton
      stencil: none
      bin: none
Per MPI rank memory allocation (min/avg/max) = 9.808 | 9.808 | 9.808 Mbytes
   Step          Temp          PotEng         Press           Pxx            Pyy            Pzz            Pxy            Pxz            Pyz             Lx             Ly             Lz           Volume    
         0   0             -836.65809      16493.067      27588.854      27588.854     -5698.5078      9.3986371e-11 -7.5380572e-11 -2.228083e-11   7.0372161      10.555824      34.391108      2554.6959    
         1   0             -836.66728      16149.881      27199.116      27199.116     -5948.5893      8.4457265e-12 -2.0040449e-11  6.6830503e-12  7.0379199      10.55688       34.390398      2555.1541    
         2   0             -836.67637      15810.301      26811.879      26811.879     -6192.855       2.4772039e-11 -3.2408762e-11 -1.9488759e-11  7.0386236      10.557935      34.389645      2555.6092    
         3   0             -836.68536      15474.352      26427.156      26427.156     -6431.2569     -4.8439813e-11  1.0342874e-11  8.9075715e-12  7.0393273      10.558991      34.388851      2556.0612    
         4   0             -836.69426      15142.06       26044.963      26044.963     -6663.7467      3.0897606e-11 -8.7059703e-12 -4.4530038e-12  7.040031       10.560047      34.388014      2556.51      
         5   0             -836.70306      14813.449      25665.312      25665.312     -6890.2761      1.2546891e-11 -1.0425343e-10 -2.6156837e-11  7.0407348      10.561102      34.387133      2556.9557    
         6   0             -836.71176      14488.546      25288.218      25288.218     -7110.7973     -2.2862081e-11  2.0544519e-11  0              7.0414385      10.562158      34.386209      2557.3981    
         7   0             -836.72038      14167.375      24913.694      24913.694     -7325.2623     -5.1055295e-11 -2.3835547e-11 -5.5633663e-13  7.0421422      10.563213      34.385242      2557.8373    
         8   0             -836.7289       13849.961      24541.754      24541.754     -7533.6233     -3.6921094e-11  3.9267196e-11  1.2793562e-11  7.0428459      10.564269      34.38423       2558.2733    
         9   0             -836.73734      13536.329      24172.411      24172.411     -7735.8327      6.6012134e-11  4.051189e-11  -9.4545122e-12  7.0435496      10.565324      34.383173      2558.7059    
        10   0             -836.74569      13226.504      23805.677      23805.677     -7931.8433      1.1495992e-10  7.2895267e-12 -1.6681634e-12  7.0442534      10.56638       34.382071      2559.1352    
        11   0             -836.75395      12920.509      23441.567      23441.567     -8121.6083     -5.0384052e-12  4.3347658e-12  3.1133869e-11  7.0449571      10.567436      34.380924      2559.5611    
        12   0             -836.76213      12618.368      23080.092      23080.092     -8305.0815     -1.2798803e-10  3.9466783e-11  8.3380528e-12  7.0456608      10.568491      34.37973       2559.9836    
        13   0             -836.77023      12320.104      22721.265      22721.265     -8482.2169      1.8428097e-11 -1.2730817e-11 -2.8900519e-11  7.0463645      10.569547      34.378491      2560.4027    
        14   0             -836.77825      12025.742      22365.097      22365.097     -8652.9695      3.878427e-12  -9.019527e-11  -1.8893426e-11  7.0470683      10.570602      34.377205      2560.8184    
        15   0             -836.78619      11735.302      22011.6        22011.6       -8817.295      -2.4245627e-11  1.61992e-11    9.4451927e-12  7.047772       10.571658      34.375872      2561.2305    
        16   0             -836.79405      11448.806      21660.784      21660.784     -8975.1505     -5.8332989e-11 -1.7594073e-11 -3.4441678e-11  7.0484757      10.572714      34.374492      2561.6392    
        17   0             -836.80184      11166.275      21312.659      21312.659     -9126.4932     -2.5525597e-11 -2.206939e-11   1.2219308e-11  7.0491794      10.573769      34.373064      2562.0443    
        18   0             -836.80955      10887.731      20967.237      20967.237     -9271.2809      2.3880536e-11 -1.573163e-11  -3.38755e-11    7.0498831      10.574825      34.371588      2562.4458    
        19   0             -836.81718      10613.193      20624.526      20624.526     -9409.4727      2.1712221e-11  2.378031e-11   1.5546996e-11  7.0505869      10.57588       34.370064      2562.8437    
        20   0             -836.82475      10342.681      20284.536      20284.536     -9541.0289     -4.2527547e-11 -3.5903525e-11  1.6654933e-12  7.0512906      10.576936      34.368491      2563.2381    
        21   0             -836.83224      10076.213      19947.276      19947.276     -9665.911      -4.8734274e-11  5.6123775e-11 -2.2758273e-11  7.0519943      10.577991      34.366869      2563.6287    
        22   0             -836.83967      9813.8086      19612.754      19612.754     -9784.0817      2.3704402e-11  1.9554939e-11  7.6589455e-11  7.052698       10.579047      34.365197      2564.0157    
        23   0             -836.84702      9555.4833      19280.978      19280.978     -9895.5053      4.7950128e-11  8.8872801e-12 -6.7144485e-11  7.0534017      10.580103      34.363477      2564.399     
        24   0             -836.85431      9301.2535      18951.954      18951.954     -10000.147      2.0198231e-11 -3.3922712e-11 -4.1612323e-11  7.0541055      10.581158      34.361706      2564.7786    
        25   0             -836.86153      9051.1342      18625.689      18625.689     -10097.976      1.2638975e-11  4.316646e-11   3.6058729e-11  7.0548092      10.582214      34.359886      2565.1544    
        26   0             -836.86869      8805.1394      18302.189      18302.189     -10188.959     -2.6514706e-11  1.0417381e-11 -1.3312061e-11  7.0555129      10.583269      34.358015      2565.5265    
        27   0             -836.87578      8563.2815      17981.457      17981.457     -10273.069      5.8669515e-11  2.2356894e-12 -5.1022244e-11  7.0562166      10.584325      34.356093      2565.8948    
        28   0             -836.8828       8325.5721      17663.498      17663.498     -10350.28      -1.8573947e-11 -3.394646e-11  -8.3176626e-12  7.0569204      10.585381      34.354121      2566.2593    
        29   0             -836.88977      8092.021       17348.314      17348.314     -10420.566     -1.072048e-11   4.3548973e-11  3.2157109e-11  7.0576241      10.586436      34.352098      2566.62      
        30   0             -836.89667      7862.6368      17035.908      17035.908     -10483.905     -8.1518458e-12  4.6817083e-11  1.0532761e-11  7.0583278      10.587492      34.350024      2566.9769    
        31   0             -836.90351      7637.4266      16726.28       16726.28      -10540.279      2.5933141e-11  2.6042481e-11 -1.6628388e-12  7.0590315      10.588547      34.347899      2567.3299    
        32   0             -836.9103       7416.3959      16419.429      16419.429     -10589.671     -4.1874892e-11 -1.176818e-11  -5.5420423e-13  7.0597352      10.589603      34.345722      2567.6791    
        33   0             -836.91702      7199.5483      16115.355      16115.355     -10632.065     -1.9017905e-11 -1.1385634e-11 -2.2719318e-11  7.060439       10.590658      34.343494      2568.0244    
        34   0             -836.92368      6986.8859      15814.055      15814.055     -10667.453     -6.2584525e-11  7.5663278e-12 -3.3243362e-12  7.0611427      10.591714      34.341214      2568.3658    
        35   0             -836.93029      6778.4088      15515.525      15515.525     -10695.824      3.3774583e-11  9.971698e-12  -9.971698e-12   7.0618464      10.59277       34.338883      2568.7034    
        36   0             -836.93683      6574.115       15219.761      15219.761     -10717.176      7.5163162e-11  3.9119983e-12 -5.5391126e-12  7.0625501      10.593825      34.336501      2569.0371    
        37   0             -836.94332      6374.0009      14926.755      14926.755     -10731.507      7.8110934e-12  3.1499659e-11 -1.2184484e-11  7.0632538      10.594881      34.334066      2569.3669    
        38   0             -836.94976      6178.0603      14636.5        14636.5       -10738.819      3.8746588e-11  7.8721854e-11 -2.2704566e-11  7.0639576      10.595936      34.331581      2569.6929    
        39   0             -836.95613      5986.2851      14348.987      14348.987     -10739.118     -3.6692392e-11  9.2571804e-13  1.2181411e-11  7.0646613      10.596992      34.329043      2570.0149    
        40   0             -836.96245      5798.665       14064.205      14064.205     -10732.414     -4.7080343e-12 -1.7361552e-11  1.0519007e-11  7.065365       10.598048      34.326455      2570.3331    
        41   0             -836.96872      5615.1874      13782.141      13782.141     -10718.72      -7.6634054e-12 -8.3640101e-12 -1.2731978e-11  7.0660687      10.599103      34.323815      2570.6475    
        42   0             -836.97492      5435.8361      13502.782      13502.782     -10698.055      7.7970706e-11 -3.3875772e-11  3.5977332e-11  7.0667725      10.600159      34.321124      2570.958     
        43   0             -836.98108      5260.5928      13226.11       13226.11      -10670.443      5.9785725e-12 -1.2728922e-11  0              7.0674762      10.601214      34.318382      2571.2646    
        44   0             -836.98717      5089.437       12952.11       12952.11      -10635.909     -4.1507872e-11 -7.04245e-11    1.1067325e-11  7.0681799      10.60227       34.31559       2571.5674    
        45   0             -836.99321      4922.3453      12680.761      12680.761     -10594.487     -7.0167759e-12 -6.1364639e-11 -1.6045755e-11  7.0688836      10.603325      34.312747      2571.8664    
        46   0             -836.99919      4759.292       12412.044      12412.044     -10546.213     -5.1477104e-12  1.1427831e-11 -1.6597152e-11  7.0695873      10.604381      34.309854      2572.1617    
        47   0             -837.00512      4600.2479      12145.936      12145.936     -10491.128     -3.2759455e-11 -4.4020686e-11  3.9828652e-11  7.0702911      10.605437      34.306912      2572.4531    
        48   0             -837.01099      4445.1813      11882.412      11882.412     -10429.28      -7.5934321e-12 -2.5754364e-12  5.5311385e-13  7.0709948      10.606492      34.30392       2572.7408    
        49   0             -837.01681      4294.0574      11621.446      11621.446     -10360.719      2.3928175e-11 -4.7536616e-11 -2.7099587e-11  7.0716985      10.607548      34.300879      2573.0249    
        50   0             -837.02257      4146.8384      11363.01       11363.01      -10285.504     -6.5149434e-11  6.0103377e-11  2.5437657e-11  7.0724022      10.608603      34.29779       2573.3052    
        51   0             -837.02827      4003.4831      11107.073      11107.073     -10203.696      8.5845022e-12 -1.7780255e-11 -1.4929193e-11  7.073106       10.609659      34.294653      2573.5819    
        52   0             -837.03392      3863.9477      10853.604      10853.604     -10115.365     -2.9088537e-11  6.0021429e-11 -4.5335702e-11  7.0738097      10.610715      34.291468      2573.855     
        53   0             -837.03951      3728.1847      10602.568      10602.568     -10020.583     -2.9293877e-11 -1.8217032e-11  1.8242945e-11  7.0745134      10.61177       34.288237      2574.1246    
        54   0             -837.04504      3596.1436      10353.93       10353.93      -9919.4293      5.5459472e-12 -3.0315398e-11 -1.1055188e-11  7.0752171      10.612826      34.28496       2574.3906    
        55   0             -837.05051      3467.7709      10107.651      10107.651     -9811.9897     -5.862754e-11   2.6676556e-11 -3.2056775e-11  7.0759208      10.613881      34.281637      2574.6532    
        56   0             -837.05592      3343.0095      9863.6914      9863.6914     -9698.3544     -4.5664649e-11 -1.0379409e-11 -1.6579422e-11  7.0766246      10.614937      34.278269      2574.9124    
        57   0             -837.06128      3221.7992      9622.0087      9622.0087     -9578.6198      1.3059315e-11 -1.139722e-12  -1.8235552e-11  7.0773283      10.615992      34.274858      2575.1682    
        58   0             -837.06655      3104.6107      9383.6456      9383.6456     -9453.459      -2.5273243e-11 -2.935361e-11   3.2047236e-11  7.0780288      10.617043      34.271419      2575.4196    
        59   0             -837.0717       2992.1836      9150.2964      9150.2964     -9324.0418     -1.0931021e-11  2.8832861e-12  3.4254129e-11  7.0787209      10.618081      34.267979      2575.6648    
        60   0             -837.07674      2884.2553      8921.6807      8921.6807     -9190.5956      4.5457169e-12  1.3085795e-11 -4.6956943e-11  7.079405       10.619107      34.26454       2575.9041    
        61   0             -837.08166      2780.5796      8697.5363      8697.5363     -9053.3336      4.2922001e-11 -4.9170851e-11  6.1314679e-11  7.0800815      10.620122      34.261101      2576.1378    
        62   0             -837.08648      2680.9258      8477.6167      8477.6167     -8912.4562      5.8189407e-11 -4.4816847e-11  2.209342e-11   7.080751       10.621126      34.257662      2576.3664    
        63   0             -837.09119      2585.0765      8261.6907      8261.6907     -8768.1519      6.1668516e-12 -3.6192094e-11 -4.086928e-11   7.0814137      10.622121      34.254223      2576.59      
        64   0             -837.09581      2492.8272      8049.5402      8049.5402     -8620.5988      5.4996481e-11  4.996915e-11  -2.9820995e-11  7.08207        10.623105      34.250784      2576.8088    
        65   0             -837.10033      2403.9846      7840.9595      7840.9595     -8469.9653      1.2689693e-11 -1.930093e-11   1.1043894e-11  7.0827203      10.62408       34.247345      2577.0233    
        66   0             -837.10476      2318.366       7635.7544      7635.7544     -8316.4107      2.4435857e-11 -3.2093698e-12 -1.9877387e-11  7.0833648      10.625047      34.243906      2577.2335    
        67   0             -837.1091       2235.7985      7433.7408      7433.7408     -8160.0862     -2.5892884e-11 -1.7029003e-11  2.0427902e-11  7.084004       10.626006      34.240467      2577.4398    
        68   0             -837.11336      2156.1179      7234.7445      7234.7445     -8001.1354      3.1228169e-11 -3.6919152e-12  5.0789713e-11  7.0846381      10.626957      34.237027      2577.6423    
        69   0             -837.11753      2079.1681      7038.5999      7038.5999     -7839.6954     -9.5902605e-12 -3.7709832e-11 -2.3184819e-11  7.0852673      10.627901      34.233588      2577.8412    
        70   0             -837.12163      2004.8008      6845.1497      6845.1497     -7675.8971     -6.5814707e-11  3.4895335e-11 -2.2079105e-11  7.0858919      10.628838      34.230149      2578.0367    
        71   0             -837.12565      1932.8742      6654.2441      6654.2441     -7509.8654      5.2186022e-12  5.9419408e-12  7.7271102e-12  7.0865123      10.629768      34.22671       2578.2291    
        72   0             -837.1296       1863.2535      6465.7404      6465.7404     -7341.7203     -3.7009364e-11  9.0554047e-11  1.3797398e-11  7.0871285      10.630693      34.223271      2578.4184    
        73   0             -837.13348      1795.8095      6279.5025      6279.5025     -7171.5765      2.1071846e-12  3.5974114e-11  1.103712e-12   7.0877409      10.631611      34.219832      2578.6049    
        74   0             -837.13729      1730.4188      6095.4001      6095.4001     -6999.5439     -2.2374442e-11 -4.5412789e-11  2.2072667e-11  7.0883496      10.632524      34.216393      2578.7886    
        75   0             -837.14104      1666.9635      5913.3086      5913.3086     -6825.7269      1.084804e-11  -2.6442232e-11  3.3106675e-12  7.088955       10.633432      34.212954      2578.9698    
        76   0             -837.14473      1605.33        5733.109       5733.109      -6650.2281     -2.2597618e-12  3.0725002e-11  4.6897871e-11  7.089557       10.634336      34.209515      2579.1486    
        77   0             -837.14836      1545.4094      5554.6875      5554.6875     -6473.1467     -4.7519636e-13  3.4076213e-11 -1.158574e-11   7.090156       10.635234      34.206076      2579.3252    
        78   0             -837.15193      1487.0971      5377.935       5377.935      -6294.5786      5.7758853e-11 -4.2917782e-11  5.516646e-12   7.0907522      10.636128      34.202636      2579.4996    
        79   0             -837.15545      1430.2924      5202.7469      5202.7469     -6114.6167      6.3984508e-11  5.2645973e-11  2.3168365e-11  7.0913456      10.637018      34.199197      2579.6719    
        80   0             -837.15893      1374.8983      5029.0232      5029.0232     -5933.3516     -8.496876e-11  -1.5487649e-11 -4.9091625e-11  7.0919365      10.637905      34.195758      2579.8424    
        81   0             -837.16235      1320.8215      4856.6679      4856.6679     -5750.8712     -9.5541862e-12 -4.9441756e-11  5.6810189e-11  7.092525       10.638788      34.192319      2580.0111    
        82   0             -837.16573      1267.972       4685.5887      4685.5887     -5567.2614     -5.2965264e-12 -3.7477476e-11 -7.7212735e-12  7.0931113      10.639667      34.18888       2580.1781    
        83   0             -837.16907      1216.263       4515.6976      4515.6976     -5382.6062     -3.1287033e-11  1.7578558e-12  1.8198978e-11  7.0936954      10.640543      34.185441      2580.3435    
        84   0             -837.17238      1165.6107      4346.9101      4346.9101     -5196.988      -8.42037e-12   -4.0781388e-11  3.1432601e-11  7.0942776      10.641416      34.182002      2580.5074    
        85   0             -837.17565      1115.9344      4179.1454      4179.1454     -5010.4876      3.0357948e-11 -6.4145005e-11  8.2712162e-12  7.0948579      10.642287      34.178563      2580.6699    
        86   0             -837.1789       1067.1561      4012.3264      4012.3264     -4823.1844      1.608048e-11   1.9143223e-11 -1.5438639e-11  7.0954365      10.643155      34.175124      2580.8311    
        87   0             -837.18212      1019.2004      3846.3795      3846.3795     -4635.1577      2.8644137e-13  7.9600549e-11 -1.6540374e-12  7.0960135      10.64402       34.171684      2580.9911    
        88   0             -837.18532      971.9947       3681.2349      3681.2349     -4446.4857     -3.0384606e-11 -5.5389614e-12 -7.0567919e-11  7.0965889      10.644883      34.168245      2581.1499    
        89   0             -837.18852      925.46885      3516.8267      3516.8267     -4257.2469      1.198384e-11   1.1516546e-11 -2.2602406e-11  7.0971629      10.645744      34.164806      2581.3076    
        90   0             -837.1917       879.55591      3353.0928      3353.0928     -4067.5179      2.9549732e-11 -1.2015412e-11 -4.9612025e-12  7.0977355      10.646603      34.161367      2581.4643    
        91   0             -837.19488      834.19138      3189.9751      3189.9751     -3877.3761     -1.5903313e-11 -1.8517261e-11 -5.4569937e-11  7.0983069      10.64746       34.157928      2581.62      
        92   0             -837.19808      789.31276      3027.4201      3027.4201     -3686.9019     -3.5219442e-11 -4.0494392e-11 -2.5905387e-11  7.0988769      10.648315      34.154489      2581.7747    
        93   0             -837.20128      744.86032      2865.379       2865.379      -3496.177       1.9688385e-11 -1.7998349e-11 -3.4171028e-11  7.0994458      10.649169      34.15105       2581.9285    
        94   0             -837.20452      700.77722      2703.8086      2703.8086     -3305.2856     -5.7434153e-11  4.6000712e-11 -4.24357e-11    7.1000135      10.65002       34.147611      2582.0814    
        95   0             -837.2078       657.00968      2542.6721      2542.6721     -3114.3151     -3.2886162e-11 -6.9401706e-12 -5.4556974e-11  7.1005801      10.65087       34.144172      2582.2334    
        96   0             -837.21113      613.5073       2381.9397      2381.9397     -2923.3576      2.2623116e-11  3.8117044e-11  1.4327256e-11  7.1011454      10.651718      34.140732      2582.3845    
        97   0             -837.21453      570.22339      2221.5905      2221.5905     -2732.5109      2.9475066e-11  3.3147073e-12 -1.1571342e-11  7.1017095      10.652564      34.137293      2582.5346    
        98   0             -837.21801      527.11559      2061.6139      2061.6139     -2541.881       5.1077982e-11 -1.8044741e-11  1.3774612e-11  7.1022723      10.653408      34.133854      2582.6837    
        99   0             -837.22162      484.14655      1902.012       1902.012      -2351.5844      2.3561845e-11  4.9835411e-11 -5.0136713e-11  7.1028336      10.65425       34.130415      2582.8317    
       100   0             -837.22537      441.28501      1742.8036      1742.8036     -2161.7521     -2.7135041e-11 -1.0243698e-11 -4.4073728e-12  7.1033932      10.65509       34.126976      2582.9784    
Loop time of 0.016186 on 4 procs for 100 steps with 144 atoms

24.1% CPU use with 4 MPI tasks x 1 OpenMP threads

Minimization stats:
  Stopping criterion = max iterations
  Energy initial, next-to-last, final = 
     -836.658092989048  -837.221618267306  -837.225365818954
  Force two-norm initial, final = 63.778676 11.800267
  Force max component initial, final = 43.990866 3.5120823
  Final line search alpha, max atom move = 2.6178761e-05 9.1941963e-05
  Iterations, force evaluations = 100 100

MPI task timing breakdown:
Section |  min time  |  avg time  |  max time  |%varavg| %total
---------------------------------------------------------------
Pair    | 0.010435   | 0.010476   | 0.010513   |   0.0 | 64.72
Neigh   | 0          | 0          | 0          |   0.0 |  0.00
Comm    | 0.000605   | 0.00068125 | 0.000736   |   0.0 |  4.21
Output  | 0.000975   | 0.0010503  | 0.001196   |   0.3 |  6.49
Modify  | 0          | 0          | 0          |   0.0 |  0.00
Other   |            | 0.003979   |            |       | 24.58

Nlocal:             36 ave          36 max          36 min
Histogram: 4 0 0 0 0 0 0 0 0 0
Nghost:            438 ave         438 max         438 min
Histogram: 4 0 0 0 0 0 0 0 0 0
Neighs:            612 ave         612 max         612 min
Histogram: 4 0 0 0 0 0 0 0 0 0
FullNghs:         1224 ave        1224 max        1224 min
Histogram: 4 0 0 0 0 0 0 0 0 0

Total # of neighbors = 4896
Ave neighs/atom = 34
Neighbor list builds = 0
Dangerous builds = 0

variable tmp equal pxx
variable pxx0 equal ${tmp}
variable pxx0 equal 1742.80357747464
variable tmp equal pyy
variable pyy0 equal ${tmp}
variable pyy0 equal 1742.80357747672
variable tmp equal pzz
variable pzz0 equal ${tmp}
variable pzz0 equal -2161.75213987911
variable tmp equal pyz
variable pyz0 equal ${tmp}
variable pyz0 equal -4.40737277058706e-12
variable tmp equal pxz
variable pxz0 equal ${tmp}
variable pxz0 equal -1.02436984316379e-11
variable tmp equal pxy
variable pxy0 equal ${tmp}
variable pxy0 equal -2.71350406564122e-11

variable tmp equal lx
variable lx0 equal ${tmp}
variable lx0 equal 7.10339320913273
variable tmp equal ly
variable ly0 equal ${tmp}
variable ly0 equal 10.6550898136991
variable tmp equal lz
variable lz0 equal ${tmp}
variable lz0 equal 34.1269759526387

# These formulas define the derivatives w.r.t. strain components
# Constants uses $, variables use v_
variable d1 equal -(v_pxx1-${pxx0})/(v_delta/v_len0)*${cfac}
variable d1 equal -(v_pxx1-1742.80357747464)/(v_delta/v_len0)*${cfac}
variable d1 equal -(v_pxx1-1742.80357747464)/(v_delta/v_len0)*0.0001
variable d2 equal -(v_pyy1-${pyy0})/(v_delta/v_len0)*${cfac}
variable d2 equal -(v_pyy1-1742.80357747672)/(v_delta/v_len0)*${cfac}
variable d2 equal -(v_pyy1-1742.80357747672)/(v_delta/v_len0)*0.0001
variable d3 equal -(v_pzz1-${pzz0})/(v_delta/v_len0)*${cfac}
variable d3 equal -(v_pzz1--2161.75213987911)/(v_delta/v_len0)*${cfac}
variable d3 equal -(v_pzz1--2161.75213987911)/(v_delta/v_len0)*0.0001
variable d4 equal -(v_pyz1-${pyz0})/(v_delta/v_len0)*${cfac}
variable d4 equal -(v_pyz1--4.40737277058706e-12)/(v_delta/v_len0)*${cfac}
variable d4 equal -(v_pyz1--4.40737277058706e-12)/(v_delta/v_len0)*0.0001
variable d5 equal -(v_pxz1-${pxz0})/(v_delta/v_len0)*${cfac}
variable d5 equal -(v_pxz1--1.02436984316379e-11)/(v_delta/v_len0)*${cfac}
variable d5 equal -(v_pxz1--1.02436984316379e-11)/(v_delta/v_len0)*0.0001
variable d6 equal -(v_pxy1-${pxy0})/(v_delta/v_len0)*${cfac}
variable d6 equal -(v_pxy1--2.71350406564122e-11)/(v_delta/v_len0)*${cfac}
variable d6 equal -(v_pxy1--2.71350406564122e-11)/(v_delta/v_len0)*0.0001

displace_atoms all random ${atomjiggle} ${atomjiggle} ${atomjiggle} 87287 units box
displace_atoms all random 1e-05 ${atomjiggle} ${atomjiggle} 87287 units box
displace_atoms all random 1e-05 1e-05 ${atomjiggle} 87287 units box
displace_atoms all random 1e-05 1e-05 1e-05 87287 units box
Displacing atoms ...

# Write restart
unfix 3
write_restart restart.equil
System init for write_restart ...

# uxx Perturbation

variable dir equal 1
include displace.mod
# NOTE: This script should not need to be
# modified. See in.elastic for more info.
#
# Find which reference length to use

if "${dir} == 1" then    "variable len0 equal ${lx0}"
variable len0 equal ${lx0}
variable len0 equal 7.10339320913273
if "${dir} == 2" then    "variable len0 equal ${ly0}"
if "${dir} == 3" then    "variable len0 equal ${lz0}"
if "${dir} == 4" then    "variable len0 equal ${lz0}"
if "${dir} == 5" then    "variable len0 equal ${lz0}"
if "${dir} == 6" then    "variable len0 equal ${ly0}"

# Reset box and simulation parameters

clear
  using 1 OpenMP thread(s) per MPI task
Loaded 1 plugins from C:\Program Files\LAMMPS 64-bit 23Jun2022\plugins
Loaded 0 plugins from C:\Program Files\LAMMPS 64-bit 23Jun2022-MPI\plugins
Loaded 1 plugins from C:\Program Files\LAMMPS 64-bit 22Dec2022-MSMPI\plugins
Loaded 1 plugins from C:\Program Files\LAMMPS 64-bit 28Mar2023-MPI\plugins
box tilt large

The 'box' command has been removed and will be ignored

read_restart restart.equil
Reading restart file ...
  restart file = 22 Dec 2022, LAMMPS = 22 Dec 2022
  restoring atom style atomic from restart
  triclinic box = (-0.18220457 -0.19874883 -0.23230147) to (6.9211886 10.456341 33.894674) with tilt (0 0 0)
  1 by 1 by 4 MPI processor grid
  pair style meam stores no restart info
  144 atoms
  read_restart CPU = 0.000 seconds
include potential.mod
# NOTE: This script can be modified for different pair styles
# See in.elastic for more info.

# Choose potential
#-----------------------
#pair_style	sw
#pair_coeff * * Si.sw Si
#-----------------------
#pair_style morse	2.83994742	# D0[eV] a[1/A] r0[A] rc[A], 1NN for BCC
#pair_coeff 1 1	2.1173	1.0202	2.4595	2.6497	#	Fe-Fe
#-----------------------
#pair_style smatb # R0(A)   p       q     A(eV)   xi(eV)  Rcs(A)   Rc(A), 4NN: Rcs=4NN, Rc=(4NN+5NN)/2
#pair_coeff 1 1	2.4802	7.0149	2.3779	0.3144	3.0551	4.033	4.176	#	Co	Co
#-----------------------
#pair_style eam/alloy
#pair_coeff * * AlCrFeCoNi_Zhou04.eam.alloy Fe
#-----------------------
pair_style meam
pair_coeff * * ./../../library.meam Mo Si ./../../MoSi.meam Mo Si
#-----------------------

# Setup neighbor style
neighbor 1.0 nsq
neigh_modify once no every 1 delay 0 check yes

# Setup minimization style
min_style	     cg
min_modify	     dmax ${dmax} line quadratic
min_modify	     dmax 0.01 line quadratic

# Setup output
thermo		1
thermo_style custom step temp pe press pxx pyy pzz pxy pxz pyz lx ly lz vol
thermo_modify norm no

# Negative deformation

variable delta equal -${up}*${len0}
variable delta equal -1e-06*${len0}
variable delta equal -1e-06*7.10339320913273
variable deltaxy equal -${up}*xy
variable deltaxy equal -1e-06*xy
variable deltaxz equal -${up}*xz
variable deltaxz equal -1e-06*xz
variable deltayz equal -${up}*yz
variable deltayz equal -1e-06*yz
if "${dir} == 1" then    "change_box all x delta 0 ${delta} xy delta ${deltaxy} xz delta ${deltaxz} remap units box"
change_box all x delta 0 ${delta} xy delta ${deltaxy} xz delta ${deltaxz} remap units box
change_box all x delta 0 -7.10339320913273e-06 xy delta ${deltaxy} xz delta ${deltaxz} remap units box
change_box all x delta 0 -7.10339320913273e-06 xy delta -0 xz delta ${deltaxz} remap units box
change_box all x delta 0 -7.10339320913273e-06 xy delta -0 xz delta -0 remap units box
Changing box ...
  triclinic box = (-0.18220457 -0.19874883 -0.23230147) to (6.9211815 10.456341 33.894674) with tilt (0 0 0)
  triclinic box = (-0.18220457 -0.19874883 -0.23230147) to (6.9211815 10.456341 33.894674) with tilt (0 0 0)
  triclinic box = (-0.18220457 -0.19874883 -0.23230147) to (6.9211815 10.456341 33.894674) with tilt (0 0 0)
if "${dir} == 2" then    "change_box all y delta 0 ${delta} yz delta ${deltayz} remap units box"
if "${dir} == 3" then    "change_box all z delta 0 ${delta} remap units box"
if "${dir} == 4" then    "change_box all yz delta ${delta} remap units box"
if "${dir} == 5" then    "change_box all xz delta ${delta} remap units box"
if "${dir} == 6" then    "change_box all xy delta ${delta} remap units box"

# Relax atoms positions

minimize ${etol} ${ftol} ${maxiter} ${maxeval}
minimize 0 ${ftol} ${maxiter} ${maxeval}
minimize 0 1e-10 ${maxiter} ${maxeval}
minimize 0 1e-10 100 ${maxeval}
minimize 0 1e-10 100 1000
Neighbor list info ...
  update: every = 1 steps, delay = 0 steps, check = yes
  max neighbors/atom: 2000, page size: 100000
  master list distance cutoff = 5.3
  ghost atom cutoff = 5.3
  2 neighbor lists, perpetual/occasional/extra = 2 0 0
  (1) pair meam, perpetual
      attributes: full, newton on
      pair build: full/nsq
      stencil: none
      bin: none
  (2) pair meam, perpetual, half/full from (1)
      attributes: half, newton on
      pair build: halffull/newton
      stencil: none
      bin: none
Per MPI rank memory allocation (min/avg/max) = 9.757 | 9.759 | 9.761 Mbytes
   Step          Temp          PotEng         Press           Pxx            Pyy            Pzz            Pxy            Pxz            Pyz             Lx             Ly             Lz           Volume    
       100   0             -837.22546      442.73374      1745.1169      1743.9187     -2160.8344     -3.6690081e-07 -0.036891463   -0.00025078531  7.1033861      10.65509       34.126976      2582.9758    
       101   0             -838.11404     -3769.8584     -1096.8267     -1098.0395     -9114.7089      5.6110254e-08 -0.032316936   -0.00021888842  7.1033861      10.65509       34.126976      2582.9758    
       102   0             -838.71992     -7242.3002     -3503.0926     -3504.3197     -14719.488     -4.9891996e-08 -0.026815825   -0.00018097365  7.1033861      10.65509       34.126976      2582.9758    
       103   0             -839.05457     -9992.5722     -5481.0269     -5482.2677     -19014.422     -4.0123705e-07 -0.019884016   -0.00013366546  7.1033861      10.65509       34.126976      2582.9758    
       104   0             -839.13416     -11670.835     -6749.5307     -6750.7819     -21512.193     -7.5180567e-07 -0.011116241   -7.4464504e-05  7.1033861      10.65509       34.126976      2582.9758    
       105   0             -839.13417     -11665.064     -6745.0331     -6746.2842     -21503.875     -1.2062061e-06 -0.0063410821  -4.2582387e-05  7.1033861      10.65509       34.126976      2582.9758    
       106   0             -839.13417     -11665.055     -6745.0263     -6746.2774     -21503.862     -1.6940768e-06  0.0038609636   2.5174899e-05  7.1033861      10.65509       34.126976      2582.9758    
       107   0             -839.13417     -11665.073     -6745.0398     -6746.291      -21503.887     -9.6220363e-07  0.00073208764  4.7494448e-06  7.1033861      10.65509       34.126976      2582.9758    
       108   0             -839.13417     -11665.055     -6745.0257     -6746.2769     -21503.861     -7.1319388e-07 -0.00072713547 -4.8028634e-06  7.1033861      10.65509       34.126976      2582.9758    
       109   0             -839.13417     -11665.06      -6745.0298     -6746.281      -21503.869     -4.7875371e-07 -0.00085971337 -5.6830268e-06  7.1033861      10.65509       34.126976      2582.9758    
       110   0             -839.13417     -11665.069     -6745.0366     -6746.2877     -21503.881     -2.9799607e-07  0.00010996018  6.7806712e-07  7.1033861      10.65509       34.126976      2582.9758    
       111   0             -839.13417     -11665.055     -6745.0262     -6746.2774     -21503.862     -1.9826439e-07  0.0004676824   3.0457797e-06  7.1033861      10.65509       34.126976      2582.9758    
       112   0             -839.13417     -11665.064     -6745.0333     -6746.2844     -21503.875     -1.2910215e-07  0.00015396351  9.9950068e-07  7.1033861      10.65509       34.126976      2582.9758    
       113   0             -839.13417     -11665.063     -6745.0325     -6746.2836     -21503.874     -7.0078263e-08 -0.00023395243 -1.54394e-06    7.1033861      10.65509       34.126976      2582.9758    
       114   0             -839.13417     -11665.058     -6745.0286     -6746.2797     -21503.867     -2.5548487e-08 -0.00024274322 -1.5987103e-06  7.1033861      10.65509       34.126976      2582.9758    
       115   0             -839.13417     -11665.063     -6745.0325     -6746.2836     -21503.874     -2.7010637e-09  4.1566622e-06  2.5139654e-08  7.1033861      10.65509       34.126976      2582.9758    
       116   0             -839.13417     -11665.062     -6745.0312     -6746.2824     -21503.872      7.5193212e-09  0.00016686772  1.0938617e-06  7.1033861      10.65509       34.126976      2582.9758    
       117   0             -839.13417     -11665.061     -6745.0308     -6746.282      -21503.871      1.0734653e-08  6.3266182e-05  4.1452588e-07  7.1033861      10.65509       34.126976      2582.9758    
       118   0             -839.13417     -11665.062     -6745.0316     -6746.2828     -21503.872      1.2429088e-08 -7.2107173e-05 -4.7362425e-07  7.1033861      10.65509       34.126976      2582.9758    
       119   0             -839.13417     -11665.062     -6745.0311     -6746.2823     -21503.871      1.345759e-08  -9.7113629e-05 -6.3780251e-07  7.1033861      10.65509       34.126976      2582.9758    
       120   0             -839.13417     -11665.062     -6745.0312     -6746.2823     -21503.871      1.2964029e-08  2.0889164e-05  1.3695245e-07  7.1033861      10.65509       34.126976      2582.9758    
       121   0             -839.13417     -11665.062     -6745.0315     -6746.2826     -21503.872      1.2367163e-08  8.4812019e-05  5.5661233e-07  7.1033861      10.65509       34.126976      2582.9758    
       122   0             -839.13417     -11665.062     -6745.0312     -6746.2824     -21503.872      1.0967369e-08  4.1427611e-05  2.7189385e-07  7.1033861      10.65509       34.126976      2582.9758    
       123   0             -839.13417     -11665.062     -6745.0313     -6746.2824     -21503.872      9.1246739e-09 -4.7589506e-05 -3.1244952e-07  7.1033861      10.65509       34.126976      2582.9758    
       124   0             -839.13417     -11665.062     -6745.0313     -6746.2825     -21503.872      7.6111121e-09 -4.1138616e-05 -2.7023856e-07  7.1033861      10.65509       34.126976      2582.9758    
       125   0             -839.13417     -11665.062     -6745.0312     -6746.2824     -21503.872      6.0718938e-09  1.1737427e-05  7.6775675e-08  7.1033861      10.65509       34.126976      2582.9758    
       126   0             -839.13417     -11665.062     -6745.0313     -6746.2824     -21503.872      4.4268962e-09  5.2275988e-05  3.4292416e-07  7.1033861      10.65509       34.126976      2582.9758    
       127   0             -839.13417     -11665.062     -6745.0313     -6746.2824     -21503.872      2.8981625e-09  1.1395231e-05  7.4723835e-08  7.1033861      10.65509       34.126976      2582.9758    
       128   0             -839.13417     -11665.062     -6745.0312     -6746.2824     -21503.872      1.7552875e-09 -4.5969909e-05 -3.0167139e-07  7.1033861      10.65509       34.126976      2582.9758    
       129   0             -839.13417     -11665.062     -6745.0313     -6746.2824     -21503.872      1.1595964e-09 -4.4102156e-05 -2.8941826e-07  7.1033861      10.65509       34.126976      2582.9758    
       130   0             -839.13417     -11665.062     -6745.0313     -6746.2824     -21503.872      9.8216937e-10  2.5403811e-05  1.6679077e-07  7.1033861      10.65509       34.126976      2582.9758    
       131   0             -839.13417     -11665.062     -6745.0313     -6746.2824     -21503.872      8.8166266e-10  3.8822648e-05  2.5491569e-07  7.1033861      10.65509       34.126976      2582.9758    
       132   0             -839.13417     -11665.062     -6745.0313     -6746.2824     -21503.872      7.2658238e-10  6.8736104e-07  4.601121e-09   7.1033861      10.65509       34.126976      2582.9758    
       133   0             -839.13417     -11665.062     -6745.0313     -6746.2824     -21503.872      4.6993229e-10 -2.6512845e-05 -1.7393721e-07  7.1033861      10.65509       34.126976      2582.9758    
       134   0             -839.13417     -11665.062     -6745.0313     -6746.2824     -21503.872      2.3585063e-10 -3.3141127e-06 -2.1756458e-08  7.1033861      10.65509       34.126976      2582.9758    
       135   0             -839.13417     -11665.062     -6745.0313     -6746.2824     -21503.872      8.6141843e-11  1.3414983e-05  8.8023836e-08  7.1033861      10.65509       34.126976      2582.9758    
       136   0             -839.13417     -11665.062     -6745.0313     -6746.2824     -21503.872      1.8529061e-11  1.0277404e-05  6.7489788e-08  7.1033861      10.65509       34.126976      2582.9758    
       137   0             -839.13417     -11665.062     -6745.0313     -6746.2824     -21503.872      2.3013912e-11 -4.1653967e-06 -2.7321013e-08  7.1033861      10.65509       34.126976      2582.9758    
       138   0             -839.13417     -11665.062     -6745.0313     -6746.2824     -21503.872      3.0664413e-11 -6.0315178e-06 -3.9598519e-08  7.1033861      10.65509       34.126976      2582.9758    
       139   0             -839.13417     -11665.062     -6745.0313     -6746.2824     -21503.872     -1.4046363e-11 -1.7002463e-07 -1.1255512e-09  7.1033861      10.65509       34.126976      2582.9758    
       140   0             -839.13417     -11665.062     -6745.0313     -6746.2824     -21503.872      1.2998319e-12  3.4951724e-06  2.2924069e-08  7.1033861      10.65509       34.126976      2582.9758    
       141   0             -839.13417     -11665.062     -6745.0313     -6746.2824     -21503.872      1.9185433e-11  1.3762568e-06  9.0617827e-09  7.1033861      10.65509       34.126976      2582.9758    
       142   0             -839.13417     -11665.062     -6745.0313     -6746.2824     -21503.872     -4.7243726e-11 -2.3526516e-06 -1.5425639e-08  7.1033861      10.65509       34.126976      2582.9758    
       143   0             -839.13417     -11665.062     -6745.0313     -6746.2824     -21503.872     -2.4955052e-11 -1.5373091e-06 -1.009749e-08   7.1033861      10.65509       34.126976      2582.9758    
       144   0             -839.13417     -11665.062     -6745.0313     -6746.2824     -21503.872      2.8755554e-11  1.127583e-06   7.3559125e-09  7.1033861      10.65509       34.126976      2582.9758    
       145   0             -839.13417     -11665.062     -6745.0313     -6746.2824     -21503.872     -4.8631792e-11  1.5683197e-06  1.031359e-08   7.1033861      10.65509       34.126976      2582.9758    
       146   0             -839.13417     -11665.062     -6745.0313     -6746.2824     -21503.872     -2.9267739e-13  1.1370325e-07  7.6913897e-10  7.1033861      10.65509       34.126976      2582.9758    
       147   0             -839.13417     -11665.062     -6745.0313     -6746.2824     -21503.872     -3.5024445e-11 -9.2087555e-07 -6.0452601e-09  7.1033861      10.65509       34.126976      2582.9758    
       148   0             -839.13417     -11665.062     -6745.0313     -6746.2824     -21503.872     -1.0256621e-11 -3.4761298e-07 -2.2715209e-09  7.1033861      10.65509       34.126976      2582.9758    
       149   0             -839.13417     -11665.062     -6745.0313     -6746.2824     -21503.872      1.0418024e-11  4.024132e-07   2.6400534e-09  7.1033861      10.65509       34.126976      2582.9758    
       150   0             -839.13417     -11665.062     -6745.0313     -6746.2824     -21503.872      5.0725726e-11  4.9438034e-07  3.2606327e-09  7.1033861      10.65509       34.126976      2582.9758    
       151   0             -839.13417     -11665.062     -6745.0313     -6746.2824     -21503.872     -6.2280027e-12 -1.8214268e-07 -1.230476e-09   7.1033861      10.65509       34.126976      2582.9758    
       152   0             -839.13417     -11665.062     -6745.0313     -6746.2824     -21503.872     -6.8563983e-12 -3.9355291e-07 -2.5664794e-09  7.1033861      10.65509       34.126976      2582.9758    
       153   0             -839.13417     -11665.062     -6745.0313     -6746.2824     -21503.872     -3.6248956e-11 -9.3109002e-08 -6.3387036e-10  7.1033861      10.65509       34.126976      2582.9758    
       154   0             -839.13417     -11665.062     -6745.0313     -6746.2824     -21503.872      2.7438505e-11  1.9016203e-07  1.2386882e-09  7.1033861      10.65509       34.126976      2582.9758    
       155   0             -839.13417     -11665.062     -6745.0313     -6746.2824     -21503.872     -1.4969588e-11  7.4244309e-08  5.1512082e-10  7.1033861      10.65509       34.126976      2582.9758    
       156   0             -839.13417     -11665.062     -6745.0313     -6746.2824     -21503.872      8.8169064e-12 -5.2368955e-08 -3.6681946e-10  7.1033861      10.65509       34.126976      2582.9758    
       157   0             -839.13417     -11665.062     -6745.0313     -6746.2824     -21503.872     -2.3467992e-11 -6.668409e-08  -4.7513592e-10  7.1033861      10.65509       34.126976      2582.9758    
       158   0             -839.13417     -11665.062     -6745.0313     -6746.2824     -21503.872      2.6104241e-11 -6.5582891e-09 -8.4807578e-11  7.1033861      10.65509       34.126976      2582.9758    
       159   0             -839.13417     -11665.062     -6745.0313     -6746.2824     -21503.872     -6.62613e-12    3.4404244e-08  2.4083045e-10  7.1033861      10.65509       34.126976      2582.9758    
       160   0             -839.13417     -11665.062     -6745.0313     -6746.2824     -21503.872     -8.795386e-12   1.491156e-08   9.8115791e-11  7.1033861      10.65509       34.126976      2582.9758    
       161   0             -839.13417     -11665.062     -6745.0313     -6746.2824     -21503.872      3.7621957e-11 -2.6114932e-08 -1.4377346e-10  7.1033861      10.65509       34.126976      2582.9758    
       162   0             -839.13417     -11665.062     -6745.0313     -6746.2824     -21503.872     -3.9274723e-12 -1.0561203e-08 -7.7404562e-11  7.1033861      10.65509       34.126976      2582.9758    
       163   0             -839.13417     -11665.062     -6745.0313     -6746.2824     -21503.872     -3.2216033e-12  9.0786202e-09  4.5364996e-11  7.1033861      10.65509       34.126976      2582.9758    
       164   0             -839.13417     -11665.062     -6745.0313     -6746.2824     -21503.872      6.3915577e-13  8.1622043e-09  2.8381099e-11  7.1033861      10.65509       34.126976      2582.9758    
       165   0             -839.13417     -11665.062     -6745.0313     -6746.2824     -21503.872      3.0025257e-11 -4.4617377e-09 -4.8265945e-11  7.1033861      10.65509       34.126976      2582.9758    
       166   0             -839.13417     -11665.062     -6745.0313     -6746.2824     -21503.872     -9.0622389e-12 -5.2100449e-09 -6.0231285e-11  7.1033861      10.65509       34.126976      2582.9758    
Loop time of 0.013443 on 4 procs for 66 steps with 144 atoms

0.0% CPU use with 4 MPI tasks x 1 OpenMP threads

Minimization stats:
  Stopping criterion = force tolerance
  Energy initial, next-to-last, final = 
     -837.225458986487  -839.134165310009  -839.134165310008
  Force two-norm initial, final = 10.555132 9.1006136e-11
  Force max component initial, final = 1.0774909 1.2983614e-11
  Final line search alpha, max atom move = 1 1.2983614e-11
  Iterations, force evaluations = 66 129

MPI task timing breakdown:
Section |  min time  |  avg time  |  max time  |%varavg| %total
---------------------------------------------------------------
Pair    | 0.01122    | 0.011435   | 0.01175    |   0.2 | 85.06
Neigh   | 0          | 0          | 0          |   0.0 |  0.00
Comm    | 0.000431   | 0.00069325 | 0.000961   |   0.0 |  5.16
Output  | 0.000618   | 0.00064575 | 0.000721   |   0.0 |  4.80
Modify  | 0          | 0          | 0          |   0.0 |  0.00
Other   |            | 0.0006695  |            |       |  4.98

Nlocal:             36 ave          39 max          33 min
Histogram: 1 1 0 0 0 0 0 0 1 1
Nghost:            284 ave         287 max         281 min
Histogram: 1 1 0 0 0 0 0 0 1 1
Neighs:            612 ave         661 max         563 min
Histogram: 1 1 0 0 0 0 0 0 1 1
FullNghs:         1224 ave        1326 max        1122 min
Histogram: 1 1 0 0 0 0 0 0 1 1

Total # of neighbors = 4896
Ave neighs/atom = 34
Neighbor list builds = 0
Dangerous builds = 0

# Obtain new stress tensor

variable tmp equal pxx
variable pxx1 equal ${tmp}
variable pxx1 equal -6745.03126891679
variable tmp equal pyy
variable pyy1 equal ${tmp}
variable pyy1 equal -6746.28243290891
variable tmp equal pzz
variable pzz1 equal ${tmp}
variable pzz1 equal -21503.8716480238
variable tmp equal pxy
variable pxy1 equal ${tmp}
variable pxy1 equal -9.06223891426144e-12
variable tmp equal pxz
variable pxz1 equal ${tmp}
variable pxz1 equal -5.21004492202533e-09
variable tmp equal pyz
variable pyz1 equal ${tmp}
variable pyz1 equal -6.02312853793277e-11

# Compute elastic constant from pressure tensor

variable C1neg equal ${d1}
variable C1neg equal -848783.484639143
variable C2neg equal ${d2}
variable C2neg equal -848908.601038563
variable C3neg equal ${d3}
variable C3neg equal -1934211.95081447
variable C4neg equal ${d4}
variable C4neg equal -5.58239126087407e-09
variable C5neg equal ${d5}
variable C5neg equal -5.19980122359369e-07
variable C6neg equal ${d6}
variable C6neg equal 1.80728017421508e-09

# Reset box and simulation parameters

clear
  using 1 OpenMP thread(s) per MPI task
Loaded 1 plugins from C:\Program Files\LAMMPS 64-bit 23Jun2022\plugins
Loaded 0 plugins from C:\Program Files\LAMMPS 64-bit 23Jun2022-MPI\plugins
Loaded 1 plugins from C:\Program Files\LAMMPS 64-bit 22Dec2022-MSMPI\plugins
Loaded 1 plugins from C:\Program Files\LAMMPS 64-bit 28Mar2023-MPI\plugins
box tilt large

The 'box' command has been removed and will be ignored

read_restart restart.equil
Reading restart file ...
  restart file = 22 Dec 2022, LAMMPS = 22 Dec 2022
  restoring atom style atomic from restart
  triclinic box = (-0.18220457 -0.19874883 -0.23230147) to (6.9211886 10.456341 33.894674) with tilt (0 0 0)
  1 by 1 by 4 MPI processor grid
  pair style meam stores no restart info
  144 atoms
  read_restart CPU = 0.000 seconds
include potential.mod
# NOTE: This script can be modified for different pair styles
# See in.elastic for more info.

# Choose potential
#-----------------------
#pair_style	sw
#pair_coeff * * Si.sw Si
#-----------------------
#pair_style morse	2.83994742	# D0[eV] a[1/A] r0[A] rc[A], 1NN for BCC
#pair_coeff 1 1	2.1173	1.0202	2.4595	2.6497	#	Fe-Fe
#-----------------------
#pair_style smatb # R0(A)   p       q     A(eV)   xi(eV)  Rcs(A)   Rc(A), 4NN: Rcs=4NN, Rc=(4NN+5NN)/2
#pair_coeff 1 1	2.4802	7.0149	2.3779	0.3144	3.0551	4.033	4.176	#	Co	Co
#-----------------------
#pair_style eam/alloy
#pair_coeff * * AlCrFeCoNi_Zhou04.eam.alloy Fe
#-----------------------
pair_style meam
pair_coeff * * ./../../library.meam Mo Si ./../../MoSi.meam Mo Si
#-----------------------

# Setup neighbor style
neighbor 1.0 nsq
neigh_modify once no every 1 delay 0 check yes

# Setup minimization style
min_style	     cg
min_modify	     dmax ${dmax} line quadratic
min_modify	     dmax 0.01 line quadratic

# Setup output
thermo		1
thermo_style custom step temp pe press pxx pyy pzz pxy pxz pyz lx ly lz vol
thermo_modify norm no

# Positive deformation

variable delta equal ${up}*${len0}
variable delta equal 1e-06*${len0}
variable delta equal 1e-06*7.10339320913273
variable deltaxy equal ${up}*xy
variable deltaxy equal 1e-06*xy
variable deltaxz equal ${up}*xz
variable deltaxz equal 1e-06*xz
variable deltayz equal ${up}*yz
variable deltayz equal 1e-06*yz
if "${dir} == 1" then    "change_box all x delta 0 ${delta} xy delta ${deltaxy} xz delta ${deltaxz} remap units box"
change_box all x delta 0 ${delta} xy delta ${deltaxy} xz delta ${deltaxz} remap units box
change_box all x delta 0 7.10339320913273e-06 xy delta ${deltaxy} xz delta ${deltaxz} remap units box
change_box all x delta 0 7.10339320913273e-06 xy delta 0 xz delta ${deltaxz} remap units box
change_box all x delta 0 7.10339320913273e-06 xy delta 0 xz delta 0 remap units box
Changing box ...
  triclinic box = (-0.18220457 -0.19874883 -0.23230147) to (6.9211957 10.456341 33.894674) with tilt (0 0 0)
  triclinic box = (-0.18220457 -0.19874883 -0.23230147) to (6.9211957 10.456341 33.894674) with tilt (0 0 0)
  triclinic box = (-0.18220457 -0.19874883 -0.23230147) to (6.9211957 10.456341 33.894674) with tilt (0 0 0)
if "${dir} == 2" then    "change_box all y delta 0 ${delta} yz delta ${deltayz} remap units box"
if "${dir} == 3" then    "change_box all z delta 0 ${delta} remap units box"
if "${dir} == 4" then    "change_box all yz delta ${delta} remap units box"
if "${dir} == 5" then    "change_box all xz delta ${delta} remap units box"
if "${dir} == 6" then    "change_box all xy delta ${delta} remap units box"

# Relax atoms positions

minimize ${etol} ${ftol} ${maxiter} ${maxeval}
minimize 0 ${ftol} ${maxiter} ${maxeval}
minimize 0 1e-10 ${maxiter} ${maxeval}
minimize 0 1e-10 100 ${maxeval}
minimize 0 1e-10 100 1000
Neighbor list info ...
  update: every = 1 steps, delay = 0 steps, check = yes
  max neighbors/atom: 2000, page size: 100000
  master list distance cutoff = 5.3
  ghost atom cutoff = 5.3
  2 neighbor lists, perpetual/occasional/extra = 2 0 0
  (1) pair meam, perpetual
      attributes: full, newton on
      pair build: full/nsq
      stencil: none
      bin: none
  (2) pair meam, perpetual, half/full from (1)
      attributes: half, newton on
      pair build: halffull/newton
      stencil: none
      bin: none
Per MPI rank memory allocation (min/avg/max) = 9.757 | 9.759 | 9.761 Mbytes
   Step          Temp          PotEng         Press           Pxx            Pyy            Pzz            Pxy            Pxz            Pyz             Lx             Ly             Lz           Volume    
       100   0             -837.22546      438.98408      1739.9217      1741.1199     -2164.0893     -3.6689942e-07 -0.036890778   -0.00025077247  7.1034003      10.65509       34.126976      2582.981     
       101   0             -838.11404     -3773.5677     -1101.9894     -1100.7766     -9117.937       5.6123642e-08 -0.03231637    -0.00021887744  7.1034003      10.65509       34.126976      2582.981     
       102   0             -838.71991     -7245.9725     -3508.2256     -3506.9986     -14722.693     -4.9841351e-08 -0.026815387   -0.00018096464  7.1034003      10.65509       34.126976      2582.981     
       103   0             -839.05455     -9996.2108     -5486.1329     -5484.8922     -19017.607     -4.0122642e-07 -0.019883695   -0.00013365875  7.1034003      10.65509       34.126976      2582.981     
       104   0             -839.13414     -11674.416     -6754.5912     -6753.34       -21515.317     -7.5183935e-07 -0.011116145   -7.4461289e-05  7.1034003      10.65509       34.126976      2582.981     
       105   0             -839.13414     -11668.645     -6750.0933     -6748.8422     -21506.999     -1.2062742e-06 -0.006341074   -4.2580965e-05  7.1034003      10.65509       34.126976      2582.981     
       106   0             -839.13414     -11668.636     -6750.0865     -6748.8353     -21506.986     -1.6940586e-06  0.003860887    2.5173476e-05  7.1034003      10.65509       34.126976      2582.981     
       107   0             -839.13414     -11668.653     -6750.1        -6748.8489     -21507.011     -9.6217558e-07  0.00073219255  4.7499701e-06  7.1034003      10.65509       34.126976      2582.981     
       108   0             -839.13414     -11668.635     -6750.086      -6748.8348     -21506.985     -7.1321924e-07 -0.0007270819  -4.8023005e-06  7.1034003      10.65509       34.126976      2582.981     
       109   0             -839.13414     -11668.641     -6750.09       -6748.8389     -21506.993     -4.7876806e-07 -0.00085970866 -5.6827893e-06  7.1034003      10.65509       34.126976      2582.981     
       110   0             -839.13414     -11668.649     -6750.0968     -6748.8457     -21507.005     -2.9800485e-07  0.00010985384  6.772977e-07   7.1034003      10.65509       34.126976      2582.981     
       111   0             -839.13414     -11668.636     -6750.0865     -6748.8353     -21506.986     -1.9828307e-07  0.00046767873  3.0456055e-06  7.1034003      10.65509       34.126976      2582.981     
       112   0             -839.13414     -11668.645     -6750.0935     -6748.8424     -21506.999     -1.2913922e-07  0.00015400536  9.9977185e-07  7.1034003      10.65509       34.126976      2582.981     
       113   0             -839.13414     -11668.644     -6750.0927     -6748.8416     -21506.998     -7.0050889e-08 -0.00023392378 -1.5436934e-06  7.1034003      10.65509       34.126976      2582.981     
       114   0             -839.13414     -11668.639     -6750.0888     -6748.8377     -21506.991     -2.5530202e-08 -0.00024276708 -1.598748e-06   7.1034003      10.65509       34.126976      2582.981     
       115   0             -839.13414     -11668.644     -6750.0927     -6748.8416     -21506.998     -2.7613067e-09  4.1279216e-06  2.4918331e-08  7.1034003      10.65509       34.126976      2582.981     
       116   0             -839.13414     -11668.642     -6750.0915     -6748.8403     -21506.995      7.5454878e-09  0.0001668648   1.0937418e-06  7.1034003      10.65509       34.126976      2582.981     
       117   0             -839.13414     -11668.642     -6750.0911     -6748.8399     -21506.995      1.076008e-08   6.3277248e-05  4.1461503e-07  7.1034003      10.65509       34.126976      2582.981     
       118   0             -839.13414     -11668.643     -6750.0919     -6748.8407     -21506.996      1.2440617e-08 -7.2096439e-05 -4.7354552e-07  7.1034003      10.65509       34.126976      2582.981     
       119   0             -839.13414     -11668.642     -6750.0914     -6748.8402     -21506.995      1.3441458e-08 -9.7117497e-05 -6.378046e-07   7.1034003      10.65509       34.126976      2582.981     
       120   0             -839.13414     -11668.642     -6750.0914     -6748.8403     -21506.995      1.2984531e-08  2.0879988e-05  1.3690739e-07  7.1034003      10.65509       34.126976      2582.981     
       121   0             -839.13414     -11668.643     -6750.0917     -6748.8405     -21506.996      1.2403443e-08  8.4809187e-05  5.5656909e-07  7.1034003      10.65509       34.126976      2582.981     
       122   0             -839.13414     -11668.642     -6750.0914     -6748.8403     -21506.995      1.1011691e-08  4.1435612e-05  2.7194397e-07  7.1034003      10.65509       34.126976      2582.981     
       123   0             -839.13414     -11668.642     -6750.0915     -6748.8404     -21506.996      9.1470045e-09 -4.7584482e-05 -3.1242352e-07  7.1034003      10.65509       34.126976      2582.981     
       124   0             -839.13414     -11668.643     -6750.0916     -6748.8404     -21506.996      7.6681301e-09 -4.1142753e-05 -2.7022082e-07  7.1034003      10.65509       34.126976      2582.981     
       125   0             -839.13414     -11668.642     -6750.0915     -6748.8403     -21506.996      6.1154689e-09  1.1729287e-05  7.6720473e-08  7.1034003      10.65509       34.126976      2582.981     
       126   0             -839.13414     -11668.643     -6750.0915     -6748.8404     -21506.996      4.407562e-09   5.2276581e-05  3.4288385e-07  7.1034003      10.65509       34.126976      2582.981     
       127   0             -839.13414     -11668.643     -6750.0915     -6748.8404     -21506.996      2.8432734e-09  1.1406926e-05  7.4794616e-08  7.1034003      10.65509       34.126976      2582.981     
       128   0             -839.13414     -11668.642     -6750.0915     -6748.8403     -21506.996      1.7549052e-09 -4.5964378e-05 -3.01671e-07    7.1034003      10.65509       34.126976      2582.981     
       129   0             -839.13414     -11668.643     -6750.0915     -6748.8404     -21506.996      1.1662202e-09 -4.4111003e-05 -2.8950008e-07  7.1034003      10.65509       34.126976      2582.981     
       130   0             -839.13414     -11668.642     -6750.0915     -6748.8404     -21506.996      1.0015013e-09  2.5396215e-05  1.6670569e-07  7.1034003      10.65509       34.126976      2582.981     
       131   0             -839.13414     -11668.642     -6750.0915     -6748.8404     -21506.996      9.3309024e-10  3.8825331e-05  2.5492164e-07  7.1034003      10.65509       34.126976      2582.981     
       132   0             -839.13414     -11668.643     -6750.0915     -6748.8404     -21506.996      7.2907944e-10  6.9498272e-07  4.6526487e-09  7.1034003      10.65509       34.126976      2582.981     
       133   0             -839.13414     -11668.642     -6750.0915     -6748.8404     -21506.996      5.0400022e-10 -2.6511702e-05 -1.7397933e-07  7.1034003      10.65509       34.126976      2582.981     
       134   0             -839.13414     -11668.642     -6750.0915     -6748.8404     -21506.996      2.1876515e-10 -3.3193373e-06 -2.1837193e-08  7.1034003      10.65509       34.126976      2582.981     
       135   0             -839.13414     -11668.642     -6750.0915     -6748.8404     -21506.996      9.3381117e-11  1.3412474e-05  8.799187e-08   7.1034003      10.65509       34.126976      2582.981     
       136   0             -839.13414     -11668.642     -6750.0915     -6748.8404     -21506.996      5.8434215e-11  1.0278979e-05  6.7479814e-08  7.1034003      10.65509       34.126976      2582.981     
       137   0             -839.13414     -11668.642     -6750.0915     -6748.8404     -21506.996     -1.2933732e-11 -4.1626739e-06 -2.7338527e-08  7.1034003      10.65509       34.126976      2582.981     
       138   0             -839.13414     -11668.642     -6750.0915     -6748.8404     -21506.996     -2.5781383e-11 -6.031475e-06  -3.9610052e-08  7.1034003      10.65509       34.126976      2582.981     
       139   0             -839.13414     -11668.642     -6750.0915     -6748.8404     -21506.996      3.3657833e-12 -1.7139359e-07 -1.1714303e-09  7.1034003      10.65509       34.126976      2582.981     
       140   0             -839.13414     -11668.642     -6750.0915     -6748.8404     -21506.996     -1.9837462e-11  3.494087e-06   2.291334e-08   7.1034003      10.65509       34.126976      2582.981     
       141   0             -839.13414     -11668.642     -6750.0915     -6748.8404     -21506.996      6.273183e-12   1.3769835e-06  9.0321181e-09  7.1034003      10.65509       34.126976      2582.981     
       142   0             -839.13414     -11668.642     -6750.0915     -6748.8404     -21506.996     -5.5457951e-12 -2.3515957e-06 -1.5442067e-08  7.1034003      10.65509       34.126976      2582.981     
       143   0             -839.13414     -11668.642     -6750.0915     -6748.8404     -21506.996     -7.1404532e-12 -1.5373089e-06 -1.0100449e-08  7.1034003      10.65509       34.126976      2582.981     
       144   0             -839.13414     -11668.642     -6750.0915     -6748.8404     -21506.996      2.7503012e-12  1.1271067e-06  7.377926e-09   7.1034003      10.65509       34.126976      2582.981     
       145   0             -839.13414     -11668.642     -6750.0915     -6748.8404     -21506.996     -9.0062679e-12  1.5679344e-06  1.0316255e-08  7.1034003      10.65509       34.126976      2582.981     
       146   0             -839.13414     -11668.642     -6750.0915     -6748.8404     -21506.996      2.2019626e-11  1.136166e-07   7.9676095e-10  7.1034003      10.65509       34.126976      2582.981     
       147   0             -839.13414     -11668.642     -6750.0915     -6748.8404     -21506.996      7.2007102e-12 -9.2060627e-07 -6.0328093e-09  7.1034003      10.65509       34.126976      2582.981     
       148   0             -839.13414     -11668.642     -6750.0915     -6748.8404     -21506.996     -3.5424654e-11 -3.4732423e-07 -2.259904e-09   7.1034003      10.65509       34.126976      2582.981     
       149   0             -839.13414     -11668.642     -6750.0915     -6748.8404     -21506.996      1.8195459e-11  4.0245658e-07  2.6738092e-09  7.1034003      10.65509       34.126976      2582.981     
       150   0             -839.13414     -11668.642     -6750.0915     -6748.8404     -21506.996     -3.373961e-11   4.9419652e-07  3.2364718e-09  7.1034003      10.65509       34.126976      2582.981     
       151   0             -839.13414     -11668.642     -6750.0915     -6748.8404     -21506.996     -3.6382309e-11 -1.8194271e-07 -1.2040466e-09  7.1034003      10.65509       34.126976      2582.981     
       152   0             -839.13414     -11668.642     -6750.0915     -6748.8404     -21506.996     -1.5049183e-11 -3.9341238e-07 -2.5721729e-09  7.1034003      10.65509       34.126976      2582.981     
       153   0             -839.13414     -11668.642     -6750.0915     -6748.8404     -21506.996     -3.0438388e-11 -9.3631485e-08 -6.304947e-10   7.1034003      10.65509       34.126976      2582.981     
       154   0             -839.13414     -11668.642     -6750.0915     -6748.8404     -21506.996      9.2515999e-12  1.8994092e-07  1.2549723e-09  7.1034003      10.65509       34.126976      2582.981     
       155   0             -839.13414     -11668.642     -6750.0915     -6748.8404     -21506.996     -1.3148936e-11  7.5299751e-08  5.3027872e-10  7.1034003      10.65509       34.126976      2582.981     
       156   0             -839.13414     -11668.642     -6750.0915     -6748.8404     -21506.996      1.7345405e-11 -4.878745e-08  -3.365525e-10   7.1034003      10.65509       34.126976      2582.981     
       157   0             -839.13414     -11668.642     -6750.0915     -6748.8404     -21506.996      1.8557001e-11 -6.8084966e-08 -4.6517535e-10  7.1034003      10.65509       34.126976      2582.981     
       158   0             -839.13414     -11668.642     -6750.0915     -6748.8404     -21506.996     -4.8549917e-12 -7.8225968e-09 -6.2443457e-11  7.1034003      10.65509       34.126976      2582.981     
       159   0             -839.13414     -11668.642     -6750.0915     -6748.8404     -21506.996      3.0375979e-11  3.4439521e-08  2.6817804e-10  7.1034003      10.65509       34.126976      2582.981     
       160   0             -839.13414     -11668.642     -6750.0915     -6748.8404     -21506.996      1.8823853e-11  1.4986335e-08  5.9060458e-11  7.1034003      10.65509       34.126976      2582.981     
       161   0             -839.13414     -11668.642     -6750.0915     -6748.8404     -21506.996     -2.4933481e-11 -2.612168e-08  -1.915914e-10   7.1034003      10.65509       34.126976      2582.981     
       162   0             -839.13414     -11668.642     -6750.0915     -6748.8404     -21506.996     -2.5977219e-11 -1.0487342e-08 -6.2538147e-11  7.1034003      10.65509       34.126976      2582.981     
       163   0             -839.13414     -11668.642     -6750.0915     -6748.8404     -21506.996     -9.1310859e-12  9.2802306e-09  5.1554158e-11  7.1034003      10.65509       34.126976      2582.981     
       164   0             -839.13414     -11668.642     -6750.0915     -6748.8404     -21506.996      2.1989497e-11  8.0283486e-09  6.113502e-11   7.1034003      10.65509       34.126976      2582.981     
       165   0             -839.13414     -11668.642     -6750.0915     -6748.8404     -21506.996     -5.1304522e-12 -4.4819407e-09 -4.8300281e-11  7.1034003      10.65509       34.126976      2582.981     
       166   0             -839.13414     -11668.642     -6750.0915     -6748.8404     -21506.996      2.5092732e-11 -5.1977335e-09 -4.5700622e-11  7.1034003      10.65509       34.126976      2582.981     
Loop time of 0.0129717 on 4 procs for 66 steps with 144 atoms

0.0% CPU use with 4 MPI tasks x 1 OpenMP threads

Minimization stats:
  Stopping criterion = force tolerance
  Energy initial, next-to-last, final = 
     -837.225464604956  -839.134143553597  -839.134143553597
  Force two-norm initial, final = 10.555031 9.1018165e-11
  Force max component initial, final = 1.0774807 1.2950307e-11
  Final line search alpha, max atom move = 1 1.2950307e-11
  Iterations, force evaluations = 66 129

MPI task timing breakdown:
Section |  min time  |  avg time  |  max time  |%varavg| %total
---------------------------------------------------------------
Pair    | 0.01078    | 0.011048   | 0.011334   |   0.2 | 85.17
Neigh   | 0          | 0          | 0          |   0.0 |  0.00
Comm    | 0.000441   | 0.0006875  | 0.000964   |   0.0 |  5.30
Output  | 0.000607   | 0.0006295  | 0.000685   |   0.0 |  4.85
Modify  | 0          | 0          | 0          |   0.0 |  0.00
Other   |            | 0.0006065  |            |       |  4.68

Nlocal:             36 ave          39 max          33 min
Histogram: 1 1 0 0 0 0 0 0 1 1
Nghost:            284 ave         287 max         281 min
Histogram: 1 1 0 0 0 0 0 0 1 1
Neighs:            612 ave         661 max         563 min
Histogram: 1 1 0 0 0 0 0 0 1 1
FullNghs:         1224 ave        1326 max        1122 min
Histogram: 1 1 0 0 0 0 0 0 1 1

Total # of neighbors = 4896
Ave neighs/atom = 34
Neighbor list builds = 0
Dangerous builds = 0

# Obtain new stress tensor

variable tmp equal pe
variable e1 equal ${tmp}
variable e1 equal -839.134143553597
variable tmp equal press
variable p1 equal ${tmp}
variable p1 equal -11668.6424976839
variable tmp equal pxx
variable pxx1 equal ${tmp}
variable pxx1 equal -6750.09152313409
variable tmp equal pyy
variable pyy1 equal ${tmp}
variable pyy1 equal -6748.84035949063
variable tmp equal pzz
variable pzz1 equal ${tmp}
variable pzz1 equal -21506.995610427
variable tmp equal pxy
variable pxy1 equal ${tmp}
variable pxy1 equal 2.50927319898096e-11
variable tmp equal pxz
variable pxz1 equal ${tmp}
variable pxz1 equal -5.19773346797903e-09
variable tmp equal pyz
variable pyz1 equal ${tmp}
variable pyz1 equal -4.57006223443908e-11

# Compute elastic constant from pressure tensor

variable C1pos equal ${d1}
variable C1pos equal 849289.510060873
variable C2pos equal ${d2}
variable C2pos equal 849164.393696735
variable C3pos equal ${d3}
variable C3pos equal 1934524.34705479
variable C4pos equal ${d4}
variable C4pos equal 4.12932495738037e-09
variable C5pos equal ${d5}
variable C5pos equal 5.18748976954739e-07
variable C6pos equal ${d6}
variable C6pos equal -5.22277726462218e-09

# Combine positive and negative

variable C1${dir} equal 0.5*(${C1neg}+${C1pos})
variable C11 equal 0.5*(${C1neg}+${C1pos})
variable C11 equal 0.5*(-848783.484639143+${C1pos})
variable C11 equal 0.5*(-848783.484639143+849289.510060873)
variable C2${dir} equal 0.5*(${C2neg}+${C2pos})
variable C21 equal 0.5*(${C2neg}+${C2pos})
variable C21 equal 0.5*(-848908.601038563+${C2pos})
variable C21 equal 0.5*(-848908.601038563+849164.393696735)
variable C3${dir} equal 0.5*(${C3neg}+${C3pos})
variable C31 equal 0.5*(${C3neg}+${C3pos})
variable C31 equal 0.5*(-1934211.95081447+${C3pos})
variable C31 equal 0.5*(-1934211.95081447+1934524.34705479)
variable C4${dir} equal 0.5*(${C4neg}+${C4pos})
variable C41 equal 0.5*(${C4neg}+${C4pos})
variable C41 equal 0.5*(-5.58239126087407e-09+${C4pos})
variable C41 equal 0.5*(-5.58239126087407e-09+4.12932495738037e-09)
variable C5${dir} equal 0.5*(${C5neg}+${C5pos})
variable C51 equal 0.5*(${C5neg}+${C5pos})
variable C51 equal 0.5*(-5.19980122359369e-07+${C5pos})
variable C51 equal 0.5*(-5.19980122359369e-07+5.18748976954739e-07)
variable C6${dir} equal 0.5*(${C6neg}+${C6pos})
variable C61 equal 0.5*(${C6neg}+${C6pos})
variable C61 equal 0.5*(1.80728017421508e-09+${C6pos})
variable C61 equal 0.5*(1.80728017421508e-09+-5.22277726462218e-09)

# Delete dir to make sure it is not reused

variable dir delete

# uyy Perturbation

variable dir equal 2
include displace.mod
# NOTE: This script should not need to be
# modified. See in.elastic for more info.
#
# Find which reference length to use

if "${dir} == 1" then    "variable len0 equal ${lx0}"
if "${dir} == 2" then    "variable len0 equal ${ly0}"
variable len0 equal ${ly0}
variable len0 equal 10.6550898136991
if "${dir} == 3" then    "variable len0 equal ${lz0}"
if "${dir} == 4" then    "variable len0 equal ${lz0}"
if "${dir} == 5" then    "variable len0 equal ${lz0}"
if "${dir} == 6" then    "variable len0 equal ${ly0}"

# Reset box and simulation parameters

clear
  using 1 OpenMP thread(s) per MPI task
Loaded 1 plugins from C:\Program Files\LAMMPS 64-bit 23Jun2022\plugins
Loaded 0 plugins from C:\Program Files\LAMMPS 64-bit 23Jun2022-MPI\plugins
Loaded 1 plugins from C:\Program Files\LAMMPS 64-bit 22Dec2022-MSMPI\plugins
Loaded 1 plugins from C:\Program Files\LAMMPS 64-bit 28Mar2023-MPI\plugins
box tilt large

The 'box' command has been removed and will be ignored

read_restart restart.equil
Reading restart file ...
  restart file = 22 Dec 2022, LAMMPS = 22 Dec 2022
  restoring atom style atomic from restart
  triclinic box = (-0.18220457 -0.19874883 -0.23230147) to (6.9211886 10.456341 33.894674) with tilt (0 0 0)
  1 by 1 by 4 MPI processor grid
  pair style meam stores no restart info
  144 atoms
  read_restart CPU = 0.000 seconds
include potential.mod
# NOTE: This script can be modified for different pair styles
# See in.elastic for more info.

# Choose potential
#-----------------------
#pair_style	sw
#pair_coeff * * Si.sw Si
#-----------------------
#pair_style morse	2.83994742	# D0[eV] a[1/A] r0[A] rc[A], 1NN for BCC
#pair_coeff 1 1	2.1173	1.0202	2.4595	2.6497	#	Fe-Fe
#-----------------------
#pair_style smatb # R0(A)   p       q     A(eV)   xi(eV)  Rcs(A)   Rc(A), 4NN: Rcs=4NN, Rc=(4NN+5NN)/2
#pair_coeff 1 1	2.4802	7.0149	2.3779	0.3144	3.0551	4.033	4.176	#	Co	Co
#-----------------------
#pair_style eam/alloy
#pair_coeff * * AlCrFeCoNi_Zhou04.eam.alloy Fe
#-----------------------
pair_style meam
pair_coeff * * ./../../library.meam Mo Si ./../../MoSi.meam Mo Si
#-----------------------

# Setup neighbor style
neighbor 1.0 nsq
neigh_modify once no every 1 delay 0 check yes

# Setup minimization style
min_style	     cg
min_modify	     dmax ${dmax} line quadratic
min_modify	     dmax 0.01 line quadratic

# Setup output
thermo		1
thermo_style custom step temp pe press pxx pyy pzz pxy pxz pyz lx ly lz vol
thermo_modify norm no

# Negative deformation

variable delta equal -${up}*${len0}
variable delta equal -1e-06*${len0}
variable delta equal -1e-06*10.6550898136991
variable deltaxy equal -${up}*xy
variable deltaxy equal -1e-06*xy
variable deltaxz equal -${up}*xz
variable deltaxz equal -1e-06*xz
variable deltayz equal -${up}*yz
variable deltayz equal -1e-06*yz
if "${dir} == 1" then    "change_box all x delta 0 ${delta} xy delta ${deltaxy} xz delta ${deltaxz} remap units box"
if "${dir} == 2" then    "change_box all y delta 0 ${delta} yz delta ${deltayz} remap units box"
change_box all y delta 0 ${delta} yz delta ${deltayz} remap units box
change_box all y delta 0 -1.06550898136991e-05 yz delta ${deltayz} remap units box
change_box all y delta 0 -1.06550898136991e-05 yz delta -0 remap units box
Changing box ...
  triclinic box = (-0.18220457 -0.19874883 -0.23230147) to (6.9211886 10.45633 33.894674) with tilt (0 0 0)
  triclinic box = (-0.18220457 -0.19874883 -0.23230147) to (6.9211886 10.45633 33.894674) with tilt (0 0 0)
if "${dir} == 3" then    "change_box all z delta 0 ${delta} remap units box"
if "${dir} == 4" then    "change_box all yz delta ${delta} remap units box"
if "${dir} == 5" then    "change_box all xz delta ${delta} remap units box"
if "${dir} == 6" then    "change_box all xy delta ${delta} remap units box"

# Relax atoms positions

minimize ${etol} ${ftol} ${maxiter} ${maxeval}
[...]
       129   0             -839.13415     -11666.852     -6747.5614     -6747.5614     -21505.434     -1.3663877     -4.4108383e-05 -3.0061957e-07  7.1033932      10.65509       34.126976      2582.9784    
       130   0             -839.13415     -11666.852     -6747.5614     -6747.5614     -21505.434     -1.3663877      2.5398975e-05  1.5902007e-07  7.1033932      10.65509       34.126976      2582.9784    
       131   0             -839.13415     -11666.852     -6747.5614     -6747.5614     -21505.434     -1.3663877      3.8823145e-05  2.5758657e-07  7.1033932      10.65509       34.126976      2582.9784    
       132   0             -839.13415     -11666.852     -6747.5614     -6747.5614     -21505.434     -1.3663877      6.921939e-07   1.1692037e-08  7.1033932      10.65509       34.126976      2582.9784    
       133   0             -839.13415     -11666.852     -6747.5614     -6747.5614     -21505.434     -1.3663877     -2.6511279e-05 -1.723275e-07   7.1033932      10.65509       34.126976      2582.9784    
       134   0             -839.13415     -11666.852     -6747.5614     -6747.5614     -21505.434     -1.3663877     -3.3168804e-06 -2.7405887e-08  7.1033932      10.65509       34.126976      2582.9784    
       135   0             -839.13415     -11666.852     -6747.5614     -6747.5614     -21505.434     -1.3663877      1.3414035e-05  8.4974664e-08  7.1033932      10.65509       34.126976      2582.9784    
       136   0             -839.13415     -11666.852     -6747.5614     -6747.5614     -21505.434     -1.3663877      1.0278639e-05  6.8761471e-08  7.1033932      10.65509       34.126976      2582.9784    
       137   0             -839.13415     -11666.852     -6747.5614     -6747.5614     -21505.434     -1.3663877     -4.1643319e-06 -2.431526e-08   7.1033932      10.65509       34.126976      2582.9784    
       138   0             -839.13415     -11666.852     -6747.5614     -6747.5614     -21505.434     -1.3663877     -6.0316441e-06 -3.9147378e-08  7.1033932      10.65509       34.126976      2582.9784    
       139   0             -839.13415     -11666.852     -6747.5614     -6747.5614     -21505.434     -1.3663877     -1.7064443e-07 -2.8389679e-09  7.1033932      10.65509       34.126976      2582.9784    
       140   0             -839.13415     -11666.852     -6747.5614     -6747.5614     -21505.434     -1.3663877      3.494597e-06   2.1751831e-08  7.1033932      10.65509       34.126976      2582.9784    
       141   0             -839.13415     -11666.852     -6747.5614     -6747.5614     -21505.434     -1.3663877      1.3765946e-06  9.6730211e-09  7.1033932      10.65509       34.126976      2582.9784    
       142   0             -839.13415     -11666.852     -6747.5614     -6747.5614     -21505.434     -1.3663877     -2.3521554e-06 -1.4365263e-08  7.1033932      10.65509       34.126976      2582.9784    
       143   0             -839.13415     -11666.852     -6747.5614     -6747.5614     -21505.434     -1.3663877     -1.537292e-06  -9.9355094e-09  7.1033932      10.65509       34.126976      2582.9784    
       144   0             -839.13415     -11666.852     -6747.5614     -6747.5614     -21505.434     -1.3663877      1.1274263e-06  6.6880074e-09  7.1033932      10.65509       34.126976      2582.9784    
       145   0             -839.13415     -11666.852     -6747.5614     -6747.5614     -21505.434     -1.3663877      1.568141e-06   9.8421885e-09  7.1033932      10.65509       34.126976      2582.9784    
       146   0             -839.13415     -11666.852     -6747.5614     -6747.5614     -21505.434     -1.3663877      1.135987e-07   8.7597395e-10  7.1033932      10.65509       34.126976      2582.9784    
       147   0             -839.13415     -11666.852     -6747.5614     -6747.5614     -21505.434     -1.3663877     -9.2081534e-07 -5.7026325e-09  7.1033932      10.65509       34.126976      2582.9784    
       148   0             -839.13415     -11666.852     -6747.5614     -6747.5614     -21505.434     -1.3663877     -3.4746117e-07 -2.2596738e-09  7.1033932      10.65509       34.126976      2582.9784    
       149   0             -839.13415     -11666.852     -6747.5614     -6747.5614     -21505.434     -1.3663877      4.0248679e-07  2.4654172e-09  7.1033932      10.65509       34.126976      2582.9784    
       150   0             -839.13415     -11666.852     -6747.5614     -6747.5614     -21505.434     -1.3663877      4.9428709e-07  3.0944147e-09  7.1033932      10.65509       34.126976      2582.9784    
       151   0             -839.13415     -11666.852     -6747.5614     -6747.5614     -21505.434     -1.3663877     -1.8223545e-07 -1.098486e-09   7.1033932      10.65509       34.126976      2582.9784    
       152   0             -839.13415     -11666.852     -6747.5614     -6747.5614     -21505.434     -1.3663877     -3.9347825e-07 -2.442399e-09   7.1033932      10.65509       34.126976      2582.9784    
       153   0             -839.13415     -11666.852     -6747.5614     -6747.5614     -21505.434     -1.3663877     -9.3065317e-08 -6.4882209e-10  7.1033932      10.65509       34.126976      2582.9784    
       154   0             -839.13415     -11666.852     -6747.5614     -6747.5614     -21505.434     -1.3663877      1.9009644e-07  1.1786193e-09  7.1033932      10.65509       34.126976      2582.9784    
       155   0             -839.13415     -11666.852     -6747.5614     -6747.5614     -21505.434     -1.3663877      7.4278564e-08  4.9258416e-10  7.1033932      10.65509       34.126976      2582.9784    
       156   0             -839.13415     -11666.852     -6747.5614     -6747.5614     -21505.434     -1.3663877     -5.2183845e-08 -2.8895838e-10  7.1033932      10.65509       34.126976      2582.9784    
       157   0             -839.13415     -11666.852     -6747.5614     -6747.5614     -21505.434     -1.3663877     -6.6752183e-08 -4.0604643e-10  7.1033932      10.65509       34.126976      2582.9784    
       158   0             -839.13415     -11666.852     -6747.5614     -6747.5614     -21505.434     -1.3663877     -6.6071597e-09 -3.4002192e-11  7.1033932      10.65509       34.126976      2582.9784    
       159   0             -839.13415     -11666.852     -6747.5614     -6747.5614     -21505.434     -1.3663877      3.4406181e-08  2.1200152e-10  7.1033932      10.65509       34.126976      2582.9784    
       160   0             -839.13415     -11666.852     -6747.5614     -6747.5614     -21505.434     -1.3663877      1.4924294e-08  1.0517438e-10  7.1033932      10.65509       34.126976      2582.9784    
       161   0             -839.13415     -11666.852     -6747.5614     -6747.5614     -21505.434     -1.3663877     -2.6144432e-08 -1.5450768e-10  7.1033932      10.65509       34.126976      2582.9784    
       162   0             -839.13415     -11666.852     -6747.5614     -6747.5614     -21505.434     -1.3663877     -1.0522912e-08 -5.2776567e-11  7.1033932      10.65509       34.126976      2582.9784    
       163   0             -839.13415     -11666.852     -6747.5614     -6747.5614     -21505.434     -1.3663877      9.2245107e-09  6.0429213e-11  7.1033932      10.65509       34.126976      2582.9784    
       164   0             -839.13415     -11666.852     -6747.5614     -6747.5614     -21505.434     -1.3663877      8.066396e-09   4.215411e-11   7.1033932      10.65509       34.126976      2582.9784    
       165   0             -839.13415     -11666.852     -6747.5614     -6747.5614     -21505.434     -1.3663877     -4.4744733e-09 -7.2050215e-11  7.1033932      10.65509       34.126976      2582.9784    
       166   0             -839.13415     -11666.852     -6747.5614     -6747.5614     -21505.434     -1.3663877     -5.2065276e-09 -5.9103558e-11  7.1033932      10.65509       34.126976      2582.9784    
Loop time of 0.012816 on 4 procs for 66 steps with 144 atoms

0.0% CPU use with 4 MPI tasks x 1 OpenMP threads

Minimization stats:
  Stopping criterion = force tolerance
  Energy initial, next-to-last, final = 
     -837.225461796713  -839.134154432741  -839.134154432741
  Force two-norm initial, final = 10.555082 9.109421e-11
  Force max component initial, final = 1.0774858 1.2857937e-11
  Final line search alpha, max atom move = 1 1.2857937e-11
  Iterations, force evaluations = 66 129

MPI task timing breakdown:
Section |  min time  |  avg time  |  max time  |%varavg| %total
---------------------------------------------------------------
Pair    | 0.010744   | 0.010916   | 0.011079   |   0.2 | 85.18
Neigh   | 0          | 0          | 0          |   0.0 |  0.00
Comm    | 0.000479   | 0.00064075 | 0.000811   |   0.0 |  5.00
Output  | 0.000595   | 0.000623   | 0.000704   |   0.0 |  4.86
Modify  | 0          | 0          | 0          |   0.0 |  0.00
Other   |            | 0.000636   |            |       |  4.96

Nlocal:             36 ave          39 max          33 min
Histogram: 1 1 0 0 0 0 0 0 1 1
Nghost:            284 ave         287 max         281 min
Histogram: 1 1 0 0 0 0 0 0 1 1
Neighs:            612 ave         661 max         563 min
Histogram: 1 1 0 0 0 0 0 0 1 1
FullNghs:         1224 ave        1326 max        1122 min
Histogram: 1 1 0 0 0 0 0 0 1 1

Total # of neighbors = 4896
Ave neighs/atom = 34
Neighbor list builds = 0
Dangerous builds = 0

# Obtain new stress tensor

variable tmp equal pe
variable e1 equal ${tmp}
variable e1 equal -839.134154432741
variable tmp equal press
variable p1 equal ${tmp}
variable p1 equal -11666.8521422662
variable tmp equal pxx
variable pxx1 equal ${tmp}
variable pxx1 equal -6747.56139936027
variable tmp equal pyy
variable pyy1 equal ${tmp}
variable pyy1 equal -6747.56139725096
variable tmp equal pzz
variable pzz1 equal ${tmp}
variable pzz1 equal -21505.4336301873
variable tmp equal pxy
variable pxy1 equal ${tmp}
variable pxy1 equal -1.36638767060918
variable tmp equal pxz
variable pxz1 equal ${tmp}
variable pxz1 equal -5.20652758680384e-09
variable tmp equal pyz
variable pyz1 equal ${tmp}
variable pyz1 equal -5.91035575055679e-11

# Compute elastic constant from pressure tensor

variable C1pos equal ${d1}
variable C1pos equal 849036.497683491
variable C2pos equal ${d2}
variable C2pos equal 849036.497472768
variable C3pos equal ${d3}
variable C3pos equal 1934368.14903082
variable C4pos equal ${d4}
variable C4pos equal 5.46961847349809e-09
variable C5pos equal ${d5}
variable C5pos equal 5.1962838883722e-07
variable C6pos equal ${d6}
variable C6pos equal 136.638767058205

# Combine positive and negative

variable C1${dir} equal 0.5*(${C1neg}+${C1pos})
variable C16 equal 0.5*(${C1neg}+${C1pos})
variable C16 equal 0.5*(-849036.49768349+${C1pos})
variable C16 equal 0.5*(-849036.49768349+849036.497683491)
variable C2${dir} equal 0.5*(${C2neg}+${C2pos})
variable C26 equal 0.5*(${C2neg}+${C2pos})
variable C26 equal 0.5*(-849036.497472765+${C2pos})
variable C26 equal 0.5*(-849036.497472765+849036.497472768)
variable C3${dir} equal 0.5*(${C3neg}+${C3pos})
variable C36 equal 0.5*(${C3neg}+${C3pos})
variable C36 equal 0.5*(-1934368.14903082+${C3pos})
variable C36 equal 0.5*(-1934368.14903082+1934368.14903082)
variable C4${dir} equal 0.5*(${C4neg}+${C4pos})
variable C46 equal 0.5*(${C4neg}+${C4pos})
variable C46 equal 0.5*(-3.97266119848814e-09+${C4pos})
variable C46 equal 0.5*(-3.97266119848814e-09+5.46961847349809e-09)
variable C5${dir} equal 0.5*(${C5neg}+${C5pos})
variable C56 equal 0.5*(${C5neg}+${C5pos})
variable C56 equal 0.5*(-5.19117925545627e-07+${C5pos})
variable C56 equal 0.5*(-5.19117925545627e-07+5.1962838883722e-07)
variable C6${dir} equal 0.5*(${C6neg}+${C6pos})
variable C66 equal 0.5*(${C6neg}+${C6pos})
variable C66 equal 0.5*(136.638767064382+${C6pos})
variable C66 equal 0.5*(136.638767064382+136.638767058205)

# Delete dir to make sure it is not reused

variable dir delete

# Output final values

variable C11all equal ${C11}
variable C11all equal 253.012710865005
variable C22all equal ${C22}
variable C22all equal 253.012710860989
variable C33all equal ${C33}
variable C33all equal 471.547776080086

variable C12all equal 0.5*(${C12}+${C21})
variable C12all equal 0.5*(127.89632908249+${C21})
variable C12all equal 0.5*(127.89632908249+127.896329086041)
variable C13all equal 0.5*(${C13}+${C31})
variable C13all equal 0.5*(157.673907418502+${C31})
variable C13all equal 0.5*(157.673907418502+156.198120160028)
variable C23all equal 0.5*(${C23}+${C32})
variable C23all equal 0.5*(157.673907419026+${C32})
variable C23all equal 0.5*(157.673907419026+156.198120155022)

variable C44all equal ${C44}
variable C44all equal 36.3362298722026
variable C55all equal ${C55}
variable C55all equal 36.3362298616351
variable C66all equal ${C66}
variable C66all equal 136.638767061293

variable C14all equal 0.5*(${C14}+${C41})
variable C14all equal 0.5*(-1.44937075674534e-08+${C41})
variable C14all equal 0.5*(-1.44937075674534e-08+-7.2653315174685e-10)
variable C15all equal 0.5*(${C15}+${C51})
variable C15all equal 0.5*(4.48198989033699e-09+${C51})
variable C15all equal 0.5*(4.48198989033699e-09+-6.15572702314979e-10)
variable C16all equal 0.5*(${C16}+${C61})
variable C16all equal 0.5*(4.65661287307739e-10+${C61})
variable C16all equal 0.5*(4.65661287307739e-10+-1.70774854520355e-09)

variable C24all equal 0.5*(${C24}+${C42})
variable C24all equal 0.5*(-1.40280462801456e-08+${C42})
variable C24all equal 0.5*(-1.40280462801456e-08+2.83982626523801e-09)
variable C25all equal 0.5*(${C25}+${C52})
variable C25all equal 0.5*(3.95812094211578e-09+${C52})
variable C25all equal 0.5*(3.95812094211578e-09+7.37196024901007e-10)
variable C26all equal 0.5*(${C26}+${C62})
variable C26all equal 0.5*(1.45519152283669e-09+${C62})
variable C26all equal 0.5*(1.45519152283669e-09+1.90541519815503e-09)

variable C34all equal 0.5*(${C34}+${C43})
variable C34all equal 0.5*(-3.00351530313492e-08+${C43})
variable C34all equal 0.5*(-3.00351530313492e-08+8.76304611168745e-10)
variable C35all equal 0.5*(${C35}+${C53})
variable C35all equal 0.5*(1.00117176771164e-08+${C53})
variable C35all equal 0.5*(1.00117176771164e-08+1.12843540121653e-09)
variable C36all equal 0.5*(${C36}+${C63})
variable C36all equal 0.5*(0+${C63})
variable C36all equal 0.5*(0+-1.40011388481995e-09)

variable C45all equal 0.5*(${C45}+${C54})
variable C45all equal 0.5*(2.8010919913067e-09+${C54})
variable C45all equal 0.5*(2.8010919913067e-09+3.36966029501252e-09)
variable C46all equal 0.5*(${C46}+${C64})
variable C46all equal 0.5*(7.48478637504975e-10+${C64})
variable C46all equal 0.5*(7.48478637504975e-10+2.36508919671639e-09)
variable C56all equal 0.5*(${C56}+${C65})
variable C56all equal 0.5*(2.5523164579649e-10+${C65})
variable C56all equal 0.5*(2.5523164579649e-10+-1.0082295620215e-09)

# Average moduli for cubic crystals

variable C11cubic equal (${C11all}+${C22all}+${C33all})/3.0
variable C11cubic equal (253.012710865005+${C22all}+${C33all})/3.0
variable C11cubic equal (253.012710865005+253.012710860989+${C33all})/3.0
variable C11cubic equal (253.012710865005+253.012710860989+471.547776080086)/3.0
variable C12cubic equal (${C12all}+${C13all}+${C23all})/3.0
variable C12cubic equal (127.896329084266+${C13all}+${C23all})/3.0
variable C12cubic equal (127.896329084266+156.936013789265+${C23all})/3.0
variable C12cubic equal (127.896329084266+156.936013789265+156.936013787024)/3.0
variable C44cubic equal (${C44all}+${C55all}+${C66all})/3.0
variable C44cubic equal (36.3362298722026+${C55all}+${C66all})/3.0
variable C44cubic equal (36.3362298722026+36.3362298616351+${C66all})/3.0
variable C44cubic equal (36.3362298722026+36.3362298616351+136.638767061293)/3.0

variable bulkmodulus equal (${C11cubic}+2*${C12cubic})/3.0
variable bulkmodulus equal (325.857732602027+2*${C12cubic})/3.0
variable bulkmodulus equal (325.857732602027+2*147.256118886852)/3.0
variable shearmodulus1 equal ${C44cubic}
variable shearmodulus1 equal 69.7704089317102
variable shearmodulus2 equal (${C11cubic}-${C12cubic})/2.0
variable shearmodulus2 equal (325.857732602027-${C12cubic})/2.0
variable shearmodulus2 equal (325.857732602027-147.256118886852)/2.0
variable poissonratio equal 1.0/(1.0+${C11cubic}/${C12cubic})
variable poissonratio equal 1.0/(1.0+325.857732602027/${C12cubic})
variable poissonratio equal 1.0/(1.0+325.857732602027/147.256118886852)

# For Stillinger-Weber silicon, the analytical results
# are known to be (E. R. Cowley, 1988):
#               C11 = 151.4 GPa
#               C12 = 76.4 GPa
#               C44 = 56.4 GPa

print "========================================="
=========================================
print "Components of the Elastic Constant Tensor"
Components of the Elastic Constant Tensor
print "========================================="
=========================================

print "Elastic Constant C11all = ${C11all} ${cunits}"
Elastic Constant C11all = 253.012710865005 GPa
print "Elastic Constant C22all = ${C22all} ${cunits}"
Elastic Constant C22all = 253.012710860989 GPa
print "Elastic Constant C33all = ${C33all} ${cunits}"
Elastic Constant C33all = 471.547776080086 GPa

print "Elastic Constant C12all = ${C12all} ${cunits}"
Elastic Constant C12all = 127.896329084266 GPa
print "Elastic Constant C13all = ${C13all} ${cunits}"
Elastic Constant C13all = 156.936013789265 GPa
print "Elastic Constant C23all = ${C23all} ${cunits}"
Elastic Constant C23all = 156.936013787024 GPa

print "Elastic Constant C44all = ${C44all} ${cunits}"
Elastic Constant C44all = 36.3362298722026 GPa
print "Elastic Constant C55all = ${C55all} ${cunits}"
Elastic Constant C55all = 36.3362298616351 GPa
print "Elastic Constant C66all = ${C66all} ${cunits}"
Elastic Constant C66all = 136.638767061293 GPa

print "Elastic Constant C14all = ${C14all} ${cunits}"
Elastic Constant C14all = -7.61012035960013e-09 GPa
print "Elastic Constant C15all = ${C15all} ${cunits}"
Elastic Constant C15all = 1.93320859401101e-09 GPa
print "Elastic Constant C16all = ${C16all} ${cunits}"
Elastic Constant C16all = -6.21043628947905e-10 GPa

print "Elastic Constant C24all = ${C24all} ${cunits}"
Elastic Constant C24all = -5.5941100074538e-09 GPa
print "Elastic Constant C25all = ${C25all} ${cunits}"
Elastic Constant C25all = 2.34765848350839e-09 GPa
print "Elastic Constant C26all = ${C26all} ${cunits}"
Elastic Constant C26all = 1.68030336049586e-09 GPa

print "Elastic Constant C34all = ${C34all} ${cunits}"
Elastic Constant C34all = -1.45794242100902e-08 GPa
print "Elastic Constant C35all = ${C35all} ${cunits}"
Elastic Constant C35all = 5.57007653916647e-09 GPa
print "Elastic Constant C36all = ${C36all} ${cunits}"
Elastic Constant C36all = -7.00056942409975e-10 GPa

print "Elastic Constant C45all = ${C45all} ${cunits}"
Elastic Constant C45all = 3.08537614315961e-09 GPa
print "Elastic Constant C46all = ${C46all} ${cunits}"
Elastic Constant C46all = 1.55678391711068e-09 GPa
print "Elastic Constant C56all = ${C56all} ${cunits}"
Elastic Constant C56all = -3.76498958112505e-10 GPa

print "========================================="
=========================================
print "Average properties for a cubic crystal"
Average properties for a cubic crystal
print "========================================="
=========================================

print "Bulk Modulus = ${bulkmodulus} ${cunits}"
Bulk Modulus = 206.789990125244 GPa
print "Shear Modulus 1 = ${shearmodulus1} ${cunits}"
Shear Modulus 1 = 69.7704089317102 GPa
print "Shear Modulus 2 = ${shearmodulus2} ${cunits}"
Shear Modulus 2 = 89.3008068575875 GPa
print "Poisson Ratio = ${poissonratio}"
Poisson Ratio = 0.311248800734623
Total wall time: 0:00:00
