LAMMPS (22 Dec 2022)
  using 1 OpenMP thread(s) per MPI task
Loaded 1 plugins from C:\Program Files\LAMMPS 64-bit 23Jun2022\plugins
Loaded 0 plugins from C:\Program Files\LAMMPS 64-bit 23Jun2022-MPI\plugins
Loaded 1 plugins from C:\Program Files\LAMMPS 64-bit 22Dec2022-MSMPI\plugins
Loaded 1 plugins from C:\Program Files\LAMMPS 64-bit 28Mar2023-MPI\plugins
# Compute elastic constant tensor for a crystal
#
# Written by Aidan Thompson (Sandia, athomps@sandia.gov)
#
#  This script uses the following three include files.
#
#   init.mod      (must be modified for different crystal structures)
# 	       	  Define units, deformation parameters and initial
#		  configuration of the atoms and simulation cell.
#
#
#   potential.mod    (must be modified for different pair styles)
# 		     Define pair style and other attributes
#		     not stored in restart file
#
#
#   displace.mod    (displace.mod should not need to be modified)
# 		    Perform positive and negative box displacements
# 		    in direction ${dir} and size ${up}.
# 		    It uses the resultant changes
#		    in stress to compute one
# 		    row of the elastic stiffness tensor
#
#		    Inputs variables:
#		    	   dir = the Voigt deformation component
#		    		    (1,2,3,4,5,6)
#		    Global constants:
#       	    	   up = the deformation magnitude (strain units)
#       		   cfac = conversion from LAMMPS pressure units to
#               	   output units for elastic constants
#
#
#  To run this on a different system, it should only be necessary to
#  modify the files init.mod and potential.mod. In order to calculate
#  the elastic constants correctly, care must be taken to specify
#  the correct units in init.mod (units, cfac and cunits). It is also
#  important to verify that the minimization of energy w.r.t atom
#  positions in the deformed cell is fully converged.
#  One indication of this is that the elastic constants are insensitive
#  to the choice of the variable ${up} in init.mod. Another is to check
#  the final max and two-norm forces reported in the log file. If you know
#  that minimization is not required, you can set maxiter = 0.0 in
#  init.mod.
#

include init.mod
# NOTE: This script can be modified for different atomic structures,
# units, etc. See in.elastic for more info.
#

# Define the finite deformation size. Try several values of this
# variable to verify that results do not depend on it.
variable up equal 1.0e-6

# Define the amount of random jiggle for atoms
# This prevents atoms from staying on saddle points
variable atomjiggle equal 1.0e-5

# Uncomment one of these blocks, depending on what units
# you are using in LAMMPS and for output

# metal units, elastic constants in eV/A^3
#units		metal
#variable cfac equal 6.2414e-7
#variable cunits string eV/A^3

# metal units, elastic constants in GPa
units		metal
variable cfac equal 1.0e-4
variable cunits string GPa

# real units, elastic constants in GPa
#units		real
#variable cfac equal 1.01325e-4
#variable cunits string GPa

# Define minimization parameters
variable etol equal 0.0
variable ftol equal 1.0e-10
variable maxiter equal 10000
variable maxeval equal 1000000
variable dmax equal 1.0e-2

# generate the box and atom positions using a diamond lattice

dimension    3
boundary     p p p
read_data    data.in
Reading data file ...
  orthogonal box = (-0.3463036 -0.3463036 -0.17635742) to (10.038112 10.038112 5.1119754)
  2 by 2 by 1 MPI processor grid
  reading atoms ...
  32 atoms
  reading velocities ...
  32 velocities
  read_data CPU = 0.001 seconds
#replicate    2 3 4
replicate    2 3 4
Replication is creating a 2x3x4 = 24 times larger system...
  orthogonal box = (-0.3463036 -0.3463036 -0.17635742) to (20.422527 30.806942 20.976974)
  1 by 2 by 2 MPI processor grid
  768 atoms
  replicate CPU = 0.000 seconds
change_box   all triclinic
Changing box ...
  triclinic box = (-0.3463036 -0.3463036 -0.17635742) to (20.422527 30.806942 20.976974) with tilt (0 0 0)

# Need to set mass to something, just to satisfy LAMMPS
mass 1 1.0e-20

include potential.mod
# NOTE: This script can be modified for different pair styles
# See in.elastic for more info.

# Choose potential
#-----------------------
#pair_style	sw
#pair_coeff * * Si.sw Si
#-----------------------
#pair_style morse	2.83994742	# D0[eV] a[1/A] r0[A] rc[A], 1NN for BCC
#pair_coeff 1 1	2.1173	1.0202	2.4595	2.6497	#	Fe-Fe
#-----------------------
#pair_style smatb # R0(A)   p       q     A(eV)   xi(eV)  Rcs(A)   Rc(A), 4NN: Rcs=4NN, Rc=(4NN+5NN)/2
#pair_coeff 1 1	2.4802	7.0149	2.3779	0.3144	3.0551	4.033	4.176	#	Co	Co
#-----------------------
#pair_style eam/alloy
#pair_coeff * * AlCrFeCoNi_Zhou04.eam.alloy Fe
#-----------------------
pair_style meam
pair_coeff * * ./../../library.meam Mo Si ./../../MoSi.meam Mo Si
#-----------------------

# Setup neighbor style
neighbor 1.0 nsq
neigh_modify once no every 1 delay 0 check yes

# Setup minimization style
min_style	     cg
min_modify	     dmax ${dmax} line quadratic
min_modify	     dmax 0.01 line quadratic

# Setup output
thermo		1
thermo_style custom step temp pe press pxx pyy pzz pxy pxz pyz lx ly lz vol
thermo_modify norm no

# Compute initial state
fix 3 all box/relax  aniso 0.0
minimize ${etol} ${ftol} ${maxiter} ${maxeval}
minimize 0 ${ftol} ${maxiter} ${maxeval}
minimize 0 1e-10 ${maxiter} ${maxeval}
minimize 0 1e-10 10000 ${maxeval}
minimize 0 1e-10 10000 1000000
Neighbor list info ...
  update: every = 1 steps, delay = 0 steps, check = yes
  max neighbors/atom: 2000, page size: 100000
  master list distance cutoff = 5.3
  ghost atom cutoff = 5.3
  2 neighbor lists, perpetual/occasional/extra = 2 0 0
  (1) pair meam, perpetual
      attributes: full, newton on
      pair build: full/nsq
      stencil: none
      bin: none
  (2) pair meam, perpetual, half/full from (1)
      attributes: half, newton on
      pair build: halffull/newton
      stencil: none
      bin: none
Per MPI rank memory allocation (min/avg/max) = 10.06 | 10.06 | 10.06 Mbytes
   Step          Temp          PotEng         Press           Pxx            Pyy            Pzz            Pxy            Pxz            Pyz             Lx             Ly             Lz           Volume    
         0   0             -4759.277       35301.864      60412.135      60412.135     -14918.679      2.6454461e-10  1.0149106e-09 -3.6922083e-09  20.76883       31.153246      21.153331      13686.554    
         1   0             -4759.383       34817.082      59837.551      59837.551     -15223.855      1.1818044e-10  1.0585662e-09 -3.8515509e-09  20.770907      31.156361      21.152809      13688.953    
         2   0             -4759.4883      34334.642      59265.146      59265.146     -15526.366      2.2457774e-10  1.0662567e-09 -3.8994297e-09  20.772984      31.159476      21.152271      13691.343    
         3   0             -4759.5928      33854.561      58694.935      58694.935     -15826.187      2.4326378e-10  1.0750002e-09 -4.0072171e-09  20.775061      31.162592      21.151716      13693.722    
         4   0             -4759.6964      33376.858      58126.933      58126.933     -16123.292      3.6771537e-10  1.104562e-09  -4.0431787e-09  20.777138      31.165707      21.151146      13696.09     
         5   0             -4759.7993      32901.552      57561.155      57561.155     -16417.655      3.7374052e-10  1.0628878e-09 -4.1038133e-09  20.779215      31.168822      21.150559      13698.448    
         6   0             -4759.9014      32428.661      56997.616      56997.616     -16709.25       4.5584098e-10  1.1246223e-09 -4.2136742e-09  20.781292      31.171938      21.149955      13700.796    
         7   0             -4760.0027      31958.205      56436.332      56436.332     -16998.05       4.4752248e-10  1.0825836e-09 -4.3285641e-09  20.783369      31.175053      21.149334      13703.132    
         8   0             -4760.1033      31490.203      55877.319      55877.319     -17284.028      4.5243316e-10  1.1240585e-09 -4.2759805e-09  20.785445      31.178168      21.148697      13705.458    
         9   0             -4760.2031      31024.676      55320.592      55320.592     -17567.156      5.9321786e-10  1.1364409e-09 -4.4387305e-09  20.787522      31.181284      21.148042      13707.772    
        10   0             -4760.3022      30561.642      54766.167      54766.167     -17847.407      4.8115406e-10  1.22154e-09   -4.5028179e-09  20.789599      31.184399      21.147369      13710.075    
        11   0             -4760.4006      30101.122      54214.059      54214.059     -18124.751      4.5424301e-10  1.2223624e-09 -4.5745101e-09  20.791676      31.187514      21.146679      13712.367    
        12   0             -4760.4982      29643.136      53664.284      53664.284     -18399.161      4.8523885e-10  1.200222e-09  -4.7088936e-09  20.793753      31.190629      21.145971      13714.648    
        13   0             -4760.5951      29187.705      53116.86       53116.86      -18670.607      5.2197967e-10  1.1958677e-09 -4.7485732e-09  20.79583       31.193745      21.145245      13716.916    
        14   0             -4760.6913      28734.85       52571.804      52571.804     -18939.058      3.8791782e-10  1.232419e-09  -4.8579468e-09  20.797907      31.19686       21.1445        13719.173    
        15   0             -4760.7868      28284.594      52029.133      52029.133     -19204.484      4.1363305e-10  1.3188764e-09 -4.8928638e-09  20.799984      31.199975      21.143736      13721.418    
        16   0             -4760.8816      27836.959      51488.866      51488.866     -19466.854      3.9933337e-10  1.3473874e-09 -4.9502391e-09  20.802061      31.203091      21.142954      13723.65     
        17   0             -4760.9758      27391.966      50951.018      50951.018     -19726.137      5.5446905e-10  1.2809639e-09 -5.0569919e-09  20.804137      31.206206      21.142153      13725.87     
        18   0             -4761.0692      26949.639      50415.609      50415.609     -19982.3        4.3977191e-10  1.3765563e-09 -5.0971829e-09  20.806214      31.209321      21.141332      13728.078    
        19   0             -4761.162       26510.001      49882.658      49882.658     -20235.312      4.9367345e-10  1.3578909e-09 -5.2362548e-09  20.808291      31.212437      21.140491      13730.273    
        20   0             -4761.2542      26073.076      49352.183      49352.183     -20485.14       4.8728929e-10  1.3813403e-09 -5.299506e-09   20.810368      31.215552      21.139631      13732.455    
        21   0             -4761.3457      25638.887      48824.205      48824.205     -20731.749      5.1914467e-10  1.4325374e-09 -5.3978218e-09  20.812445      31.218667      21.138751      13734.624    
        22   0             -4761.4366      25207.459      48298.742      48298.742     -20975.106      4.7798255e-10  1.4452763e-09 -5.489747e-09   20.814522      31.221783      21.13785       13736.78     
        23   0             -4761.5268      24778.817      47775.814      47775.814     -21215.177      3.956341e-10   1.5612132e-09 -5.5471674e-09  20.816599      31.224898      21.136929      13738.923    
        24   0             -4761.6165      24352.986      47255.442      47255.442     -21451.927      3.8996197e-10  1.51707e-09   -5.6614458e-09  20.818676      31.228013      21.135986      13741.052    
        25   0             -4761.7055      23929.991      46737.646      46737.646     -21685.319      5.0813755e-10  1.5332546e-09 -5.7219709e-09  20.820752      31.231129      21.135023      13743.167    
        26   0             -4761.7939      23509.858      46222.447      46222.447     -21915.319      4.9584762e-10  1.5157629e-09 -5.8040424e-09  20.822829      31.234244      21.134038      13745.269    
        27   0             -4761.8818      23092.614      45709.866      45709.866     -22141.889      5.2147772e-10  1.6357335e-09 -5.8704748e-09  20.824906      31.237359      21.133032      13747.356    
        28   0             -4761.969       22678.284      45199.923      45199.923     -22364.992      4.9382656e-10  1.658412e-09  -6.026297e-09   20.826983      31.240475      21.132003      13749.429    
        29   0             -4762.0557      22266.896      44692.639      44692.639     -22584.591      4.69475e-10    1.7514911e-09 -6.0818597e-09  20.82906       31.24359       21.130953      13751.488    
        30   0             -4762.1419      21858.475      44188.037      44188.037     -22800.648      4.6307523e-10  1.6806446e-09 -6.1720744e-09  20.831137      31.246705      21.12988       13753.532    
        31   0             -4762.2275      21453.051      43686.138      43686.138     -23013.123      4.8577693e-10  1.6978584e-09 -6.2534946e-09  20.833214      31.249821      21.128784      13755.561    
        32   0             -4762.3125      21050.651      43186.966      43186.966     -23221.978      4.3697972e-10  1.7454955e-09 -6.2971037e-09  20.835291      31.252936      21.127665      13757.575    
        33   0             -4762.3971      20651.303      42690.542      42690.542     -23427.174      5.139409e-10   1.8179279e-09 -6.444691e-09   20.837368      31.256051      21.126522      13759.573    
        34   0             -4762.4811      20255.035      42196.888      42196.888     -23628.67       5.3348436e-10  1.9098243e-09 -6.5046238e-09  20.839444      31.259167      21.125356      13761.557    
        35   0             -4762.5646      19861.876      41706.027      41706.027     -23826.426      4.7034186e-10  1.8820234e-09 -6.5364071e-09  20.841521      31.262282      21.124166      13763.524    
        36   0             -4762.6475      19471.855      41217.983      41217.983     -24020.4        4.9601052e-10  1.8812196e-09 -6.6906776e-09  20.843598      31.265397      21.122951      13765.476    
        37   0             -4762.73        19085.003      40732.78       40732.78      -24210.551      4.7427769e-10  1.9583696e-09 -6.7683648e-09  20.845675      31.268513      21.121712      13767.412    
        38   0             -4762.8121      18701.35       40250.442      40250.442     -24396.836      4.4099642e-10  1.9469751e-09 -6.874241e-09   20.847752      31.271628      21.120449      13769.332    
        39   0             -4762.8936      18320.925      39770.994      39770.994     -24579.213      3.916688e-10   2.0415856e-09 -6.9804885e-09  20.849829      31.274743      21.11916       13771.235    
        40   0             -4762.9747      17943.761      39294.46       39294.46      -24757.638      4.2025376e-10  2.0166673e-09 -7.0100384e-09  20.851906      31.277859      21.117845      13773.121    
        41   0             -4763.0554      17569.888      38820.866      38820.866     -24932.069      3.698374e-10   2.0640205e-09 -7.1840046e-09  20.853983      31.280974      21.116505      13774.99     
        42   0             -4763.1355      17199.337      38350.236      38350.236     -25102.46       3.2618773e-10  2.123278e-09  -7.252659e-09   20.856059      31.284089      21.115138      13776.843    
        43   0             -4763.2153      16832.141      37882.596      37882.596     -25268.768      3.265812e-10   2.1407189e-09 -7.4000897e-09  20.858136      31.287205      21.113745      13778.678    
        44   0             -4763.2947      16468.332      37417.972      37417.972     -25430.947      3.7003414e-10  2.1990395e-09 -7.4864438e-09  20.860213      31.29032       21.112326      13780.495    
        45   0             -4763.3736      16107.941      36956.388      36956.388     -25588.951      4.0230502e-10  2.2414923e-09 -7.5537547e-09  20.86229       31.293435      21.110879      13782.295    
        46   0             -4763.4521      15751.001      36497.869      36497.869     -25742.735      3.5729639e-10  2.2190971e-09 -7.6660961e-09  20.864367      31.296551      21.109405      13784.076    
        47   0             -4763.5303      15397.543      36042.442      36042.442     -25892.254      2.621938e-10   2.2750467e-09 -7.7893051e-09  20.866444      31.299666      21.107903      13785.84     
        48   0             -4763.608       15047.602      35590.132      35590.132     -26037.46       2.8033568e-10  2.2494237e-09 -7.8150794e-09  20.868521      31.302781      21.106373      13787.585    
        49   0             -4763.6854      14701.209      35140.967      35140.967     -26178.307      3.6810127e-10  2.369764e-09  -8.0156613e-09  20.870598      31.305896      21.104814      13789.311    
        50   0             -4763.7624      14358.4        34694.974      34694.974     -26314.748      3.8414038e-10  2.3615943e-09 -8.0093933e-09  20.872675      31.309012      21.103227      13791.018    
        51   0             -4763.8391      14019.207      34252.178      34252.178     -26446.736      3.3120008e-10  2.3673439e-09 -8.1518826e-09  20.874751      31.312127      21.101611      13792.706    
        52   0             -4763.9154      13683.662      33812.605      33812.605     -26574.223      3.6831349e-10  2.4745322e-09 -8.2404972e-09  20.876828      31.315242      21.099965      13794.375    
        53   0             -4763.9913      13351.801      33376.282      33376.282     -26697.161      3.7334703e-10  2.4363538e-09 -8.3973491e-09  20.878905      31.318358      21.09829       13796.024    
        54   0             -4764.067       13023.656      32943.236      32943.236     -26815.504      3.4222229e-10  2.482731e-09  -8.4792424e-09  20.880982      31.321473      21.096584      13797.654    
        55   0             -4764.1423      12699.262      32513.494      32513.494     -26929.203      4.1084645e-10  2.5745578e-09 -8.5760212e-09  20.883059      31.324588      21.094848      13799.263    
        56   0             -4764.2174      12378.652      32087.083      32087.083     -27038.21       3.8504921e-10  2.6259533e-09 -8.5955516e-09  20.885136      31.327704      21.093082      13800.852    
        57   0             -4764.2921      12061.861      31664.03       31664.03      -27142.478      4.2823623e-10  2.6605742e-09 -8.7490669e-09  20.887213      31.330819      21.091284      13802.421    
        58   0             -4764.3665      11748.921      31244.361      31244.361     -27241.958      3.6258018e-10  2.70272e-09   -8.903594e-09   20.88929       31.333934      21.089455      13803.969    
        59   0             -4764.4407      11439.867      30828.102      30828.102     -27336.603      4.5253329e-10  2.7065639e-09 -8.9551914e-09  20.891366      31.33705       21.087595      13805.496    
        60   0             -4764.5145      11134.732      30415.281      30415.281     -27426.365      4.7539134e-10  2.793961e-09  -9.0958201e-09  20.893443      31.340165      21.085702      13807.001    
        61   0             -4764.5881      10833.55       30005.924      30005.924     -27511.197      4.5724059e-10  2.8541569e-09 -9.2530152e-09  20.89552       31.34328       21.083777      13808.485    
        62   0             -4764.6615      10536.354      29600.056      29600.056     -27591.05       4.9209718e-10  2.869732e-09  -9.3405878e-09  20.897597      31.346396      21.081819      13809.948    
        63   0             -4764.7346      10243.175      29197.702      29197.702     -27665.879      4.6881126e-10  2.8997865e-09 -9.3933709e-09  20.899674      31.349511      21.079828      13811.389    
        64   0             -4764.8074      9954.047       28798.889      28798.889     -27735.636      4.7952727e-10  2.9453391e-09 -9.5616691e-09  20.901751      31.352626      21.077804      13812.808    
        65   0             -4764.88        9669.0017      28403.64       28403.64      -27800.275      5.010838e-10   2.9252009e-09 -9.6537945e-09  20.903828      31.355742      21.075747      13814.204    
        66   0             -4764.9524      9388.0713      28011.982      28011.982     -27859.75       5.5634149e-10  3.0087762e-09 -9.7330622e-09  20.905905      31.358857      21.073655      13815.578    
        67   0             -4765.0243      9112.64        27625.835      27625.835     -27913.751      5.5296789e-10  3.0268048e-09 -9.8922028e-09  20.907971      31.361957      21.07154       13816.923    
        68   0             -4765.0947      8845.6525      27249.366      27249.366     -27961.775      5.7729786e-10  3.0991679e-09 -9.9755777e-09  20.910005      31.365008      21.069425      13818.224    
        69   0             -4765.1639      8586.7755      26882.191      26882.191     -28004.055      5.2672628e-10  3.1068185e-09 -1.0098782e-08  20.912008      31.368011      21.067309      13819.483    
        70   0             -4765.2319      8335.6948      26523.947      26523.947     -28040.81       4.7355705e-10  3.1296032e-09 -1.0220315e-08  20.91398       31.370969      21.065194      13820.701    
        71   0             -4765.2986      8092.1142      26174.295      26174.295     -28072.248      4.8037514e-10  3.2690039e-09 -1.0257785e-08  20.915922      31.373884      21.063079      13821.881    
        72   0             -4765.3643      7855.7536      25832.912      25832.912     -28098.564      3.9761026e-10  3.2956064e-09 -1.0357379e-08  20.917837      31.376756      21.060963      13823.023    
        73   0             -4765.4288      7626.3481      25499.494      25499.494     -28119.943      3.9474686e-10  3.3000665e-09 -1.0459165e-08  20.919725      31.379587      21.058848      13824.129    
        74   0             -4765.4924      7403.6467      25173.751      25173.751     -28136.561      3.8292041e-10  3.3794046e-09 -1.0582614e-08  20.921586      31.382379      21.056733      13825.201    
        75   0             -4765.5549      7187.4112      24855.409      24855.409     -28148.585      3.9347651e-10  3.3946822e-09 -1.0647121e-08  20.923422      31.385133      21.054617      13826.239    
        76   0             -4765.6164      6977.4155      24544.209      24544.209     -28156.171      3.9757653e-10  3.468037e-09  -1.0720022e-08  20.925234      31.387851      21.052502      13827.244    
        77   0             -4765.6771      6773.4447      24239.903      24239.903     -28159.472      4.1385283e-10  3.5059624e-09 -1.0854832e-08  20.927022      31.390534      21.050387      13828.218    
        78   0             -4765.7368      6575.2942      23942.256      23942.256     -28158.629      4.0582976e-10  3.5938303e-09 -1.0941225e-08  20.928788      31.393182      21.048271      13829.162    
        79   0             -4765.7957      6382.7691      23651.043      23651.043     -28153.778      4.235785e-10   3.6918057e-09 -1.1010141e-08  20.930532      31.395798      21.046156      13830.076    
        80   0             -4765.8538      6195.6837      23366.051      23366.051     -28145.051      3.8353657e-10  3.688406e-09  -1.1225125e-08  20.932254      31.398381      21.044041      13830.962    
        81   0             -4765.911       6013.8605      23087.076      23087.076     -28132.57       3.6679395e-10  3.6010953e-09 -1.1248358e-08  20.933956      31.400934      21.041925      13831.821    
        82   0             -4765.9675      5837.1302      22813.922      22813.922     -28116.454      4.1943929e-10  3.6725765e-09 -1.1277256e-08  20.935638      31.403457      21.03981       13832.653    
        83   0             -4766.0232      5665.3311      22546.404      22546.404     -28096.815      4.3018904e-10  3.8102034e-09 -1.1403222e-08  20.937301      31.405951      21.037695      13833.459    
        84   0             -4766.0783      5498.3092      22284.344      22284.344     -28073.76       4.4486558e-10  3.792528e-09  -1.15882e-08    20.938945      31.408418      21.035579      13834.241    
        85   0             -4766.1326      5335.9163      22027.572      22027.572     -28047.394      3.9290917e-10  3.9208924e-09 -1.15862e-08    20.940571      31.410857      21.033464      13834.998    
        86   0             -4766.1862      5178.0108      21775.924      21775.924     -28017.816      4.2996249e-10  3.9094831e-09 -1.1707401e-08  20.94218       31.41327       21.031349      13835.732    
        87   0             -4766.2392      5024.4567      21529.245      21529.245     -27985.12       4.1650255e-10  3.9370563e-09 -1.176083e-08   20.943771      31.415657      21.029233      13836.444    
        88   0             -4766.2915      4875.1239      21287.385      21287.385     -27949.398      4.1835422e-10  3.9408002e-09 -1.1932066e-08  20.945347      31.41802       21.027118      13837.133    
        89   0             -4766.3432      4729.8872      21050.2        21050.2       -27910.737      3.7069504e-10  4.0042345e-09 -1.2007226e-08  20.946906      31.420358      21.025003      13837.801    
        90   0             -4766.3943      4588.6263      20817.55       20817.55      -27869.222      4.357696e-10   3.9385425e-09 -1.2083787e-08  20.948449      31.422674      21.022887      13838.448    
        91   0             -4766.4449      4451.2255      20589.304      20589.304     -27824.932      4.3936885e-10  3.9832075e-09 -1.2210591e-08  20.949978      31.424967      21.020772      13839.075    
        92   0             -4766.4948      4317.5739      20365.334      20365.334     -27777.945      4.365533e-10   3.9517499e-09 -1.2249786e-08  20.951492      31.427238      21.018657      13839.682    
        93   0             -4766.5442      4187.5647      20145.516      20145.516     -27728.337      5.7705901e-10  4.0338537e-09 -1.2298612e-08  20.952992      31.429487      21.016541      13840.271    
        94   0             -4766.5931      4061.095       19929.733      19929.733     -27676.18       4.6546505e-10  4.0983063e-09 -1.2447248e-08  20.954478      31.431716      21.014426      13840.841    
        95   0             -4766.6414      3938.0657      19717.87       19717.87      -27621.543      4.8082928e-10  4.1528772e-09 -1.2426579e-08  20.95595       31.433925      21.012311      13841.393    
        96   0             -4766.6893      3818.3814      19509.819      19509.819     -27564.493      4.5417057e-10  4.2478969e-09 -1.2552338e-08  20.95741       31.436115      21.010195      13841.927    
        97   0             -4766.7366      3701.95        19305.472      19305.472     -27505.095      3.9146339e-10  4.2601284e-09 -1.2633344e-08  20.958857      31.438285      21.00808       13842.445    
        98   0             -4766.7835      3588.6827      19104.729      19104.729     -27443.41       3.6338714e-10  4.2694267e-09 -1.2675989e-08  20.960291      31.440437      21.005965      13842.946    
        99   0             -4766.8298      3478.4937      18907.491      18907.491     -27379.501      4.6660185e-10  4.3200407e-09 -1.2731354e-08  20.961714      31.442571      21.003849      13843.431    
       100   0             -4766.8757      3371.3001      18713.662      18713.662     -27313.423      3.8886131e-10  4.3110687e-09 -1.2922197e-08  20.963125      31.444687      21.001734      13843.9      
       101   0             -4766.9212      3267.0221      18523.15       18523.15      -27245.234      3.9413405e-10  4.3225137e-09 -1.2981169e-08  20.964525      31.446787      20.999619      13844.354    
       102   0             -4766.9662      3165.5826      18335.867      18335.867     -27174.986      3.7002038e-10  4.3505217e-09 -1.3115253e-08  20.965913      31.44887       20.997503      13844.794    
       103   0             -4767.0108      3066.9065      18151.726      18151.726     -27102.733      2.342689e-10   4.4306517e-09 -1.3238908e-08  20.967291      31.450937      20.995388      13845.219    
       104   0             -4767.0549      2970.9217      17970.645      17970.645     -27028.525      2.0656181e-10  4.4344756e-09 -1.3378134e-08  20.968659      31.452988      20.993273      13845.63     
       105   0             -4767.0987      2877.5577      17792.543      17792.543     -26952.412      1.965972e-10   4.4813106e-09 -1.3438189e-08  20.970016      31.455024      20.991157      13846.027    
       106   0             -4767.142       2786.7467      17617.34       17617.34      -26874.441      1.9848419e-10  4.498231e-09  -1.3408487e-08  20.971364      31.457045      20.989042      13846.411    
       107   0             -4767.1849      2698.4229      17444.963      17444.963     -26794.658      2.7976907e-10  4.5757906e-09 -1.3488822e-08  20.972701      31.459052      20.986927      13846.782    
       108   0             -4767.2275      2612.5227      17275.338      17275.338     -26713.108      3.3659236e-10  4.6630843e-09 -1.3559487e-08  20.97403       31.461045      20.984811      13847.14     
       109   0             -4767.2696      2528.9844      17108.394      17108.394     -26629.835      2.6252747e-10  4.730869e-09  -1.3655193e-08  20.975349      31.463024      20.982696      13847.486    
       110   0             -4767.3114      2447.7482      16944.063      16944.063     -26544.881      3.7687026e-10  4.7644864e-09 -1.3831456e-08  20.97666       31.46499       20.980581      13847.821    
       111   0             -4767.3528      2368.7559      16782.277      16782.277     -26458.286      4.3486722e-10  4.7432451e-09 -1.3832393e-08  20.977962      31.466942      20.978465      13848.143    
       112   0             -4767.3939      2291.951       16622.972      16622.972     -26370.091      4.4844298e-10  4.8335429e-09 -1.3899387e-08  20.979255      31.468883      20.97635       13848.454    
       113   0             -4767.4346      2217.279       16466.086      16466.086     -26280.334      3.785724e-10   4.7886909e-09 -1.4079499e-08  20.98054       31.470811      20.974235      13848.755    
       114   0             -4767.4749      2144.6867      16311.557      16311.557     -26189.053      3.227139e-10   4.8347147e-09 -1.4104675e-08  20.981818      31.472726      20.972119      13849.044    
       115   0             -4767.5149      2074.1226      16159.326      16159.326     -26096.283      2.7433059e-10  4.9991752e-09 -1.4240426e-08  20.983087      31.474631      20.970004      13849.323    
       116   0             -4767.5546      2005.5366      16009.335      16009.335     -26002.06       2.6722201e-10  5.037606e-09  -1.4262938e-08  20.984349      31.476523      20.967889      13849.591    
       117   0             -4767.5939      1938.8796      15861.528      15861.528     -25906.418      2.7876954e-10  4.954868e-09  -1.4372895e-08  20.985603      31.478405      20.965773      13849.85     
       118   0             -4767.6329      1874.1043      15715.852      15715.852     -25809.39       3.0971143e-10  4.8913107e-09 -1.4418816e-08  20.986851      31.480276      20.963658      13850.099    
       119   0             -4767.6716      1811.1647      15572.252      15572.252     -25711.01       2.9262513e-10  4.9203741e-09 -1.44628e-08    20.988091      31.482137      20.961543      13850.338    
       120   0             -4767.71        1750.0162      15430.678      15430.678     -25611.307      2.2546872e-10  5.0202091e-09 -1.4591303e-08  20.989324      31.483987      20.959427      13850.568    
       121   0             -4767.7481      1690.6151      15291.079      15291.079     -25510.313      2.4177657e-10  5.0551082e-09 -1.4651157e-08  20.990551      31.485827      20.957312      13850.789    
       122   0             -4767.7858      1632.9188      15153.407      15153.407     -25408.057      1.6600469e-10  5.1627412e-09 -1.4728038e-08  20.991772      31.487657      20.955197      13851.002    
       123   0             -4767.8233      1576.8859      15017.614      15017.614     -25304.57       1.9308605e-10  5.0605195e-09 -1.4817653e-08  20.992986      31.489478      20.953081      13851.206    
       124   0             -4767.8604      1522.4761      14883.654      14883.654     -25199.88       8.9030796e-11  5.1713465e-09 -1.4902367e-08  20.994194      31.49129       20.950966      13851.401    
       125   0             -4767.8973      1469.6501      14751.483      14751.483     -25094.015      1.2286093e-10  5.2133541e-09 -1.5015034e-08  20.995395      31.493093      20.948851      13851.588    
       126   0             -4767.9338      1418.3696      14621.055      14621.055     -24987.002      2.8050628e-10  5.2604056e-09 -1.5056232e-08  20.996591      31.494887      20.946735      13851.768    
       127   0             -4767.9701      1368.5972      14492.329      14492.329     -24878.867      2.5657539e-10  5.2809242e-09 -1.5149211e-08  20.997782      31.496673      20.94462       13851.939    
       128   0             -4768.0061      1320.2966      14365.263      14365.263     -24769.636      3.5797432e-10  5.3421465e-09 -1.5237691e-08  20.998967      31.49845       20.942505      13852.103    
       129   0             -4768.0418      1273.4321      14239.816      14239.816     -24659.336      3.6225195e-10  5.3865055e-09 -1.5317509e-08  21.000146      31.500219      20.940389      13852.26     
       130   0             -4768.0772      1227.9692      14115.948      14115.948     -24547.989      2.6640681e-10  5.4586199e-09 -1.5458596e-08  21.00132       31.50198       20.938274      13852.41     
       131   0             -4768.1124      1183.874       13993.621      13993.621     -24435.621      3.2005919e-10  5.6119905e-09 -1.5571023e-08  21.002489      31.503734      20.936159      13852.552    
       132   0             -4768.1473      1141.1137      13872.798      13872.798     -24322.254      2.4722959e-10  5.5926944e-09 -1.5693462e-08  21.003653      31.50548       20.934043      13852.688    
       133   0             -4768.1819      1099.6562      13753.44       13753.44      -24207.912      2.4248271e-10  5.6257166e-09 -1.5829224e-08  21.004813      31.507219      20.931928      13852.817    
       134   0             -4768.2163      1059.4699      13635.513      13635.513     -24092.616      1.4370978e-10  5.6830631e-09 -1.5853513e-08  21.005967      31.508951      20.929813      13852.94     
       135   0             -4768.2504      1020.524       13518.981      13518.981     -23976.39       2.8891705e-10  5.8014573e-09 -1.6059496e-08  21.007117      31.510675      20.927697      13853.057    
       136   0             -4768.2842      982.78846      13403.809      13403.809     -23859.253      2.5204815e-10  5.7955331e-09 -1.6125452e-08  21.008262      31.512394      20.925582      13853.167    
       137   0             -4768.3178      946.23439      13289.965      13289.965     -23741.227      2.9886285e-10  5.9159769e-09 -1.6198547e-08  21.009403      31.514105      20.923467      13853.271    
       138   0             -4768.3511      910.83333      13177.415      13177.415     -23622.331      2.0563106e-10  5.971648e-09  -1.6390969e-08  21.01054       31.51581       20.921351      13853.37     
       139   0             -4768.3842      876.55741      13066.129      13066.129     -23502.585      2.4536281e-10  6.0012891e-09 -1.6472173e-08  21.011673      31.517509      20.919236      13853.463    
       140   0             -4768.417       843.37964      12956.073      12956.073     -23382.008      2.9951969e-10  5.9925463e-09 -1.6448842e-08  21.012802      31.519202      20.917121      13853.55     
       141   0             -4768.4496      811.27333      12847.219      12847.219     -23260.618      2.948627e-10   6.0202199e-09 -1.6605664e-08  21.013926      31.520889      20.915005      13853.632    
       142   0             -4768.482       780.21235      12739.536      12739.536     -23138.436      3.481819e-10   6.0514228e-09 -1.6691733e-08  21.015047      31.522571      20.91289       13853.709    
       143   0             -4768.5141      750.17117      12632.996      12632.996     -23015.478      3.0067269e-10  6.012666e-09  -1.6598191e-08  21.016164      31.524247      20.910775      13853.78     
       144   0             -4768.5459      721.12478      12527.569      12527.569     -22891.764      2.7872763e-10  6.1428878e-09 -1.685334e-08   21.017278      31.525917      20.908659      13853.847    
       145   0             -4768.5775      693.04877      12423.228      12423.228     -22767.31       3.0047169e-10  6.1095899e-09 -1.6902075e-08  21.018388      31.527582      20.906544      13853.909    
       146   0             -4768.6089      665.91922      12319.946      12319.946     -22642.134      3.2802391e-10  6.091963e-09  -1.6971706e-08  21.019495      31.529243      20.904429      13853.966    
       147   0             -4768.6401      639.71255      12217.695      12217.695     -22516.252      3.2671947e-10  6.2064216e-09 -1.7009663e-08  21.020598      31.530898      20.902313      13854.019    
       148   0             -4768.671       614.40575      12116.449      12116.449     -22389.681      3.2435589e-10  6.2086218e-09 -1.7090539e-08  21.021699      31.532548      20.900198      13854.067    
       149   0             -4768.7017      589.97642      12016.184      12016.184     -22262.438      3.3218845e-10  6.2788426e-09 -1.7210338e-08  21.022796      31.534194      20.898083      13854.11     
       150   0             -4768.7321      566.40263      11916.873      11916.873     -22134.538      3.1888681e-10  6.4416316e-09 -1.7279546e-08  21.02389       31.535835      20.895967      13854.15     
       151   0             -4768.7624      543.66293      11818.493      11818.493     -22005.996      4.6810293e-10  6.3958509e-09 -1.7329609e-08  21.024981      31.537472      20.893852      13854.186    
       152   0             -4768.7924      521.73632      11721.019      11721.019     -21876.828      4.4773887e-10  6.5115211e-09 -1.7429573e-08  21.026069      31.539104      20.891737      13854.217    
       153   0             -4768.8221      500.6022       11624.428      11624.428     -21747.049      4.6732898e-10  6.5500111e-09 -1.7539744e-08  21.027155      31.540732      20.889621      13854.245    
       154   0             -4768.8517      480.24044      11528.697      11528.697     -21616.673      4.7496587e-10  6.586096e-09  -1.7611764e-08  21.028238      31.542357      20.887506      13854.269    
       155   0             -4768.881       460.6316       11433.804      11433.804     -21485.714      4.1059127e-10  6.5886194e-09 -1.7714332e-08  21.029318      31.543977      20.885391      13854.289    
       156   0             -4768.9101      441.75655      11339.727      11339.727     -21354.185      3.2728565e-10  6.7107298e-09 -1.7743717e-08  21.030396      31.545594      20.883275      13854.306    
       157   0             -4768.939       423.59643      11246.444      11246.444     -21222.099      3.5091975e-10  6.7520839e-09 -1.7840983e-08  21.031471      31.547206      20.88116       13854.319    
       158   0             -4768.9677      406.13266      11153.934      11153.934     -21089.47       3.9911995e-10  6.7404518e-09 -1.8023857e-08  21.032544      31.548816      20.879045      13854.329    
       159   0             -4768.9962      389.34704      11062.177      11062.177     -20956.312      3.2379992e-10  6.790279e-09  -1.8027243e-08  21.033614      31.550422      20.876929      13854.335    
       160   0             -4769.0244      373.22168      10971.151      10971.151     -20822.637      4.0418548e-10  6.7692201e-09 -1.8138062e-08  21.034683      31.552024      20.874814      13854.339    
       161   0             -4769.0525      357.73907      10880.838      10880.838     -20688.459      4.6847649e-10  6.8773185e-09 -1.8327981e-08  21.035749      31.553624      20.872699      13854.339    
       162   0             -4769.0803      342.88209      10791.217      10791.217     -20553.788      4.3651923e-10  6.9268607e-09 -1.8333701e-08  21.036813      31.55522       20.870583      13854.337    
       163   0             -4769.1079      328.63396      10702.27       10702.27      -20418.639      5.2841133e-10  7.0318433e-09 -1.8354119e-08  21.037875      31.556813      20.868468      13854.332    
       164   0             -4769.1353      314.97857      10613.978      10613.978     -20283.021      4.7743311e-10  7.1017565e-09 -1.8471998e-08  21.038936      31.558403      20.866353      13854.324    
       165   0             -4769.1625      301.89984      10526.323      10526.323     -20146.947      5.3740586e-10  7.0290505e-09 -1.8545402e-08  21.039994      31.559991      20.864237      13854.313    
       166   0             -4769.1895      289.38193      10439.287      10439.287     -20010.428      5.7358066e-10  7.1007643e-09 -1.8618851e-08  21.04105       31.561576      20.862122      13854.299    
       167   0             -4769.2163      277.4092       10352.852      10352.852     -19873.476      6.2083183e-10  7.1598719e-09 -1.8629419e-08  21.042105      31.563158      20.860007      13854.284    
       168   0             -4769.2428      265.96631      10267          10267         -19736.101      5.4676987e-10  7.1574175e-09 -1.8725966e-08  21.043158      31.564737      20.857891      13854.265    
       169   0             -4769.2692      255.03833      10181.715      10181.715     -19598.315      5.2473703e-10  7.1445208e-09 -1.878265e-08   21.04421       31.566314      20.855776      13854.245    
       170   0             -4769.2953      244.61065      10096.98       10096.98      -19460.129      6.0974152e-10  7.2004871e-09 -1.8904189e-08  21.04526       31.567889      20.853661      13854.222    
       171   0             -4769.3213      234.6689       10012.779      10012.779     -19321.552      5.9590032e-10  7.4179082e-09 -1.8969138e-08  21.046308      31.569462      20.851545      13854.197    
       172   0             -4769.3471      225.19904      9929.0964      9929.0964     -19182.596      7.2469696e-10  7.3741541e-09 -1.9014004e-08  21.047355      31.571032      20.84943       13854.169    
       173   0             -4769.3726      216.18758      9845.9158      9845.9158     -19043.269      6.2432975e-10  7.4839191e-09 -1.9220949e-08  21.0484        31.572601      20.847315      13854.14     
       174   0             -4769.398       207.62107      9763.2221      9763.2221     -18903.581      5.8840513e-10  7.5260035e-09 -1.9349653e-08  21.049445      31.574167      20.845199      13854.109    
       175   0             -4769.4231      199.4862       9681.0004      9681.0004     -18763.542      5.966157e-10   7.5903186e-09 -1.9388577e-08  21.050488      31.575731      20.843084      13854.076    
       176   0             -4769.448       191.76993      9599.2358      9599.2358     -18623.162      6.4096925e-10  7.6619484e-09 -1.9595716e-08  21.051529      31.577294      20.840969      13854.041    
       177   0             -4769.4728      184.45947      9517.914       9517.914      -18482.45       5.2248881e-10  7.6898097e-09 -1.9718224e-08  21.05257       31.578855      20.838853      13854.004    
       178   0             -4769.4973      177.54228      9437.0207      9437.0207     -18341.415      6.2025466e-10  7.6921822e-09 -1.9808878e-08  21.053609      31.580414      20.836738      13853.966    
       179   0             -4769.5217      171.00603      9356.5421      9356.5421     -18200.066      5.5844153e-10  7.6245735e-09 -1.9835473e-08  21.054648      31.581971      20.834623      13853.926    
       180   0             -4769.5459      164.83867      9276.4644      9276.4644     -18058.413      5.8118041e-10  7.651777e-09  -1.9985704e-08  21.055685      31.583527      20.832507      13853.884    
       181   0             -4769.5698      159.02841      9196.7743      9196.7743     -17916.463      5.6461676e-10  7.7531115e-09 -2.0056934e-08  21.056721      31.585082      20.830392      13853.841    
       182   0             -4769.5936      153.5635       9117.4584      9117.4584     -17774.226      5.2997249e-10  7.7805454e-09 -2.015261e-08   21.057757      31.586635      20.828277      13853.797    
       183   0             -4769.6171      148.43255      9038.5039      9038.5039     -17631.71       5.3264008e-10  7.6423019e-09 -2.0220359e-08  21.058791      31.588187      20.826161      13853.751    
       184   0             -4769.6405      143.62437      8959.8982      8959.8982     -17488.923      4.795666e-10   7.7856111e-09 -2.033798e-08   21.059825      31.589738      20.824046      13853.704    
       185   0             -4769.6637      139.128        8881.6288      8881.6288     -17345.874      5.0817923e-10  7.8367843e-09 -2.0414836e-08  21.060858      31.591287      20.821931      13853.655    
       186   0             -4769.6867      134.9327       8803.6838      8803.6838     -17202.569      5.1085493e-10  7.9984927e-09 -2.0438151e-08  21.06189       31.592836      20.819815      13853.606    
       187   0             -4769.7095      131.02793      8726.0511      8726.0511     -17059.018      5.7982916e-10  7.9747182e-09 -2.0602145e-08  21.062922      31.594383      20.8177        13853.555    
       188   0             -4769.7321      127.4037       8648.7194      8648.7194     -16915.228      6.3676978e-10  8.0352287e-09 -2.0705457e-08  21.063953      31.595929      20.815585      13853.504    
       189   0             -4769.7545      124.04992      8571.6771      8571.6771     -16771.204      6.1912051e-10  7.973854e-09  -2.0767928e-08  21.064983      31.597475      20.813469      13853.451    
       190   0             -4769.7767      120.95666      8494.9131      8494.9131     -16626.956      6.3035146e-10  8.0533875e-09 -2.0744485e-08  21.066013      31.599019      20.811354      13853.397    
       191   0             -4769.7987      118.11446      8418.4163      8418.4163     -16482.489      6.0744172e-10  8.0542761e-09 -2.0883388e-08  21.067042      31.600563      20.809239      13853.343    
       192   0             -4769.8205      115.51381      8342.176       8342.176      -16337.811      5.8499086e-10  8.257903e-09  -2.0915327e-08  21.068071      31.602106      20.807123      13853.287    
       193   0             -4769.8422      113.14523      8266.1814      8266.1814     -16192.927      5.696605e-10   8.2023471e-09 -2.1103192e-08  21.069099      31.603649      20.805008      13853.231    
       194   0             -4769.8636      110.99945      8190.4222      8190.4222     -16047.846      5.7005608e-10  8.2578798e-09 -2.1163885e-08  21.070127      31.605191      20.802893      13853.174    
       195   0             -4769.8849      109.06738      8114.8881      8114.8881     -15902.574      5.6652738e-10  8.1956168e-09 -2.1244152e-08  21.071155      31.606732      20.800777      13853.117    
       196   0             -4769.9059      107.34014      8039.5692      8039.5692     -15757.118      6.2810699e-10  8.3483087e-09 -2.1295716e-08  21.072182      31.608273      20.798662      13853.058    
       197   0             -4769.9268      105.80902      7964.4557      7964.4557     -15611.484      6.0655393e-10  8.4874901e-09 -2.1354858e-08  21.073209      31.609813      20.796547      13853        
       198   0             -4769.9475      104.46546      7889.5382      7889.5382     -15465.68       6.5943651e-10  8.4943323e-09 -2.1483003e-08  21.074235      31.611353      20.794431      13852.94     
       199   0             -4769.968       103.30109      7814.8074      7814.8074     -15319.712      6.3081478e-10  8.6146548e-09 -2.1511836e-08  21.075262      31.612893      20.792316      13852.88     
       200   0             -4769.9883      102.30768      7740.2546      7740.2546     -15173.586      6.0392146e-10  8.638152e-09  -2.1545553e-08  21.076288      31.614432      20.790201      13852.82     
       201   0             -4770.0084      101.47719      7665.8708      7665.8708     -15027.31       6.7902379e-10  8.7294466e-09 -2.1721501e-08  21.077314      31.615971      20.788085      13852.759    
       202   0             -4770.0283      100.80159      7591.6474      7591.6474     -14880.89       6.4713228e-10  8.7984036e-09 -2.1794401e-08  21.07834       31.61751       20.78597       13852.698    
       203   0             -4770.0481      100.27305      7517.5758      7517.5758     -14734.332      6.1328069e-10  8.8643355e-09 -2.1796224e-08  21.079366      31.619049      20.783855      13852.636    
       204   0             -4770.0676      99.88402       7443.6478      7443.6478     -14587.643      6.6305734e-10  8.7842342e-09 -2.2008299e-08  21.080392      31.620587      20.781739      13852.575    
       205   0             -4770.087       99.627222      7369.8553      7369.8553     -14440.829      5.7503664e-10  8.9068866e-09 -2.2092312e-08  21.081417      31.622126      20.779624      13852.513    
       206   0             -4770.1062      99.495396      7296.1906      7296.1906     -14293.895      6.7909189e-10  8.9311945e-09 -2.2183845e-08  21.082443      31.623665      20.777509      13852.451    
       207   0             -4770.1252      99.481409      7222.6458      7222.6458     -14146.847      6.2859484e-10  8.9584744e-09 -2.219622e-08   21.083469      31.625203      20.775393      13852.388    
       208   0             -4770.144       99.578334      7149.2135      7149.2135     -13999.692      7.4696897e-10  8.9958459e-09 -2.2338887e-08  21.084495      31.626742      20.773278      13852.326    
       209   0             -4770.1626      99.779675      7075.8863      7075.8863     -13852.434      7.8549543e-10  9.1326107e-09 -2.2486818e-08  21.085521      31.628281      20.771163      13852.263    
       210   0             -4770.181       100.07876      7002.6568      7002.6568     -13705.077      7.326242e-10   9.0285454e-09 -2.2437757e-08  21.086547      31.62982       20.769047      13852.2      
       211   0             -4770.1993      100.46902      6929.5181      6929.5181     -13557.629      8.2532454e-10  9.0778088e-09 -2.2503903e-08  21.087573      31.63136       20.766932      13852.138    
       212   0             -4770.2174      100.94435      6856.4633      6856.4633     -13410.093      8.7827015e-10  9.3132138e-09 -2.2647205e-08  21.088599      31.632899      20.764817      13852.075    
       213   0             -4770.2352      101.49852      6783.4856      6783.4856     -13262.476      8.6019522e-10  9.4352584e-09 -2.266894e-08   21.089626      31.634439      20.762701      13852.012    
       214   0             -4770.2529      102.12531      6710.5783      6710.5783     -13114.781      8.8456712e-10  9.4556792e-09 -2.2724677e-08  21.090653      31.635979      20.760586      13851.95     
       215   0             -4770.2704      102.81866      6637.7351      6637.7351     -12967.014      8.7108685e-10  9.529189e-09  -2.286583e-08   21.09168       31.63752       20.758471      13851.888    
       216   0             -4770.2877      103.57261      6564.9494      6564.9494     -12819.181      7.8736942e-10  9.5804453e-09 -2.2927875e-08  21.092707      31.639061      20.756355      13851.825    
       217   0             -4770.3049      104.38118      6492.2148      6492.2148     -12671.286      8.9061374e-10  9.8055325e-09 -2.3043898e-08  21.093735      31.640602      20.75424       13851.763    
       218   0             -4770.3218      105.23867      6419.5252      6419.5252     -12523.334      9.0474744e-10  9.8913086e-09 -2.3157435e-08  21.094763      31.642144      20.752125      13851.701    
       219   0             -4770.3386      106.13951      6346.8747      6346.8747     -12375.331      8.8319843e-10  9.9444796e-09 -2.3365253e-08  21.095791      31.643687      20.750009      13851.64     
       220   0             -4770.3552      107.0783       6274.2575      6274.2575     -12227.28       8.7119859e-10  1.0023526e-08 -2.3340884e-08  21.09682       31.64523       20.747894      13851.578    
       221   0             -4770.3716      108.04974      6201.668       6201.668      -12079.187      8.5234196e-10  1.0094524e-08 -2.3514164e-08  21.097849      31.646773      20.745779      13851.517    
       222   0             -4770.3878      109.04865      6129.1007      6129.1007     -11931.056      7.954823e-10   1.0239256e-08 -2.358142e-08   21.098878      31.648317      20.743663      13851.457    
       223   0             -4770.4038      110.06996      6056.5503      6056.5503     -11782.891      8.5607354e-10  1.0346105e-08 -2.3571115e-08  21.099908      31.649862      20.741548      13851.396    
       224   0             -4770.4197      111.10875      5984.0114      5984.0114     -11634.697      7.2191161e-10  1.0461341e-08 -2.3737879e-08  21.100938      31.651408      20.739433      13851.336    
       225   0             -4770.4353      112.16019      5911.479       5911.479      -11486.478      8.6267848e-10  1.0528034e-08 -2.3894051e-08  21.101969      31.652954      20.737317      13851.277    
       226   0             -4770.4508      113.21965      5838.9482      5838.9482     -11338.238      7.690062e-10   1.0566488e-08 -2.3960352e-08  21.103001      31.654501      20.735202      13851.218    
       227   0             -4770.4661      114.28285      5766.4141      5766.4141     -11189.98       8.4547425e-10  1.0712654e-08 -2.4298042e-08  21.104032      31.656049      20.733087      13851.159    
       228   0             -4770.4812      115.34528      5693.8718      5693.8718     -11041.708      8.2213888e-10  1.0712485e-08 -2.4475368e-08  21.105065      31.657597      20.730971      13851.101    
       229   0             -4770.4961      116.40268      5621.3167      5621.3167     -10893.425      7.5751814e-10  1.0763495e-08 -2.4503479e-08  21.106098      31.659146      20.728856      13851.043    
       230   0             -4770.5109      117.45078      5548.7445      5548.7445     -10745.137      8.004849e-10   1.0832975e-08 -2.4529481e-08  21.107131      31.660697      20.726741      13850.986    
       231   0             -4770.5254      118.48538      5476.1507      5476.1507     -10596.845      7.8891247e-10  1.0990021e-08 -2.4596856e-08  21.108165      31.662248      20.724625      13850.929    
       232   0             -4770.5398      119.50237      5403.531       5403.531      -10448.555      8.2478666e-10  1.0866893e-08 -2.4697152e-08  21.1092        31.6638        20.72251       13850.873    
       233   0             -4770.554       120.49778      5330.8812      5330.8812     -10300.269      7.7783585e-10  1.1046257e-08 -2.4803917e-08  21.110235      31.665352      20.720395      13850.818    
       234   0             -4770.568       121.46774      5258.1974      5258.1974     -10151.992      8.1866579e-10  1.1035913e-08 -2.487029e-08   21.111271      31.666906      20.718279      13850.763    
       235   0             -4770.5818      122.4085       5185.4757      5185.4757     -10003.726      8.9563633e-10  1.1058373e-08 -2.4966457e-08  21.112307      31.668461      20.716164      13850.709    
       236   0             -4770.5955      123.31672      5112.7123      5112.7123     -9855.4745      9.2352733e-10  1.1272567e-08 -2.5011644e-08  21.113344      31.670017      20.714049      13850.655    
       237   0             -4770.609       124.18881      5039.9035      5039.9035     -9707.2406      9.044171e-10   1.1272611e-08 -2.5124333e-08  21.114382      31.671573      20.711933      13850.602    
       238   0             -4770.6222      125.02118      4967.0455      4967.0455     -9559.0274      8.0881363e-10  1.1148262e-08 -2.5335694e-08  21.115421      31.673131      20.709818      13850.55     
       239   0             -4770.6353      125.81043      4894.1348      4894.1348     -9410.8382      8.0323971e-10  1.1276882e-08 -2.5273711e-08  21.11646       31.67469       20.707703      13850.499    
       240   0             -4770.6483      126.55325      4821.1679      4821.1679     -9262.6761      8.260473e-10   1.1228761e-08 -2.5459394e-08  21.1175        31.67625       20.705587      13850.448    
       241   0             -4770.661       127.24647      4748.1418      4748.1418     -9114.5442      8.3514055e-10  1.1341524e-08 -2.5521414e-08  21.118541      31.677811      20.703472      13850.398    
       242   0             -4770.6735      127.88698      4675.0531      4675.0531     -8966.4453      8.1694527e-10  1.1416282e-08 -2.5587351e-08  21.119582      31.679373      20.701357      13850.349    
       243   0             -4770.6859      128.47178      4601.8989      4601.8989     -8818.3825      8.8359931e-10  1.1621056e-08 -2.5595005e-08  21.120624      31.680936      20.699241      13850.3      
       244   0             -4770.6981      128.9981       4528.6762      4528.6762     -8670.3581      9.6137009e-10  1.1637884e-08 -2.561758e-08   21.121667      31.682501      20.697126      13850.252    
       245   0             -4770.7101      129.46344      4455.3822      4455.3822     -8522.374       9.6108197e-10  1.1663091e-08 -2.5683103e-08  21.122711      31.684066      20.695011      13850.205    
       246   0             -4770.722       129.86505      4382.014       4382.014      -8374.4328      9.9162257e-10  1.1730988e-08 -2.5829094e-08  21.123755      31.685633      20.692895      13850.159    
       247   0             -4770.7336      130.20026      4308.5689      4308.5689     -8226.5371      1.0507053e-09  1.1752366e-08 -2.5957294e-08  21.1248        31.687201      20.69078       13850.114    
       248   0             -4770.7451      130.46646      4235.0445      4235.0445     -8078.6896      1.0451187e-09  1.1875429e-08 -2.5892168e-08  21.125846      31.68877       20.688665      13850.07     
       249   0             -4770.7564      130.66116      4161.4381      4161.4381     -7930.8928      1.0649157e-09  1.1919291e-08 -2.5987482e-08  21.126893      31.69034       20.686549      13850.026    
       250   0             -4770.7675      130.78195      4087.7474      4087.7474     -7783.149       9.9116961e-10  1.2008965e-08 -2.6016549e-08  21.127941      31.691911      20.684434      13849.983    
       251   0             -4770.7784      130.82649      4013.9701      4013.9701     -7635.4608      9.6052396e-10  1.2074245e-08 -2.6213001e-08  21.128989      31.693484      20.682319      13849.941    
       252   0             -4770.7891      130.79239      3940.1037      3940.1037     -7487.8303      1.0104564e-09  1.2035151e-08 -2.6207219e-08  21.130039      31.695058      20.680203      13849.9      
       253   0             -4770.7997      130.67748      3866.146       3866.146      -7340.2596      9.1818376e-10  1.2019243e-08 -2.6262235e-08  21.131089      31.696633      20.678088      13849.86     
       254   0             -4770.8101      130.47982      3792.0951      3792.0951     -7192.7507      9.3020768e-10  1.2177431e-08 -2.6355916e-08  21.13214       31.69821       20.675973      13849.821    
       255   0             -4770.8203      130.1974       3717.9489      3717.9489     -7045.3057      9.177731e-10   1.2118948e-08 -2.6491904e-08  21.133192      31.699788      20.673857      13849.783    
       256   0             -4770.8304      129.82829      3643.7057      3643.7057     -6897.9265      9.3686965e-10  1.2271203e-08 -2.6491194e-08  21.134244      31.701367      20.671742      13849.745    
       257   0             -4770.8402      129.37066      3569.3636      3569.3636     -6750.6152      9.7271724e-10  1.2219793e-08 -2.654981e-08   21.135298      31.702947      20.669627      13849.709    
       258   0             -4770.8499      128.82273      3494.9209      3494.9209     -6603.3737      8.5889322e-10  1.2305855e-08 -2.6615601e-08  21.136352      31.704529      20.667511      13849.673    
       259   0             -4770.8594      128.18279      3420.3761      3420.3761     -6456.2038      9.6163505e-10  1.2335201e-08 -2.6767794e-08  21.137408      31.706112      20.665396      13849.638    
       260   0             -4770.8687      127.44946      3345.7275      3345.7275     -6309.1066      9.2634507e-10  1.2347384e-08 -2.6738844e-08  21.138464      31.707696      20.663281      13849.605    
       261   0             -4770.8779      126.62133      3270.9737      3270.9737     -6162.0834      9.285114e-10   1.2378532e-08 -2.6906827e-08  21.139521      31.709281      20.661165      13849.572    
       262   0             -4770.8869      125.69705      3196.1133      3196.1133     -6015.1355      9.7191673e-10  1.2463539e-08 -2.703277e-08   21.140579      31.710868      20.65905       13849.54     
       263   0             -4770.8957      124.67545      3121.1449      3121.1449     -5868.2635      9.6926991e-10  1.2528318e-08 -2.7168343e-08  21.141638      31.712456      20.656935      13849.509    
       264   0             -4770.9043      123.5551       3046.0671      3046.0671     -5721.4689      8.7823248e-10  1.2616298e-08 -2.715242e-08   21.142697      31.714046      20.654819      13849.479    
       265   0             -4770.9128      122.33464      2970.8786      2970.8786     -5574.7534      9.7496537e-10  1.2625862e-08 -2.7230649e-08  21.143758      31.715637      20.652704      13849.45     
       266   0             -4770.9211      121.01276      2895.5783      2895.5783     -5428.1183      1.0448513e-09  1.2721733e-08 -2.7339839e-08  21.144819      31.717229      20.650589      13849.422    
       267   0             -4770.9292      119.58824      2820.1649      2820.1649     -5281.5651      9.9252016e-10  1.277797e-08  -2.7452165e-08  21.145882      31.718822      20.648473      13849.395    
       268   0             -4770.9371      118.05993      2744.6374      2744.6374     -5135.0951      9.7829843e-10  1.2850092e-08 -2.7332911e-08  21.146945      31.720417      20.646358      13849.369    
       269   0             -4770.9449      116.42672      2668.9948      2668.9948     -4988.7094      1.0113496e-09  1.2921121e-08 -2.7531326e-08  21.148009      31.722013      20.644243      13849.343    
       270   0             -4770.9525      114.68759      2593.2361      2593.2361     -4842.4094      1.0967672e-09  1.2954942e-08 -2.7699862e-08  21.149074      31.723611      20.642127      13849.319    
       271   0             -4770.96        112.84152      2517.3603      2517.3603     -4696.196       1.1112985e-09  1.3042027e-08 -2.783686e-08   21.15014       31.72521       20.640012      13849.296    
       272   0             -4770.9673      110.88743      2441.3663      2441.3663     -4550.0704      1.1791574e-09  1.3130568e-08 -2.7879646e-08  21.151206      31.72681       20.637897      13849.273    
       273   0             -4770.9744      108.82451      2365.2535      2365.2535     -4404.0334      1.0787719e-09  1.3178766e-08 -2.7894141e-08  21.152274      31.728411      20.635781      13849.252    
       274   0             -4770.9814      106.65201      2289.0209      2289.0209     -4258.0858      1.1150252e-09  1.3313259e-08 -2.8035743e-08  21.153342      31.730014      20.633666      13849.231    
       275   0             -4770.9882      104.36923      2212.6681      2212.6681     -4112.2285      1.0781794e-09  1.3253078e-08 -2.8196297e-08  21.154412      31.731617      20.631551      13849.211    
       276   0             -4770.9948      101.9755       2136.1943      2136.1943     -3966.462       1.0452701e-09  1.3319334e-08 -2.811399e-08   21.155482      31.733223      20.629435      13849.192    
       277   0             -4771.0013      99.47026       2059.5989      2059.5989     -3820.787       1.1117611e-09  1.3334712e-08 -2.8214824e-08  21.156553      31.734829      20.62732       13849.174    
       278   0             -4771.0077      96.853082      1982.8814      1982.8814     -3675.2036      1.0708064e-09  1.3233836e-08 -2.8249734e-08  21.157624      31.736436      20.625205      13849.157    
       279   0             -4771.0139      94.123468      1906.0413      1906.0413     -3529.7121      1.0495012e-09  1.3375798e-08 -2.8345587e-08  21.158697      31.738045      20.623089      13849.14     
       280   0             -4771.0199      91.281151      1829.0778      1829.0778     -3384.3122      1.0981087e-09  1.3309423e-08 -2.8481479e-08  21.15977       31.739655      20.620974      13849.125    
       281   0             -4771.0258      88.325902      1751.9904      1751.9904     -3239.0031      1.1768642e-09  1.3600535e-08 -2.8504728e-08  21.160844      31.741266      20.618859      13849.11     
       282   0             -4771.0316      85.257204      1674.7784      1674.7784     -3093.7852      1.2491946e-09  1.3822784e-08 -2.8541306e-08  21.161919      31.742878      20.616743      13849.095    
       283   0             -4771.0373      82.074593      1597.441       1597.441      -2948.6581      1.2178661e-09  1.3801478e-08 -2.8581529e-08  21.162994      31.744491      20.614628      13849.082    
       284   0             -4771.0428      78.777793      1519.9774      1519.9774     -2803.6215      1.2755111e-09  1.3994177e-08 -2.8596451e-08  21.16407       31.746105      20.612513      13849.069    
       285   0             -4771.0482      75.366718      1442.3871      1442.3871     -2658.674       1.3374332e-09  1.4051474e-08 -2.8744745e-08  21.165147      31.74772       20.610397      13849.057    
       286   0             -4771.0535      71.840859      1364.6688      1364.6688     -2513.8151      1.1744405e-09  1.4042668e-08 -2.8817734e-08  21.166224      31.749336      20.608282      13849.045    
       287   0             -4771.0587      68.199643      1286.8213      1286.8213     -2369.0437      1.2189171e-09  1.4189334e-08 -2.86749e-08    21.167302      31.750953      20.606167      13849.034    
       288   0             -4771.0639      64.442759      1208.8434      1208.8434     -2224.3585      1.2071626e-09  1.4286284e-08 -2.8871239e-08  21.16838       31.75257       20.604051      13849.023    
       289   0             -4771.0689      60.569936      1130.7337      1130.7337     -2079.7576      1.2209949e-09  1.4493302e-08 -2.8907659e-08  21.169459      31.754188      20.601936      13849.013    
       290   0             -4771.0739      56.580919      1052.4906      1052.4906     -1935.2385      1.1964364e-09  1.4371809e-08 -2.9079969e-08  21.170538      31.755807      20.599821      13849.002    
       291   0             -4771.0789      52.475468      974.11231      974.11231     -1790.7982      1.2160342e-09  1.4583311e-08 -2.9227163e-08  21.171617      31.757425      20.597705      13848.992    
       292   0             -4771.0839      48.253309      895.59619      895.59619     -1646.4325      1.2783995e-09  1.4595096e-08 -2.9314093e-08  21.172696      31.759044      20.59559       13848.981    
       293   0             -4771.0889      43.914143      816.93915      816.93915     -1502.1359      1.1937756e-09  1.4821194e-08 -2.9527436e-08  21.173775      31.760663      20.593475      13848.97     
       294   0             -4771.094       39.457702      738.1372       738.1372      -1357.9013      1.1310397e-09  1.4826132e-08 -2.953332e-08   21.174854      31.762281      20.591359      13848.958    
       295   0             -4771.0992      34.883636      659.18497      659.18497     -1213.719       1.1143964e-09  1.4920355e-08 -2.9690243e-08  21.175932      31.763897      20.589244      13848.946    
       296   0             -4771.1046      30.191464      580.07511      580.07511     -1069.5758      1.1604614e-09  1.5014705e-08 -2.976589e-08   21.177008      31.765513      20.587129      13848.931    
       297   0             -4771.1103      25.380488      500.79709      500.79709     -925.45271      1.1051222e-09  1.5078155e-08 -2.985341e-08   21.178083      31.767125      20.585013      13848.914    
       298   0             -4771.1165      20.449937      421.33534      421.33534     -781.32087      1.123035e-09   1.4944923e-08 -2.997503e-08   21.179156      31.768734      20.582898      13848.894    
       299   0             -4771.1234      15.398003      341.66506      341.66506     -637.13612      1.2131487e-09  1.5048921e-08 -3.0000712e-08  21.180225      31.770337      20.580783      13848.868    
       300   0             -4771.1314      10.22133       261.74444      261.74444     -492.82489      1.2240821e-09  1.5090553e-08 -2.9915314e-08  21.181287      31.771931      20.578667      13848.834    
       301   0             -4771.1414      4.9140982      181.49512      181.49512     -348.24794      1.1687902e-09  1.5344547e-08 -3.0189011e-08  21.182339      31.773509      20.576552      13848.786    
       302   0             -4771.155      -0.53663801     100.74058      100.74058     -203.09108      1.1214362e-09  1.5225735e-08 -3.0194692e-08  21.183372      31.775058      20.574437      13848.712    
       303   0             -4771.1779     -6.1721564      18.922829      18.922829     -56.362127      1.1485894e-09  1.5427406e-08 -3.0380929e-08  21.184354      31.776531      20.572321      13848.573    
       304   0             -4771.2597     -12.384793     -68.917306     -68.917306      100.68023      1.1877371e-09  1.5898251e-08 -3.0723946e-08  21.185019      31.777529      20.570206      13848.018    
       305   0             -4771.3057     -6.6308525      6.7148081      6.7148081     -33.322174      1.1005556e-09  1.5920756e-08 -3.0714659e-08  21.183662      31.775493      20.572321      13847.668    
       306   0             -4771.4445     -22.808785     -97.123555     -97.123555      125.82076      1.2623028e-09  1.6412152e-08 -3.1326173e-08  21.184057      31.776086      20.570206      13846.761    
       307   0             -4771.4814      34.67816       36.256137      36.256137      31.522206      1.1762345e-09  1.6102602e-08 -3.1242378e-08  21.182527      31.773791      20.572321      13846.184    
       308   0             -4771.6138     -850.19661     -880.42384     -880.42384     -789.74216      1.2139812e-09  1.6497679e-08 -3.1682009e-08  21.184604      31.776906      20.574273      13850.213    
       309   0             -4771.6228     -140.94325     -170.716       -170.716       -81.397757      1.2479148e-09  1.6197299e-08 -3.1651229e-08  21.182527      31.773791      20.572283      13846.158    
       310   0             -4771.6507      432.28442      420.00914      420.00914      456.83498      1.2566243e-09  1.635786e-08  -3.1807055e-08  21.18045       31.770675      20.571225      13842.731    
       311   0             -4771.6626     -244.57702     -251.41782     -251.41782     -230.8954       1.1763893e-09  1.6205464e-08 -3.1900113e-08  21.182213      31.773319      20.57334       13846.459    
       312   0             -4771.6861      443.06198      433.66246      433.66246      461.86104      1.2423201e-09  1.5992889e-08 -3.2012841e-08  21.180136      31.770204      20.571368      13842.417    
       313   0             -4771.699      -251.09519     -256.84629     -256.84629     -239.59299      1.0728245e-09  1.5916408e-08 -3.1938776e-08  21.181968      31.772952      20.573483      13846.235    
       314   0             -4771.7223      442.59746      433.22937      433.22937      461.33364      1.1033982e-09  1.5950398e-08 -3.2071399e-08  21.179891      31.769837      20.571462      13842.16     
       315   0             -4771.7352     -252.40848     -258.20983     -258.20983     -240.80578      1.1120976e-09  1.5960137e-08 -3.2083629e-08  21.181726      31.772589      20.573577      13845.982    
       316   0             -4771.7584      441.4286       432.0346       432.0346       460.2166       1.2020807e-09  1.5950249e-08 -3.2187804e-08  21.179649      31.769474      20.571556      13841.907    
       317   0             -4771.7713     -253.46265     -259.27113     -259.27113     -241.84568      1.2373289e-09  1.5820233e-08 -3.2248592e-08  21.181484      31.772225      20.573672      13845.729    
       318   0             -4771.7944      440.54596      431.15677      431.15677      459.32434      1.28266e-09    1.5921457e-08 -3.2288995e-08  21.179407      31.76911       20.57165       13841.653    
       319   0             -4771.8073     -254.34887     -260.14485     -260.14485     -242.75692      1.2770628e-09  1.6041132e-08 -3.2285958e-08  21.181241      31.771861      20.573766      13845.474    
       320   0             -4771.8303      439.86649      430.48606      430.48606      458.62734      1.299072e-09   1.604881e-08  -3.237681e-08   21.179164      31.768746      20.571743      13841.399    
       321   0             -4771.8433     -255.06498     -260.8472      -260.8472      -243.50054      1.3193162e-09  1.6029425e-08 -3.231037e-08   21.180998      31.771497      20.573858      13845.219    
       322   0             -4771.8662      439.32795      429.95584      429.95584      458.07218      1.26264e-09    1.6062418e-08 -3.2475603e-08  21.178921      31.768381      20.571835      13841.143    
       323   0             -4771.8792     -255.64642     -261.41546     -261.41546     -244.10833      1.318634e-09   1.6077548e-08 -3.252256e-08   21.180755      31.771132      20.573951      13844.963    
       324   0             -4771.9021      438.89508      429.53078      429.53078      457.62368      1.2704016e-09  1.6067205e-08 -3.252382e-08   21.178678      31.768017      20.571927      13840.887    
       325   0             -4771.9151     -256.12543     -261.88171     -261.88171     -244.61287      1.3412147e-09  1.6170688e-08 -3.2583106e-08  21.180512      31.770768      20.574042      13844.707    
       326   0             -4771.9379      438.54269      429.18587      429.18587      457.25634      1.4092923e-09  1.6139297e-08 -3.2641922e-08  21.178435      31.767652      20.572017      13840.63     
       327   0             -4771.951      -256.5266      -262.27037     -262.27037     -245.03905      1.4828131e-09  1.6114729e-08 -3.266221e-08   21.180269      31.770403      20.574132      13844.451    
       328   0             -4771.9737      438.25173      428.90216      428.90216      456.95088      1.3818761e-09  1.6041145e-08 -3.268538e-08   21.178192      31.767288      20.572107      13840.373    
       329   0             -4771.9868     -256.86849     -262.59992     -262.59992     -245.40563      1.4329467e-09  1.6199663e-08 -3.2871879e-08  21.180026      31.770039      20.574223      13844.193    
       330   0             -4772.0095      438.0077       428.66523      428.66523      456.69266      1.4100516e-09  1.6085215e-08 -3.2901794e-08  21.177949      31.766923      20.572197      13840.116    
       331   0             -4772.0225     -257.1652      -262.88437     -262.88437     -245.72686      1.4108092e-09  1.6186789e-08 -3.2765825e-08  21.179783      31.769674      20.574312      13843.936    
       332   0             -4772.0453      437.79956      428.46409      428.46409      456.47051      1.4095878e-09  1.6163695e-08 -3.279638e-08   21.177706      31.766559      20.572286      13839.858    
       333   0             -4772.0583     -257.42747     -263.13441     -263.13441     -246.01359      1.3855599e-09  1.6030777e-08 -3.2861016e-08  21.17954       31.76931       20.574401      13843.679    
       334   0             -4772.081       437.61889      428.29036      428.29036      456.27594      1.432235e-09   1.607966e-08  -3.3009719e-08  21.177463      31.766195      20.572374      13839.6      
       335   0             -4772.094      -257.6635      -263.3582      -263.3582      -246.2741       1.3776577e-09  1.621293e-08  -3.3068923e-08  21.179297      31.768946      20.57449       13843.421    
       336   0             -4772.1167      437.45925      428.13766      428.13766      456.10243      1.4171546e-09  1.6170697e-08 -3.3197776e-08  21.17722       31.765831      20.572462      13839.342    
       337   0             -4772.1297     -257.87954     -263.56194     -263.56194     -246.51472      1.3957706e-09  1.6330558e-08 -3.3266879e-08  21.179055      31.768582      20.574578      13843.163    
       338   0             -4772.1524      437.31572      428.00107      428.00107      455.94502      1.3891079e-09  1.6142285e-08 -3.3271293e-08  21.176978      31.765466      20.57255       13839.084    
       339   0             -4772.1654     -258.08037     -263.75041     -263.75041     -246.74027      1.3910326e-09  1.6168542e-08 -3.3357969e-08  21.178812      31.768218      20.574665      13842.904    
       340   0             -4772.1881      437.18455      427.87687      427.87687      455.7999       1.3640069e-09  1.6189653e-08 -3.3541008e-08  21.176735      31.765103      20.572637      13838.825    
       341   0             -4772.2011     -258.26966     -263.92725     -263.92725     -246.95447      1.4614057e-09  1.6297571e-08 -3.3548445e-08  21.178569      31.767854      20.574752      13842.646    
       342   0             -4772.2237      437.06284      427.76217      427.76217      455.66416      1.393122e-09   1.6261144e-08 -3.3524492e-08  21.176493      31.764739      20.572724      13838.567    
       343   0             -4772.2367     -258.45021     -264.09525     -264.09525     -247.16014      1.3358577e-09  1.6293016e-08 -3.3600254e-08  21.178327      31.76749       20.574839      13842.387    
       344   0             -4772.2593      436.94838      427.65479      427.65479      455.53557      1.2927697e-09  1.6277579e-08 -3.3703811e-08  21.17625       31.764375      20.57281       13838.308    
       345   0             -4772.2724     -258.62418     -264.25654     -264.25654     -247.35946      1.2045769e-09  1.6307921e-08 -3.3642529e-08  21.178085      31.767127      20.574925      13842.129    
       346   0             -4772.295       436.83949      427.55304      427.55304      455.4124       1.2992981e-09  1.6250139e-08 -3.371343e-08   21.176008      31.764012      20.572896      13838.049    
       347   0             -4772.308      -258.79322     -264.41277     -264.41277     -247.55411      1.2971821e-09  1.6225616e-08 -3.3808614e-08  21.177842      31.766764      20.575011      13841.87     
       348   0             -4772.3306      436.73486      427.45561      427.45561      455.29334      1.2170186e-09  1.619373e-08  -3.3860024e-08  21.175766      31.763648      20.572981      13837.79     
       349   0             -4772.3436     -258.95859     -264.5652      -264.5652      -247.74536      1.178268e-09   1.6202823e-08 -3.4033826e-08  21.1776        31.7664        20.575096      13841.611    
       350   0             -4772.3661      436.63348      427.36153      427.36153      455.17739      1.0847794e-09  1.6254086e-08 -3.4125022e-08  21.175523      31.763285      20.573066      13837.53     
       351   0             -4772.3792     -259.12126     -264.7148      -264.7148      -247.93419      1.1196149e-09  1.6378916e-08 -3.4063509e-08  21.177358      31.766037      20.575181      13841.351    
       352   0             -4772.4017      436.53461      427.27002      427.27002      455.06377      1.1786874e-09  1.6157963e-08 -3.420682e-08   21.175281      31.762922      20.57315       13837.271    
[...]
      7100   0             -4798.5267     -1.342546e-07  -9.3539308e-08  5.6852975e-07 -8.7775423e-07 -0.61217827     1.103279e-07  -5.7184452e-08  21.191053      31.786579      20.325281      13690.928    
      7101   0             -4798.5267     -1.3863215e-07 -9.8329224e-08  5.459846e-07  -8.6355183e-07 -0.61217831    -7.3854152e-08 -1.1692684e-07  21.191053      31.786579      20.325281      13690.928    
      7102   0             -4798.5267     -1.3791892e-07 -9.9585948e-08  5.4648776e-07 -8.6065859e-07 -0.61217832    -5.0021472e-08 -1.1054113e-07  21.191053      31.786579      20.325281      13690.928    
      7103   0             -4798.5267     -1.1852155e-07 -8.2196259e-08  5.967771e-07  -8.701455e-07  -0.61217832    -7.2199171e-08 -4.0144531e-08  21.191053      31.786579      20.325281      13690.928    
      7104   0             -4798.5267     -1.1398289e-07 -7.5599991e-08  6.076702e-07  -8.7401888e-07 -0.61217831    -1.082281e-07   6.0088149e-09  21.191053      31.786579      20.325281      13690.928    
      7105   0             -4798.5267     -1.0890022e-07 -6.7199969e-08  6.1877699e-07 -8.7827767e-07 -0.6121783      9.5913675e-09  3.3585809e-08  21.191053      31.786579      20.325281      13690.928    
      7106   0             -4798.5267     -1.1302239e-07 -7.385569e-08   6.0662551e-07 -8.71837e-07   -0.61217829     5.0321532e-08  7.2577167e-08  21.191053      31.786579      20.325281      13690.928    
      7107   0             -4798.5267     -1.1446953e-07 -7.5051298e-08  6.0200439e-07 -8.7036169e-07 -0.61217829     1.0625695e-07  9.28006e-08    21.191053      31.786579      20.325281      13690.928    
      7108   0             -4798.5267     -1.0825625e-07 -5.9765226e-08  6.1849106e-07 -8.8349457e-07 -0.6121783     -6.8729375e-08 -1.3117358e-08  21.191053      31.786579      20.325281      13690.928    
      7109   0             -4798.5267     -1.1056313e-07 -6.4808961e-08  6.161067e-07  -8.8298714e-07 -0.61217829    -9.6295949e-11  2.4733567e-08  21.191053      31.786579      20.325281      13690.928    
      7110   0             -4798.5267     -1.3050909e-07 -1.1143196e-07  5.7794547e-07 -8.5804079e-07 -0.61217828    -1.8000257e-07 -8.9484272e-08  21.191053      31.786579      20.325281      13690.928    
      7111   0             -4798.5267     -1.3163846e-07 -1.1498635e-07  5.772366e-07  -8.5716562e-07 -0.61217828    -8.6625919e-08 -3.4051618e-08  21.191053      31.786579      20.325281      13690.928    
      7112   0             -4798.5267     -1.1826631e-07 -8.9636822e-08  6.1113905e-07 -8.7630117e-07 -0.61217828    -2.0590913e-08 -1.6711557e-08  21.191053      31.786579      20.325281      13690.928    
      7113   0             -4798.5267     -1.3518298e-07 -1.2716226e-07  5.7097814e-07 -8.4936481e-07 -0.61217829    -4.9764683e-08 -1.8158426e-08  21.191053      31.786579      20.325281      13690.928    
      7114   0             -4798.5267     -1.4006152e-07 -1.3681839e-07  5.5688819e-07 -8.4025436e-07 -0.61217829     1.5687556e-07  6.3935201e-08  21.191053      31.786579      20.325281      13690.928    
      7115   0             -4798.5267     -1.3143255e-07 -1.1378077e-07  5.6847747e-07 -8.4899437e-07 -0.61217828    -1.1182354e-07 -3.6583121e-08  21.191053      31.786579      20.325281      13690.928    
      7116   0             -4798.5267     -1.2445518e-07 -9.5019293e-08  5.772206e-07  -8.5556683e-07 -0.61217828     9.4407538e-08  4.3369211e-08  21.191053      31.786579      20.325281      13690.928    
      7117   0             -4798.5267     -1.3657066e-07 -1.2052515e-07  5.4512055e-07 -8.343074e-07  -0.61217829    -7.331843e-09  -4.9447358e-09  21.191053      31.786579      20.325281      13690.928    
      7118   0             -4798.5267     -1.380695e-07  -1.2452513e-07  5.4170086e-07 -8.3138423e-07 -0.61217829    -9.5929613e-09 -1.1283995e-08  21.191053      31.786579      20.325281      13690.928    
      7119   0             -4798.5267     -1.2292908e-07 -1.0013828e-07  5.8499958e-07 -8.5364854e-07 -0.6121783      4.4284883e-08 -1.0800432e-08  21.191053      31.786579      20.325281      13690.928    
      7120   0             -4798.5267     -1.3191019e-07 -1.2117715e-07  5.6698439e-07 -8.415378e-07  -0.6121783     -1.3560709e-07 -9.3385343e-08  21.191053      31.786579      20.325281      13690.928    
      7121   0             -4798.5267     -1.5131376e-07 -1.6461079e-07  5.2599436e-07 -8.1532485e-07 -0.6121783      3.7504406e-08 -1.3176509e-08  21.191053      31.786579      20.325281      13690.928    
      7122   0             -4798.5267     -1.4610965e-07 -1.4950037e-07  5.3847398e-07 -8.2730255e-07 -0.6121783      2.2333867e-08 -2.0000454e-09  21.191053      31.786579      20.325281      13690.928    
      7123   0             -4798.5267     -1.3780383e-07 -1.2805697e-07  5.5679195e-07 -8.4214646e-07 -0.6121783      5.6639731e-08  2.1416386e-08  21.191053      31.786579      20.325281      13690.928    
      7124   0             -4798.5267     -1.3905809e-07 -1.2683236e-07  5.5224296e-07 -8.4258488e-07 -0.61217829     6.5399278e-08  4.574748e-08   21.191053      31.786579      20.325281      13690.928    
      7125   0             -4798.5267     -1.4348544e-07 -1.3022191e-07  5.3948426e-07 -8.3971866e-07 -0.61217829    -5.0080203e-08  3.4851128e-09  21.191053      31.786579      20.325281      13690.928    
      7126   0             -4798.5267     -1.4209702e-07 -1.2654778e-07  5.4264078e-07 -8.4238407e-07 -0.61217829     6.2637759e-09  3.5459148e-08  21.191053      31.786579      20.325281      13690.928    
      7127   0             -4798.5267     -1.4002701e-07 -1.226007e-07   5.481406e-07  -8.4562093e-07 -0.61217829    -6.1702405e-08 -2.8012948e-09  21.191053      31.786579      20.325281      13690.928    
      7128   0             -4798.5267     -1.3726089e-07 -1.2388913e-07  5.6000428e-07 -8.4789781e-07 -0.61217829    -1.0836673e-08 -5.4170038e-09  21.191053      31.786579      20.325281      13690.928    
      7129   0             -4798.5267     -1.3724155e-07 -1.2501925e-07  5.6045693e-07 -8.4716234e-07 -0.61217829    -5.5081101e-09 -4.532333e-09   21.191053      31.786579      20.325281      13690.928    
      7130   0             -4798.5267     -1.3717389e-07 -1.2606612e-07  5.6009346e-07 -8.4554901e-07 -0.61217829     4.9548509e-10 -5.0434996e-09  21.191053      31.786579      20.325281      13690.928    
      7131   0             -4798.5267     -1.353639e-07  -1.2249759e-07  5.6285916e-07 -8.4645327e-07 -0.61217829     1.740233e-08   3.5582904e-09  21.191053      31.786579      20.325281      13690.928    
      7132   0             -4798.5267     -1.3027953e-07 -1.112087e-07   5.7165738e-07 -8.5128726e-07 -0.61217829     4.2177251e-09  3.9047582e-09  21.191053      31.786579      20.325281      13690.928    
      7133   0             -4798.5267     -1.2999768e-07 -1.1050461e-07  5.719429e-07  -8.5143132e-07 -0.61217829     1.7423056e-08  6.7885035e-09  21.191053      31.786579      20.325281      13690.928    
      7134   0             -4798.5267     -1.330232e-07  -1.1724744e-07  5.6499573e-07 -8.4681789e-07 -0.61217829    -1.6691499e-08  2.5373336e-09  21.191053      31.786579      20.325281      13690.928    
      7135   0             -4798.5267     -1.3123154e-07 -1.1311088e-07  5.691721e-07  -8.4975582e-07 -0.61217829     2.5005404e-08 -7.9593607e-09  21.191053      31.786579      20.325281      13690.928    
      7136   0             -4798.5267     -1.290341e-07  -1.0808752e-07  5.7423049e-07 -8.5324526e-07 -0.61217829    -1.085282e-08  -3.3506213e-09  21.191053      31.786579      20.325281      13690.928    
Loop time of 0.560309 on 4 procs for 270 steps with 768 atoms

57.2% CPU use with 4 MPI tasks x 1 OpenMP threads

Minimization stats:
  Stopping criterion = force tolerance
  Energy initial, next-to-last, final = 
     -4798.52672356646   -4798.5267252752  -4798.52672527521
  Force two-norm initial, final = 0.027130986 9.2431658e-11
  Force max component initial, final = 0.004450014 1.148405e-11
  Final line search alpha, max atom move = 1 1.148405e-11
  Iterations, force evaluations = 270 540

MPI task timing breakdown:
Section |  min time  |  avg time  |  max time  |%varavg| %total
---------------------------------------------------------------
Pair    | 0.52837    | 0.53455    | 0.54167    |   0.7 | 95.40
Neigh   | 0          | 0          | 0          |   0.0 |  0.00
Comm    | 0.010585   | 0.017668   | 0.023797   |   3.9 |  3.15
Output  | 0.003515   | 0.0037063  | 0.004172   |   0.4 |  0.66
Modify  | 0          | 0          | 0          |   0.0 |  0.00
Other   |            | 0.004382   |            |       |  0.78

Nlocal:            192 ave         195 max         189 min
Histogram: 1 1 0 0 0 0 0 0 1 1
Nghost:            948 ave         951 max         945 min
Histogram: 1 1 0 0 0 0 0 0 1 1
Neighs:           3168 ave        3218 max        3113 min
Histogram: 1 0 0 1 0 0 0 1 0 1
FullNghs:         6336 ave        6440 max        6232 min
Histogram: 1 0 1 0 0 0 0 1 0 1

Total # of neighbors = 25344
Ave neighs/atom = 33
Neighbor list builds = 0
Dangerous builds = 0

# Obtain new stress tensor

variable tmp equal pe
variable e1 equal ${tmp}
variable e1 equal -4798.52672527521
variable tmp equal press
variable p1 equal ${tmp}
variable p1 equal -1.2903409681543e-07
variable tmp equal pxx
variable pxx1 equal ${tmp}
variable pxx1 equal -1.08087518146075e-07
variable tmp equal pyy
variable pyy1 equal ${tmp}
variable pyy1 equal 5.74230485497936e-07
variable tmp equal pzz
variable pzz1 equal ${tmp}
variable pzz1 equal -8.53245257798151e-07
variable tmp equal pxy
variable pxy1 equal ${tmp}
variable pxy1 equal -0.61217829334557
variable tmp equal pxz
variable pxz1 equal ${tmp}
variable pxz1 equal -1.08528198742013e-08
variable tmp equal pyz
variable pyz1 equal ${tmp}
variable pyz1 equal -3.35062132841631e-09

# Compute elastic constant from pressure tensor

variable C1pos equal ${d1}
variable C1pos equal 1.14418846264575e-05
variable C2pos equal ${d2}
variable C2pos equal -5.72443413724527e-05
variable C3pos equal ${d3}
variable C3pos equal 8.56993758683492e-05
variable C4pos equal ${d4}
variable C4pos equal -7.01257470119129e-07
variable C5pos equal ${d5}
variable C5pos equal 1.66455334722985e-06
variable C6pos equal ${d6}
variable C6pos equal 61.2178293440927

# Combine positive and negative

variable C1${dir} equal 0.5*(${C1neg}+${C1pos})
variable C16 equal 0.5*(${C1neg}+${C1pos})
variable C16 equal 0.5*(-1.16833864303669e-05+${C1pos})
variable C16 equal 0.5*(-1.16833864303669e-05+1.14418846264575e-05)
variable C2${dir} equal 0.5*(${C2neg}+${C2pos})
variable C26 equal 0.5*(${C2neg}+${C2pos})
variable C26 equal 0.5*(5.70426585231711e-05+${C2pos})
variable C26 equal 0.5*(5.70426585231711e-05+-5.72443413724527e-05)
variable C3${dir} equal 0.5*(${C3neg}+${C3pos})
variable C36 equal 0.5*(${C3neg}+${C3pos})
variable C36 equal 0.5*(-8.55677685586397e-05+${C3pos})
variable C36 equal 0.5*(-8.55677685586397e-05+8.56993758683492e-05)
variable C4${dir} equal 0.5*(${C4neg}+${C4pos})
variable C46 equal 0.5*(${C4neg}+${C4pos})
variable C46 equal 0.5*(1.58672193290508e-06+${C4pos})
variable C46 equal 0.5*(1.58672193290508e-06+-7.01257470119129e-07)
variable C5${dir} equal 0.5*(${C5neg}+${C5pos})
variable C56 equal 0.5*(${C5neg}+${C5pos})
variable C56 equal 0.5*(-8.09909055713006e-07+${C5pos})
variable C56 equal 0.5*(-8.09909055713006e-07+1.66455334722985e-06)
variable C6${dir} equal 0.5*(${C6neg}+${C6pos})
variable C66 equal 0.5*(${C6neg}+${C6pos})
variable C66 equal 0.5*(61.2178295330653+${C6pos})
variable C66 equal 0.5*(61.2178295330653+61.2178293440927)

# Delete dir to make sure it is not reused

variable dir delete

# Output final values

variable C11all equal ${C11}
variable C11all equal 300.494506728143
variable C22all equal ${C22}
variable C22all equal 300.494506778641
variable C33all equal ${C33}
variable C33all equal 340.153687502449

variable C12all equal 0.5*(${C12}+${C21})
variable C12all equal 0.5*(193.464311241182+${C21})
variable C12all equal 0.5*(193.464311241182+193.464311531949)
variable C13all equal 0.5*(${C13}+${C31})
variable C13all equal 0.5*(170.284388776122+${C31})
variable C13all equal 0.5*(170.284388776122+170.284388651503)
variable C23all equal 0.5*(${C23}+${C32})
variable C23all equal 0.5*(170.284388850432+${C32})
variable C23all equal 0.5*(170.284388850432+170.284388634789)

variable C44all equal ${C44}
variable C44all equal 27.1613312570357
variable C55all equal ${C55}
variable C55all equal 27.1613315051057
variable C66all equal ${C66}
variable C66all equal 61.217829438579

variable C14all equal 0.5*(${C14}+${C41})
variable C14all equal 0.5*(3.72724540055234e-08+${C41})
variable C14all equal 0.5*(3.72724540055234e-08+-6.89029425378215e-08)
variable C15all equal 0.5*(${C15}+${C51})
variable C15all equal 0.5*(2.23676299554703e-08+${C51})
variable C15all equal 0.5*(2.23676299554703e-08+-7.68944317169763e-07)
variable C16all equal 0.5*(${C16}+${C61})
variable C16all equal 0.5*(-1.207509019547e-07+${C61})
variable C16all equal 0.5*(-1.207509019547e-07+5.79319403730101e-08)

variable C24all equal 0.5*(${C24}+${C42})
variable C24all equal 0.5*(1.59805906396044e-07+${C42})
variable C24all equal 0.5*(1.59805906396044e-07+-2.25574516552912e-07)
variable C25all equal 0.5*(${C25}+${C52})
variable C25all equal 0.5*(1.35084062599503e-07+${C52})
variable C25all equal 0.5*(1.35084062599503e-07+3.5207736931955e-07)
variable C26all equal 0.5*(${C26}+${C62})
variable C26all equal 0.5*(-1.00841424640801e-07+${C62})
variable C26all equal 0.5*(-1.00841424640801e-07+5.54321399333502e-08)

variable C34all equal 0.5*(${C34}+${C43})
variable C34all equal 0.5*(2.76269332814849e-08+${C43})
variable C34all equal 0.5*(2.76269332814849e-08+-3.61816803423997e-07)
variable C35all equal 0.5*(${C35}+${C53})
variable C35all equal 0.5*(3.74491499674761e-08+${C53})
variable C35all equal 0.5*(3.74491499674761e-08+-4.81808082294585e-07)
variable C36all equal 0.5*(${C36}+${C63})
variable C36all equal 0.5*(6.58036548547479e-08+${C63})
variable C36all equal 0.5*(6.58036548547479e-08+4.54382907920173e-08)

variable C45all equal 0.5*(${C45}+${C54})
variable C45all equal 0.5*(2.18733985463601e-07+${C54})
variable C45all equal 0.5*(2.18733985463601e-07+-2.04131193586855e-07)
variable C46all equal 0.5*(${C46}+${C64})
variable C46all equal 0.5*(4.42732231392976e-07+${C64})
variable C46all equal 0.5*(4.42732231392976e-07+6.47951642782878e-08)
variable C56all equal 0.5*(${C56}+${C65})
variable C56all equal 0.5*(4.27322145758422e-07+${C65})
variable C56all equal 0.5*(4.27322145758422e-07+1.07551323856892e-07)

# Average moduli for cubic crystals

variable C11cubic equal (${C11all}+${C22all}+${C33all})/3.0
variable C11cubic equal (300.494506728143+${C22all}+${C33all})/3.0
variable C11cubic equal (300.494506728143+300.494506778641+${C33all})/3.0
variable C11cubic equal (300.494506728143+300.494506778641+340.153687502449)/3.0
variable C12cubic equal (${C12all}+${C13all}+${C23all})/3.0
variable C12cubic equal (193.464311386565+${C13all}+${C23all})/3.0
variable C12cubic equal (193.464311386565+170.284388713813+${C23all})/3.0
variable C12cubic equal (193.464311386565+170.284388713813+170.284388742611)/3.0
variable C44cubic equal (${C44all}+${C55all}+${C66all})/3.0
variable C44cubic equal (27.1613312570357+${C55all}+${C66all})/3.0
variable C44cubic equal (27.1613312570357+27.1613315051057+${C66all})/3.0
variable C44cubic equal (27.1613312570357+27.1613315051057+61.217829438579)/3.0

variable bulkmodulus equal (${C11cubic}+2*${C12cubic})/3.0
variable bulkmodulus equal (313.714233669744+2*${C12cubic})/3.0
variable bulkmodulus equal (313.714233669744+2*178.01102961433)/3.0
variable shearmodulus1 equal ${C44cubic}
variable shearmodulus1 equal 38.5134974002401
variable shearmodulus2 equal (${C11cubic}-${C12cubic})/2.0
variable shearmodulus2 equal (313.714233669744-${C12cubic})/2.0
variable shearmodulus2 equal (313.714233669744-178.01102961433)/2.0
variable poissonratio equal 1.0/(1.0+${C11cubic}/${C12cubic})
variable poissonratio equal 1.0/(1.0+313.714233669744/${C12cubic})
variable poissonratio equal 1.0/(1.0+313.714233669744/178.01102961433)

# For Stillinger-Weber silicon, the analytical results
# are known to be (E. R. Cowley, 1988):
#               C11 = 151.4 GPa
#               C12 = 76.4 GPa
#               C44 = 56.4 GPa

print "========================================="
=========================================
print "Components of the Elastic Constant Tensor"
Components of the Elastic Constant Tensor
print "========================================="
=========================================

print "Elastic Constant C11all = ${C11all} ${cunits}"
Elastic Constant C11all = 300.494506728143 GPa
print "Elastic Constant C22all = ${C22all} ${cunits}"
Elastic Constant C22all = 300.494506778641 GPa
print "Elastic Constant C33all = ${C33all} ${cunits}"
Elastic Constant C33all = 340.153687502449 GPa

print "Elastic Constant C12all = ${C12all} ${cunits}"
Elastic Constant C12all = 193.464311386565 GPa
print "Elastic Constant C13all = ${C13all} ${cunits}"
Elastic Constant C13all = 170.284388713813 GPa
print "Elastic Constant C23all = ${C23all} ${cunits}"
Elastic Constant C23all = 170.284388742611 GPa

print "Elastic Constant C44all = ${C44all} ${cunits}"
Elastic Constant C44all = 27.1613312570357 GPa
print "Elastic Constant C55all = ${C55all} ${cunits}"
Elastic Constant C55all = 27.1613315051057 GPa
print "Elastic Constant C66all = ${C66all} ${cunits}"
Elastic Constant C66all = 61.217829438579 GPa

print "Elastic Constant C14all = ${C14all} ${cunits}"
Elastic Constant C14all = -1.5815244266149e-08 GPa
print "Elastic Constant C15all = ${C15all} ${cunits}"
Elastic Constant C15all = -3.73288343607146e-07 GPa
print "Elastic Constant C16all = ${C16all} ${cunits}"
Elastic Constant C16all = -3.14094807908449e-08 GPa

print "Elastic Constant C24all = ${C24all} ${cunits}"
Elastic Constant C24all = -3.2884305078434e-08 GPa
print "Elastic Constant C25all = ${C25all} ${cunits}"
Elastic Constant C25all = 2.43580715959527e-07 GPa
print "Elastic Constant C26all = ${C26all} ${cunits}"
Elastic Constant C26all = -2.27046423537254e-08 GPa

print "Elastic Constant C34all = ${C34all} ${cunits}"
Elastic Constant C34all = -1.67094935071256e-07 GPa
print "Elastic Constant C35all = ${C35all} ${cunits}"
Elastic Constant C35all = -2.22179466163554e-07 GPa
print "Elastic Constant C36all = ${C36all} ${cunits}"
Elastic Constant C36all = 5.56209728233826e-08 GPa

print "Elastic Constant C45all = ${C45all} ${cunits}"
Elastic Constant C45all = 7.30139593837299e-09 GPa
print "Elastic Constant C46all = ${C46all} ${cunits}"
Elastic Constant C46all = 2.53763697835632e-07 GPa
print "Elastic Constant C56all = ${C56all} ${cunits}"
Elastic Constant C56all = 2.67436734807657e-07 GPa

print "========================================="
=========================================
print "Average properties for a cubic crystal"
Average properties for a cubic crystal
print "========================================="
=========================================

print "Bulk Modulus = ${bulkmodulus} ${cunits}"
Bulk Modulus = 223.245430966135 GPa
print "Shear Modulus 1 = ${shearmodulus1} ${cunits}"
Shear Modulus 1 = 38.5134974002401 GPa
print "Shear Modulus 2 = ${shearmodulus2} ${cunits}"
Shear Modulus 2 = 67.851602027707 GPa
print "Poisson Ratio = ${poissonratio}"
Poisson Ratio = 0.362013186846354
Total wall time: 0:00:17
