LAMMPS (22 Dec 2022)
  using 1 OpenMP thread(s) per MPI task
Loaded 1 plugins from C:\Program Files\LAMMPS 64-bit 23Jun2022\plugins
Loaded 0 plugins from C:\Program Files\LAMMPS 64-bit 23Jun2022-MPI\plugins
Loaded 1 plugins from C:\Program Files\LAMMPS 64-bit 22Dec2022-MSMPI\plugins
Loaded 1 plugins from C:\Program Files\LAMMPS 64-bit 28Mar2023-MPI\plugins
# Compute elastic constant tensor for a crystal
#
# Written by Aidan Thompson (Sandia, athomps@sandia.gov)
#
#  This script uses the following three include files.
#
#   init.mod      (must be modified for different crystal structures)
# 	       	  Define units, deformation parameters and initial
#		  configuration of the atoms and simulation cell.
#
#
#   potential.mod    (must be modified for different pair styles)
# 		     Define pair style and other attributes
#		     not stored in restart file
#
#
#   displace.mod    (displace.mod should not need to be modified)
# 		    Perform positive and negative box displacements
# 		    in direction ${dir} and size ${up}.
# 		    It uses the resultant changes
#		    in stress to compute one
# 		    row of the elastic stiffness tensor
#
#		    Inputs variables:
#		    	   dir = the Voigt deformation component
#		    		    (1,2,3,4,5,6)
#		    Global constants:
#       	    	   up = the deformation magnitude (strain units)
#       		   cfac = conversion from LAMMPS pressure units to
#               	   output units for elastic constants
#
#
#  To run this on a different system, it should only be necessary to
#  modify the files init.mod and potential.mod. In order to calculate
#  the elastic constants correctly, care must be taken to specify
#  the correct units in init.mod (units, cfac and cunits). It is also
#  important to verify that the minimization of energy w.r.t atom
#  positions in the deformed cell is fully converged.
#  One indication of this is that the elastic constants are insensitive
#  to the choice of the variable ${up} in init.mod. Another is to check
#  the final max and two-norm forces reported in the log file. If you know
#  that minimization is not required, you can set maxiter = 0.0 in
#  init.mod.
#

include init.mod
# NOTE: This script can be modified for different atomic structures,
# units, etc. See in.elastic for more info.
#

# Define the finite deformation size. Try several values of this
# variable to verify that results do not depend on it.
variable up equal 1.0e-6

# Define the amount of random jiggle for atoms
# This prevents atoms from staying on saddle points
variable atomjiggle equal 1.0e-5

# Uncomment one of these blocks, depending on what units
# you are using in LAMMPS and for output

# metal units, elastic constants in eV/A^3
#units		metal
#variable cfac equal 6.2414e-7
#variable cunits string eV/A^3

# metal units, elastic constants in GPa
units		metal
variable cfac equal 1.0e-4
variable cunits string GPa

# real units, elastic constants in GPa
#units		real
#variable cfac equal 1.01325e-4
#variable cunits string GPa

# Define minimization parameters
variable etol equal 0.0
variable ftol equal 1.0e-10
variable maxiter equal 100
variable maxeval equal 1000
variable dmax equal 1.0e-2

# generate the box and atom positions using a diamond lattice

dimension    3
boundary     p p p
read_data    data.in
Reading data file ...
  orthogonal box = (0 0 0) to (9.691808 9.691808 4.935618)
  2 by 2 by 1 MPI processor grid
  reading atoms ...
  32 atoms
  read_data CPU = 0.001 seconds
#replicate    2 3 4
replicate    2 3 4
Replication is creating a 2x3x4 = 24 times larger system...
  orthogonal box = (0 0 0) to (19.383616 29.075424 19.742472)
  1 by 2 by 2 MPI processor grid
  768 atoms
  replicate CPU = 0.000 seconds
change_box   all triclinic
Changing box ...
  triclinic box = (0 0 0) to (19.383616 29.075424 19.742472) with tilt (0 0 0)

# Need to set mass to something, just to satisfy LAMMPS
mass 1 1.0e-20

include potential.mod
# NOTE: This script can be modified for different pair styles
# See in.elastic for more info.

# Choose potential
#-----------------------
#pair_style	sw
#pair_coeff * * Si.sw Si
#-----------------------
#pair_style morse	2.83994742	# D0[eV] a[1/A] r0[A] rc[A], 1NN for BCC
#pair_coeff 1 1	2.1173	1.0202	2.4595	2.6497	#	Fe-Fe
#-----------------------
#pair_style smatb # R0(A)   p       q     A(eV)   xi(eV)  Rcs(A)   Rc(A), 4NN: Rcs=4NN, Rc=(4NN+5NN)/2
#pair_coeff 1 1	2.4802	7.0149	2.3779	0.3144	3.0551	4.033	4.176	#	Co	Co
#-----------------------
#pair_style eam/alloy
#pair_coeff * * AlCrFeCoNi_Zhou04.eam.alloy Fe
#-----------------------
pair_style meam
pair_coeff * * ./../../library.meam Mo Si ./../../MoSi.meam Mo Si
#-----------------------

# Setup neighbor style
neighbor 1.0 nsq
neigh_modify once no every 1 delay 0 check yes

# Setup minimization style
min_style	     cg
min_modify	     dmax ${dmax} line quadratic
min_modify	     dmax 0.01 line quadratic

# Setup output
thermo		1
thermo_style custom step temp pe press pxx pyy pzz pxy pxz pyz lx ly lz vol
thermo_modify norm no

# Compute initial state
fix 3 all box/relax  aniso 0.0
minimize ${etol} ${ftol} ${maxiter} ${maxeval}
minimize 0 ${ftol} ${maxiter} ${maxeval}
minimize 0 1e-10 ${maxiter} ${maxeval}
minimize 0 1e-10 100 ${maxeval}
minimize 0 1e-10 100 1000
Neighbor list info ...
  update: every = 1 steps, delay = 0 steps, check = yes
  max neighbors/atom: 2000, page size: 100000
  master list distance cutoff = 5.3
  ghost atom cutoff = 5.3
  2 neighbor lists, perpetual/occasional/extra = 2 0 0
  (1) pair meam, perpetual
      attributes: full, newton on
      pair build: full/nsq
      stencil: none
      bin: none
  (2) pair meam, perpetual, half/full from (1)
      attributes: half, newton on
      pair build: halffull/newton
      stencil: none
      bin: none
Per MPI rank memory allocation (min/avg/max) = 10.08 | 10.08 | 10.08 Mbytes
   Step          Temp          PotEng         Press           Pxx            Pyy            Pzz            Pxy            Pxz            Pyz             Lx             Ly             Lz           Volume    
         0   0             -4131.1832      670593.3       849565.47      849565.47      312648.97      5.0581846e-11  3.788203e-10   4.9254952e-11  19.383616      29.075424      19.742472      11126.598    
         1   0             -4132.4423      669378.05      847965.56      847965.56      312203.05     -4.056458e-11  -2.0323845e-10  4.635678e-10   19.385554      29.078332      19.743199      11129.233    
         2   0             -4133.6992      668163.99      846367.6       846367.6       311756.77      1.0536624e-10  6.896583e-11   1.5260048e-10  19.387493      29.081239      19.743925      11131.868    
         3   0             -4134.954       666951.11      844771.59      844771.59      311310.15      1.8163944e-10  1.4230819e-10  9.7449481e-11  19.389431      29.084147      19.744653      11134.504    
         4   0             -4136.2067      665739.41      843177.53      843177.53      310863.18     -1.1328615e-10  1.3249992e-10  2.5645506e-10  19.391369      29.087054      19.74538       11137.141    
         5   0             -4137.4573      664528.9       841585.42      841585.42      310415.86      2.1966849e-10  1.7443182e-10  9.8872377e-11  19.393308      29.089962      19.746108      11139.779    
         6   0             -4138.7058      663319.57      839995.26      839995.26      309968.2      -1.4006797e-10 -2.5855263e-10  2.524065e-10   19.395246      29.092869      19.746837      11142.417    
         7   0             -4139.9522      662111.42      838407.04      838407.04      309520.19     -1.2268607e-10 -1.3872607e-10  1.0916778e-11  19.397185      29.095777      19.747566      11145.055    
         8   0             -4141.1965      660904.46      836820.77      836820.77      309071.85     -1.5624529e-10  2.7125919e-11  7.7324825e-11  19.399123      29.098684      19.748295      11147.694    
         9   0             -4142.4387      659698.67      835236.43      835236.43      308623.16      1.9653659e-11 -4.5943618e-12  1.3405008e-10  19.401061      29.101592      19.749024      11150.334    
        10   0             -4143.6787      658494.07      833654.03      833654.03      308174.14     -6.4672662e-11 -2.4593155e-10 -2.7889787e-10  19.403         29.104499      19.749754      11152.974    
        11   0             -4144.9167      657290.64      832073.57      832073.57      307724.77      4.0612152e-11 -1.5511386e-10  7.6169709e-11  19.404938      29.107407      19.750485      11155.615    
        12   0             -4146.1526      656088.39      830495.04      830495.04      307275.07     -9.7736222e-11 -1.4519353e-10 -5.0152981e-10  19.406876      29.110315      19.751215      11158.257    
        13   0             -4147.3863      654887.31      828918.44      828918.44      306825.04     -1.4543009e-10 -1.7639674e-10  1.1098906e-10  19.408815      29.113222      19.751946      11160.899    
        14   0             -4148.618       653687.41      827343.77      827343.77      306374.68      7.4378845e-11  5.589567e-11   1.74666e-10    19.410753      29.11613       19.752678      11163.542    
        15   0             -4149.8476      652488.68      825771.03      825771.03      305923.99     -3.247649e-10   7.4998438e-11  2.7135161e-10  19.412691      29.119037      19.753409      11166.185    
        16   0             -4151.0751      651291.13      824200.21      824200.21      305472.97      3.4814735e-11  1.2518016e-10 -9.7564076e-11  19.41463       29.121945      19.754141      11168.829    
        17   0             -4152.3005      650094.75      822631.32      822631.32      305021.62     -4.6668726e-11 -1.7030662e-10 -1.9573478e-10  19.416568      29.124852      19.754874      11171.474    
        18   0             -4153.5238      648899.55      821064.34      821064.34      304569.95      3.8937114e-11 -8.1758388e-11 -6.8418527e-11  19.418507      29.12776       19.755607      11174.119    
        19   0             -4154.745       647705.51      819499.29      819499.29      304117.96     -2.6068641e-11  1.3629538e-10  1.4722894e-10  19.420445      29.130667      19.75634       11176.764    
        20   0             -4155.9642      646512.65      817936.15      817936.15      303665.65      1.6988339e-10  5.8107534e-11 -2.4716386e-10  19.422383      29.133575      19.757073      11179.411    
        21   0             -4157.1812      645320.96      816374.92      816374.92      303213.02     -5.0187808e-11 -8.3991007e-11 -2.7726577e-11  19.424322      29.136482      19.757807      11182.058    
        22   0             -4158.3962      644130.44      814815.61      814815.61      302760.08      1.6089695e-10  1.3104585e-11  5.6553281e-11  19.42626       29.13939       19.758542      11184.705    
        23   0             -4159.6091      642941.08      813258.22      813258.22      302306.82      4.9384959e-11 -1.2643567e-10 -8.4507745e-11  19.428198      29.142297      19.759276      11187.353    
        24   0             -4160.8199      641752.9       811702.73      811702.73      301853.25      1.176311e-12   2.4486344e-10  2.0418533e-10  19.430137      29.145205      19.760011      11190.002    
        25   0             -4162.0287      640565.89      810149.15      810149.15      301399.37     -6.7160995e-11 -5.7911658e-11 -4.9773194e-10  19.432075      29.148113      19.760746      11192.651    
        26   0             -4163.2353      639380.05      808597.49      808597.49      300945.19      1.4625429e-10  1.9873424e-10 -1.9511164e-11  19.434013      29.15102       19.761482      11195.301    
        27   0             -4164.4399      638195.38      807047.73      807047.73      300490.69      7.0512671e-11 -3.7386488e-10  3.7469089e-10  19.435952      29.153928      19.762218      11197.951    
        28   0             -4165.6425      637011.88      805499.87      805499.87      300035.9      -9.1093704e-11 -5.6028345e-11 -5.0104713e-11  19.43789       29.156835      19.762954      11200.602    
        29   0             -4166.8429      635829.55      803953.92      803953.92      299580.8      -2.2529877e-11 -1.1444352e-10 -2.1146964e-10  19.439828      29.159743      19.763691      11203.254    
        30   0             -4168.0413      634648.38      802409.87      802409.87      299125.41     -7.5986606e-11 -1.9251422e-10 -5.623993e-11   19.441767      29.16265       19.764428      11205.906    
        31   0             -4169.2376      633468.38      800867.71      800867.71      298669.71     -1.6952096e-10 -2.9581264e-11  1.1524632e-10  19.443705      29.165558      19.765165      11208.559    
        32   0             -4170.4319      632289.54      799327.45      799327.45      298213.72     -1.9388278e-11 -7.3047161e-11 -1.9102689e-10  19.445644      29.168465      19.765903      11211.212    
        33   0             -4171.6241      631111.86      797789.08      797789.08      297757.43     -8.4752088e-11 -1.1598489e-10 -1.5863852e-10  19.447582      29.171373      19.766641      11213.866    
        34   0             -4172.8142      629935.34      796252.59      796252.59      297300.84     -2.3327872e-11  1.4399529e-11  3.4918858e-10  19.44952       29.17428       19.767379      11216.52     
        35   0             -4174.0023      628759.99      794718         794718         296843.97     -1.4901888e-10 -5.4540372e-11  2.7508007e-11  19.451459      29.177188      19.768118      11219.175    
        36   0             -4175.1883      627585.79      793185.29      793185.29      296386.8       1.0247676e-10 -2.3307321e-10 -6.2326161e-11  19.453397      29.180096      19.768857      11221.831    
        37   0             -4176.3722      626412.75      791654.46      791654.46      295929.34     -4.5148833e-11 -1.9948526e-10 -1.2422664e-10  19.455335      29.183003      19.769597      11224.487    
        38   0             -4177.5541      625240.88      790125.51      790125.51      295471.6      -7.9867114e-11  1.4018334e-10 -1.1811334e-10  19.457274      29.185911      19.770336      11227.144    
        39   0             -4178.734       624070.15      788598.44      788598.44      295013.58     -1.304404e-10  -1.1791115e-10  6.25512e-11    19.459212      29.188818      19.771076      11229.801    
        40   0             -4179.9118      622900.59      787073.25      787073.25      294555.27     -1.1877007e-11 -1.0401091e-10 -2.5831697e-10  19.46115       29.191726      19.771817      11232.459    
        41   0             -4181.0876      621732.19      785549.94      785549.94      294096.68     -1.2182925e-10  2.3431747e-12 -4.5264436e-11  19.463089      29.194633      19.772557      11235.118    
        42   0             -4182.2613      620564.94      784028.5       784028.5       293637.81     -1.9495982e-10 -1.6113429e-10  1.7783337e-10  19.465027      29.197541      19.773298      11237.777    
        43   0             -4183.4329      619398.85      782508.94      782508.94      293178.67     -7.7794569e-11  4.0194916e-11 -3.1548261e-10  19.466966      29.200448      19.77404       11240.437    
        44   0             -4184.6025      618233.92      780991.25      780991.25      292719.25     -4.3840062e-11  6.2841114e-11  7.3409559e-11  19.468904      29.203356      19.774781      11243.097    
        45   0             -4185.7701      617070.14      779475.43      779475.43      292259.57     -1.3653478e-10 -8.3578519e-11  4.5237427e-12  19.470842      29.206263      19.775523      11245.758    
        46   0             -4186.9356      615907.52      777961.48      777961.48      291799.61      1.4954865e-10 -5.2058173e-11  1.5902096e-10  19.472781      29.209171      19.776266      11248.419    
        47   0             -4188.0991      614746.06      776449.4       776449.4       291339.38     -1.1383055e-11  1.25846e-11   -2.976985e-11   19.474719      29.212078      19.777008      11251.081    
        48   0             -4189.2606      613585.75      774939.18      774939.18      290878.89     -1.0008396e-10  1.4099004e-10 -1.2060022e-11  19.476657      29.214986      19.777751      11253.744    
        49   0             -4190.42        612426.6       773430.83      773430.83      290418.14     -9.9617815e-11 -1.9860354e-10 -6.1629042e-11  19.478596      29.217894      19.778495      11256.407    
        50   0             -4191.5774      611268.6       771924.34      771924.34      289957.12     -1.2490357e-10  8.0256786e-12  7.3226418e-11  19.480534      29.220801      19.779238      11259.07     
        51   0             -4192.7328      610111.75      770419.71      770419.71      289495.85     -1.4371727e-10 -2.0596474e-10  1.4995623e-10  19.482472      29.223709      19.779982      11261.735    
        52   0             -4193.8861      608956.06      768916.93      768916.93      289034.31      8.2934887e-11 -2.0326311e-10  2.1581704e-10  19.484411      29.226616      19.780726      11264.4      
        53   0             -4195.0374      607801.51      767416         767416         288572.52      1.694932e-10   8.3736211e-11 -1.4786451e-10  19.486349      29.229524      19.781471      11267.065    
        54   0             -4196.1867      606648.11      765916.92      765916.92      288110.47      5.2843611e-11  1.739988e-10  -1.6942154e-10  19.488288      29.232431      19.782216      11269.731    
        55   0             -4197.3339      605495.85      764419.69      764419.69      287648.17     -1.7357892e-12  2.3164896e-10  1.9268838e-10  19.490226      29.235339      19.782961      11272.398    
        56   0             -4198.4791      604344.74      762924.3       762924.3       287185.62     -1.7667732e-10 -2.2566232e-10  1.7969056e-11  19.492164      29.238246      19.783706      11275.065    
        57   0             -4199.6223      603194.78      761430.76      761430.76      286722.82     -7.1669954e-11 -5.2364491e-11 -2.7686936e-10  19.494103      29.241154      19.784452      11277.732    
        58   0             -4200.7635      602045.97      759939.06      759939.06      286259.77     -2.5545304e-12  1.2331128e-10 -1.349959e-10   19.496041      29.244061      19.785198      11280.401    
        59   0             -4201.9027      600898.3       758449.2       758449.2       285796.48      9.4511035e-11  6.5014763e-11  1.3709224e-10  19.497979      29.246969      19.785945      11283.069    
        60   0             -4203.0398      599751.77      756961.19      756961.19      285332.95      6.7095632e-11  8.6371638e-12  7.1429975e-11  19.499918      29.249877      19.786691      11285.739    
        61   0             -4204.175       598606.39      755475         755475         284869.17      1.1444687e-10  5.2377996e-11  4.364833e-11   19.501856      29.252784      19.787438      11288.409    
        62   0             -4205.3081      597462.16      753990.66      753990.66      284405.16      1.9971083e-10  3.4923008e-10  2.6094583e-10  19.503794      29.255692      19.788185      11291.079    
        63   0             -4206.4392      596319.07      752508.15      752508.15      283940.91     -1.9493858e-10 -1.2486653e-10 -6.4890277e-11  19.505733      29.258599      19.788933      11293.75     
        64   0             -4207.5683      595177.13      751027.48      751027.48      283476.43     -9.4052902e-11  6.8654052e-12  2.6041301e-10  19.507671      29.261507      19.789681      11296.422    
        65   0             -4208.6954      594036.33      749548.64      749548.64      283011.71      1.0900189e-10 -1.8903736e-10 -2.5172447e-10  19.50961       29.264414      19.790429      11299.094    
        66   0             -4209.8205      592896.67      748071.62      748071.62      282546.77      4.3203268e-11 -3.7647438e-11  2.2530229e-10  19.511548      29.267322      19.791177      11301.767    
        67   0             -4210.9435      591758.16      746596.44      746596.44      282081.59      1.678943e-10  -1.0114569e-10 -2.3683009e-10  19.513486      29.270229      19.791926      11304.44     
        68   0             -4212.0646      590620.79      745123.09      745123.09      281616.19      4.440989e-11  -1.3780752e-11 -2.0221209e-10  19.515425      29.273137      19.792675      11307.114    
        69   0             -4213.1837      589484.56      743651.55      743651.55      281150.57      1.8716002e-12 -3.2336218e-11  1.9530698e-10  19.517363      29.276044      19.793425      11309.788    
        70   0             -4214.3008      588349.47      742181.84      742181.84      280684.72      8.4846776e-11  1.562338e-10  -1.8538612e-11  19.519301      29.278952      19.794174      11312.463    
        71   0             -4215.4158      587215.52      740713.95      740713.95      280218.65     -5.7174714e-11  1.6845868e-10  4.1737384e-11  19.52124       29.28186       19.794924      11315.139    
        72   0             -4216.5289      586082.7       739247.87      739247.87      279752.36      2.838414e-10   1.7539701e-10 -1.3311942e-11  19.523178      29.284767      19.795674      11317.815    
        73   0             -4217.64        584951.02      737783.61      737783.61      279285.85      1.0793165e-10 -3.4411168e-10 -2.3094765e-10  19.525116      29.287675      19.796425      11320.492    
        74   0             -4218.7491      583820.48      736321.15      736321.15      278819.13      1.2113323e-10 -2.2558335e-10 -8.3824009e-11  19.527055      29.290582      19.797176      11323.169    
        75   0             -4219.8562      582691.07      734860.51      734860.51      278352.19      6.6559625e-11  3.5349789e-10 -1.329622e-10   19.528993      29.29349       19.797927      11325.847    
        76   0             -4220.9613      581562.79      733401.67      733401.67      277885.04      1.0696012e-10 -1.6273263e-10 -1.7121155e-10  19.530931      29.296397      19.798678      11328.525    
        77   0             -4222.0644      580435.65      731944.63      731944.63      277417.68      5.2902286e-12  1.2169096e-10 -7.5256249e-11  19.53287       29.299305      19.799429      11331.204    
        78   0             -4223.1656      579309.64      730489.4       730489.4       276950.11      1.4485836e-11 -1.7709444e-10 -2.8877506e-12  19.534808      29.302212      19.800181      11333.883    
        79   0             -4224.2647      578184.76      729035.98      729035.98      276482.34      1.0388737e-10  7.6444538e-11  2.5497203e-11  19.536747      29.30512       19.800933      11336.563    
        80   0             -4225.3619      577061.02      727584.35      727584.35      276014.36     -3.5185666e-11  1.0679626e-10  3.37111e-11    19.538685      29.308027      19.801686      11339.244    
        81   0             -4226.4571      575938.41      726134.52      726134.52      275546.18      9.0915332e-11 -1.8819803e-12  7.6424084e-11  19.540623      29.310935      19.802439      11341.925    
        82   0             -4227.5503      574816.93      724686.49      724686.49      275077.8      -5.0252676e-11 -2.4259264e-10 -5.0770098e-11  19.542562      29.313842      19.803191      11344.606    
        83   0             -4228.6415      573696.58      723240.26      723240.26      274609.23      4.8610519e-11  1.4572183e-10 -1.229136e-10   19.5445        29.31675       19.803945      11347.288    
        84   0             -4229.7307      572577.37      721795.82      721795.82      274140.46      1.0620949e-10  6.0180675e-12  1.1203949e-10  19.546438      29.319658      19.804698      11349.971    
        85   0             -4230.818       571459.28      720353.18      720353.18      273671.49      1.6232407e-11  9.401008e-13  -9.7143749e-12  19.548377      29.322565      19.805452      11352.654    
        86   0             -4231.9033      570342.33      718912.33      718912.33      273202.34     -2.2384776e-11 -7.4563703e-11  1.2892002e-11  19.550315      29.325473      19.806206      11355.338    
        87   0             -4232.9866      569226.51      717473.26      717473.26      272733        -1.0680762e-11 -7.3418493e-11  5.2542458e-11  19.552253      29.32838       19.80696       11358.023    
        88   0             -4234.068       568111.81      716035.98      716035.98      272263.47     -1.7035077e-11 -5.5739775e-12  4.186746e-11   19.554192      29.331288      19.807715      11360.707    
        89   0             -4235.1474      566998.25      714600.49      714600.49      271793.76      4.9418226e-11  9.6770184e-11  1.8059489e-10  19.55613       29.334195      19.80847       11363.393    
        90   0             -4236.2248      565885.81      713166.78      713166.78      271323.87     -6.8076808e-12  3.9625397e-11  3.0986685e-11  19.558069      29.337103      19.809225      11366.079    
        91   0             -4237.3003      564774.5       711734.85      711734.85      270853.79      6.9750504e-11 -5.066221e-11   9.2468703e-12  19.560007      29.34001       19.80998       11368.765    
        92   0             -4238.3738      563664.31      710304.7       710304.7       270383.54     -2.1358195e-10 -2.3491825e-10  3.3240197e-11  19.561945      29.342918      19.810735      11371.452    
        93   0             -4239.4453      562555.25      708876.32      708876.32      269913.11      1.2027762e-10  2.9463404e-11 -8.4746383e-11  19.563884      29.345825      19.811491      11374.14     
        94   0             -4240.5149      561447.31      707449.71      707449.71      269442.51     -4.2996399e-12 -2.1807774e-10  3.9900658e-11  19.565822      29.348733      19.812247      11376.828    
        95   0             -4241.5825      560340.49      706024.88      706024.88      268971.73      4.079785e-11   9.3381745e-11 -1.9928421e-10  19.56776       29.351641      19.813004      11379.517    
        96   0             -4242.6482      559234.8       704601.81      704601.81      268500.78      7.8857207e-11  3.1711662e-10  6.3479583e-11  19.569699      29.354548      19.81376       11382.206    
        97   0             -4243.7119      558130.23      703180.51      703180.51      268029.66      2.468588e-12  -1.9267486e-10  1.7041069e-10  19.571637      29.357456      19.814517      11384.896    
        98   0             -4244.7736      557026.77      701760.97      701760.97      267558.37     -7.5961439e-11 -1.6666843e-10 -2.7676019e-10  19.573575      29.360363      19.815274      11387.586    
        99   0             -4245.8334      555924.44      700343.2       700343.2       267086.92     -2.8828232e-11  3.0268082e-10 -6.3575152e-11  19.575514      29.363271      19.816031      11390.277    
       100   0             -4246.8913      554823.23      698927.19      698927.19      266615.3      -4.4965165e-11 -7.8970071e-11 -8.49342e-11    19.577452      29.366178      19.816789      11392.968    
Loop time of 0.0683497 on 4 procs for 100 steps with 768 atoms

62.9% CPU use with 4 MPI tasks x 1 OpenMP threads

Minimization stats:
  Stopping criterion = max iterations
  Energy initial, next-to-last, final = 
     -4131.18319510313  -4245.83342830556  -4246.89127776387
  Force two-norm initial, final = 8622.5043 7211.618
  Force max component initial, final = 5899.9575 4920.8156
  Final line search alpha, max atom move = 2.028353e-08 9.981151e-05
  Iterations, force evaluations = 100 100

MPI task timing breakdown:
Section |  min time  |  avg time  |  max time  |%varavg| %total
---------------------------------------------------------------
Pair    | 0.058575   | 0.058721   | 0.059012   |   0.1 | 85.91
Neigh   | 0          | 0          | 0          |   0.0 |  0.00
Comm    | 0.003322   | 0.0036267  | 0.003779   |   0.3 |  5.31
Output  | 0.00116    | 0.0012382  | 0.001446   |   0.3 |  1.81
Modify  | 0          | 0          | 0          |   0.0 |  0.00
Other   |            | 0.004764   |            |       |  6.97

Nlocal:            192 ave         192 max         192 min
Histogram: 4 0 0 0 0 0 0 0 0 0
Nghost:            954 ave         954 max         954 min
Histogram: 4 0 0 0 0 0 0 0 0 0
Neighs:           4296 ave        4296 max        4296 min
Histogram: 4 0 0 0 0 0 0 0 0 0
FullNghs:         8592 ave        8592 max        8592 min
Histogram: 4 0 0 0 0 0 0 0 0 0

Total # of neighbors = 34368
Ave neighs/atom = 44.75
Neighbor list builds = 0
Dangerous builds = 0

variable tmp equal pxx
variable pxx0 equal ${tmp}
variable pxx0 equal 698927.19307914
variable tmp equal pyy
variable pyy0 equal ${tmp}
variable pyy0 equal 698927.193079066
variable tmp equal pzz
variable pzz0 equal ${tmp}
variable pzz0 equal 266615.302629493
variable tmp equal pyz
variable pyz0 equal ${tmp}
variable pyz0 equal -8.49342002212484e-11
variable tmp equal pxz
variable pxz0 equal ${tmp}
variable pxz0 equal -7.89700707204181e-11
variable tmp equal pxy
variable pxy0 equal ${tmp}
variable pxy0 equal -4.49651648230139e-11

variable tmp equal lx
variable lx0 equal ${tmp}
variable lx0 equal 19.5774521599999
variable tmp equal ly
variable ly0 equal ${tmp}
variable ly0 equal 29.3661782400001
variable tmp equal lz
variable lz0 equal ${tmp}
variable lz0 equal 19.816788918962

# These formulas define the derivatives w.r.t. strain components
# Constants uses $, variables use v_
variable d1 equal -(v_pxx1-${pxx0})/(v_delta/v_len0)*${cfac}
variable d1 equal -(v_pxx1-698927.19307914)/(v_delta/v_len0)*${cfac}
variable d1 equal -(v_pxx1-698927.19307914)/(v_delta/v_len0)*0.0001
variable d2 equal -(v_pyy1-${pyy0})/(v_delta/v_len0)*${cfac}
variable d2 equal -(v_pyy1-698927.193079066)/(v_delta/v_len0)*${cfac}
variable d2 equal -(v_pyy1-698927.193079066)/(v_delta/v_len0)*0.0001
variable d3 equal -(v_pzz1-${pzz0})/(v_delta/v_len0)*${cfac}
variable d3 equal -(v_pzz1-266615.302629493)/(v_delta/v_len0)*${cfac}
variable d3 equal -(v_pzz1-266615.302629493)/(v_delta/v_len0)*0.0001
variable d4 equal -(v_pyz1-${pyz0})/(v_delta/v_len0)*${cfac}
variable d4 equal -(v_pyz1--8.49342002212484e-11)/(v_delta/v_len0)*${cfac}
variable d4 equal -(v_pyz1--8.49342002212484e-11)/(v_delta/v_len0)*0.0001
variable d5 equal -(v_pxz1-${pxz0})/(v_delta/v_len0)*${cfac}
variable d5 equal -(v_pxz1--7.89700707204181e-11)/(v_delta/v_len0)*${cfac}
variable d5 equal -(v_pxz1--7.89700707204181e-11)/(v_delta/v_len0)*0.0001
variable d6 equal -(v_pxy1-${pxy0})/(v_delta/v_len0)*${cfac}
variable d6 equal -(v_pxy1--4.49651648230139e-11)/(v_delta/v_len0)*${cfac}
variable d6 equal -(v_pxy1--4.49651648230139e-11)/(v_delta/v_len0)*0.0001

displace_atoms all random ${atomjiggle} ${atomjiggle} ${atomjiggle} 87287 units box
displace_atoms all random 1e-05 ${atomjiggle} ${atomjiggle} 87287 units box
displace_atoms all random 1e-05 1e-05 ${atomjiggle} 87287 units box
displace_atoms all random 1e-05 1e-05 1e-05 87287 units box
Displacing atoms ...

# Write restart
unfix 3
write_restart restart.equil
System init for write_restart ...

# uxx Perturbation

variable dir equal 1
include displace.mod
# NOTE: This script should not need to be
# modified. See in.elastic for more info.
#
# Find which reference length to use

if "${dir} == 1" then    "variable len0 equal ${lx0}"
variable len0 equal ${lx0}
variable len0 equal 19.5774521599999
if "${dir} == 2" then    "variable len0 equal ${ly0}"
if "${dir} == 3" then    "variable len0 equal ${lz0}"
if "${dir} == 4" then    "variable len0 equal ${lz0}"
if "${dir} == 5" then    "variable len0 equal ${lz0}"
if "${dir} == 6" then    "variable len0 equal ${ly0}"

# Reset box and simulation parameters

clear
  using 1 OpenMP thread(s) per MPI task
Loaded 1 plugins from C:\Program Files\LAMMPS 64-bit 23Jun2022\plugins
Loaded 0 plugins from C:\Program Files\LAMMPS 64-bit 23Jun2022-MPI\plugins
Loaded 1 plugins from C:\Program Files\LAMMPS 64-bit 22Dec2022-MSMPI\plugins
Loaded 1 plugins from C:\Program Files\LAMMPS 64-bit 28Mar2023-MPI\plugins
box tilt large

The 'box' command has been removed and will be ignored

read_restart restart.equil
Reading restart file ...
  restart file = 22 Dec 2022, LAMMPS = 22 Dec 2022
  restoring atom style atomic from restart
  triclinic box = (-0.09691808 -0.14537712 -0.037158459) to (19.480534 29.220801 19.77963) with tilt (0 0 0)
  1 by 2 by 2 MPI processor grid
  pair style meam stores no restart info
  768 atoms
  read_restart CPU = 0.000 seconds
include potential.mod
# NOTE: This script can be modified for different pair styles
# See in.elastic for more info.

# Choose potential
#-----------------------
#pair_style	sw
#pair_coeff * * Si.sw Si
#-----------------------
#pair_style morse	2.83994742	# D0[eV] a[1/A] r0[A] rc[A], 1NN for BCC
#pair_coeff 1 1	2.1173	1.0202	2.4595	2.6497	#	Fe-Fe
#-----------------------
#pair_style smatb # R0(A)   p       q     A(eV)   xi(eV)  Rcs(A)   Rc(A), 4NN: Rcs=4NN, Rc=(4NN+5NN)/2
#pair_coeff 1 1	2.4802	7.0149	2.3779	0.3144	3.0551	4.033	4.176	#	Co	Co
#-----------------------
#pair_style eam/alloy
#pair_coeff * * AlCrFeCoNi_Zhou04.eam.alloy Fe
#-----------------------
pair_style meam
pair_coeff * * ./../../library.meam Mo Si ./../../MoSi.meam Mo Si
#-----------------------

# Setup neighbor style
neighbor 1.0 nsq
neigh_modify once no every 1 delay 0 check yes

# Setup minimization style
min_style	     cg
min_modify	     dmax ${dmax} line quadratic
min_modify	     dmax 0.01 line quadratic

# Setup output
thermo		1
thermo_style custom step temp pe press pxx pyy pzz pxy pxz pyz lx ly lz vol
thermo_modify norm no

# Negative deformation

variable delta equal -${up}*${len0}
variable delta equal -1e-06*${len0}
variable delta equal -1e-06*19.5774521599999
variable deltaxy equal -${up}*xy
variable deltaxy equal -1e-06*xy
variable deltaxz equal -${up}*xz
variable deltaxz equal -1e-06*xz
variable deltayz equal -${up}*yz
variable deltayz equal -1e-06*yz
if "${dir} == 1" then    "change_box all x delta 0 ${delta} xy delta ${deltaxy} xz delta ${deltaxz} remap units box"
change_box all x delta 0 ${delta} xy delta ${deltaxy} xz delta ${deltaxz} remap units box
change_box all x delta 0 -1.95774521599999e-05 xy delta ${deltaxy} xz delta ${deltaxz} remap units box
change_box all x delta 0 -1.95774521599999e-05 xy delta -0 xz delta ${deltaxz} remap units box
change_box all x delta 0 -1.95774521599999e-05 xy delta -0 xz delta -0 remap units box
Changing box ...
  triclinic box = (-0.09691808 -0.14537712 -0.037158459) to (19.480515 29.220801 19.77963) with tilt (0 0 0)
  triclinic box = (-0.09691808 -0.14537712 -0.037158459) to (19.480515 29.220801 19.77963) with tilt (0 0 0)
  triclinic box = (-0.09691808 -0.14537712 -0.037158459) to (19.480515 29.220801 19.77963) with tilt (0 0 0)
if "${dir} == 2" then    "change_box all y delta 0 ${delta} yz delta ${deltayz} remap units box"
if "${dir} == 3" then    "change_box all z delta 0 ${delta} remap units box"
if "${dir} == 4" then    "change_box all yz delta ${delta} remap units box"
if "${dir} == 5" then    "change_box all xz delta ${delta} remap units box"
if "${dir} == 6" then    "change_box all xy delta ${delta} remap units box"

# Relax atoms positions

minimize ${etol} ${ftol} ${maxiter} ${maxeval}
minimize 0 ${ftol} ${maxiter} ${maxeval}
minimize 0 1e-10 ${maxiter} ${maxeval}
minimize 0 1e-10 100 ${maxeval}
minimize 0 1e-10 100 1000
Neighbor list info ...
  update: every = 1 steps, delay = 0 steps, check = yes
  max neighbors/atom: 2000, page size: 100000
  master list distance cutoff = 5.3
  ghost atom cutoff = 5.3
  2 neighbor lists, perpetual/occasional/extra = 2 0 0
  (1) pair meam, perpetual
      attributes: full, newton on
      pair build: full/nsq
      stencil: none
      bin: none
  (2) pair meam, perpetual, half/full from (1)
      attributes: half, newton on
      pair build: halffull/newton
      stencil: none
      bin: none
Per MPI rank memory allocation (min/avg/max) = 10.04 | 10.04 | 10.04 Mbytes
   Step          Temp          PotEng         Press           Pxx            Pyy            Pzz            Pxy            Pxz            Pyz             Lx             Ly             Lz           Volume    
       100   0             -4246.8858      554827.91      698939.3       698930.46      266613.96      0.22150977     0.5428405      0.46355051     19.577433      29.366178      19.816789      11392.957    
       101   0             -4269.4604      553803.78      669684.85      669677.98      322048.53      0.16130388     0.24146819     0.35888224     19.577433      29.366178      19.816789      11392.957    
       102   0             -4287.0416      553222.07      646087.47      646082.09      367496.63      0.13731619     0.12112519     0.26949473     19.577433      29.366178      19.816789      11392.957    
       103   0             -4300.5844      552810.97      627943.67      627939.32      402549.91      0.1299584      0.083219726    0.19699706     19.577433      29.366178      19.816789      11392.957    
       104   0             -4311.0418      552369.19      614480.95      614477.3       428149.31      0.12736753     0.075280866    0.1398098      19.577433      29.366178      19.816789      11392.957    
       105   0             -4319.2432      551775.57      604722.12      604718.95      445885.62      0.12342159     0.074395327    0.095538202    19.577433      29.366178      19.816789      11392.957    
       106   0             -4325.8262      550988.18      597714.76      597711.92      457537.85      0.1151688      0.071415682    0.061774055    19.577433      29.366178      19.816789      11392.957    
       107   0             -4333.8115      550268.5       598909.43      598982.85      452913.23      1.58328        0.35649827    -1.2969733      19.577433      29.366178      19.816789      11392.957    
       108   0             -4354.0146      550659.94      603321.47      603387.7       445270.66      1.4836229      0.25853656    -1.5043139      19.577433      29.366178      19.816789      11392.957    
       109   0             -4388.4231      554125.48      607785.53      607794.43      446796.48      0.63292365     0.16685839    -0.9084168      19.577433      29.366178      19.816789      11392.957    
       110   0             -4427.5513      562163.18      615195.16      615121.34      456173.02     -0.74029303     0.043760085    0.42585558     19.577433      29.366178      19.816789      11392.957    
       111   0             -4459.3388      573723.99      626183.87      626075.75      468912.36     -1.2535113     -0.033031206    1.3278504      19.577433      29.366178      19.816789      11392.957    
       112   0             -4482.9595      588670.37      640553.34      640460.93      484996.86     -0.8180086     -0.027083801    1.3588768      19.577433      29.366178      19.816789      11392.957    
       113   0             -4497.8193      604669.69      655645.28      655594.07      502769.71     -0.13483972     0.022485962    0.74690991     19.577433      29.366178      19.816789      11392.957    
       114   0             -4507.6346      616886.77      665766.75      665750.79      519142.77      0.057722944    0.051572612    0.11873754     19.577433      29.366178      19.816789      11392.957    
       115   0             -4517.3504      617224.07      662998.64      662989.3       525684.27     -0.084388427    0.03168869     0.036142527    19.577433      29.366178      19.816789      11392.957    
       116   0             -4526.2177      615816.39      659553.54      659541.69      528353.95      0.1739535      0.021009923    0.053084494    19.577433      29.366178      19.816789      11392.957    
       117   0             -4533.0253      613542.13      656399.78      656389.79      527836.84     -0.30800535     0.013601641    0.0138464      19.577433      29.366178      19.816789      11392.957    
       118   0             -4537.8182      610365.04      652908.31      652897.35      525289.46      0.58298827     0.010038329    0.026561412    19.577433      29.366178      19.816789      11392.957    
       119   0             -4539.7149      609525.27      651926.94      651917.99      524730.87     -1.1594785      0.0063606262   5.5195715e-05  19.577433      29.366178      19.816789      11392.957    
       120   0             -4539.7489      611139.11      653228.56      653218.56      526970.2       2.7477754      0.0020197368   0.022598848    19.577433      29.366178      19.816789      11392.957    
       121   0             -4539.7609      611360.79      653282.58      653273.5       527526.28      0.20166539     0.0067593631   0.021072318    19.577433      29.366178      19.816789      11392.957    
       122   0             -4539.7664      610784.79      652693.72      652685.02      526975.63     -0.28519624     0.0056815582   0.014493296    19.577433      29.366178      19.816789      11392.957    
       123   0             -4539.7668      610734.27      652606.88      652598.74      526997.18      0.89697019     0.0054096001   0.0080652576   19.577433      29.366178      19.816789      11392.957    
       124   0             -4539.7668      610751.85      652613.73      652605.76      527036.07     -0.2376476      0.0047697975   0.0079050114   19.577433      29.366178      19.816789      11392.957    
       125   0             -4539.7668      610771.6       652627.6       652619.78      527067.41     -0.14147255     0.0045914035   0.0087379533   19.577433      29.366178      19.816789      11392.957    
       126   0             -4539.7668      610771.72      652626.44      652618.74      527069.98      0.10889207     0.0044777422   0.0089169223   19.577433      29.366178      19.816789      11392.957    
       127   0             -4539.7668      610770.51      652623.74      652616.28      527071.53     -0.041248996    0.004262623    0.0087335096   19.577433      29.366178      19.816789      11392.957    
       128   0             -4539.7668      610771.59      652624.08      652616.79      527073.89     -0.021388488    0.0041252371   0.0083441008   19.577433      29.366178      19.816789      11392.957    
       129   0             -4539.7668      610772.93      652625.15      652617.98      527075.66      0.01979174     0.004026302    0.0079503892   19.577433      29.366178      19.816789      11392.957    
       130   0             -4539.7668      610773.04      652625.18      652618.09      527075.84     -0.0037687894   0.0039716799   0.0077558834   19.577433      29.366178      19.816789      11392.957    
       131   0             -4539.7668      610773.01      652625.03      652618.1       527075.9      -0.0025309782   0.0038464999   0.00734864     19.577433      29.366178      19.816789      11392.957    
       132   0             -4539.7668      610773         652624.77      652618.19      527076.03      0.0070819297   0.0035935766   0.0065652788   19.577433      29.366178      19.816789      11392.957    
       133   0             -4539.7668      610773.1       652624.71      652618.41      527076.19     -0.010910028    0.0033717206   0.0059161099   19.577433      29.366178      19.816789      11392.957    
       134   0             -4539.7668      610773.18      652624.58      652618.7       527076.25      0.0056902973   0.0030233454   0.0049002526   19.577433      29.366178      19.816789      11392.957    
       135   0             -4539.7668      610773.09      652624.29      652618.88      527076.09      0.0063708456   0.0026055614   0.0036706991   19.577433      29.366178      19.816789      11392.957    
       136   0             -4539.7668      610773.02      652624.17      652618.91      527075.99     -0.005482609    0.0024271825   0.0031645784   19.577433      29.366178      19.816789      11392.957    
       137   0             -4539.7668      610773.04      652624.18      652618.94      527075.99      0.00666843     0.0023219275   0.0029378072   19.577433      29.366178      19.816789      11392.957    
       138   0             -4539.7668      610773.05      652624.2       652618.96      527076        -0.0011095546   0.0021912404   0.0027203056   19.577433      29.366178      19.816789      11392.957    
       139   0             -4539.7668      610773.03      652624.21      652618.91      527075.97     -0.0084237227   0.0018940987   0.0023303902   19.577433      29.366178      19.816789      11392.957    
       140   0             -4539.7668      610773         652624.24      652618.83      527075.94      0.0094356367   0.001459698    0.0017931412   19.577433      29.366178      19.816789      11392.957    
       141   0             -4539.7668      610773.03      652624.28      652618.83      527075.97     -0.0065770512   0.0012613687   0.0015557459   19.577433      29.366178      19.816789      11392.957    
       142   0             -4539.7668      610773.05      652624.32      652618.83      527076.01     -0.0011335555   0.0010787866   0.0013561091   19.577433      29.366178      19.816789      11392.957    
       143   0             -4539.7668      610773.05      652624.33      652618.8       527076.01      0.00655332     0.00089357585  0.001187476    19.577433      29.366178      19.816789      11392.957    
       144   0             -4539.7668      610773.03      652624.33      652618.77      527076        -0.008916959    0.00071293864  0.0010417828   19.577433      29.366178      19.816789      11392.957    
       145   0             -4539.7668      610773.04      652624.35      652618.75      527076.01      0.0041604172   0.00048356358  0.00084197359  19.577433      29.366178      19.816789      11392.957    
       146   0             -4539.7668      610773.05      652624.38      652618.75      527076.02      0.003662549    0.00028874808  0.00063705052  19.577433      29.366178      19.816789      11392.957    
       147   0             -4539.7668      610773.04      652624.38      652618.75      527076.01     -0.0068886365   0.00018403533  0.0004886875   19.577433      29.366178      19.816789      11392.957    
       148   0             -4539.7668      610773.03      652624.37      652618.74      527075.99      0.0034325882   7.11339e-05    0.00030073389  19.577433      29.366178      19.816789      11392.957    
       149   0             -4539.7668      610773.03      652624.37      652618.75      527075.99     -0.0015966854   5.26813e-06    0.00017814452  19.577433      29.366178      19.816789      11392.957    
       150   0             -4539.7668      610773.05      652624.37      652618.77      527076        -0.0038661924  -9.8567438e-05 -4.3120416e-05  19.577433      29.366178      19.816789      11392.957    
       151   0             -4539.7668      610773.04      652624.36      652618.77      527075.99      0.0045396046  -0.00016577016 -0.00021777376  19.577433      29.366178      19.816789      11392.957    
       152   0             -4539.7668      610773.03      652624.34      652618.77      527075.99     -0.0023106882  -0.00021405264 -0.00036414217  19.577433      29.366178      19.816789      11392.957    
       153   0             -4539.7668      610773.04      652624.33      652618.78      527076         0.00029259024 -0.00025227518 -0.00046938252  19.577433      29.366178      19.816789      11392.957    
       154   0             -4539.7668      610773.05      652624.33      652618.79      527076.01      0.0015811959  -0.00027806182 -0.00051981143  19.577433      29.366178      19.816789      11392.957    
       155   0             -4539.7668      610773.04      652624.33      652618.8       527076.01     -0.0030637392  -0.00029726016 -0.00053258961  19.577433      29.366178      19.816789      11392.957    
       156   0             -4539.7668      610773.04      652624.32      652618.8       527076         0.00179217    -0.00031122639 -0.00054231007  19.577433      29.366178      19.816789      11392.957    
       157   0             -4539.7668      610773.04      652624.32      652618.8       527076        -0.00023083626 -0.00031447225 -0.0005530742   19.577433      29.366178      19.816789      11392.957    
       158   0             -4539.7668      610773.04      652624.32      652618.8       527076        -0.001542842   -0.00031137419 -0.00054824597  19.577433      29.366178      19.816789      11392.957    
       159   0             -4539.7668      610773.04      652624.33      652618.8       527076         0.0021173139  -0.00030122887 -0.00049793971  19.577433      29.366178      19.816789      11392.957    
       160   0             -4539.7668      610773.04      652624.33      652618.79      527075.99     -0.00076978308 -0.00028200014 -0.0003928118   19.577433      29.366178      19.816789      11392.957    
       161   0             -4539.7668      610773.04      652624.33      652618.79      527076        -0.00030602334 -0.00026749108 -0.00033358122  19.577433      29.366178      19.816789      11392.957    
       162   0             -4539.7668      610773.04      652624.34      652618.79      527076         0.0010139755  -0.00025169831 -0.00029937745  19.577433      29.366178      19.816789      11392.957    
       163   0             -4539.7668      610773.04      652624.34      652618.78      527076.01     -0.00069660471 -0.00022857355 -0.00026360697  19.577433      29.366178      19.816789      11392.957    
       164   0             -4539.7668      610773.04      652624.34      652618.77      527076         1.6039263e-05 -0.00018952348 -0.00019923126  19.577433      29.366178      19.816789      11392.957    
       165   0             -4539.7668      610773.04      652624.34      652618.77      527076         0.00037851282 -0.00015447934 -0.00014351417  19.577433      29.366178      19.816789      11392.957    
       166   0             -4539.7668      610773.04      652624.35      652618.77      527076        -0.00030797579 -0.00011950342 -0.00010165534  19.577433      29.366178      19.816789      11392.957    
       167   0             -4539.7668      610773.04      652624.35      652618.78      527076         0.00014849092 -7.6276733e-05 -7.5953336e-05  19.577433      29.366178      19.816789      11392.957    
       168   0             -4539.7668      610773.04      652624.34      652618.77      527076         0.00010660401 -2.4871791e-05 -5.3955507e-05  19.577433      29.366178      19.816789      11392.957    
       169   0             -4539.7668      610773.04      652624.34      652618.77      527076        -0.00017013249  6.2773548e-06 -2.9713243e-05  19.577433      29.366178      19.816789      11392.957    
       170   0             -4539.7668      610773.04      652624.34      652618.78      527076         8.1891566e-05  3.9994997e-05  1.4260424e-05  19.577433      29.366178      19.816789      11392.957    
       171   0             -4539.7668      610773.04      652624.34      652618.78      527076        -1.7121583e-05  6.0057606e-05  4.4802131e-05  19.577433      29.366178      19.816789      11392.957    
       172   0             -4539.7668      610773.04      652624.34      652618.78      527076        -4.2565934e-05  6.8436402e-05  5.6123495e-05  19.577433      29.366178      19.816789      11392.957    
       173   0             -4539.7668      610773.04      652624.33      652618.78      527076         6.4175123e-05  7.2659245e-05  6.4861856e-05  19.577433      29.366178      19.816789      11392.957    
       174   0             -4539.7668      610773.04      652624.33      652618.79      527076        -4.7326795e-05  7.5066762e-05  8.5260672e-05  19.577433      29.366178      19.816789      11392.957    
       175   0             -4539.7668      610773.04      652624.33      652618.79      527076        -6.1422234e-06  7.7248432e-05  0.00011045775  19.577433      29.366178      19.816789      11392.957    
       176   0             -4539.7668      610773.04      652624.33      652618.79      527076         2.4137229e-05  7.9332165e-05  0.00012580578  19.577433      29.366178      19.816789      11392.957    
       177   0             -4539.7668      610773.04      652624.33      652618.79      527076        -2.7526373e-05  8.113839e-05   0.00013137729  19.577433      29.366178      19.816789      11392.957    
       178   0             -4539.7668      610773.04      652624.33      652618.79      527076         3.2492624e-05  8.2623961e-05  0.00012803714  19.577433      29.366178      19.816789      11392.957    
       179   0             -4539.7668      610773.04      652624.33      652618.79      527076         4.7928074e-06  8.1813818e-05  0.00012933292  19.577433      29.366178      19.816789      11392.957    
       180   0             -4539.7668      610773.04      652624.33      652618.78      527076        -2.2221991e-05  7.8062404e-05  0.00013360928  19.577433      29.366178      19.816789      11392.957    
       181   0             -4539.7668      610773.04      652624.33      652618.78      527076         7.2335463e-06  7.2753256e-05  0.00013062347  19.577433      29.366178      19.816789      11392.957    
       182   0             -4539.7668      610773.04      652624.34      652618.78      527076        -1.2857201e-05  5.7264952e-05  0.00010489347  19.577433      29.366178      19.816789      11392.957    
       183   0             -4539.7668      610773.04      652624.34      652618.78      527076         1.2678821e-05  4.6473681e-05  8.4085845e-05  19.577433      29.366178      19.816789      11392.957    
       184   0             -4539.7668      610773.04      652624.34      652618.78      527076         1.1564525e-05  3.8494088e-05  6.8119016e-05  19.577433      29.366178      19.816789      11392.957    
       185   0             -4539.7668      610773.04      652624.34      652618.78      527076        -2.2480171e-05  3.1804356e-05  5.3322959e-05  19.577433      29.366178      19.816789      11392.957    
       186   0             -4539.7668      610773.04      652624.34      652618.78      527076         1.5905106e-05  2.2420573e-05  2.7345024e-05  19.577433      29.366178      19.816789      11392.957    
       187   0             -4539.7668      610773.04      652624.34      652618.78      527076        -1.6599459e-05  1.2687996e-05 -4.5498666e-07  19.577433      29.366178      19.816789      11392.957    
       188   0             -4539.7668      610773.04      652624.34      652618.78      527076        -5.2187775e-06  7.6982413e-07 -2.8277847e-05  19.577433      29.366178      19.816789      11392.957    
       189   0             -4539.7668      610773.04      652624.34      652618.78      527076         4.8930401e-05 -1.6692427e-05 -5.217765e-05   19.577433      29.366178      19.816789      11392.957    
       190   0             -4539.7668      610773.04      652624.34      652618.78      527076        -5.0631884e-05 -3.6709765e-05 -6.8792769e-05  19.577433      29.366178      19.816789      11392.957    
       191   0             -4539.7668      610773.04      652624.34      652618.78      527076         4.8831212e-06 -4.8679156e-05 -7.7447798e-05  19.577433      29.366178      19.816789      11392.957    
       192   0             -4539.7668      610773.04      652624.34      652618.78      527076         3.9742005e-05 -6.1781154e-05 -8.9321799e-05  19.577433      29.366178      19.816789      11392.957    
       193   0             -4539.7668      610773.04      652624.34      652618.78      527076        -7.6788382e-05 -6.8207837e-05 -9.7437578e-05  19.577433      29.366178      19.816789      11392.957    
       194   0             -4539.7668      610773.04      652624.34      652618.78      527076         7.0944167e-05 -6.8396222e-05 -9.8504844e-05  19.577433      29.366178      19.816789      11392.957    
       195   0             -4539.7668      610773.04      652624.34      652618.79      527076         3.369677e-05  -6.4820789e-05 -9.4731894e-05  19.577433      29.366178      19.816789      11392.957    
       196   0             -4539.7668      610773.04      652624.33      652618.78      527076        -0.00011975575 -5.8323909e-05 -8.7539648e-05  19.577433      29.366178      19.816789      11392.957    
       197   0             -4539.7668      610773.04      652624.33      652618.78      527076         0.00013764654 -5.1197628e-05 -7.9977221e-05  19.577433      29.366178      19.816789      11392.957    
       198   0             -4539.7668      610773.04      652624.34      652618.78      527076        -4.2465251e-05 -4.6412621e-05 -7.3621679e-05  19.577433      29.366178      19.816789      11392.957    
       199   0             -4539.7668      610773.04      652624.34      652618.78      527076        -8.4739344e-05 -4.3482399e-05 -6.5967796e-05  19.577433      29.366178      19.816789      11392.957    
       200   0             -4539.7668      610773.04      652624.34      652618.78      527076         0.00022551823 -4.1302515e-05 -5.3331748e-05  19.577433      29.366178      19.816789      11392.957    
Loop time of 0.16257 on 4 procs for 100 steps with 768 atoms

64.9% CPU use with 4 MPI tasks x 1 OpenMP threads

Minimization stats:
  Stopping criterion = max iterations
  Energy initial, next-to-last, final = 
     -4246.88576717279  -4539.76682342368  -4539.76682342368
  Force two-norm initial, final = 105.43499 3.7047359e-06
  Force max component initial, final = 4.4538571 3.132044e-07
  Final line search alpha, max atom move = 1 3.132044e-07
  Iterations, force evaluations = 100 181

MPI task timing breakdown:
Section |  min time  |  avg time  |  max time  |%varavg| %total
---------------------------------------------------------------
Pair    | 0.14984    | 0.15249    | 0.15376    |   0.4 | 93.80
Neigh   | 0          | 0          | 0          |   0.0 |  0.00
Comm    | 0.005559   | 0.0068235  | 0.009462   |   1.9 |  4.20
Output  | 0.001657   | 0.001711   | 0.001835   |   0.2 |  1.05
Modify  | 0          | 0          | 0          |   0.0 |  0.00
Other   |            | 0.001548   |            |       |  0.95

Nlocal:            192 ave         197 max         187 min
Histogram: 1 0 0 0 1 0 1 0 0 1
Nghost:            954 ave         959 max         949 min
Histogram: 1 0 0 0 1 0 1 0 0 1
Neighs:           4296 ave        4417 max        4184 min
Histogram: 1 0 1 0 0 0 1 0 0 1
FullNghs:         8592 ave        8817 max        8366 min
Histogram: 1 0 0 1 0 0 1 0 0 1

Total # of neighbors = 34368
Ave neighs/atom = 44.75
Neighbor list builds = 0
Dangerous builds = 0

# Obtain new stress tensor

variable tmp equal pxx
variable pxx1 equal ${tmp}
variable pxx1 equal 652624.336432987
variable tmp equal pyy
variable pyy1 equal ${tmp}
variable pyy1 equal 652618.78281076
variable tmp equal pzz
variable pzz1 equal ${tmp}
variable pzz1 equal 527076.000693974
variable tmp equal pxy
variable pxy1 equal ${tmp}
variable pxy1 equal 0.000225518227767678
variable tmp equal pxz
variable pxz1 equal ${tmp}
variable pxz1 equal -4.13025146042205e-05
variable tmp equal pyz
variable pyz1 equal ${tmp}
variable pyz1 equal -5.33317475122074e-05

# Compute elastic constant from pressure tensor

variable C1neg equal ${d1}
variable C1neg equal -4630285.6646153
variable C2neg equal ${d2}
variable C2neg equal -4630841.0268306
variable C3neg equal ${d3}
variable C3neg equal 26046069.8064481
variable C4neg equal ${d4}
variable C4neg equal -0.00533316625780072
variable C5neg equal ${d5}
variable C5neg equal -0.00413024356341498
variable C6neg equal ${d6}
variable C6neg equal 0.0225518272732843

# Reset box and simulation parameters

clear
  using 1 OpenMP thread(s) per MPI task
Loaded 1 plugins from C:\Program Files\LAMMPS 64-bit 23Jun2022\plugins
Loaded 0 plugins from C:\Program Files\LAMMPS 64-bit 23Jun2022-MPI\plugins
Loaded 1 plugins from C:\Program Files\LAMMPS 64-bit 22Dec2022-MSMPI\plugins
Loaded 1 plugins from C:\Program Files\LAMMPS 64-bit 28Mar2023-MPI\plugins
box tilt large

The 'box' command has been removed and will be ignored

read_restart restart.equil
Reading restart file ...
  restart file = 22 Dec 2022, LAMMPS = 22 Dec 2022
  restoring atom style atomic from restart
  triclinic box = (-0.09691808 -0.14537712 -0.037158459) to (19.480534 29.220801 19.77963) with tilt (0 0 0)
  1 by 2 by 2 MPI processor grid
  pair style meam stores no restart info
  768 atoms
  read_restart CPU = 0.000 seconds
include potential.mod
# NOTE: This script can be modified for different pair styles
# See in.elastic for more info.

# Choose potential
#-----------------------
#pair_style	sw
#pair_coeff * * Si.sw Si
#-----------------------
#pair_style morse	2.83994742	# D0[eV] a[1/A] r0[A] rc[A], 1NN for BCC
#pair_coeff 1 1	2.1173	1.0202	2.4595	2.6497	#	Fe-Fe
#-----------------------
#pair_style smatb # R0(A)   p       q     A(eV)   xi(eV)  Rcs(A)   Rc(A), 4NN: Rcs=4NN, Rc=(4NN+5NN)/2
#pair_coeff 1 1	2.4802	7.0149	2.3779	0.3144	3.0551	4.033	4.176	#	Co	Co
#-----------------------
#pair_style eam/alloy
#pair_coeff * * AlCrFeCoNi_Zhou04.eam.alloy Fe
#-----------------------
pair_style meam
pair_coeff * * ./../../library.meam Mo Si ./../../MoSi.meam Mo Si
#-----------------------

# Setup neighbor style
neighbor 1.0 nsq
neigh_modify once no every 1 delay 0 check yes

# Setup minimization style
min_style	     cg
min_modify	     dmax ${dmax} line quadratic
min_modify	     dmax 0.01 line quadratic

# Setup output
thermo		1
thermo_style custom step temp pe press pxx pyy pzz pxy pxz pyz lx ly lz vol
thermo_modify norm no

# Positive deformation

variable delta equal ${up}*${len0}
variable delta equal 1e-06*${len0}
variable delta equal 1e-06*19.5774521599999
variable deltaxy equal ${up}*xy
variable deltaxy equal 1e-06*xy
variable deltaxz equal ${up}*xz
variable deltaxz equal 1e-06*xz
variable deltayz equal ${up}*yz
variable deltayz equal 1e-06*yz
if "${dir} == 1" then    "change_box all x delta 0 ${delta} xy delta ${deltaxy} xz delta ${deltaxz} remap units box"
change_box all x delta 0 ${delta} xy delta ${deltaxy} xz delta ${deltaxz} remap units box
change_box all x delta 0 1.95774521599999e-05 xy delta ${deltaxy} xz delta ${deltaxz} remap units box
change_box all x delta 0 1.95774521599999e-05 xy delta 0 xz delta ${deltaxz} remap units box
change_box all x delta 0 1.95774521599999e-05 xy delta 0 xz delta 0 remap units box
Changing box ...
  triclinic box = (-0.09691808 -0.14537712 -0.037158459) to (19.480554 29.220801 19.77963) with tilt (0 0 0)
  triclinic box = (-0.09691808 -0.14537712 -0.037158459) to (19.480554 29.220801 19.77963) with tilt (0 0 0)
  triclinic box = (-0.09691808 -0.14537712 -0.037158459) to (19.480554 29.220801 19.77963) with tilt (0 0 0)
if "${dir} == 2" then    "change_box all y delta 0 ${delta} yz delta ${deltayz} remap units box"
if "${dir} == 3" then    "change_box all z delta 0 ${delta} remap units box"
if "${dir} == 4" then    "change_box all yz delta ${delta} remap units box"
if "${dir} == 5" then    "change_box all xz delta ${delta} remap units box"
if "${dir} == 6" then    "change_box all xy delta ${delta} remap units box"

# Relax atoms positions

minimize ${etol} ${ftol} ${maxiter} ${maxeval}
minimize 0 ${ftol} ${maxiter} ${maxeval}
minimize 0 1e-10 ${maxiter} ${maxeval}
minimize 0 1e-10 100 ${maxeval}
minimize 0 1e-10 100 1000
Neighbor list info ...
  update: every = 1 steps, delay = 0 steps, check = yes
  max neighbors/atom: 2000, page size: 100000
  master list distance cutoff = 5.3
  ghost atom cutoff = 5.3
  2 neighbor lists, perpetual/occasional/extra = 2 0 0
  (1) pair meam, perpetual
      attributes: full, newton on
      pair build: full/nsq
      stencil: none
      bin: none
  (2) pair meam, perpetual, half/full from (1)
      attributes: half, newton on
      pair build: halffull/newton
      stencil: none
      bin: none
Per MPI rank memory allocation (min/avg/max) = 10.04 | 10.04 | 10.04 Mbytes
   Step          Temp          PotEng         Press           Pxx            Pyy            Pzz            Pxy            Pxz            Pyz             Lx             Ly             Lz           Volume    
       100   0             -4246.8957      554818.61      698913.76      698927.53      266614.55      0.22151721     0.54284653     0.46354571     19.577472      29.366178      19.816789      11392.98     
       101   0             -4269.4702      553794.53      669662.59      669672.64      322048.37      0.16130843     0.24146178     0.35887082     19.577472      29.366178      19.816789      11392.98     
       102   0             -4287.0509      553212.83      646068.07      646075.34      367495.07      0.13731901     0.12112031     0.26948393     19.577472      29.366178      19.816789      11392.98     
       103   0             -4300.5933      552801.72      627926.52      627931.9       402546.74      0.12995981     0.083217529    0.19698944     19.577472      29.366178      19.816789      11392.98     
       104   0             -4311.0504      552359.92      614465.38      614469.53      428144.85      0.12736784     0.075279919    0.13980543     19.577472      29.366178      19.816789      11392.98     
       105   0             -4319.2517      551766.26      604707.35      604710.73      445880.72      0.12342114     0.074394798    0.09553517     19.577472      29.366178      19.816789      11392.98     
       106   0             -4325.8347      550978.84      597700.49      597703.39      457532.64      0.11516779     0.071415271    0.061771898    19.577472      29.366178      19.816789      11392.98     
       107   0             -4333.8203      550259.15      598966.12      598904.03      452907.3       1.5832866      0.35651498    -1.2969629      19.577472      29.366178      19.816789      11392.98     
       108   0             -4354.0237      550650.59      603371.42      603315         445265.36      1.4838154      0.25860179    -1.5042786      19.577472      29.366178      19.816789      11392.98     
       109   0             -4388.4321      554116.06      607781.79      607774.81      446791.56      0.63343857     0.16695542    -0.90844951     19.577472      29.366178      19.816789      11392.98     
       110   0             -4427.5602      562153.6       615113.94      615178.73      456168.12     -0.73972722     0.043830585    0.42571376     19.577472      29.366178      19.816789      11392.98     
       111   0             -4459.3481      573714.44      626070.62      626165.2       468907.5      -1.2533811     -0.033025075    1.3277291      19.577472      29.366178      19.816789      11392.98     
       112   0             -4482.9687      588660.6       640454.61      640535.57      484991.61     -0.81817924    -0.02711339     1.3588283      19.577472      29.366178      19.816789      11392.98     
       113   0             -4497.8294      604661.12      655586.29      655631.53      502765.55     -0.13488675     0.022468938    0.74686741     19.577472      29.366178      19.816789      11392.98     
       114   0             -4507.6445      616877.3       665739.77      665754.48      519137.65      0.057752256    0.051573406    0.11873472     19.577472      29.366178      19.816789      11392.98     
       115   0             -4517.3603      617213.99      662977.31      662986.36      525678.3      -0.084420303    0.031686817    0.03615156     19.577472      29.366178      19.816789      11392.98     
       116   0             -4526.2273      615806.58      659530.29      659541.53      528347.9       0.1740116      0.021009398    0.053080723    19.577472      29.366178      19.816789      11392.98     
       117   0             -4533.035       613531.81      656377.78      656387.45      527830.21     -0.30812685     0.013601164    0.013849411    19.577472      29.366178      19.816789      11392.98     
       118   0             -4537.8277      610355.19      652885.94      652896.43      525283.19      0.58320005     0.010037938    0.026557244    19.577472      29.366178      19.816789      11392.98     
       119   0             -4539.7242      609514.85      651906         651914.62      524723.93     -1.1599202      0.0063603877   5.7768014e-05  19.577472      29.366178      19.816789      11392.98     
       120   0             -4539.7582      611128.71      653207.3       653215.87      526962.97      2.7465051      0.002018522    0.0225764      19.577472      29.366178      19.816789      11392.98     
       121   0             -4539.7701      611351.13      653261.99      653271.33      527520.07      0.20117686     0.0067624733   0.021064256    19.577472      29.366178      19.816789      11392.98     
       122   0             -4539.7757      610774.92      652673.37      652682.07      526969.32     -0.28572531     0.0056812839   0.014491859    19.577472      29.366178      19.816789      11392.98     
       123   0             -4539.776       610724.21      652587.08      652594.9       526990.65      0.89910734     0.0054062527   0.0080587869   19.577472      29.366178      19.816789      11392.98     
       124   0             -4539.7761      610741.95      652594.27      652601.93      527029.66     -0.24246473     0.0047708768   0.0079093089   19.577472      29.366178      19.816789      11392.98     
       125   0             -4539.7761      610761.67      652608.23      652615.82      527060.96     -0.14236787     0.0045914506   0.0087382295   19.577472      29.366178      19.816789      11392.98     
       126   0             -4539.7761      610761.74      652607.13      652614.64      527063.46      0.10886415     0.0044782594   0.0089145971   19.577472      29.366178      19.816789      11392.98     
       127   0             -4539.7761      610760.52      652604.64      652611.96      527064.98     -0.041775001    0.0042636147   0.0087312304   19.577472      29.366178      19.816789      11392.98     
       128   0             -4539.7761      610761.61      652605.15      652612.31      527067.36     -0.021364956    0.0041254981   0.0083420036   19.577472      29.366178      19.816789      11392.98     
       129   0             -4539.7761      610762.97      652606.35      652613.39      527069.16      0.019885361    0.0040262189   0.0079486647   19.577472      29.366178      19.816789      11392.98     
       130   0             -4539.7761      610763.07      652606.46      652613.42      527069.34     -0.0038489299   0.0039716453   0.0077546087   19.577472      29.366178      19.816789      11392.98     
       131   0             -4539.7761      610763.05      652606.46      652613.27      527069.4      -0.0024194737   0.003847267    0.0073501512   19.577472      29.366178      19.816789      11392.98     
       132   0             -4539.7761      610763.03      652606.53      652613.04      527069.53      0.0068812406   0.003601035    0.0065877639   19.577472      29.366178      19.816789      11392.98     
       133   0             -4539.7761      610763.14      652606.74      652612.99      527069.68     -0.010824062    0.0033821704   0.0059473872   19.577472      29.366178      19.816789      11392.98     
       134   0             -4539.7761      610763.21      652607.01      652612.88      527069.75      0.0059958288   0.0030284592   0.0049153456   19.577472      29.366178      19.816789      11392.98     
       135   0             -4539.7761      610763.12      652607.17      652612.6       527069.6       0.0061771512   0.0026008184   0.0036561611   19.577472      29.366178      19.816789      11392.98     
       136   0             -4539.7761      610763.06      652607.2       652612.48      527069.49     -0.0055039501   0.0024178894   0.0031366274   19.577472      29.366178      19.816789      11392.98     
       137   0             -4539.7761      610763.07      652607.24      652612.49      527069.5       0.0068826171   0.0023091929   0.0029015871   19.577472      29.366178      19.816789      11392.98     
       138   0             -4539.7761      610763.09      652607.25      652612.51      527069.5      -0.0013242414   0.0021793338   0.0026857506   19.577472      29.366178      19.816789      11392.98     
       139   0             -4539.7761      610763.07      652607.21      652612.52      527069.47     -0.0080146147   0.0018912888   0.0023117877   19.577472      29.366178      19.816789      11392.98     
       140   0             -4539.7761      610763.04      652607.13      652612.54      527069.44      0.0093814      0.0014695767   0.0017968374   19.577472      29.366178      19.816789      11392.98     
       141   0             -4539.7761      610763.07      652607.13      652612.59      527069.48     -0.0071523208   0.0012634354   0.0015526089   19.577472      29.366178      19.816789      11392.98     
       142   0             -4539.7761      610763.09      652607.13      652612.63      527069.51     -0.0008549544   0.0010769811   0.0013503903   19.577472      29.366178      19.816789      11392.98     
       143   0             -4539.7761      610763.08      652607.1       652612.63      527069.51      0.0061888642   0.00090044218  0.0011917459   19.577472      29.366178      19.816789      11392.98     
       144   0             -4539.7761      610763.07      652607.07      652612.63      527069.5      -0.009130866    0.00072175953  0.0010500025   19.577472      29.366178      19.816789      11392.98     
       145   0             -4539.7761      610763.08      652607.06      652612.66      527069.51      0.0046543317   0.00048244499  0.00084374314  19.577472      29.366178      19.816789      11392.98     
       146   0             -4539.7761      610763.09      652607.06      652612.68      527069.52      0.003349059    0.00028491302  0.00063770845  19.577472      29.366178      19.816789      11392.98     
       147   0             -4539.7761      610763.08      652607.05      652612.68      527069.51     -0.0067986165   0.00018014237  0.00048960198  19.577472      29.366178      19.816789      11392.98     
       148   0             -4539.7761      610763.07      652607.04      652612.67      527069.49      0.0035329815   6.8167824e-05  0.00030360683  19.577472      29.366178      19.816789      11392.98     
       149   0             -4539.7761      610763.07      652607.05      652612.67      527069.49     -0.0019304451   9.122561e-07   0.00017810415  19.577472      29.366178      19.816789      11392.98     
       150   0             -4539.7761      610763.08      652607.07      652612.68      527069.5      -0.0034773781  -0.00010069891 -4.0296833e-05  19.577472      29.366178      19.816789      11392.98     
       151   0             -4539.7761      610763.08      652607.08      652612.66      527069.5       0.0044982633  -0.00016479713 -0.00021052841  19.577472      29.366178      19.816789      11392.98     
       152   0             -4539.7761      610763.07      652607.07      652612.64      527069.49     -0.002478169   -0.00021403623 -0.00036293303  19.577472      29.366178      19.816789      11392.98     
       153   0             -4539.7761      610763.08      652607.09      652612.64      527069.51      0.00050113298 -0.00025274666 -0.00047115538  19.577472      29.366178      19.816789      11392.98     
       154   0             -4539.7761      610763.08      652607.1       652612.64      527069.52      0.001399048   -0.00027664621 -0.00051772558  19.577472      29.366178      19.816789      11392.98     
       155   0             -4539.7761      610763.08      652607.1       652612.63      527069.51     -0.0030790863  -0.00029568205 -0.00053092489  19.577472      29.366178      19.816789      11392.98     
       156   0             -4539.7761      610763.07      652607.1       652612.62      527069.5       0.0018863259  -0.00031016141 -0.00054393992  19.577472      29.366178      19.816789      11392.98     
       157   0             -4539.7761      610763.07      652607.1       652612.62      527069.5      -0.00036188404 -0.00031367606 -0.00055677624  19.577472      29.366178      19.816789      11392.98     
       158   0             -4539.7761      610763.08      652607.11      652612.63      527069.5      -0.001392653   -0.00031086911 -0.00055249476  19.577472      29.366178      19.816789      11392.98     
       159   0             -4539.7761      610763.08      652607.1       652612.63      527069.5       0.0021450658  -0.00030077278 -0.00050047529  19.577472      29.366178      19.816789      11392.98     
       160   0             -4539.7761      610763.07      652607.09      652612.63      527069.49     -0.00083733932 -0.0002814165  -0.00039282723  19.577472      29.366178      19.816789      11392.98     
       161   0             -4539.7761      610763.07      652607.09      652612.64      527069.5      -0.00022127178 -0.00026705942 -0.00033417112  19.577472      29.366178      19.816789      11392.98     
       162   0             -4539.7761      610763.08      652607.09      652612.64      527069.51      0.00097333469 -0.00025132861 -0.00030056692  19.577472      29.366178      19.816789      11392.98     
       163   0             -4539.7761      610763.08      652607.09      652612.64      527069.51     -0.00072466142 -0.00022845469 -0.00026421934  19.577472      29.366178      19.816789      11392.98     
       164   0             -4539.7761      610763.08      652607.08      652612.64      527069.5       5.6289617e-05 -0.00018915678 -0.0001969554   19.577472      29.366178      19.816789      11392.98     
       165   0             -4539.7761      610763.08      652607.08      652612.65      527069.5       0.0003435527  -0.00015334826 -0.00013900397  19.577472      29.366178      19.816789      11392.98     
       166   0             -4539.7761      610763.08      652607.08      652612.65      527069.5      -0.00031106373 -0.0001192691  -9.8783848e-05  19.577472      29.366178      19.816789      11392.98     
       167   0             -4539.7761      610763.08      652607.08      652612.65      527069.5       0.00016433909 -7.5865121e-05 -7.3786017e-05  19.577472      29.366178      19.816789      11392.98     
       168   0             -4539.7761      610763.07      652607.08      652612.65      527069.5       8.3026236e-05 -2.415781e-05  -5.1680325e-05  19.577472      29.366178      19.816789      11392.98     
       169   0             -4539.7761      610763.07      652607.08      652612.65      527069.5      -0.00016607155  6.6257698e-06 -2.6903413e-05  19.577472      29.366178      19.816789      11392.98     
       170   0             -4539.7761      610763.08      652607.08      652612.65      527069.5       8.5532357e-05  4.0116159e-05  1.6382335e-05  19.577472      29.366178      19.816789      11392.98     
       171   0             -4539.7761      610763.08      652607.09      652612.64      527069.5      -2.4573223e-05  6.0224513e-05  4.5620094e-05  19.577472      29.366178      19.816789      11392.98     
       172   0             -4539.7761      610763.08      652607.09      652612.64      527069.5      -3.4197074e-05  6.8714033e-05  5.5953744e-05  19.577472      29.366178      19.816789      11392.98     
[...]
       163   0             -4539.7715      610768.06      652615.71      652615.71      527072.76     -4.7491043     -0.00022710153 -0.00025516929  19.577452      29.366178      19.816789      11392.968    
       164   0             -4539.7715      610768.06      652615.71      652615.71      527072.75     -4.7476677     -0.00019059909 -0.00018070562  19.577452      29.366178      19.816789      11392.968    
       165   0             -4539.7715      610768.06      652615.71      652615.71      527072.75     -4.7476417     -0.00015683705 -0.00012058388  19.577452      29.366178      19.816789      11392.968    
       166   0             -4539.7715      610768.06      652615.71      652615.71      527072.75     -4.746689      -0.00012053126 -7.3213544e-05  19.577452      29.366178      19.816789      11392.968    
       167   0             -4539.7715      610768.06      652615.71      652615.71      527072.75     -4.7459298     -7.790614e-05  -4.7440547e-05  19.577452      29.366178      19.816789      11392.968    
       168   0             -4539.7715      610768.06      652615.71      652615.71      527072.75     -4.747717      -2.6702655e-05 -2.9487988e-05  19.577452      29.366178      19.816789      11392.968    
       169   0             -4539.7715      610768.06      652615.71      652615.71      527072.75     -4.7473767      5.995646e-06  -9.7440579e-06  19.577452      29.366178      19.816789      11392.968    
       170   0             -4539.7715      610768.06      652615.71      652615.71      527072.75     -4.7480025      3.9664714e-05  2.6132648e-05  19.577452      29.366178      19.816789      11392.968    
       171   0             -4539.7715      610768.06      652615.71      652615.71      527072.75     -4.749699       5.9153023e-05  4.9533695e-05  19.577452      29.366178      19.816789      11392.968    
       172   0             -4539.7715      610768.06      652615.71      652615.71      527072.75     -4.748126       6.8025476e-05  5.6825154e-05  19.577452      29.366178      19.816789      11392.968    
       173   0             -4539.7715      610768.06      652615.71      652615.71      527072.75     -4.7486925      7.3307162e-05  6.1350113e-05  19.577452      29.366178      19.816789      11392.968    
       174   0             -4539.7715      610768.06      652615.71      652615.71      527072.75     -4.7500389      7.6632469e-05  7.6562294e-05  19.577452      29.366178      19.816789      11392.968    
       175   0             -4539.7715      610768.06      652615.71      652615.71      527072.75     -4.7480155      7.9673029e-05  9.8880625e-05  19.577452      29.366178      19.816789      11392.968    
       176   0             -4539.7715      610768.06      652615.71      652615.71      527072.75     -4.7490666      8.2317638e-05  0.00011491422  19.577452      29.366178      19.816789      11392.968    
       177   0             -4539.7715      610768.06      652615.71      652615.71      527072.75     -4.7484091      8.42998e-05    0.00012132342  19.577452      29.366178      19.816789      11392.968    
       178   0             -4539.7715      610768.06      652615.71      652615.71      527072.75     -4.7461415      8.5139196e-05  0.00011955744  19.577452      29.366178      19.816789      11392.968    
       179   0             -4539.7715      610768.06      652615.71      652615.71      527072.75     -4.7481436      8.3969375e-05  0.00012070864  19.577452      29.366178      19.816789      11392.968    
       180   0             -4539.7715      610768.06      652615.71      652615.71      527072.75     -4.7475172      7.9072283e-05  0.00012785415  19.577452      29.366178      19.816789      11392.968    
       181   0             -4539.7715      610768.06      652615.71      652615.71      527072.75     -4.7472938      7.3255026e-05  0.00012745761  19.577452      29.366178      19.816789      11392.968    
       182   0             -4539.7715      610768.06      652615.71      652615.71      527072.75     -4.7490362      5.9075517e-05  0.00011051435  19.577452      29.366178      19.816789      11392.968    
       183   0             -4539.7715      610768.06      652615.71      652615.71      527072.75     -4.7476748      4.5859113e-05  8.9953472e-05  19.577452      29.366178      19.816789      11392.968    
       184   0             -4539.7715      610768.06      652615.71      652615.71      527072.75     -4.7484251      3.6116636e-05  7.3313168e-05  19.577452      29.366178      19.816789      11392.968    
       185   0             -4539.7715      610768.06      652615.71      652615.71      527072.75     -4.7493121      2.9973558e-05  6.1366177e-05  19.577452      29.366178      19.816789      11392.968    
       186   0             -4539.7715      610768.06      652615.71      652615.71      527072.75     -4.7484951      2.1264741e-05  3.9740457e-05  19.577452      29.366178      19.816789      11392.968    
       187   0             -4539.7715      610768.06      652615.71      652615.71      527072.75     -4.7490352      1.0365459e-05  8.5449501e-06  19.577452      29.366178      19.816789      11392.968    
       188   0             -4539.7715      610768.06      652615.71      652615.71      527072.75     -4.7485966     -1.8938553e-06 -2.1654881e-05  19.577452      29.366178      19.816789      11392.968    
       189   0             -4539.7715      610768.06      652615.71      652615.71      527072.75     -4.7478385     -1.4864736e-05 -4.2903029e-05  19.577452      29.366178      19.816789      11392.968    
       190   0             -4539.7715      610768.06      652615.71      652615.71      527072.75     -4.7481847     -3.4904671e-05 -6.4105536e-05  19.577452      29.366178      19.816789      11392.968    
       191   0             -4539.7715      610768.06      652615.71      652615.71      527072.75     -4.7478879     -4.9500947e-05 -7.6583002e-05  19.577452      29.366178      19.816789      11392.968    
       192   0             -4539.7715      610768.06      652615.71      652615.71      527072.75     -4.7477331     -6.005829e-05  -8.844903e-05   19.577452      29.366178      19.816789      11392.968    
       193   0             -4539.7715      610768.06      652615.71      652615.71      527072.75     -4.7478833     -6.6801313e-05 -9.8867776e-05  19.577452      29.366178      19.816789      11392.968    
       194   0             -4539.7715      610768.06      652615.71      652615.71      527072.75     -4.7476852     -6.7758351e-05 -0.00010343193  19.577452      29.366178      19.816789      11392.968    
       195   0             -4539.7715      610768.06      652615.71      652615.71      527072.75     -4.7479663     -6.3650776e-05 -0.00010037845  19.577452      29.366178      19.816789      11392.968    
       196   0             -4539.7715      610768.06      652615.71      652615.71      527072.75     -4.748246      -5.8710217e-05 -9.5030884e-05  19.577452      29.366178      19.816789      11392.968    
       197   0             -4539.7715      610768.06      652615.71      652615.71      527072.75     -4.7484943     -5.1547316e-05 -8.6617053e-05  19.577452      29.366178      19.816789      11392.968    
       198   0             -4539.7715      610768.06      652615.71      652615.71      527072.75     -4.7487464     -4.6281593e-05 -7.8607682e-05  19.577452      29.366178      19.816789      11392.968    
       199   0             -4539.7715      610768.06      652615.71      652615.71      527072.75     -4.7485536     -4.3806204e-05 -7.070345e-05   19.577452      29.366178      19.816789      11392.968    
       200   0             -4539.7715      610768.06      652615.71      652615.71      527072.75     -4.7484233     -4.2025762e-05 -5.9016564e-05  19.577452      29.366178      19.816789      11392.968    
Loop time of 0.158147 on 4 procs for 100 steps with 768 atoms

64.2% CPU use with 4 MPI tasks x 1 OpenMP threads

Minimization stats:
  Stopping criterion = max iterations
  Energy initial, next-to-last, final = 
     -4246.89073723105  -4539.77146414344  -4539.77146414344
  Force two-norm initial, final = 105.434 3.7735489e-06
  Force max component initial, final = 4.4537566 3.7802429e-07
  Final line search alpha, max atom move = 1 3.7802429e-07
  Iterations, force evaluations = 100 181

MPI task timing breakdown:
Section |  min time  |  avg time  |  max time  |%varavg| %total
---------------------------------------------------------------
Pair    | 0.14671    | 0.14869    | 0.15038    |   0.3 | 94.02
Neigh   | 0          | 0          | 0          |   0.0 |  0.00
Comm    | 0.005051   | 0.0067397  | 0.008719   |   1.6 |  4.26
Output  | 0.001144   | 0.0011913  | 0.001311   |   0.2 |  0.75
Modify  | 0          | 0          | 0          |   0.0 |  0.00
Other   |            | 0.001526   |            |       |  0.97

Nlocal:            192 ave         197 max         187 min
Histogram: 1 0 0 0 1 0 1 0 0 1
Nghost:            954 ave         959 max         949 min
Histogram: 1 0 0 0 1 0 1 0 0 1
Neighs:           4296 ave        4417 max        4184 min
Histogram: 1 0 1 0 0 0 1 0 0 1
FullNghs:         8592 ave        8817 max        8366 min
Histogram: 1 0 0 1 0 0 1 0 0 1

Total # of neighbors = 34368
Ave neighs/atom = 44.75
Neighbor list builds = 0
Dangerous builds = 0

# Obtain new stress tensor

variable tmp equal pe
variable e1 equal ${tmp}
variable e1 equal -4539.77146414344
variable tmp equal press
variable p1 equal ${tmp}
variable p1 equal 610768.05866181
variable tmp equal pxx
variable pxx1 equal ${tmp}
variable pxx1 equal 652615.711936543
variable tmp equal pyy
variable pyy1 equal ${tmp}
variable pyy1 equal 652615.711967467
variable tmp equal pzz
variable pzz1 equal ${tmp}
variable pzz1 equal 527072.752081421
variable tmp equal pxy
variable pxy1 equal ${tmp}
variable pxy1 equal -4.74842331139312
variable tmp equal pxz
variable pxz1 equal ${tmp}
variable pxz1 equal -4.20257622091117e-05
variable tmp equal pyz
variable pyz1 equal ${tmp}
variable pyz1 equal -5.9016563902963e-05

# Compute elastic constant from pressure tensor

variable C1pos equal ${d1}
variable C1pos equal 4631148.1142597
variable C2pos equal ${d2}
variable C2pos equal 4631148.1111599
variable C3pos equal ${d3}
variable C3pos equal -26045744.9451928
variable C4pos equal ${d4}
variable C4pos equal 0.00590164789687628
variable C5pos equal ${d5}
variable C5pos equal 0.0042025683239041
variable C6pos equal ${d6}
variable C6pos equal 474.842331134816

# Combine positive and negative

variable C1${dir} equal 0.5*(${C1neg}+${C1pos})
variable C16 equal 0.5*(${C1neg}+${C1pos})
variable C16 equal 0.5*(-4631148.1165591+${C1pos})
variable C16 equal 0.5*(-4631148.1165591+4631148.1142597)
variable C2${dir} equal 0.5*(${C2neg}+${C2pos})
variable C26 equal 0.5*(${C2neg}+${C2pos})
variable C26 equal 0.5*(-4631148.1073589+${C2pos})
variable C26 equal 0.5*(-4631148.1073589+4631148.1111599)
variable C3${dir} equal 0.5*(${C3neg}+${C3pos})
variable C36 equal 0.5*(${C3neg}+${C3pos})
variable C36 equal 0.5*(26045744.9629553+${C3pos})
variable C36 equal 0.5*(26045744.9629553+-26045744.9451928)
variable C4${dir} equal 0.5*(${C4neg}+${C4pos})
variable C46 equal 0.5*(${C4neg}+${C4pos})
variable C46 equal 0.5*(-0.00594849254625986+${C4pos})
variable C46 equal 0.5*(-0.00594849254625986+0.00590164789687628)
variable C5${dir} equal 0.5*(${C5neg}+${C5pos})
variable C56 equal 0.5*(${C5neg}+${C5pos})
variable C56 equal 0.5*(-0.00424190773458191+${C5pos})
variable C56 equal 0.5*(-0.00424190773458191+0.0042025683239041)
variable C6${dir} equal 0.5*(${C6neg}+${C6pos})
variable C66 equal 0.5*(${C6neg}+${C6pos})
variable C66 equal 0.5*(474.840192686516+${C6pos})
variable C66 equal 0.5*(474.840192686516+474.842331134816)

# Delete dir to make sure it is not reused

variable dir delete

# Output final values

variable C11all equal ${C11}
variable C11all equal 862.463222100399
variable C22all equal ${C22}
variable C22all equal 862.460595749784
variable C33all equal ${C33}
variable C33all equal 775.983156399801

variable C12all equal 0.5*(${C12}+${C21})
variable C12all equal 0.5*(307.118616050109+${C21})
variable C12all equal 0.5*(307.118616050109+307.120720300358)
variable C13all equal 0.5*(${C13}+${C31})
variable C13all equal 0.5*(337.459613400046+${C31})
variable C13all equal 0.5*(337.459613400046+324.907931098714)
variable C23all equal 0.5*(${C23}+${C32})
variable C23all equal 0.5*(337.459560249932+${C32})
variable C23all equal 0.5*(337.459560249932+324.900999700651)

variable C44all equal ${C44}
variable C44all equal 97.8801426937631
variable C55all equal ${C55}
variable C55all equal 97.8801056103297
variable C66all equal ${C66}
variable C66all equal 474.841261910666

variable C14all equal 0.5*(${C14}+${C41})
variable C14all equal 0.5*(-0.000192954670637846+${C41})
variable C14all equal 0.5*(-0.000192954670637846+-9.10420159831032e-06)
variable C15all equal 0.5*(${C15}+${C51})
variable C15all equal 0.5*(5.4794829338789e-05+${C51})
variable C15all equal 0.5*(5.4794829338789e-05+-5.56012662462002e-06)
variable C16all equal 0.5*(${C16}+${C61})
variable C16all equal 0.5*(-0.00114970002323389+${C61})
variable C16all equal 0.5*(-0.00114970002323389+0.0017324768725661)

variable C24all equal 0.5*(${C24}+${C42})
variable C24all equal 0.5*(0.000147150363773108+${C42})
variable C24all equal 0.5*(0.000147150363773108+2.74279785903446e-05)
variable C25all equal 0.5*(${C25}+${C52})
variable C25all equal 0.5*(-8.66502523422241e-05+${C52})
variable C25all equal 0.5*(-8.66502523422241e-05+1.528615156443e-05)
variable C26all equal 0.5*(${C26}+${C62})
variable C26all equal 0.5*(0.00190050015226007+${C62})
variable C26all equal 0.5*(0.00190050015226007+-0.0029670871648103)

variable C34all equal 0.5*(${C34}+${C43})
variable C34all equal 0.5*(5.31990081071854e-05+${C43})
variable C34all equal 0.5*(5.31990081071854e-05+-3.23733690518009e-06)
variable C35all equal 0.5*(${C35}+${C53})
variable C35all equal 0.5*(6.6099688410759e-05+${C53})
variable C35all equal 0.5*(6.6099688410759e-05+-3.43309652310522e-06)
variable C36all equal 0.5*(${C36}+${C63})
variable C36all equal 0.5*(0.00888125039637089+${C63})
variable C36all equal 0.5*(0.00888125039637089+-0.000140447923113795)

variable C45all equal 0.5*(${C45}+${C54})
variable C45all equal 0.5*(8.33936437131199e-05+${C54})
variable C45all equal 0.5*(8.33936437131199e-05+7.57029611734151e-05)
variable C46all equal 0.5*(${C46}+${C64})
variable C46all equal 0.5*(-2.34223246917899e-05+${C64})
variable C46all equal 0.5*(-2.34223246917899e-05+-1.86741828348503e-05)
variable C56all equal 0.5*(${C56}+${C65})
variable C56all equal 0.5*(-1.96697053389048e-05+${C65})
variable C56all equal 0.5*(-1.96697053389048e-05+-2.14165832567994e-05)

# Average moduli for cubic crystals

variable C11cubic equal (${C11all}+${C22all}+${C33all})/3.0
variable C11cubic equal (862.463222100399+${C22all}+${C33all})/3.0
variable C11cubic equal (862.463222100399+862.460595749784+${C33all})/3.0
variable C11cubic equal (862.463222100399+862.460595749784+775.983156399801)/3.0
variable C12cubic equal (${C12all}+${C13all}+${C23all})/3.0
variable C12cubic equal (307.119668175234+${C13all}+${C23all})/3.0
variable C12cubic equal (307.119668175234+331.18377224938+${C23all})/3.0
variable C12cubic equal (307.119668175234+331.18377224938+331.180279975292)/3.0
variable C44cubic equal (${C44all}+${C55all}+${C66all})/3.0
variable C44cubic equal (97.8801426937631+${C55all}+${C66all})/3.0
variable C44cubic equal (97.8801426937631+97.8801056103297+${C66all})/3.0
variable C44cubic equal (97.8801426937631+97.8801056103297+474.841261910666)/3.0

variable bulkmodulus equal (${C11cubic}+2*${C12cubic})/3.0
variable bulkmodulus equal (833.635658083328+2*${C12cubic})/3.0
variable bulkmodulus equal (833.635658083328+2*323.161240133302)/3.0
variable shearmodulus1 equal ${C44cubic}
variable shearmodulus1 equal 223.533836738253
variable shearmodulus2 equal (${C11cubic}-${C12cubic})/2.0
variable shearmodulus2 equal (833.635658083328-${C12cubic})/2.0
variable shearmodulus2 equal (833.635658083328-323.161240133302)/2.0
variable poissonratio equal 1.0/(1.0+${C11cubic}/${C12cubic})
variable poissonratio equal 1.0/(1.0+833.635658083328/${C12cubic})
variable poissonratio equal 1.0/(1.0+833.635658083328/323.161240133302)

# For Stillinger-Weber silicon, the analytical results
# are known to be (E. R. Cowley, 1988):
#               C11 = 151.4 GPa
#               C12 = 76.4 GPa
#               C44 = 56.4 GPa

print "========================================="
=========================================
print "Components of the Elastic Constant Tensor"
Components of the Elastic Constant Tensor
print "========================================="
=========================================

print "Elastic Constant C11all = ${C11all} ${cunits}"
Elastic Constant C11all = 862.463222100399 GPa
print "Elastic Constant C22all = ${C22all} ${cunits}"
Elastic Constant C22all = 862.460595749784 GPa
print "Elastic Constant C33all = ${C33all} ${cunits}"
Elastic Constant C33all = 775.983156399801 GPa

print "Elastic Constant C12all = ${C12all} ${cunits}"
Elastic Constant C12all = 307.119668175234 GPa
print "Elastic Constant C13all = ${C13all} ${cunits}"
Elastic Constant C13all = 331.18377224938 GPa
print "Elastic Constant C23all = ${C23all} ${cunits}"
Elastic Constant C23all = 331.180279975292 GPa

print "Elastic Constant C44all = ${C44all} ${cunits}"
Elastic Constant C44all = 97.8801426937631 GPa
print "Elastic Constant C55all = ${C55all} ${cunits}"
Elastic Constant C55all = 97.8801056103297 GPa
print "Elastic Constant C66all = ${C66all} ${cunits}"
Elastic Constant C66all = 474.841261910666 GPa

print "Elastic Constant C14all = ${C14all} ${cunits}"
Elastic Constant C14all = -0.000101029436118078 GPa
print "Elastic Constant C15all = ${C15all} ${cunits}"
Elastic Constant C15all = 2.46173513570845e-05 GPa
print "Elastic Constant C16all = ${C16all} ${cunits}"
Elastic Constant C16all = 0.000291388424666105 GPa

print "Elastic Constant C24all = ${C24all} ${cunits}"
Elastic Constant C24all = 8.72891711817263e-05 GPa
print "Elastic Constant C25all = ${C25all} ${cunits}"
Elastic Constant C25all = -3.5682050388897e-05 GPa
print "Elastic Constant C26all = ${C26all} ${cunits}"
Elastic Constant C26all = -0.000533293506275115 GPa

print "Elastic Constant C34all = ${C34all} ${cunits}"
Elastic Constant C34all = 2.49808356010027e-05 GPa
print "Elastic Constant C35all = ${C35all} ${cunits}"
Elastic Constant C35all = 3.13332959438269e-05 GPa
print "Elastic Constant C36all = ${C36all} ${cunits}"
Elastic Constant C36all = 0.00437040123662855 GPa

print "Elastic Constant C45all = ${C45all} ${cunits}"
Elastic Constant C45all = 7.95483024432675e-05 GPa
print "Elastic Constant C46all = ${C46all} ${cunits}"
Elastic Constant C46all = -2.10482537633201e-05 GPa
print "Elastic Constant C56all = ${C56all} ${cunits}"
Elastic Constant C56all = -2.05431442978521e-05 GPa

print "========================================="
=========================================
print "Average properties for a cubic crystal"
Average properties for a cubic crystal
print "========================================="
=========================================

print "Bulk Modulus = ${bulkmodulus} ${cunits}"
Bulk Modulus = 493.319379449977 GPa
print "Shear Modulus 1 = ${shearmodulus1} ${cunits}"
Shear Modulus 1 = 223.533836738253 GPa
print "Shear Modulus 2 = ${shearmodulus2} ${cunits}"
Shear Modulus 2 = 255.237208975013 GPa
print "Poisson Ratio = ${poissonratio}"
Poisson Ratio = 0.279358667568613
Total wall time: 0:00:02
