LAMMPS (22 Dec 2022)
  using 1 OpenMP thread(s) per MPI task
Loaded 1 plugins from C:\Program Files\LAMMPS 64-bit 23Jun2022\plugins
Loaded 0 plugins from C:\Program Files\LAMMPS 64-bit 23Jun2022-MPI\plugins
Loaded 1 plugins from C:\Program Files\LAMMPS 64-bit 22Dec2022-MSMPI\plugins
Loaded 1 plugins from C:\Program Files\LAMMPS 64-bit 28Mar2023-MPI\plugins
# Compute elastic constant tensor for a crystal
#
# Written by Aidan Thompson (Sandia, athomps@sandia.gov)
#
#  This script uses the following three include files.
#
#   init.mod      (must be modified for different crystal structures)
# 	       	  Define units, deformation parameters and initial
#		  configuration of the atoms and simulation cell.
#
#
#   potential.mod    (must be modified for different pair styles)
# 		     Define pair style and other attributes
#		     not stored in restart file
#
#
#   displace.mod    (displace.mod should not need to be modified)
# 		    Perform positive and negative box displacements
# 		    in direction ${dir} and size ${up}.
# 		    It uses the resultant changes
#		    in stress to compute one
# 		    row of the elastic stiffness tensor
#
#		    Inputs variables:
#		    	   dir = the Voigt deformation component
#		    		    (1,2,3,4,5,6)
#		    Global constants:
#       	    	   up = the deformation magnitude (strain units)
#       		   cfac = conversion from LAMMPS pressure units to
#               	   output units for elastic constants
#
#
#  To run this on a different system, it should only be necessary to
#  modify the files init.mod and potential.mod. In order to calculate
#  the elastic constants correctly, care must be taken to specify
#  the correct units in init.mod (units, cfac and cunits). It is also
#  important to verify that the minimization of energy w.r.t atom
#  positions in the deformed cell is fully converged.
#  One indication of this is that the elastic constants are insensitive
#  to the choice of the variable ${up} in init.mod. Another is to check
#  the final max and two-norm forces reported in the log file. If you know
#  that minimization is not required, you can set maxiter = 0.0 in
#  init.mod.
#

include init.mod
# NOTE: This script can be modified for different atomic structures,
# units, etc. See in.elastic for more info.
#

# Define the finite deformation size. Try several values of this
# variable to verify that results do not depend on it.
variable up equal 1.0e-6

# Define the amount of random jiggle for atoms
# This prevents atoms from staying on saddle points
variable atomjiggle equal 1.0e-5

# Uncomment one of these blocks, depending on what units
# you are using in LAMMPS and for output

# metal units, elastic constants in eV/A^3
#units		metal
#variable cfac equal 6.2414e-7
#variable cunits string eV/A^3

# metal units, elastic constants in GPa
units		metal
variable cfac equal 1.0e-4
variable cunits string GPa

# real units, elastic constants in GPa
#units		real
#variable cfac equal 1.01325e-4
#variable cunits string GPa

# Define minimization parameters
variable etol equal 0.0
variable ftol equal 1.0e-10
variable maxiter equal 10000
variable maxeval equal 1000000
variable dmax equal 1.0e-2

# generate the box and atom positions using a diamond lattice

dimension    3
boundary     p p p
read_data    data.in
Reading data file ...
  orthogonal box = (-0.15529088 -0.15529088 -0.37945583) to (3.3756669 3.3756669 8.2484978)
  1 by 1 by 4 MPI processor grid
  reading atoms ...
  6 atoms
  reading velocities ...
  6 velocities
  read_data CPU = 0.001 seconds
#replicate    2 3 4
replicate    2 3 4
Replication is creating a 2x3x4 = 24 times larger system...
  orthogonal box = (-0.15529088 -0.15529088 -0.37945583) to (6.9066246 10.437582 34.132359)
  1 by 1 by 4 MPI processor grid
  144 atoms
  replicate CPU = 0.000 seconds
change_box   all triclinic
Changing box ...
  triclinic box = (-0.15529088 -0.15529088 -0.37945583) to (6.9066246 10.437582 34.132359) with tilt (0 0 0)

# Need to set mass to something, just to satisfy LAMMPS
mass 1 1.0e-20

include potential.mod
# NOTE: This script can be modified for different pair styles
# See in.elastic for more info.

# Choose potential
#-----------------------
#pair_style	sw
#pair_coeff * * Si.sw Si
#-----------------------
#pair_style morse	2.83994742	# D0[eV] a[1/A] r0[A] rc[A], 1NN for BCC
#pair_coeff 1 1	2.1173	1.0202	2.4595	2.6497	#	Fe-Fe
#-----------------------
#pair_style smatb # R0(A)   p       q     A(eV)   xi(eV)  Rcs(A)   Rc(A), 4NN: Rcs=4NN, Rc=(4NN+5NN)/2
#pair_coeff 1 1	2.4802	7.0149	2.3779	0.3144	3.0551	4.033	4.176	#	Co	Co
#-----------------------
#pair_style eam/alloy
#pair_coeff * * AlCrFeCoNi_Zhou04.eam.alloy Fe
#-----------------------
pair_style meam
pair_coeff * * ./../../library.meam Mo Si ./../../MoSi.meam Mo Si
#-----------------------

# Setup neighbor style
neighbor 1.0 nsq
neigh_modify once no every 1 delay 0 check yes

# Setup minimization style
min_style	     cg
min_modify	     dmax ${dmax} line quadratic
min_modify	     dmax 0.01 line quadratic

# Setup output
thermo		1
thermo_style custom step temp pe press pxx pyy pzz pxy pxz pyz lx ly lz vol
thermo_modify norm no

# Compute initial state
fix 3 all box/relax  aniso 0.0
minimize ${etol} ${ftol} ${maxiter} ${maxeval}
minimize 0 ${ftol} ${maxiter} ${maxeval}
minimize 0 1e-10 ${maxiter} ${maxeval}
minimize 0 1e-10 10000 ${maxeval}
minimize 0 1e-10 10000 1000000
Neighbor list info ...
  update: every = 1 steps, delay = 0 steps, check = yes
  max neighbors/atom: 2000, page size: 100000
  master list distance cutoff = 5.3
  ghost atom cutoff = 5.3
  2 neighbor lists, perpetual/occasional/extra = 2 0 0
  (1) pair meam, perpetual
      attributes: full, newton on
      pair build: full/nsq
      stencil: none
      bin: none
  (2) pair meam, perpetual, half/full from (1)
      attributes: half, newton on
      pair build: halffull/newton
      stencil: none
      bin: none
Per MPI rank memory allocation (min/avg/max) = 9.808 | 9.808 | 9.808 Mbytes
   Step          Temp          PotEng         Press           Pxx            Pyy            Pzz            Pxy            Pxz            Pyz             Lx             Ly             Lz           Volume    
         0   0             -829.50641      1.0318399e-09  28245.131      28245.131     -56490.263      1.2539721e-11 -9.3703412e-12 -1.795695e-11   7.0619155      10.592873      34.511815      2581.69      
         1   0             -829.52004      57.632655      28198.63       28198.63      -56224.361      2.8524421e-11  2.6733032e-11 -1.6527284e-11  7.0622686      10.593403      34.508363      2581.69      
         2   0             -829.53363      114.82544      28151.523      28151.523     -55958.569      8.2679459e-13 -2.7835418e-11  2.7198097e-11  7.0626227      10.593934      34.504912      2581.6907    
         3   0             -829.54719      171.57768      28103.811      28103.811     -55692.888     -6.2009561e-12 -3.4725354e-11  2.1556935e-11  7.0629779      10.594467      34.501461      2581.6921    
         4   0             -829.56071      227.88872      28055.492      28055.492     -55427.318      4.4095651e-12 -3.8583695e-12 -4.1055463e-11  7.0633341      10.595001      34.49801       2581.6942    
         5   0             -829.57419      283.75789      28006.566      28006.566     -55161.859      1.3917675e-11  7.4411329e-12 -4.6636267e-11  7.0636913      10.595537      34.494559      2581.6971    
         6   0             -829.58764      339.18453      27957.033      27957.033     -54896.512      4.1890764e-11  4.2717556e-11 -5.9046686e-11  7.0640496      10.596074      34.491108      2581.7006    
         7   0             -829.60105      394.16796      27906.891      27906.891     -54631.277     -1.4606624e-11  1.074827e-11  -1.4038206e-12  7.0644089      10.596613      34.487656      2581.7049    
         8   0             -829.61442      448.70752      27856.139      27856.139     -54366.156      8.6812784e-12 -6.8899035e-12 -3.9987277e-11  7.0647693      10.597154      34.484205      2581.7099    
         9   0             -829.62775      502.80253      27804.778      27804.778     -54101.149     -3.8032183e-11  1.9291687e-11 -9.6122552e-11  7.0651307      10.597696      34.480754      2581.7157    
        10   0             -829.64105      556.45232      27752.806      27752.806     -53836.255     -4.8780286e-11 -1.2952957e-11 -3.46905e-11    7.0654931      10.59824       34.477303      2581.7222    
        11   0             -829.65431      609.65622      27700.223      27700.223     -53571.477      7.5788369e-12  2.9764159e-11 -2.9333544e-11  7.0658566      10.598785      34.473852      2581.7293    
        12   0             -829.66753      662.41371      27647.028      27647.028     -53306.814      2.8937288e-12 -2.8386102e-11 -7.0500192e-11  7.0662212      10.599332      34.4704        2581.7373    
        13   0             -829.68072      714.72486      27593.219      27593.219     -53042.264      3.1968707e-11  4.2441214e-11  1.6216884e-11  7.0665868      10.59988       34.466949      2581.7459    
        14   0             -829.69386      766.58917      27538.797      27538.797     -52777.827     -8.267739e-13   1.1299243e-11 -2.7963905e-11  7.0669534      10.60043       34.463498      2581.7553    
        15   0             -829.70697      818.00595      27483.761      27483.761     -52513.505      9.0944773e-12  1.5708643e-11 -3.3268907e-11  7.0673211      10.600982      34.460047      2581.7654    
        16   0             -829.72004      868.97451      27428.11       27428.11      -52249.296     -5.0019415e-11  2.8661263e-11 -2.6069003e-11  7.0676899      10.601535      34.456596      2581.7762    
        17   0             -829.73307      919.49415      27371.843      27371.843     -51985.203      2.4389523e-11  4.4094053e-12  4.8141749e-12  7.0680597      10.60209       34.453145      2581.7878    
        18   0             -829.74607      969.56418      27314.959      27314.959     -51721.226     -4.4093842e-12 -3.2243622e-11 -7.3555763e-11  7.0684306      10.602646      34.449693      2581.8001    
        19   0             -829.75903      1019.1839      27257.458      27257.458     -51457.365      7.4407983e-12 -5.5117025e-13  1.675902e-11   7.0688025      10.603204      34.446242      2581.8132    
        20   0             -829.77194      1068.3526      27199.339      27199.339     -51193.621      4.2715466e-12 -3.775496e-11  -2.8247324e-11  7.0691755      10.603763      34.442791      2581.8269    
        21   0             -829.78482      1117.0695      27140.601      27140.601     -50929.994     -6.2005973e-12  7.1651347e-12  2.1073419e-11  7.0695496      10.604324      34.43934       2581.8415    
        22   0             -829.79766      1165.3341      27081.244      27081.244     -50666.486      1.5983668e-11  2.4251082e-11 -1.5570297e-11  7.0699247      10.604887      34.435889      2581.8567    
        23   0             -829.81046      1213.1455      27021.266      27021.266     -50403.096     -2.6179983e-11  6.6138904e-12  1.8463777e-11  7.0703009      10.605451      34.432437      2581.8727    
        24   0             -829.82322      1260.503       26960.668      26960.668     -50139.826     -1.6259042e-11  2.3975197e-11  3.8770237e-11  7.0706782      10.606017      34.428986      2581.8894    
        25   0             -829.83595      1307.4059      26899.447      26899.447     -49876.676      3.0175475e-11 -2.5628486e-11  8.7632887e-11  7.0710566      10.606585      34.425535      2581.9069    
        26   0             -829.84863      1353.8534      26837.603      26837.603     -49613.646      1.5156524e-12  4.7949732e-11 -1.2176889e-11  7.071436       10.607154      34.422084      2581.9251    
        27   0             -829.86127      1399.8449      26775.136      26775.136     -49350.738     -2.1494549e-11  2.0943407e-11  1.55181e-11    7.0718165      10.607725      34.418633      2581.9441    
        28   0             -829.87388      1445.3796      26712.045      26712.045     -49087.952      2.0805463e-11 -1.1022762e-12 -2.3509484e-12  7.072198       10.608297      34.415182      2581.9638    
        29   0             -829.88644      1490.4573      26648.329      26648.329     -48825.286     -6.5171562e-11 -2.0391948e-11 -5.9419104e-11  7.0725807      10.608871      34.41173       2581.9843    
        30   0             -829.89897      1535.0779      26583.987      26583.987     -48562.741     -1.3227101e-11  2.9760976e-11 -9.9203254e-12  7.0729644      10.609447      34.408279      2582.0055    
        31   0             -829.91145      1579.2406      26519.019      26519.019     -48300.316     -6.7512752e-12 -2.2320542e-11 -2.1958867e-12  7.0733492      10.610024      34.404828      2582.0274    
        32   0             -829.9239       1622.9446      26453.423      26453.423     -48038.012      2.1631446e-11  2.7555983e-13 -1.6878039e-12  7.0737352      10.610603      34.401377      2582.0502    
        33   0             -829.9363       1666.1894      26387.199      26387.199     -47775.83      -1.9151234e-11  7.1644904e-12 -5.4594795e-12  7.0741221      10.611183      34.397926      2582.0736    
        34   0             -829.94867      1708.974       26320.346      26320.346     -47513.77      -6.6133137e-12  4.1333211e-12 -2.3301598e-11  7.0745102      10.611765      34.394475      2582.0978    
        35   0             -829.96099      1751.2978      26252.864      26252.864     -47251.834      2.8932968e-11  1.1297635e-11  3.5632328e-11  7.0748994      10.612349      34.391023      2582.1228    
        36   0             -829.97327      1793.16        26184.75       26184.75      -46990.021     -2.7830482e-11  1.4328565e-11  2.1527291e-13  7.0752897      10.612934      34.387572      2582.1485    
        37   0             -829.98552      1834.5598      26116.006      26116.006     -46728.332     -2.16304e-11   -1.102186e-11  -4.2546102e-11  7.075681       10.613522      34.384121      2582.175     
        38   0             -829.99772      1875.4965      26046.629      26046.629     -46466.769     -3.9678277e-11  6.6130462e-12  3.1833896e-11  7.0760735      10.61411       34.38067       2582.2023    
        39   0             -830.00988      1915.9693      25976.619      25976.619     -46205.331      1.2674868e-11  1.0746084e-11 -1.0238056e-11  7.076467       10.614701      34.377219      2582.2303    
        40   0             -830.022        1955.9775      25905.976      25905.976     -45944.02      -3.7748642e-11  7.4395134e-12 -1.0935396e-12  7.0768617      10.615293      34.373767      2582.2591    
        41   0             -830.03407      1995.5203      25834.698      25834.698     -45682.835      3.7748211e-11  4.4085501e-12  1.8297205e-11  7.0772575      10.615886      34.370316      2582.2886    
        42   0             -830.04611      2034.5969      25762.785      25762.785     -45421.779      2.865524e-11   2.8930771e-11 -1.6678245e-11  7.0776543      10.616481      34.366865      2582.3189    
        43   0             -830.0581       2073.2065      25690.235      25690.235     -45160.851     -8.8168908e-12 -1.5705087e-11 -4.9388365e-11  7.0780523      10.617078      34.363414      2582.35      
        44   0             -830.07006      2111.3485      25617.048      25617.048     -44900.051      6.6539152e-11 -2.6174822e-11 -1.5722113e-11  7.0784514      10.617677      34.359963      2582.3818    
        45   0             -830.08197      2149.0221      25543.224      25543.224     -44639.381      8.1278684e-11  7.163545e-12  -2.9454913e-11  7.0788516      10.618277      34.356512      2582.4144    
        46   0             -830.09383      2186.2273      25468.761      25468.761     -44378.84      -2.4796566e-12 -9.9186264e-12 -6.251662e-11   7.0792529      10.618879      34.35306       2582.4478    
        47   0             -830.10566      2222.9635      25393.658      25393.658     -44118.425      3.9536224e-11  2.1765587e-11 -4.1017111e-11  7.0796553      10.619483      34.349609      2582.4819    
        48   0             -830.11744      2259.23        25317.915      25317.915     -43858.14      -1.3775502e-11 -7.7142809e-12 -2.3616376e-11  7.0800589      10.620088      34.346158      2582.5168    
        49   0             -830.12918      2295.0258      25241.53       25241.53      -43597.983      3.4162772e-11 -2.4520054e-11 -1.0340093e-11  7.0804635      10.620695      34.342707      2582.5525    
        50   0             -830.14088      2330.3503      25164.504      25164.504     -43337.957     -4.4493627e-11  3.306028e-12  -4.1265084e-11  7.0808693      10.621304      34.339256      2582.589     
        51   0             -830.15254      2365.2026      25086.834      25086.834     -43078.061      1.1570931e-11  2.7825335e-11 -7.1199108e-12  7.0812762      10.621914      34.335804      2582.6262    
        52   0             -830.16415      2399.5819      25008.521      25008.521     -42818.296      6.4603415e-11  2.4794487e-12  3.0614305e-11  7.0816843      10.622526      34.332353      2582.6643    
        53   0             -830.17572      2433.4873      24929.563      24929.563     -42558.663      4.1323525e-11  3.4711761e-11  3.0424445e-11  7.0820934      10.62314       34.328902      2582.7031    
        54   0             -830.18724      2466.918       24849.959      24849.959     -42299.164     -1.0743952e-11  1.7080128e-11 -6.5427911e-12  7.0825037      10.623756      34.325451      2582.7427    
        55   0             -830.19872      2499.8733      24769.709      24769.709     -42039.797     -3.8980652e-11  3.2231351e-11 -1.2663546e-11  7.0829152      10.624373      34.322         2582.783     
        56   0             -830.21016      2532.3521      24688.811      24688.811     -41780.565     -1.2396476e-12 -1.7355067e-11 -3.5872303e-11  7.0833277      10.624992      34.318549      2582.8242    
        57   0             -830.22156      2564.3538      24607.265      24607.265     -41521.468      1.1983066e-11  1.4324584e-11  2.8494215e-12  7.0837415      10.625612      34.315097      2582.8661    
        58   0             -830.23291      2595.8774      24525.07       24525.07      -41262.507      2.851096e-11  -6.6112372e-12  1.4608424e-11  7.0841563      10.626234      34.311646      2582.9089    
        59   0             -830.24421      2626.9221      24442.225      24442.225     -41003.683      2.1761622e-11 -2.3689867e-11  2.2105952e-11  7.0845723      10.626858      34.308195      2582.9524    
        60   0             -830.25547      2657.4872      24358.728      24358.728     -40744.995      1.7216178e-11 -2.3414002e-11 -5.5926754e-11  7.0849894      10.627484      34.304744      2582.9967    
        61   0             -830.26669      2687.5717      24274.58       24274.58      -40486.446     -7.437259e-12   2.7545404e-13 -4.4589122e-11  7.0854077      10.628112      34.301293      2583.0418    
        62   0             -830.27786      2717.1751      24189.78       24189.78      -40228.034      1.1017966e-12  9.9161691e-12  6.627995e-13   7.0858272      10.628741      34.297841      2583.0877    
        63   0             -830.28899      2746.2973      24104.325      24104.325     -39969.758     -1.1568655e-11 -1.1017766e-11  3.6875087e-11  7.0862477      10.629372      34.29439       2583.1344    
        64   0             -830.30007      2774.9374      24018.216      24018.216     -39711.62      -3.6357961e-11 -3.2777252e-11  4.3846461e-11  7.0866695      10.630004      34.290939      2583.1819    
        65   0             -830.31111      2803.0946      23931.451      23931.451     -39453.619      5.233245e-11   1.2119094e-11  2.4117685e-11  7.0870924      10.630639      34.287488      2583.2302    
        66   0             -830.3221       2830.768       23844.03       23844.03      -39195.757     -2.2860583e-11 -1.1568006e-11 -4.5428523e-11  7.0875164      10.631275      34.284037      2583.2793    
        67   0             -830.33304      2857.9566      23755.952      23755.952     -38938.034      1.5010575e-11 -2.5338952e-11 -1.699018e-11   7.0879417      10.631913      34.280586      2583.3292    
        68   0             -830.34394      2884.6595      23667.215      23667.215     -38680.451     -6.1969046e-12 -2.4787618e-12 -3.9892573e-11  7.0883681      10.632552      34.277134      2583.38      
        69   0             -830.3548       2910.8759      23577.818      23577.818     -38423.009      1.6662456e-11 -3.0295374e-12 -4.2206964e-11  7.0887956      10.633193      34.273683      2583.4315    
        70   0             -830.36561      2936.6048      23487.761      23487.761     -38165.709     -4.4065106e-12 -4.9573244e-12  2.0070279e-11  7.0892243      10.633837      34.270232      2583.4838    
        71   0             -830.37637      2961.8452      23397.043      23397.043     -37908.551      4.9572225e-12  2.2582902e-11 -2.1687848e-11  7.0896542      10.634481      34.266781      2583.5369    
        72   0             -830.38708      2986.5963      23305.663      23305.663     -37651.537     -6.3203267e-11  1.0740424e-11 -1.7367129e-11  7.0900853      10.635128      34.26333       2583.5909    
        73   0             -830.39775      3010.8571      23213.619      23213.619     -37394.667     -5.3150204e-11  2.1205004e-11 -3.5155211e-11  7.0905176      10.635776      34.259878      2583.6456    
        74   0             -830.40837      3034.6267      23120.911      23120.911     -37137.942      6.1548265e-11  9.9138145e-12  1.9354313e-11  7.090951       10.636426      34.256427      2583.7012    
        75   0             -830.41895      3057.904       23027.538      23027.538     -36881.364      1.9001063e-11 -2.4783995e-12  1.6514058e-11  7.0913856      10.637078      34.252976      2583.7576    
        76   0             -830.42947      3080.6883      22933.498      22933.498     -36624.932     -1.9551385e-11 -2.7537163e-13  4.8017927e-12  7.0918214      10.637732      34.249525      2583.8148    
        77   0             -830.43995      3102.9786      22838.791      22838.791     -36368.647     -1.9826312e-11 -7.9855978e-12 -4.0100092e-11  7.0922584      10.638388      34.246074      2583.8729    
        78   0             -830.45039      3124.774       22743.416      22743.416     -36112.51      -6.4709405e-12 -1.0188289e-11  1.2898856e-11  7.0926966      10.639045      34.242623      2583.9317    
        79   0             -830.46077      3146.074       22647.372      22647.372     -35856.521      5.5621267e-11  3.331769e-11  -4.2860386e-11  7.0931359      10.639704      34.239171      2583.9914    
        80   0             -830.47111      3166.8782      22550.657      22550.657     -35600.679     -3.7034085e-11  3.854849e-11  -8.953059e-11   7.0935765      10.640365      34.23572       2584.0519    
        81   0             -830.48139      3187.1856      22453.27       22453.27      -35344.984     -7.5167772e-11  2.0375147e-11 -5.1798304e-11  7.0940183      10.641027      34.232269      2584.1133    
        82   0             -830.49163      3206.9951      22355.212      22355.212     -35089.438      4.818331e-11   1.7070658e-11 -1.9626095e-11  7.0944612      10.641692      34.228818      2584.1755    
        83   0             -830.50182      3226.3057      22256.479      22256.479     -34834.041     -1.9135191e-11 -3.5792443e-12 -2.8771618e-11  7.0949054      10.642358      34.225367      2584.2385    
        84   0             -830.51197      3245.1164      22157.072      22157.072     -34578.795     -5.9744372e-11 -1.2114066e-11  3.1317614e-11  7.0953508      10.643026      34.221915      2584.3023    
        85   0             -830.52206      3263.4263      22056.989      22056.989     -34323.7       -3.4414099e-11 -3.6341289e-11  3.0379046e-11  7.0957974      10.643696      34.218464      2584.367     
        86   0             -830.5321       3281.2341      21956.23       21956.23      -34068.758     -9.9110094e-12  2.9182416e-11 -4.2870277e-11  7.0962452      10.644368      34.215013      2584.4325    
        87   0             -830.5421       3298.539       21854.793      21854.793     -33813.968      9.7731055e-12  1.541673e-11  -9.3773636e-12  7.0966942      10.645041      34.211562      2584.4989    
        88   0             -830.55204      3315.3398      21752.676      21752.676     -33559.333     -5.4094797e-11  2.7529159e-12 -1.247415e-12   7.0971444      10.645717      34.208111      2584.5661    
        89   0             -830.56194      3331.6356      21649.88       21649.88      -33304.853     -7.0197507e-12  4.6523054e-11 -2.046567e-11   7.0975959      10.646394      34.20466       2584.6341    
        90   0             -830.57178      3347.4252      21546.402      21546.402     -33050.529      1.4452043e-11  3.8814058e-11 -1.4254187e-11  7.0980486      10.647073      34.201208      2584.703     
        91   0             -830.58158      3362.7075      21442.242      21442.242     -32796.362     -3.1656001e-11 -1.4589288e-11  2.9376425e-11  7.0985025      10.647754      34.197757      2584.7727    
        92   0             -830.59132      3377.4815      21337.399      21337.399     -32542.353     -2.2020965e-12  2.7526206e-13  4.4386007e-12  7.0989577      10.648436      34.194306      2584.8433    
        93   0             -830.60102      3391.7461      21231.871      21231.871     -32288.503      6.0968861e-11 -4.4040712e-12  2.0300016e-11  7.099414       10.649121      34.190855      2584.9148    
        94   0             -830.61066      3405.5004      21125.657      21125.657     -32034.813     -4.4314727e-11 -8.2574026e-13  1.2042045e-11  7.0998717      10.649807      34.187404      2584.9871    
        95   0             -830.62025      3418.7432      21018.756      21018.756     -31781.282      2.6147702e-12  9.0828858e-12 -2.8177589e-11  7.1003305      10.650496      34.183952      2585.0602    
        96   0             -830.62979      3431.4743      20911.167      20911.167     -31527.911      4.69269e-11    1.9266176e-12  2.5372865e-11  7.1007906      10.651186      34.180501      2585.1342    
        97   0             -830.63928      3443.6927      20802.889      20802.889     -31274.699     -3.7292731e-11  0              5.7470026e-11  7.101252       10.651878      34.17705       2585.2091    
        98   0             -830.64872      3455.3972      20693.92       20693.92      -31021.648     -8.2564514e-13 -2.7521505e-12  2.0899143e-12  7.1017146      10.652572      34.173599      2585.2849    
        99   0             -830.6581       3466.5867      20584.259      20584.259     -30768.758     -4.1969051e-11 -1.5962e-11     5.7458039e-11  7.1021784      10.653268      34.170148      2585.3615    
       100   0             -830.66744      3477.26        20473.906      20473.906     -30516.031     -2.229109e-11   1.9814302e-11  1.7113916e-12  7.1026435      10.653965      34.166697      2585.439     
       101   0             -830.67672      3487.4158      20362.858      20362.858     -30263.468     -7.1274289e-11  1.6511418e-12 -1.0861417e-11  7.1031099      10.654665      34.163245      2585.5173    
       102   0             -830.68595      3497.0531      20251.115      20251.115     -30011.07       1.4034276e-11 -1.4309457e-11 -1.5977748e-11  7.1035775      10.655366      34.159794      2585.5965    
       103   0             -830.69512      3506.1707      20138.675      20138.675     -29758.837      9.7686539e-12  2.1738695e-11  2.1549513e-11  7.1040465      10.65607       34.156343      2585.6766    
       104   0             -830.70424      3514.7672      20025.537      20025.537     -29506.772     -3.026812e-11  -3.8798227e-11 -7.3675357e-11  7.1045166      10.656775      34.152892      2585.7576    
       105   0             -830.71331      3522.8416      19911.699      19911.699     -29254.874     -1.8435453e-11  2.9992006e-11 -3.0318754e-11  7.1049881      10.657482      34.149441      2585.8395    
       106   0             -830.72233      3530.3926      19797.162      19797.162     -29003.146      2.0360894e-11 -1.6508833e-12 -1.099729e-11   7.1054608      10.658191      34.145989      2585.9222    
       107   0             -830.73129      3537.419       19681.922      19681.922     -28751.588     -5.3651972e-12 -3.8519365e-12 -1.1951321e-11  7.1059348      10.658902      34.142538      2586.0058    
       108   0             -830.7402       3543.9194      19565.98       19565.98      -28500.201     -4.5533904e-11 -1.0179785e-11 -1.7969384e-12  7.1064101      10.659615      34.139087      2586.0904    
       109   0             -830.74905      3549.8926      19449.332      19449.332     -28248.987     -4.539484e-12  -5.7775251e-12 -3.7768851e-11  7.1068867      10.66033       34.135636      2586.1758    
       110   0             -830.75785      3555.3373      19331.979      19331.979     -27997.946     -4.8557102e-11 -2.4759995e-11 -2.6995273e-11  7.1073645      10.661047      34.132185      2586.2621    
       111   0             -830.7666       3560.2523      19213.919      19213.919     -27747.08      -9.9036643e-12 -6.6024429e-12  3.4301754e-12  7.1078437      10.661766      34.128734      2586.3492    
       112   0             -830.77529      3564.6367      19095.149      19095.149     -27496.389     -9.903327e-12   2.1732301e-11 -1.2946537e-11  7.1083242      10.662486      34.125282      2586.4373    
       113   0             -830.78392      3568.4898      18975.67       18975.67      -27245.871     -1.4304313e-11  2.1181387e-11 -1.1311927e-10  7.1088059      10.663209      34.121831      2586.5263    
       114   0             -830.7925       3571.8104      18855.48       18855.48      -26995.528      1.4441353e-11 -1.375367e-12  -3.245866e-11   7.109289       10.663933      34.11838       2586.6162    
       115   0             -830.80102      3574.597       18734.576      18734.576     -26745.362     -5.0336663e-11  2.4480672e-11  2.6638204e-11  7.1097734      10.66466       34.114929      2586.707     
       116   0             -830.80949      3576.8483      18612.959      18612.959     -26495.373      8.6642005e-12  6.6012956e-12  3.4631016e-11  7.1102591      10.665389      34.111478      2586.7987    
       117   0             -830.8179       3578.5629      18490.626      18490.626     -26245.562     -2.4066362e-11  1.3477163e-11 -1.7757537e-11  7.1107461      10.666119      34.108026      2586.8914    
       118   0             -830.82626      3579.7395      18367.575      18367.575     -25995.932     -3.0253761e-12  1.705212e-11  -1.0606006e-11  7.1112344      10.666852      34.104575      2586.9849    
       119   0             -830.83455      3580.3767      18243.806      18243.806     -25746.482     -3.0940217e-11 -2.4752173e-11 -1.0193083e-11  7.1117241      10.667586      34.101124      2587.0793    
       120   0             -830.84279      3580.4731      18119.317      18119.317     -25497.216      3.4239244e-11  1.6500841e-11 -2.3238684e-11  7.112215       10.668323      34.097673      2587.1747    
       121   0             -830.85098      3580.0272      17994.107      17994.107     -25248.133     -4.9225676e-11 -1.017514e-11  -4.0373992e-11  7.1127074      10.669061      34.094222      2587.271     
       122   0             -830.85911      3579.0376      17868.174      17868.174     -24999.234     -3.6299134e-11 -8.5247967e-12 -7.046707e-13   7.113201       10.669802      34.090771      2587.3682    
       123   0             -830.86717      3577.5029      17741.516      17741.516     -24750.523     -9.6244054e-13  1.8148879e-11 -3.1992555e-11  7.113696       10.670544      34.087319      2587.4664    
       124   0             -830.87518      3575.4217      17614.132      17614.132     -24501.999      2.9284569e-11  1.0173982e-11  1.11192e-11    7.1141924      10.671289      34.083868      2587.5654    
       125   0             -830.88314      3572.7925      17486.021      17486.021     -24253.664     -2.5021529e-11 -2.8870995e-11 -1.8723184e-11  7.11469        10.672035      34.080417      2587.6655    
       126   0             -830.89103      3569.614       17357.18       17357.18      -24005.518     -5.5127701e-11  1.8696677e-11 -4.781572e-11   7.1151891      10.672784      34.076966      2587.7664    
       127   0             -830.89887      3565.8847      17227.609      17227.609     -23757.564      1.3334605e-11  1.7596179e-11  8.4973738e-12  7.1156895      10.673534      34.073515      2587.8683    
       128   0             -830.90664      3561.6032      17097.306      17097.306     -23509.803     -6.4608404e-12  4.6737995e-12 -1.0653513e-11  7.1161913      10.674287      34.070063      2587.9711    
       129   0             -830.91436      3556.7685      16966.269      16966.269     -23262.233      3.9588243e-11 -2.0343958e-11  1.7182397e-13  7.1166944      10.675042      34.066612      2588.0749    
       130   0             -830.92202      3551.3796      16834.497      16834.497     -23014.856      3.724993e-11  -1.6769341e-11 -1.3204138e-11  7.1171989      10.675798      34.063161      2588.1796    
       131   0             -830.92962      3545.4347      16701.988      16701.988     -22767.672     -5.236769e-11   3.5736481e-12  5.6525492e-12  7.1177048      10.676557      34.05971       2588.2853    
       132   0             -830.93715      3538.9324      16568.74       16568.74      -22520.683      1.759262e-11   3.0237315e-12 -5.5793001e-11  7.118212       10.677318      34.056259      2588.3919    
       133   0             -830.94463      3531.8709      16434.752      16434.752     -22273.891     -1.3331353e-11  3.0510932e-11 -4.0028418e-12  7.1187207      10.678081      34.052808      2588.4995    
       134   0             -830.95205      3524.2487      16300.021      16300.021     -22027.296     -1.2368778e-12  2.8860482e-11 -5.4517107e-11  7.1192307      10.678846      34.049356      2588.6081    
       135   0             -830.9594       3516.0641      16164.547      16164.547     -21780.902     -2.5148785e-11  2.3362259e-11 -3.7740355e-11  7.1197421      10.679613      34.045905      2588.7176    
       136   0             -830.9667       3507.3155      16028.327      16028.327     -21534.708      9.6193431e-12  2.5834807e-11 -3.618419e-11   7.1202549      10.680382      34.042454      2588.8281    
       137   0             -830.97393      3498.0012      15891.361      15891.361     -21288.717     -2.8581961e-11 -2.4734389e-12 -2.4871802e-11  7.1207692      10.681154      34.039003      2588.9395    
       138   0             -830.9811       3488.1195      15753.645      15753.645     -21042.931     -5.7436253e-11 -2.7756276e-11 -2.7824979e-11  7.1212848      10.681927      34.035552      2589.0519    
       139   0             -830.98821      3477.6687      15615.178      15615.178     -20797.35      -1.3740129e-12 -1.2640918e-11 -4.4870108e-11  7.1218018      10.682703      34.0321        2589.1653    
       140   0             -830.99525      3466.647       15475.958      15475.958     -20551.976      4.2042936e-11 -3.2974852e-12 -1.3086894e-11  7.1223203      10.68348       34.028649      2589.2797    
       141   0             -831.00224      3455.0529      15335.985      15335.985     -20306.811     -1.8959695e-11 -1.209024e-11  -2.0651298e-11  7.1228402      10.68426       34.025198      2589.3951    
       142   0             -831.00916      3442.8846      15195.255      15195.255     -20061.856     -3.8467218e-12  1.3600909e-11 -3.2242591e-11  7.1233615      10.685042      34.021747      2589.5115    
       143   0             -831.01602      3430.1404      15053.767      15053.767     -19817.112      3.1699672e-11 -1.6485203e-12 -2.4843717e-11  7.1238842      10.685826      34.018296      2589.6288    
       144   0             -831.02281      3416.8185      14911.519      14911.519     -19572.582      5.1926018e-11  1.9180345e-11 -6.6719631e-11  7.1244084      10.686613      34.014845      2589.7472    
       145   0             -831.02954      3402.9174      14768.509      14768.509     -19328.266     -6.7342744e-11  3.7775124e-12 -4.4947568e-11  7.124934       10.687401      34.011393      2589.8665    
       146   0             -831.03621      3388.436       14624.736      14624.736     -19084.163      1.6860658e-11 -2.8072481e-11 -6.6484348e-12  7.1254611      10.688192      34.007942      2589.9868    
       147   0             -831.04281      3373.3725      14480.196      14480.196     -18840.275     -3.9385476e-11  2.1478305e-11 -3.607134e-11   7.1259896      10.688984      34.004491      2590.1082    
       148   0             -831.04934      3357.7249      14334.89       14334.89      -18596.604      3.3649471e-12 -2.2541712e-11 -5.3129897e-12  7.1265196      10.689779      34.00104       2590.2306    
       149   0             -831.05581      3341.4913      14188.813      14188.813     -18353.152      4.8892413e-11  3.5707942e-11 -3.4919857e-11  7.127051       10.690577      33.997589      2590.3539    
       150   0             -831.06222      3324.6697      14041.965      14041.965     -18109.92      -1.5999136e-11  1.3304003e-11 -4.1843235e-14  7.1275839      10.691376      33.994137      2590.4783    
       151   0             -831.06856      3307.2581      13894.342      13894.342     -17866.91      -6.790721e-11  -2.4031874e-13 -8.0514288e-11  7.1281183      10.692177      33.990686      2590.6038    
       152   0             -831.07483      3289.2546      13745.944      13745.944     -17624.125      3.535946e-12   1.1569066e-11 -4.9268302e-12  7.1286542      10.692981      33.987235      2590.7302    
       153   0             -831.08104      3270.6572      13596.768      13596.768     -17381.565      1.0940297e-10  5.2006745e-12 -4.3896246e-11  7.1291915      10.693787      33.983784      2590.8577    
       154   0             -831.08718      3251.4639      13446.812      13446.812     -17139.232      1.2014164e-11 -8.4099145e-13 -2.7966184e-11  7.1297303      10.694596      33.980333      2590.9862    
       155   0             -831.09325      3231.6725      13296.073      13296.073     -16897.129     -8.1692228e-12  9.8511216e-12 -8.3529659e-11  7.1302707      10.695406      33.976882      2591.1157    
       156   0             -831.09926      3211.2811      13144.551      13144.551     -16655.258      1.8534277e-12 -3.6725327e-12 -9.0150811e-13  7.1308125      10.696219      33.97343       2591.2463    
       157   0             -831.1052       3190.2876      12992.241      12992.241     -16413.619      1.4483459e-11  7.8938282e-13 -2.7976971e-12  7.1313558      10.697034      33.969979      2591.3779    
       158   0             -831.11107      3168.69        12839.143      12839.143     -16172.216     -9.918259e-12  -6.2975797e-12 -2.7372807e-11  7.1319007      10.697851      33.966528      2591.5106    
       159   0             -831.11687      3146.4861      12685.254      12685.254     -15931.049     -3.7062861e-12  3.7028544e-11 -7.5840523e-11  7.1324471      10.698671      33.963077      2591.6443    
       160   0             -831.1226       3123.6739      12530.571      12530.571     -15690.121     -5.1816676e-12 -2.5908338e-11  4.2846343e-12  7.132995       10.699492      33.959626      2591.7791    
       161   0             -831.12826      3100.2511      12375.093      12375.093     -15449.433     -1.945597e-11   2.6473159e-11 -5.1440797e-11  7.1335444      10.700317      33.956174      2591.915     
       162   0             -831.13386      3076.2163      12218.818      12218.818     -15208.986     -5.5619863e-11  3.2733713e-11 -4.5916517e-11  7.1340954      10.701143      33.952723      2592.0519    
       163   0             -831.13938      3051.5676      12061.742      12061.742     -14968.781      2.5629751e-11 -1.5988573e-11 -3.5121357e-11  7.1346479      10.701972      33.949272      2592.1899    
       164   0             -831.14483      3026.3025      11903.863      11903.863     -14728.819      1.200794e-12  -3.132357e-11  -2.190377e-11   7.1352019      10.702803      33.945821      2592.329     
       165   0             -831.15022      3000.4184      11745.179      11745.179     -14489.104     -2.5935749e-11 -2.2247795e-11 -1.3473896e-11  7.1357576      10.703636      33.94237       2592.4691    
       166   0             -831.15553      2973.9131      11585.688      11585.688     -14249.636      1.9862408e-11 -1.1320544e-12 -9.6880161e-11  7.1363148      10.704472      33.938919      2592.6104    
       167   0             -831.16077      2946.7842      11425.386      11425.386     -14010.419      4.1472078e-11 -2.8557076e-11 -7.1477376e-11  7.1368735      10.70531       33.935467      2592.7527    
       168   0             -831.16594      2919.0292      11264.271      11264.271     -13771.454     -6.8601794e-13 -8.5580738e-12 -5.6248647e-11  7.1374338      10.706151      33.932016      2592.8961    
       169   0             -831.17104      2890.6456      11102.34       11102.34      -13532.743      1.8349957e-11 -3.9255189e-11 -2.6535088e-11  7.1379957      10.706994      33.928565      2593.0406    
       170   0             -831.17606      2861.6312      10939.592      10939.592     -13294.29       1.714853e-12   1.1935377e-11 -3.8900368e-12  7.1385592      10.707839      33.925114      2593.1862    
       171   0             -831.18101      2831.9833      10776.023      10776.023     -13056.096      3.6009875e-12  1.8862315e-11 -3.6524301e-11  7.1391243      10.708687      33.921663      2593.333     
       172   0             -831.18589      2801.6995      10611.631      10611.631     -12818.164     -4.509551e-11   1.4694621e-11 -2.6361262e-11  7.139691       10.709537      33.918211      2593.4808    
       173   0             -831.1907       2770.7772      10446.413      10446.413     -12580.495     -7.8869746e-12 -2.1243395e-11 -4.9325204e-11  7.1402594      10.710389      33.91476       2593.6298    
       174   0             -831.19543      2739.214       10280.367      10280.367     -12343.092     -4.3890188e-11  1.6630267e-12 -9.3696873e-11  7.1408293      10.711244      33.911309      2593.7799    
       175   0             -831.20009      2707.0073      10113.489      10113.489     -12105.957      5.211656e-11  -2.7069753e-11 -4.2398279e-11  7.1414008      10.712101      33.907858      2593.9311    
       176   0             -831.20467      2674.1545      9945.7781      9945.7781     -11869.093     -4.35422e-12    9.479857e-12   9.3309307e-12  7.141974       10.712961      33.904407      2594.0834    
       177   0             -831.20918      2640.6529      9777.23        9777.23       -11632.501     -7.4394476e-12 -3.5140248e-12 -1.7273896e-11  7.1425489      10.713823      33.900956      2594.2369    
       178   0             -831.21361      2606.5         9607.8424      9607.8424     -11396.185      1.2375486e-11 -1.6403518e-11  1.0896577e-11  7.1431253      10.714688      33.897504      2594.3916    
       179   0             -831.21797      2571.694       9437.6125      9437.6125     -11160.143     -9.2896271e-12 -1.4397208e-11 -4.4372645e-11  7.1437035      10.715555      33.894053      2594.5474    
       180   0             -831.22224      2536.232       9266.5374      9266.5374     -10924.379      1.6795727e-12 -6.4612133e-12 -7.0239986e-11  7.1442832      10.716425      33.890602      2594.7043    
       181   0             -831.22645      2500.1113      9094.6139      9094.6139     -10688.894      1.3332938e-11  1.7702988e-11 -1.5306423e-11  7.1448647      10.717297      33.887151      2594.8624    
       182   0             -831.23057      2463.329       8921.8392      8921.8392     -10453.691     -1.199548e-12  -8.3968363e-12 -1.2660051e-11  7.1454478      10.718172      33.8837        2595.0217    
       183   0             -831.23462      2425.882       8748.2101      8748.2101     -10218.774      3.3311103e-11  9.9899039e-12 -6.1906239e-11  7.1460327      10.719049      33.880248      2595.1821    
       184   0             -831.23859      2387.7675      8573.7235      8573.7235     -9984.1447     -7.1621266e-12  2.3354016e-11 -1.9913775e-11  7.1466192      10.719929      33.876797      2595.3437    
       185   0             -831.24248      2348.9823      8398.3763      8398.3763     -9749.8058     -2.9948833e-11  3.7812971e-11  2.9811767e-12  7.1472074      10.720811      33.873346      2595.5065    
       186   0             -831.2463       2309.5235      8222.1653      8222.1653     -9515.7602     -2.7685501e-11 -7.178357e-12  -7.2495623e-12  7.1477973      10.721696      33.869895      2595.6705    
       187   0             -831.25003      2269.3879      8045.0872      8045.0872     -9282.0108     -3.186371e-11  -1.0621237e-11 -1.983987e-12   7.148389       10.722583      33.866444      2595.8357    
       188   0             -831.25368      2228.5725      7867.1389      7867.1389     -9048.5604      2.4769877e-11  8.7362636e-13 -9.9134109e-12  7.1489823      10.723474      33.862993      2596.0021    
       189   0             -831.25726      2187.074       7688.317       7688.317      -8815.412       1.9561116e-11  5.1729045e-12 -4.4837905e-11  7.1495774      10.724366      33.859541      2596.1697    
       190   0             -831.26075      2144.8895      7508.6182      7508.6182     -8582.568      -2.3293684e-12 -1.0824712e-11 -3.2298042e-11  7.1501743      10.725261      33.85609       2596.3385    
       191   0             -831.26416      2102.0156      7328.0391      7328.0391     -8350.0314     -1.0961016e-11 -7.7412175e-12 -7.0863396e-11  7.1507729      10.726159      33.852639      2596.5086    
       192   0             -831.26749      2058.449       7146.5761      7146.5761     -8117.8051     -2.9147529e-11 -1.6645945e-11 -4.4605396e-11  7.1513733      10.72706       33.849188      2596.6798    
       193   0             -831.27074      2014.1864      6964.2258      6964.2258     -7885.8923     -2.9351085e-11  1.1421922e-11 -6.5518184e-11  7.1519754      10.727963      33.845737      2596.8523    
       194   0             -831.27391      1969.2245      6780.9848      6780.9848     -7654.2961     -5.9246184e-12  6.078727e-12  -4.3179831e-11  7.1525793      10.728869      33.842285      2597.0261    
       195   0             -831.27699      1923.5603      6596.8494      6596.8494     -7423.018      -5.2393384e-12  1.9433494e-11 -3.7201336e-11  7.153185       10.729778      33.838834      2597.2011    
       196   0             -831.27999      1877.191       6411.8162      6411.8162     -7192.0594     -2.451707e-11   7.0195523e-12 -6.6526844e-11  7.1537925      10.730689      33.835383      2597.3773    
       197   0             -831.28291      1830.113       6225.8813      6225.8813     -6961.4236     -2.6398561e-11  1.3147921e-11  4.1643644e-12  7.1544018      10.731603      33.831932      2597.5548    
       198   0             -831.28574      1782.3226      6039.0408      6039.0408     -6731.1138     -3.2456697e-11  1.7751896e-11 -1.9346592e-11  7.155013       10.732519      33.828481      2597.7336    
       199   0             -831.28848      1733.816       5851.2908      5851.2908     -6501.1337      6.1280023e-12 -2.3793082e-12 -3.6748757e-12  7.1556259      10.733439      33.82503       2597.9136    
       200   0             -831.29115      1684.5895      5662.6275      5662.6275     -6271.4865     -4.5289281e-11  1.3675788e-11 -6.8854983e-11  7.1562407      10.734361      33.821578      2598.0949    
       201   0             -831.29372      1634.6393      5473.0468      5473.0468     -6042.1758      2.3070922e-11  1.5163826e-11 -9.9988615e-11  7.1568574      10.735286      33.818127      2598.2775    
       202   0             -831.29621      1583.9614      5282.5447      5282.5447     -5813.2053     -1.5470799e-11  1.7113716e-13 -4.2835631e-11  7.1574759      10.736214      33.814676      2598.4614    
       203   0             -831.29861      1532.552       5091.1172      5091.1172     -5584.5783     -1.1944522e-11 -4.2267866e-12  2.3656422e-11  7.1580962      10.737144      33.811225      2598.6466    
       204   0             -831.30093      1480.4072      4898.7602      4898.7602     -5356.2987      2.6590911e-11  3.3640753e-11 -1.8935757e-11  7.1587185      10.738078      33.807774      2598.8332    
       205   0             -831.30316      1427.5228      4705.4689      4705.4689     -5128.3693      2.5459727e-11  3.250906e-13  -6.8058358e-11  7.1593426      10.739014      33.804322      2599.021     
       206   0             -831.30529      1373.895       4511.2378      4511.2378     -4900.7906     -4.003456e-11  -1.9213167e-11 -4.7561356e-11  7.1599687      10.739953      33.800871      2599.2102    
       207   0             -831.30734      1319.5194      4316.0608      4316.0608     -4673.5632     -3.0793558e-13  1.4233467e-11 -4.7877033e-11  7.1605966      10.740895      33.79742       2599.4007    
       208   0             -831.3093       1264.3913      4119.9312      4119.9312     -4446.6886     -1.7927371e-11 -2.2597382e-11 -9.3691575e-11  7.1612265      10.74184       33.793969      2599.5925    
       209   0             -831.31118      1208.5059      3922.8428      3922.8428     -4220.1678     -4.2249347e-11  2.1347038e-11 -1.9610346e-11  7.1618583      10.742787      33.790518      2599.7857    
       210   0             -831.31296      1151.8588      3724.7892      3724.7892     -3994.002      -3.5815187e-11  3.7628181e-12  5.1704542e-11  7.162492       10.743738      33.787067      2599.9803    
       211   0             -831.31464      1094.445       3525.7637      3525.7637     -3768.1923     -7.6960935e-12 -6.8238696e-12 -6.3478876e-11  7.1631277      10.744692      33.783615      2600.1762    
       212   0             -831.31624      1036.2603      3325.7594      3325.7594     -3542.7379      2.1205404e-11  1.4313648e-11 -7.6104849e-11  7.1637654      10.745648      33.780164      2600.3735    
       213   0             -831.31775      977.29953      3124.7692      3124.7692     -3317.6398      3.1805676e-12 -8.054018e-12  -1.9875876e-11  7.1644051      10.746608      33.776713      2600.5722    
       214   0             -831.31916      917.55675      2922.7853      2922.7853     -3092.9003     -2.2399049e-11 -3.3376292e-11 -1.741323e-11   7.1650467      10.74757       33.773262      2600.7722    
       215   0             -831.32048      857.02592      2719.7999      2719.7999     -2868.5219     -2.4278004e-12  8.1040661e-12 -3.7591369e-11  7.1656904      10.748536      33.769811      2600.9737    
       216   0             -831.3217       795.70072      2515.8047      2515.8047     -2644.5073      4.273963e-12   2.2224608e-12 -6.1502328e-12  7.1663361      10.749504      33.766359      2601.1766    
       217   0             -831.32283      733.57454      2310.7915      2310.7915     -2420.8594     -1.6752619e-12  4.2907218e-12  1.4198058e-11  7.1669838      10.750476      33.762908      2601.381     
       218   0             -831.32387      670.6405       2104.7516      2104.7516     -2197.5817      4.7621536e-11 -8.9226281e-12 -3.3932588e-11  7.1676336      10.75145       33.759457      2601.5867    
       219   0             -831.32481      606.89136      1897.6759      1897.6759     -1974.6777     -1.9929034e-11 -1.8117304e-12  3.3845495e-11  7.1682855      10.752428      33.756006      2601.7939    
       220   0             -831.32565      542.31959      1689.5553      1689.5553     -1752.1518      3.0762765e-13  2.091868e-11  -4.7569596e-11  7.1689394      10.753409      33.752555      2602.0026    
       221   0             -831.3264       476.91726      1480.3802      1480.3802     -1530.0086     -9.8432899e-12 -2.1549286e-11 -3.5240815e-12  7.1695955      10.754393      33.749104      2602.2128    
       222   0             -831.32704      410.67614      1270.141       1270.141      -1308.2536     -7.863739e-11   1.6728815e-11 -4.3288371e-11  7.1702536      10.75538       33.745652      2602.4244    
       223   0             -831.32759      343.58762      1058.8279      1058.8279     -1086.893      -9.2607508e-12  5.4846882e-12 -7.5473197e-12  7.1709139      10.756371      33.742201      2602.6375    
       224   0             -831.32805      275.64259      846.43144      846.43144     -865.93512      1.459046e-11   3.0701471e-11  1.2489024e-11  7.1715763      10.757364      33.73875       2602.8521    
       225   0             -831.3284       206.83177      632.94335      632.94335     -645.39139     -3.1775179e-11  2.6684317e-11 -4.4710538e-11  7.1722408      10.758361      33.735299      2603.0682    
       226   0             -831.32865      137.14653      418.3594       418.3594      -425.27919      1.817525e-11  -2.4768903e-11 -9.6022203e-11  7.1729073      10.759361      33.731848      2603.2857    
       227   0             -831.32881      66.5819        202.68959      202.68959     -205.63349     -3.4161132e-13  1.569704e-11  -4.6011842e-11  7.1735758      10.760364      33.728396      2603.5046    
       228   0             -831.32887     -4.8411639     -13.973942     -13.973942      13.424393      3.9965152e-12  2.830011e-11   1.9046426e-11  7.1742455      10.761368      33.724945      2603.7242    
       229   0             -831.33002      65.010908      178.56591      178.56591     -162.0991       1.127364e-12  -1.2759711e-11 -8.1720014e-11  7.1735393      10.760309      33.727343      2603.3967    
       230   0             -831.33006     -30.790709     -45.322156     -45.322156     -1.7278153     -1.8821877e-11 -6.5757011e-12 -4.3533596e-11  7.1741775      10.761266      33.724364      2603.63      
       231   0             -831.33006      30.380168     -2.8545249     -2.8545249      96.849553      1.7216826e-11  3.5509703e-11  2.2545309e-11  7.1741479      10.761222      33.723772      2603.5627    
       232   0             -831.33008      61.436251      90.957116      90.957116      2.3945222     -1.5406962e-11 -5.4829653e-12 -2.8417261e-11  7.1738463      10.760769      33.725215      2603.4553    
       233   0             -831.33008     -36.609572      1.1768395      1.1768394     -112.1824       1.7831616e-11 -3.1854372e-11 -1.9893504e-11  7.1739713      10.760957      33.725613      2603.5767    
       234   0             -831.33009     -13.585387     -20.205033     -20.205033     -0.3460965     -1.6328542e-11 -1.2126846e-11 -2.17568e-11    7.1740997      10.76115       33.72446       2603.581     
       235   0             -831.33009      7.0843428      0.17280112     0.17280111     20.907426      1.0111505e-11 -8.9158883e-12 -4.3107872e-11  7.174067       10.761101      33.72441       2603.5533    
       236   0             -831.33009      2.1626551      3.5878347      3.5878347     -0.68770405    -3.750823e-11  -6.3026124e-12 -2.5293182e-11  7.1740432      10.761065      33.724625      2603.5526    
       237   0             -831.33009     -4.0151809     -2.5370406     -2.5370406     -6.9714615     -3.4843601e-12 -1.2366062e-11 -3.2776897e-11  7.174053       10.761079      33.724639      2603.5608    
       238   0             -831.33009     -1.2863261     -4.1273136     -4.1273136      4.3956488     -3.0061147e-11 -4.0821671e-12 -3.0552203e-11  7.1740649      10.761097      33.724527      2603.5608    
       239   0             -831.33009      14.654926      12.341621      12.341621      19.281535      2.428825e-11   7.9081996e-12 -1.9531908e-11  7.1740362      10.761054      33.724504      2603.5383    
       240   0             -831.33009      2.3356541      8.888533       8.888533      -10.770104      9.2916798e-12 -1.4108323e-11 -2.7067462e-11  7.1740214      10.761032      33.724745      2603.546     
       241   0             -831.33009     -8.2012726     -6.9893384     -6.9893384     -10.625141     -4.2700441e-12 -3.2161972e-11 -4.9940301e-11  7.1740579      10.761087      33.724632      2603.5639    
       242   0             -831.33009     -0.53242032    -2.0811487     -2.0811487      2.5650365     -1.4620676e-11 -6.9174929e-12 -5.7424799e-11  7.1740558      10.761084      33.724548      2603.5558    
       243   0             -831.33009      1.3596426      1.1970581      1.1970581      1.6848116     -1.9539811e-11  1.947149e-12  -2.8260348e-11  7.1740474      10.761071      33.724578      2603.5521    
       244   0             -831.33009      0.021483457    0.32060753     0.32060753    -0.5767647      1.1614567e-12  1.6140832e-11 -9.7230362e-11  7.1740478      10.761072      33.724592      2603.5535    
       245   0             -831.33009     -0.55069998    -0.68412489    -0.68412489    -0.28385016    -3.4638722e-11  1.8292935e-11 -3.0759373e-11  7.1740504      10.761076      33.724583      2603.5546    
       246   0             -831.33009      0.34424163    -0.088144935   -0.088144938    1.2090147      2.4014823e-11  1.892491e-11  -4.8980268e-11  7.17405        10.761075      33.724573      2603.5536    
       247   0             -831.33009      1.3942142      2.0252839      2.0252839      0.13207472    -2.7670021e-12  8.1302038e-12 -7.055215e-12   7.1740441      10.761066      33.724597      2603.5511    
       248   0             -831.33009     -0.95923753     0.08655286     0.08655285    -3.0508183     -7.0712203e-12 -1.2980984e-12 -3.8970708e-11  7.1740463      10.761069      33.724612      2603.5539    
       249   0             -831.33009     -0.51183817    -0.74654383    -0.74654384    -0.042426836   -1.277602e-11  -1.0009021e-11 -4.1377949e-11  7.1740503      10.761075      33.724579      2603.5542    
       250   0             -831.33009      0.23892735    -0.017364869   -0.017364872    0.75151179    -2.0291333e-11 -2.425395e-11  -7.3655361e-11  7.1740491      10.761074      33.724577      2603.5532    
       251   0             -831.33009      0.078925446    0.11988273     0.11988273    -0.0029891177   1.0453111e-11 -1.24515e-11   -6.953582e-11   7.1740483      10.761072      33.724584      2603.5532    
       252   0             -831.33009     -0.069702947   -0.025781805   -0.025781806   -0.15754523    -2.0803739e-11  8.2668389e-12 -2.6206968e-11  7.1740485      10.761073      33.724585      2603.5534    
       253   0             -831.33009     -0.024002867   -0.061114279   -0.061114279    0.050219959   -3.689333e-12  -7.0541414e-12 -1.7608666e-12  7.1740487      10.761073      33.724583      2603.5534    
       254   0             -831.33009      0.20440198     0.16629176     0.16629176     0.28062242    -2.5791174e-11  2.1965198e-11 -3.9880243e-11  7.1740483      10.761073      33.724582      2603.5531    
       255   0             -831.33009      0.052560046    0.18705058     0.18705058    -0.21642102     1.656784e-11   3.8430557e-12 -8.008074e-11   7.1740479      10.761072      33.724587      2603.5531    
       256   0             -831.33009     -0.26812948    -0.2244197     -0.2244197     -0.35554904    -6.9004187e-12 -1.4911053e-11 -2.9492244e-11  7.1740488      10.761073      33.724585      2603.5536    
       257   0             -831.33009     -0.02076464    -0.075513492   -0.075513489    0.088733059    2.4595554e-12 -1.9710604e-11 -4.9223667e-11  7.1740487      10.761073      33.724582      2603.5533    
       258   0             -831.33009      0.049271977    0.041841132    0.041841133    0.064133666    2.9719629e-11 -2.0974543e-11 -5.0644533e-11  7.1740484      10.761073      33.724583      2603.5532    
       259   0             -831.33009      0.0024921053   0.011760693    0.011760694   -0.016045072   -9.1550121e-12 -2.2016438e-11 -4.6162035e-11  7.1740484      10.761073      33.724583      2603.5532    
       260   0             -831.33009     -0.01160198    -0.012317184   -0.012317184   -0.010171572    1.2229456e-11  1.7541413e-11 -1.8441862e-11  7.1740485      10.761073      33.724583      2603.5533    
       261   0             -831.33009      0.0035337756  -0.0024856518  -0.0024856519   0.015572631    1.7251049e-11 -2.220432e-12  -1.2469114e-11  7.1740485      10.761073      33.724583      2603.5532    
       262   0             -831.33009      0.023485945    0.033170246    0.033170245    0.0041173425  -5.6638098e-11  8.9158888e-12 -5.4360554e-11  7.1740484      10.761073      33.724583      2603.5532    
       263   0             -831.33009     -0.017837128    0.0029656389   0.002965637   -0.05944266     2.4356431e-11  3.2281666e-12 -7.913545e-11   7.1740484      10.761073      33.724584      2603.5532    
       264   0             -831.33009     -0.017793367   -0.025595341   -0.025595343   -0.0021894173  -1.1033839e-11 -2.9531746e-11 -1.6256124e-11  7.1740485      10.761073      33.724583      2603.5533    
       265   0             -831.33009      0.0080482433  -0.0011125377  -0.0011125387   0.026369806    2.4151469e-11 -2.1691913e-12 -6.4319404e-11  7.1740485      10.761073      33.724583      2603.5532    
       266   0             -831.33009      0.0029781206   0.0043532174   0.0043532171   0.00022792721  3.9318727e-11  4.0309382e-12 -9.4709967e-12  7.1740485      10.761073      33.724583      2603.5532    
       267   0             -831.33009     -0.0016654867  -0.00014930363 -0.00014930371 -0.0046978527  -8.9842096e-12 -1.6260395e-11 -7.2266523e-11  7.1740485      10.761073      33.724583      2603.5532    
       268   0             -831.33009     -0.00059961533 -0.0011642485  -0.0011642484   0.00052965088 -3.3306481e-11 -1.456945e-11   4.4942399e-12  7.1740485      10.761073      33.724583      2603.5532    
       269   0             -831.33009      0.0025527749   0.0019142778   0.0019142779   0.003829769    9.0866911e-12 -3.6107641e-11 -9.4004873e-11  7.1740485      10.761073      33.724583      2603.5532    
       270   0             -831.33009      0.00088415146  0.0029122258   0.002912226   -0.0031719975   4.0992592e-12 -3.2281666e-11 -2.1635335e-11  7.1740485      10.761073      33.724583      2603.5532    
       271   0             -831.33009     -0.0069930843  -0.005749551   -0.0057495512  -0.0094801507  -6.2855307e-12 -7.276185e-12  -3.4676103e-11  7.1740485      10.761073      33.724583      2603.5532    
       272   0             -831.33009     -0.00076170684 -0.0026311697  -0.0026311699   0.002977219    3.2452468e-11  1.730229e-11  -5.9130212e-11  7.1740485      10.761073      33.724583      2603.5532    
       273   0             -831.33009      0.0018662558   0.0015488632   0.0015488629   0.0025010413   2.7123431e-11  1.038479e-11  -5.3814519e-11  7.1740485      10.761073      33.724583      2603.5532    
       274   0             -831.33009      0.00012144437  0.00045220111  0.00045220095 -0.00054006894 -3.3306481e-11  4.5091851e-12 -5.2350955e-11  7.1740485      10.761073      33.724583      2603.5532    
       275   0             -831.33009     -0.00033482356 -0.0003070268  -0.00030702677 -0.00039041711  1.2878506e-11  1.9095716e-11 -5.7444071e-11  7.1740485      10.761073      33.724583      2603.5532    
       276   0             -831.33009      2.3224805e-05 -7.9384018e-05 -7.9384027e-05  0.00022844246  2.633774e-11  -3.1325172e-11 -4.7555143e-11  7.1740485      10.761073      33.724583      2603.5532    
       277   0             -831.33009      0.00033692553  0.00045201058  0.00045201064  0.00010675537 -1.5440543e-11 -5.5852406e-12 -5.0006158e-11  7.1740485      10.761073      33.724583      2603.5532    
       278   0             -831.33009     -0.00024219323  6.5325867e-05  6.5325805e-05 -0.00085723137  1.9642283e-11 -3.5612314e-11 -7.5988949e-11  7.1740485      10.761073      33.724583      2603.5532    
       279   0             -831.33009     -0.00056174218 -0.00079474328 -0.0007947428  -9.5740461e-05 -4.5433456e-12 -2.0923302e-11 -1.7434128e-11  7.1740485      10.761073      33.724583      2603.5532    
       280   0             -831.33009      0.00026182192 -5.538053e-05  -5.5380473e-05  0.00089622675  1.5133098e-11  1.0196907e-11 -5.2443296e-11  7.1740485      10.761073      33.724583      2603.5532    
       281   0             -831.33009      0.00011599897  0.00016559672  0.00016559676  1.6803446e-05 -2.0462135e-11 -1.8788271e-13 -2.777942e-11   7.1740485      10.761073      33.724583      2603.5532    
       282   0             -831.33009     -5.0931967e-05  5.6197924e-06  5.619776e-06  -0.00016403547 -9.0525306e-12  1.1426685e-11 -5.44198e-11    7.1740485      10.761073      33.724583      2603.5532    
       283   0             -831.33009     -1.9421846e-05 -3.1016182e-05 -3.1016103e-05  3.7667469e-06 -1.0794716e-11  2.9207221e-12 -4.9465461e-11  7.1740485      10.761073      33.724583      2603.5532    
       284   0             -831.33009      3.3308681e-05  1.9808269e-05  1.9808491e-05  6.0309282e-05 -3.9967777e-12  5.055753e-12  -8.5519193e-11  7.1740485      10.761073      33.724583      2603.5532    
       285   0             -831.33009      1.3405526e-05  3.9204001e-05  3.9203905e-05 -3.8191329e-05 -1.0965518e-11 -1.2724784e-11 -9.9226624e-11  7.1740485      10.761073      33.724583      2603.5532    
       286   0             -831.33009     -0.00012704474 -0.00010206642 -0.00010206709 -0.00017700072 -2.0393814e-11 -2.2118919e-11 -5.1616505e-11  7.1740485      10.761073      33.724583      2603.5532    
       287   0             -831.33009     -2.388755e-05  -7.8503536e-05 -7.8504994e-05  8.534588e-05  -6.5929751e-12  2.495424e-11  -2.8014807e-11  7.1740485      10.761073      33.724583      2603.5532    
       288   0             -831.33009      6.9529171e-05  5.6595534e-05  5.6594659e-05  9.5397321e-05  5.6194011e-11 -1.0350629e-11 -4.7952258e-11  7.1740485      10.761073      33.724583      2603.5532    
       289   0             -831.33009      5.1378915e-06  1.7442637e-05  1.7442098e-05 -1.947106e-05   2.2750888e-11 -6.8491788e-12 -7.3704466e-11  7.1740485      10.761073      33.724583      2603.5532    
       290   0             -831.33009     -1.1728397e-05 -9.9097508e-06 -9.9099306e-06 -1.536551e-05  -2.1008703e-11 -9.2404134e-12 -5.0758756e-11  7.1740485      10.761073      33.724583      2603.5532    
       291   0             -831.33009     -3.4740238e-07 -2.8167392e-06 -2.817059e-06   4.5915911e-06  3.1325172e-11 -3.6210123e-12 -1.1129328e-10  7.1740485      10.761073      33.724583      2603.5532    
       292   0             -831.33009      5.159798e-06   6.2263697e-06  6.2266211e-06  3.0264032e-06  8.5059628e-12  1.6670321e-11 -6.386144e-11   7.1740485      10.761073      33.724583      2603.5532    
       293   0             -831.33009     -2.6860004e-06  1.237727e-06   1.2378407e-06 -1.0533569e-05 -1.7831777e-11 -1.733645e-11  -5.8991969e-11  7.1740485      10.761073      33.724583      2603.5532    
       294   0             -831.33009     -1.3205444e-05 -1.8324035e-05 -1.8322268e-05 -2.9700291e-06  1.9573962e-11  2.1623592e-11 -6.612137e-11   7.1740485      10.761073      33.724583      2603.5532    
       295   0             -831.33009      6.9912876e-06 -2.0393355e-06 -2.0374029e-06  2.5050601e-05 -2.5039641e-11  2.6901388e-11 -3.1649163e-11  7.1740485      10.761073      33.724583      2603.5532    
       296   0             -831.33009      4.4891763e-06  6.2903378e-06  6.291244e-06   8.8594719e-07  3.5185308e-12 -1.0982598e-11 -8.2743653e-11  7.1740485      10.761073      33.724583      2603.5532    
       297   0             -831.33009     -1.7353372e-06  4.141957e-07   4.1492428e-07 -6.0351316e-06  6.6271356e-12  1.7080246e-14 -7.4639076e-11  7.1740485      10.761073      33.724583      2603.5532    
       298   0             -831.33009     -7.1747201e-07 -1.0453094e-06 -1.0451794e-06 -6.1927235e-08  1.2126975e-11  1.3083469e-11 -9.2039577e-11  7.1740485      10.761073      33.724583      2603.5532    
       299   0             -831.33009      5.4742837e-07  1.6010231e-07  1.60175e-07    1.3220078e-06 -7.1737035e-12  1.2178216e-11 -9.7567706e-11  7.1740485      10.761073      33.724583      2603.5532    
       300   0             -831.33009      2.3568918e-07  5.6149302e-07  5.6125471e-07 -4.1568018e-07 -1.175121e-11   1.9881407e-11 -7.2628944e-11  7.1740485      10.761073      33.724583      2603.5532    
       301   0             -831.33009     -1.7160958e-06 -1.3267198e-06 -1.3268209e-06 -2.4947468e-06  2.7328394e-12 -2.7328394e-12 -1.0031656e-10  7.1740485      10.761073      33.724583      2603.5532    
       302   0             -831.33009     -5.4842057e-07 -1.7055891e-06 -1.7048671e-06  1.7651946e-06  4.3349666e-11 -1.4791493e-11 -4.9594097e-11  7.1740485      10.761073      33.724583      2603.5532    
       303   0             -831.33009      2.3361339e-06  1.8630559e-06  1.8637489e-06  3.2815969e-06 -6.5246542e-12  5.4656789e-12 -3.3751635e-11  7.1740485      10.761073      33.724583      2603.5532    
       304   0             -831.33009      2.0779764e-07  6.6358425e-07  6.6423193e-07 -7.0442325e-07  2.5688691e-11  1.7387691e-11 -1.2648456e-11  7.1740485      10.761073      33.724583      2603.5532    
       305   0             -831.33009     -4.4514803e-07 -3.6072879e-07 -3.605599e-07  -6.1415538e-07  1.8822432e-11 -3.4843703e-12 -1.0037634e-10  7.1740485      10.761073      33.724583      2603.5532    
       306   0             -831.33009     -2.8199077e-08 -1.0704313e-07 -1.0688627e-07  1.2933217e-07 -6.9345801e-12 -5.7902036e-12 -7.5674032e-11  7.1740485      10.761073      33.724583      2603.5532    
       307   0             -831.33009      1.068358e-07   1.0868338e-07  1.0869322e-07  1.031308e-07   4.2051567e-11  8.7109257e-12 -5.8584178e-11  7.1740485      10.761073      33.724583      2603.5532    
       308   0             -831.33009     -2.537405e-08   2.7274831e-08  2.7155132e-08 -1.3055211e-07 -2.7328394e-12  6.5929751e-12 -4.2330188e-11  7.1740485      10.761073      33.724583      2603.5532    
       309   0             -831.33009     -2.242978e-07  -3.0245099e-07 -3.0250948e-07 -6.7932923e-08  2.2545925e-11  1.9915567e-11 -7.7098631e-11  7.1740485      10.761073      33.724583      2603.5532    
       310   0             -831.33009      1.3185622e-07 -5.1943079e-08 -5.2081907e-08  4.9959366e-07  6.8320986e-14  6.6100554e-12 -7.9781298e-11  7.1740485      10.761073      33.724583      2603.5532    
       311   0             -831.33009      1.6520506e-07  2.2704211e-07  2.271159e-07   4.1457174e-08  1.2092815e-11 -1.2946827e-11 -4.304916e-11   7.1740485      10.761073      33.724583      2603.5532    
       312   0             -831.33009     -5.9851917e-08  2.0111512e-08  2.0065054e-08 -2.1973232e-07 -2.9036419e-12  0             -6.3490479e-12  7.1740485      10.761073      33.724583      2603.5532    
       313   0             -831.33009     -2.8708478e-08 -3.9884152e-08 -3.9600483e-08 -6.6407998e-09 -2.3229135e-12  1.3305512e-11 -4.1256802e-11  7.1740485      10.761073      33.724583      2603.5532    
Loop time of 0.081311 on 4 procs for 313 steps with 144 atoms

62.5% CPU use with 4 MPI tasks x 1 OpenMP threads

Minimization stats:
  Stopping criterion = force tolerance
  Energy initial, next-to-last, final = 
     -829.506410218944  -831.330088788382  -831.330088788383
  Force two-norm initial, final = 111.48411 9.317766e-11
  Force max component initial, final = 91.026391 6.3799118e-11
  Final line search alpha, max atom move = 1 6.3799118e-11
  Iterations, force evaluations = 313 397

MPI task timing breakdown:
Section |  min time  |  avg time  |  max time  |%varavg| %total
---------------------------------------------------------------
Pair    | 0.058243   | 0.060247   | 0.062363   |   0.6 | 74.09
Neigh   | 3e-05      | 3.525e-05  | 4.1e-05    |   0.0 |  0.04
Comm    | 0.001711   | 0.0033698  | 0.004011   |   1.7 |  4.14
Output  | 0.003109   | 0.0032462  | 0.003647   |   0.4 |  3.99
Modify  | 0          | 0          | 0          |   0.0 |  0.00
Other   |            | 0.01441    |            |       | 17.73

Nlocal:             36 ave          42 max          30 min
Histogram: 1 0 0 0 0 2 0 0 0 1
Nghost:            284 ave         290 max         278 min
Histogram: 1 0 0 0 0 2 0 0 0 1
Neighs:            612 ave         714 max         510 min
Histogram: 1 0 0 0 0 2 0 0 0 1
FullNghs:         1224 ave        1428 max        1020 min
Histogram: 1 0 0 0 0 2 0 0 0 1

Total # of neighbors = 4896
Ave neighs/atom = 34
Neighbor list builds = 1
Dangerous builds = 0

variable tmp equal pxx
variable pxx0 equal ${tmp}
variable pxx0 equal -3.9884151898062e-08
variable tmp equal pyy
variable pyy0 equal ${tmp}
variable pyy0 equal -3.96004831643683e-08
variable tmp equal pzz
variable pzz0 equal ${tmp}
variable pzz0 equal -6.64079983502512e-09
variable tmp equal pyz
variable pyz0 equal ${tmp}
variable pyz0 equal -4.12568016371099e-11
variable tmp equal pxz
variable pxz0 equal ${tmp}
variable pxz0 equal 1.33055120151352e-11
variable tmp equal pxy
variable pxy0 equal ${tmp}
variable pxy0 equal -2.32291352253965e-12

variable tmp equal lx
variable lx0 equal ${tmp}
variable lx0 equal 7.17404846351146
variable tmp equal ly
variable ly0 equal ${tmp}
variable ly0 equal 10.7610726952672
variable tmp equal lz
variable lz0 equal ${tmp}
variable lz0 equal 33.724583177515

# These formulas define the derivatives w.r.t. strain components
# Constants uses $, variables use v_
variable d1 equal -(v_pxx1-${pxx0})/(v_delta/v_len0)*${cfac}
variable d1 equal -(v_pxx1--3.9884151898062e-08)/(v_delta/v_len0)*${cfac}
variable d1 equal -(v_pxx1--3.9884151898062e-08)/(v_delta/v_len0)*0.0001
variable d2 equal -(v_pyy1-${pyy0})/(v_delta/v_len0)*${cfac}
variable d2 equal -(v_pyy1--3.96004831643683e-08)/(v_delta/v_len0)*${cfac}
variable d2 equal -(v_pyy1--3.96004831643683e-08)/(v_delta/v_len0)*0.0001
variable d3 equal -(v_pzz1-${pzz0})/(v_delta/v_len0)*${cfac}
variable d3 equal -(v_pzz1--6.64079983502512e-09)/(v_delta/v_len0)*${cfac}
variable d3 equal -(v_pzz1--6.64079983502512e-09)/(v_delta/v_len0)*0.0001
variable d4 equal -(v_pyz1-${pyz0})/(v_delta/v_len0)*${cfac}
variable d4 equal -(v_pyz1--4.12568016371099e-11)/(v_delta/v_len0)*${cfac}
variable d4 equal -(v_pyz1--4.12568016371099e-11)/(v_delta/v_len0)*0.0001
variable d5 equal -(v_pxz1-${pxz0})/(v_delta/v_len0)*${cfac}
variable d5 equal -(v_pxz1-1.33055120151352e-11)/(v_delta/v_len0)*${cfac}
variable d5 equal -(v_pxz1-1.33055120151352e-11)/(v_delta/v_len0)*0.0001
variable d6 equal -(v_pxy1-${pxy0})/(v_delta/v_len0)*${cfac}
variable d6 equal -(v_pxy1--2.32291352253965e-12)/(v_delta/v_len0)*${cfac}
variable d6 equal -(v_pxy1--2.32291352253965e-12)/(v_delta/v_len0)*0.0001

displace_atoms all random ${atomjiggle} ${atomjiggle} ${atomjiggle} 87287 units box
displace_atoms all random 1e-05 ${atomjiggle} ${atomjiggle} 87287 units box
displace_atoms all random 1e-05 1e-05 ${atomjiggle} 87287 units box
displace_atoms all random 1e-05 1e-05 1e-05 87287 units box
Displacing atoms ...

# Write restart
unfix 3
write_restart restart.equil
System init for write_restart ...

# uxx Perturbation

variable dir equal 1
include displace.mod
# NOTE: This script should not need to be
# modified. See in.elastic for more info.
#
# Find which reference length to use

if "${dir} == 1" then    "variable len0 equal ${lx0}"
variable len0 equal ${lx0}
variable len0 equal 7.17404846351146
if "${dir} == 2" then    "variable len0 equal ${ly0}"
if "${dir} == 3" then    "variable len0 equal ${lz0}"
if "${dir} == 4" then    "variable len0 equal ${lz0}"
if "${dir} == 5" then    "variable len0 equal ${lz0}"
if "${dir} == 6" then    "variable len0 equal ${ly0}"

# Reset box and simulation parameters

clear
  using 1 OpenMP thread(s) per MPI task
Loaded 1 plugins from C:\Program Files\LAMMPS 64-bit 23Jun2022\plugins
Loaded 0 plugins from C:\Program Files\LAMMPS 64-bit 23Jun2022-MPI\plugins
Loaded 1 plugins from C:\Program Files\LAMMPS 64-bit 22Dec2022-MSMPI\plugins
Loaded 1 plugins from C:\Program Files\LAMMPS 64-bit 28Mar2023-MPI\plugins
box tilt large

The 'box' command has been removed and will be ignored

read_restart restart.equil
Reading restart file ...
  restart file = 22 Dec 2022, LAMMPS = 22 Dec 2022
  restoring atom style atomic from restart
  triclinic box = (-0.21135735 -0.23939059 0.014159913) to (6.9626911 10.521682 33.738743) with tilt (0 0 0)
  1 by 1 by 4 MPI processor grid
  pair style meam stores no restart info
  144 atoms
  read_restart CPU = 0.000 seconds
include potential.mod
# NOTE: This script can be modified for different pair styles
# See in.elastic for more info.

# Choose potential
#-----------------------
#pair_style	sw
#pair_coeff * * Si.sw Si
#-----------------------
#pair_style morse	2.83994742	# D0[eV] a[1/A] r0[A] rc[A], 1NN for BCC
#pair_coeff 1 1	2.1173	1.0202	2.4595	2.6497	#	Fe-Fe
#-----------------------
#pair_style smatb # R0(A)   p       q     A(eV)   xi(eV)  Rcs(A)   Rc(A), 4NN: Rcs=4NN, Rc=(4NN+5NN)/2
#pair_coeff 1 1	2.4802	7.0149	2.3779	0.3144	3.0551	4.033	4.176	#	Co	Co
#-----------------------
#pair_style eam/alloy
#pair_coeff * * AlCrFeCoNi_Zhou04.eam.alloy Fe
#-----------------------
pair_style meam
pair_coeff * * ./../../library.meam Mo Si ./../../MoSi.meam Mo Si
#-----------------------

# Setup neighbor style
neighbor 1.0 nsq
neigh_modify once no every 1 delay 0 check yes

# Setup minimization style
min_style	     cg
min_modify	     dmax ${dmax} line quadratic
min_modify	     dmax 0.01 line quadratic

# Setup output
thermo		1
thermo_style custom step temp pe press pxx pyy pzz pxy pxz pyz lx ly lz vol
thermo_modify norm no

# Negative deformation

variable delta equal -${up}*${len0}
variable delta equal -1e-06*${len0}
variable delta equal -1e-06*7.17404846351146
variable deltaxy equal -${up}*xy
variable deltaxy equal -1e-06*xy
variable deltaxz equal -${up}*xz
variable deltaxz equal -1e-06*xz
variable deltayz equal -${up}*yz
variable deltayz equal -1e-06*yz
if "${dir} == 1" then    "change_box all x delta 0 ${delta} xy delta ${deltaxy} xz delta ${deltaxz} remap units box"
change_box all x delta 0 ${delta} xy delta ${deltaxy} xz delta ${deltaxz} remap units box
change_box all x delta 0 -7.17404846351146e-06 xy delta ${deltaxy} xz delta ${deltaxz} remap units box
change_box all x delta 0 -7.17404846351146e-06 xy delta -0 xz delta ${deltaxz} remap units box
change_box all x delta 0 -7.17404846351146e-06 xy delta -0 xz delta -0 remap units box
Changing box ...
  triclinic box = (-0.21135735 -0.23939059 0.014159913) to (6.9626839 10.521682 33.738743) with tilt (0 0 0)
  triclinic box = (-0.21135735 -0.23939059 0.014159913) to (6.9626839 10.521682 33.738743) with tilt (0 0 0)
  triclinic box = (-0.21135735 -0.23939059 0.014159913) to (6.9626839 10.521682 33.738743) with tilt (0 0 0)
if "${dir} == 2" then    "change_box all y delta 0 ${delta} yz delta ${deltayz} remap units box"
if "${dir} == 3" then    "change_box all z delta 0 ${delta} remap units box"
if "${dir} == 4" then    "change_box all yz delta ${delta} remap units box"
if "${dir} == 5" then    "change_box all xz delta ${delta} remap units box"
[...]
       335   0             -831.33009      3.4054831e-05  3.0091095e-05  3.2214028e-05  3.9859371e-05 -1.3185375     -2.9505392e-06  4.404672e-06   7.1740485      10.761073      33.724583      2603.5532    
       336   0             -831.33009      1.3955864e-05  1.1609213e-05  1.3732118e-05  1.6526261e-05 -1.3185375     -5.2303214e-05  7.8311804e-05  7.1740485      10.761073      33.724583      2603.5532    
       337   0             -831.33009     -2.7544898e-05 -2.6552972e-05 -2.4430109e-05 -3.1651612e-05 -1.3185375     -4.0102477e-05  6.0054209e-05  7.1740485      10.761073      33.724583      2603.5532    
       338   0             -831.33009      4.5364438e-05  4.0491589e-05  4.2614436e-05  5.2987291e-05 -1.3185375      1.2999778e-05 -1.9458493e-05  7.1740485      10.761073      33.724583      2603.5532    
       339   0             -831.33009     -2.034131e-05  -1.9928673e-05 -1.7805822e-05 -2.3289435e-05 -1.3185375      4.0249255e-05 -6.0267765e-05  7.1740485      10.761073      33.724583      2603.5532    
       340   0             -831.33009     -1.1067738e-05 -1.1400936e-05 -9.2781304e-06 -1.2524149e-05 -1.3185375      2.3428322e-05 -3.5087422e-05  7.1740485      10.761073      33.724583      2603.5532    
       341   0             -831.33009      4.8159126e-05  4.3061822e-05  4.5184571e-05  5.6230985e-05 -1.3185375     -2.3504155e-05  3.5188079e-05  7.1740485      10.761073      33.724583      2603.5532    
       342   0             -831.33009     -2.4638677e-05 -2.3879979e-05 -2.1757234e-05 -2.8278818e-05 -1.3185375     -4.3392876e-05  6.4976e-05     7.1740485      10.761073      33.724583      2603.5532    
       343   0             -831.33009      2.3993277e-06  9.833046e-07   3.1060532e-06  3.1086253e-06 -1.3185375      4.3012549e-06 -6.4287011e-06  7.1740485      10.761073      33.724583      2603.5532    
       344   0             -831.33009      2.8350439e-05  2.4847055e-05  2.696983e-05   3.3234431e-05 -1.3185375      4.063384e-05  -6.0835539e-05  7.1740485      10.761073      33.724583      2603.5532    
       345   0             -831.33009     -2.4360518e-05 -2.3623618e-05 -2.1500861e-05 -2.7957075e-05 -1.3185375      3.0179085e-05 -4.5194237e-05  7.1740485      10.761073      33.724583      2603.5532    
       346   0             -831.33009      2.0791542e-05  1.7896461e-05  2.0019249e-05  2.4458914e-05 -1.3185375     -1.6189846e-05  2.4230349e-05  7.1740485      10.761073      33.724583      2603.5532    
       347   0             -831.33009      4.0537244e-06  2.5051716e-06  4.6278883e-06  5.0281133e-06 -1.3185375     -3.3175774e-05  4.9671752e-05  7.1740485      10.761073      33.724583      2603.5532    
       348   0             -831.33009     -1.607131e-05  -1.600093e-05  -1.3878256e-05 -1.8334744e-05 -1.3185375     -4.2234624e-06  6.3340672e-06  7.1740485      10.761073      33.724583      2603.5532    
       349   0             -831.33009      1.5999803e-05  1.3490354e-05  1.5613025e-05  1.889603e-05  -1.3185375      1.152358e-05  -1.7246225e-05  7.1740485      10.761073      33.724583      2603.5532    
       350   0             -831.33009      1.4414858e-06  1.0312664e-07  2.2257913e-06  1.9955394e-06 -1.3185375      1.1203219e-05 -1.6777951e-05  7.1740485      10.761073      33.724583      2603.5532    
       351   0             -831.33009     -6.8136029e-07 -1.8488824e-06  2.7374608e-07 -4.6894457e-07 -1.3185375      1.1654751e-06 -1.7508515e-06  7.1740485      10.761073      33.724583      2603.5532    
       352   0             -831.33009      9.4450653e-06  7.4629333e-06  9.5855809e-06  1.1286682e-05 -1.3185375     -5.0526882e-06  7.5641677e-06  7.1740485      10.761073      33.724583      2603.5532    
       353   0             -831.33009     -1.2369542e-06 -2.3598984e-06 -2.3720463e-07 -1.1137597e-06 -1.3185375     -3.0681419e-06  4.59548e-06    7.1740485      10.761073      33.724583      2603.5532    
       354   0             -831.33009      2.5761854e-06  1.1465969e-06  3.2692696e-06  3.3126897e-06 -1.3185375      8.4859325e-07 -1.2685487e-06  7.1740485      10.761073      33.724583      2603.5532    
       355   0             -831.33009      6.1869202e-06  4.466806e-06   6.589481e-06   7.5044736e-06 -1.3185375      1.777746e-06  -2.6615162e-06  7.1740485      10.761073      33.724583      2603.5532    
       356   0             -831.33009      2.1045947e-06  7.1288439e-07  2.8355511e-06  2.7653488e-06 -1.3185375      9.7553341e-07 -1.4618165e-06  7.1740485      10.761073      33.724583      2603.5532    
       357   0             -831.33009      2.8094776e-06  1.3611133e-06  3.4837429e-06  3.5835766e-06 -1.3185375     -7.9666238e-07  1.1918541e-06  7.1740485      10.761073      33.724583      2603.5532    
       358   0             -831.33009      4.4830371e-06  2.9000109e-06  5.0227014e-06  5.5263991e-06 -1.3185375     -7.7577601e-07  1.1616855e-06  7.1740485      10.761073      33.724583      2603.5532    
       359   0             -831.33009      2.2316371e-06  8.2973505e-07  2.9524071e-06  2.9127693e-06 -1.3185375     -2.4613276e-08  3.7456986e-08  7.1740485      10.761073      33.724583      2603.5532    
       360   0             -831.33009      4.0345e-06     2.4875863e-06  4.6102434e-06  5.0056702e-06 -1.3185375      3.1406451e-07 -4.699775e-07   7.1740485      10.761073      33.724583      2603.5532    
       361   0             -831.33009      3.087715e-06   1.6169724e-06  3.7396044e-06  3.9065681e-06 -1.3185375      1.9885897e-07 -2.9787634e-07  7.1740485      10.761073      33.724583      2603.5532    
       362   0             -831.33009      3.2726766e-06  1.7870352e-06  3.9096855e-06  4.1213089e-06 -1.3185375     -1.786137e-08   2.6585839e-08  7.1740485      10.761073      33.724583      2603.5532    
       363   0             -831.33009      3.4011469e-06  1.9051984e-06  4.0278427e-06  4.2703997e-06 -1.3185375     -1.1850653e-07  1.774176e-07   7.1740485      10.761073      33.724583      2603.5532    
       364   0             -831.33009      3.1836244e-06  1.7051323e-06  3.827832e-06   4.0179089e-06 -1.3185375     -6.6920979e-08  1.0026202e-07  7.1740485      10.761073      33.724583      2603.5532    
       365   0             -831.33009      3.3298604e-06  1.8396e-06     3.9622944e-06  4.1876869e-06 -1.3185375      3.3524254e-09 -4.9580177e-09  7.1740485      10.761073      33.724583      2603.5532    
       366   0             -831.33009      3.2700721e-06  1.7846526e-06  3.9073411e-06  4.1182227e-06 -1.3185375      2.3193891e-08 -3.4743181e-08  7.1740485      10.761073      33.724583      2603.5532    
       367   0             -831.33009      3.3025607e-06  1.8145403e-06  3.9372241e-06  4.1559175e-06 -1.3185375      7.9641629e-09 -1.2008095e-08  7.1740485      10.761073      33.724583      2603.5532    
       368   0             -831.33009      3.2980622e-06  1.810381e-06   3.9330772e-06  4.1507284e-06 -1.3185375     -6.3908849e-09  9.5970633e-09  7.1740485      10.761073      33.724583      2603.5532    
       369   0             -831.33009      3.2740681e-06  1.7883195e-06  3.9109931e-06  4.1228918e-06 -1.3185375     -4.6708219e-09  7.0018005e-09  7.1740485      10.761073      33.724583      2603.5532    
       370   0             -831.33009      3.303093e-06   1.8149825e-06  3.9376759e-06  4.1566205e-06 -1.3185375      1.8010052e-11  7.9508547e-12  7.1740485      10.761073      33.724583      2603.5532    
       371   0             -831.33009      3.2858563e-06  1.799141e-06   3.9218308e-06  4.1365972e-06 -1.3185375      1.4573816e-09 -2.2181214e-09  7.1740485      10.761073      33.724583      2603.5532    
Loop time of 0.0215713 on 4 procs for 58 steps with 144 atoms

54.3% CPU use with 4 MPI tasks x 1 OpenMP threads

Minimization stats:
  Stopping criterion = force tolerance
  Energy initial, next-to-last, final = 
     -831.330088708778  -831.330088787312  -831.330088787312
  Force two-norm initial, final = 0.0017204469 6.7874451e-11
  Force max component initial, final = 0.00023335565 1.0978551e-11
  Final line search alpha, max atom move = 1 1.0978551e-11
  Iterations, force evaluations = 58 116

MPI task timing breakdown:
Section |  min time  |  avg time  |  max time  |%varavg| %total
---------------------------------------------------------------
Pair    | 0.019014   | 0.019202   | 0.019393   |   0.1 | 89.02
Neigh   | 0          | 0          | 0          |   0.0 |  0.00
Comm    | 0.000737   | 0.00097475 | 0.001169   |   0.0 |  4.52
Output  | 0.000565   | 0.000589   | 0.000654   |   0.0 |  2.73
Modify  | 0          | 0          | 0          |   0.0 |  0.00
Other   |            | 0.0008058  |            |       |  3.74

Nlocal:             36 ave          36 max          36 min
Histogram: 4 0 0 0 0 0 0 0 0 0
Nghost:            284 ave         284 max         284 min
Histogram: 4 0 0 0 0 0 0 0 0 0
Neighs:            612 ave         612 max         612 min
Histogram: 4 0 0 0 0 0 0 0 0 0
FullNghs:         1224 ave        1224 max        1224 min
Histogram: 4 0 0 0 0 0 0 0 0 0

Total # of neighbors = 4896
Ave neighs/atom = 34
Neighbor list builds = 0
Dangerous builds = 0

# Obtain new stress tensor

variable tmp equal pe
variable e1 equal ${tmp}
variable e1 equal -831.330088787312
variable tmp equal press
variable p1 equal ${tmp}
variable p1 equal 3.28585634657314e-06
variable tmp equal pxx
variable pxx1 equal ${tmp}
variable pxx1 equal 1.79914095442643e-06
variable tmp equal pyy
variable pyy1 equal ${tmp}
variable pyy1 equal 3.92183084324852e-06
variable tmp equal pzz
variable pzz1 equal ${tmp}
variable pzz1 equal 4.13659724204445e-06
variable tmp equal pxy
variable pxy1 equal ${tmp}
variable pxy1 equal -1.31853754606111
variable tmp equal pxz
variable pxz1 equal ${tmp}
variable pxz1 equal 1.45738163933494e-09
variable tmp equal pyz
variable pyz1 equal ${tmp}
variable pyz1 equal -2.2181214065087e-09

# Compute elastic constant from pressure tensor

variable C1pos equal ${d1}
variable C1pos equal -0.000183902510632449
variable C2pos equal ${d2}
variable C2pos equal -0.000396143132641289
variable C3pos equal ${d3}
variable C3pos equal -0.000414323804187948
variable C4pos equal ${d4}
variable C4pos equal 2.17686460487159e-07
variable C5pos equal ${d5}
variable C5pos equal -1.44407612731981e-07
variable C6pos equal ${d6}
variable C6pos equal 131.853754605879

# Combine positive and negative

variable C1${dir} equal 0.5*(${C1neg}+${C1pos})
variable C16 equal 0.5*(${C1neg}+${C1pos})
variable C16 equal 0.5*(0.000183900802956607+${C1pos})
variable C16 equal 0.5*(0.000183900802956607+-0.000183902510632449)
variable C2${dir} equal 0.5*(${C2neg}+${C2pos})
variable C26 equal 0.5*(${C2neg}+${C2pos})
variable C26 equal 0.5*(0.000396138796500463+${C2pos})
variable C26 equal 0.5*(0.000396138796500463+-0.000396143132641289)
variable C3${dir} equal 0.5*(${C3neg}+${C3pos})
variable C36 equal 0.5*(${C3neg}+${C3pos})
variable C36 equal 0.5*(0.000414305269398343+${C3pos})
variable C36 equal 0.5*(0.000414305269398343+-0.000414323804187948)
variable C4${dir} equal 0.5*(${C4neg}+${C4pos})
variable C46 equal 0.5*(${C4neg}+${C4pos})
variable C46 equal 0.5*(-2.18216428510259e-07+${C4pos})
variable C46 equal 0.5*(-2.18216428510259e-07+2.17686460487159e-07)
variable C5${dir} equal 0.5*(${C5neg}+${C5pos})
variable C56 equal 0.5*(${C5neg}+${C5pos})
variable C56 equal 0.5*(1.45503043665416e-07+${C5pos})
variable C56 equal 0.5*(1.45503043665416e-07+-1.44407612731981e-07)
variable C6${dir} equal 0.5*(${C6neg}+${C6pos})
variable C66 equal 0.5*(${C6neg}+${C6pos})
variable C66 equal 0.5*(131.853754608348+${C6pos})
variable C66 equal 0.5*(131.853754608348+131.853754605879)

# Delete dir to make sure it is not reused

variable dir delete

# Output final values

variable C11all equal ${C11}
variable C11all equal 250.170463591326
variable C22all equal ${C22}
variable C22all equal 250.17046360723
variable C33all equal ${C33}
variable C33all equal 494.79601028821

variable C12all equal 0.5*(${C12}+${C21})
variable C12all equal 0.5*(147.244406284321+${C21})
variable C12all equal 0.5*(147.244406284321+147.244406270329)
variable C13all equal 0.5*(${C13}+${C31})
variable C13all equal 0.5*(151.974349119672+${C31})
variable C13all equal 0.5*(151.974349119672+151.974349123591)
variable C23all equal 0.5*(${C23}+${C32})
variable C23all equal 0.5*(151.974349120524+${C32})
variable C23all equal 0.5*(151.974349120524+151.974349137048)

variable C44all equal ${C44}
variable C44all equal 27.5739712493189
variable C55all equal ${C55}
variable C55all equal 27.5739712376228
variable C66all equal ${C66}
variable C66all equal 131.853754607114

variable C14all equal 0.5*(${C14}+${C41})
variable C14all equal 0.5*(-1.16062262523984e-08+${C41})
variable C14all equal 0.5*(-1.16062262523984e-08+1.420029479591e-09)
variable C15all equal 0.5*(${C15}+${C51})
variable C15all equal 0.5*(5.49547602589961e-09+${C51})
variable C15all equal 0.5*(5.49547602589961e-09+-2.12871942819099e-09)
variable C16all equal 0.5*(${C16}+${C61})
variable C16all equal 0.5*(-8.53837921007306e-10+${C61})
variable C16all equal 0.5*(-8.53837921007306e-10+1.07947138127261e-09)

variable C24all equal 0.5*(${C24}+${C42})
variable C24all equal 0.5*(-1.27361526735502e-08+${C42})
variable C24all equal 0.5*(-1.27361526735502e-08+1.48653838387399e-09)
variable C25all equal 0.5*(${C25}+${C52})
variable C25all equal 0.5*(5.20846103959927e-09+${C52})
variable C25all equal 0.5*(5.20846103959927e-09+-2.9590590661405e-09)
variable C26all equal 0.5*(${C26}+${C62})
variable C26all equal 0.5*(-2.16807041300581e-09+${C62})
variable C26all equal 0.5*(-2.16807041300581e-09+-2.31576039569618e-09)

variable C34all equal 0.5*(${C34}+${C43})
variable C34all equal 0.5*(-1.56488217539926e-08+${C43})
variable C34all equal 0.5*(-1.56488217539926e-08+5.25257057025649e-09)
variable C35all equal 0.5*(${C35}+${C53})
variable C35all equal 0.5*(1.05832142909972e-08+${C53})
variable C35all equal 0.5*(1.05832142909972e-08+-2.935600549582e-09)
variable C36all equal 0.5*(${C36}+${C63})
variable C36all equal 0.5*(-9.2673948024868e-09+${C63})
variable C36all equal 0.5*(-9.2673948024868e-09+-2.17671646303877e-09)

variable C45all equal 0.5*(${C45}+${C54})
variable C45all equal 0.5*(-1.2504421766904e-08+${C54})
variable C45all equal 0.5*(-1.2504421766904e-08+-9.761467620154e-09)
variable C46all equal 0.5*(${C46}+${C64})
variable C46all equal 0.5*(-2.6498401155e-10+${C64})
variable C46all equal 0.5*(-2.6498401155e-10+5.50837949278725e-11)
variable C56all equal 0.5*(${C56}+${C65})
variable C56all equal 0.5*(5.47715466717508e-10+${C65})
variable C56all equal 0.5*(5.47715466717508e-10+6.7942017988068e-10)

# Average moduli for cubic crystals

variable C11cubic equal (${C11all}+${C22all}+${C33all})/3.0
variable C11cubic equal (250.170463591326+${C22all}+${C33all})/3.0
variable C11cubic equal (250.170463591326+250.17046360723+${C33all})/3.0
variable C11cubic equal (250.170463591326+250.17046360723+494.79601028821)/3.0
variable C12cubic equal (${C12all}+${C13all}+${C23all})/3.0
variable C12cubic equal (147.244406277325+${C13all}+${C23all})/3.0
variable C12cubic equal (147.244406277325+151.974349121632+${C23all})/3.0
variable C12cubic equal (147.244406277325+151.974349121632+151.974349128786)/3.0
variable C44cubic equal (${C44all}+${C55all}+${C66all})/3.0
variable C44cubic equal (27.5739712493189+${C55all}+${C66all})/3.0
variable C44cubic equal (27.5739712493189+27.5739712376228+${C66all})/3.0
variable C44cubic equal (27.5739712493189+27.5739712376228+131.853754607114)/3.0

variable bulkmodulus equal (${C11cubic}+2*${C12cubic})/3.0
variable bulkmodulus equal (331.712312495589+2*${C12cubic})/3.0
variable bulkmodulus equal (331.712312495589+2*150.397701509248)/3.0
variable shearmodulus1 equal ${C44cubic}
variable shearmodulus1 equal 62.3338990313519
variable shearmodulus2 equal (${C11cubic}-${C12cubic})/2.0
variable shearmodulus2 equal (331.712312495589-${C12cubic})/2.0
variable shearmodulus2 equal (331.712312495589-150.397701509248)/2.0
variable poissonratio equal 1.0/(1.0+${C11cubic}/${C12cubic})
variable poissonratio equal 1.0/(1.0+331.712312495589/${C12cubic})
variable poissonratio equal 1.0/(1.0+331.712312495589/150.397701509248)

# For Stillinger-Weber silicon, the analytical results
# are known to be (E. R. Cowley, 1988):
#               C11 = 151.4 GPa
#               C12 = 76.4 GPa
#               C44 = 56.4 GPa

print "========================================="
=========================================
print "Components of the Elastic Constant Tensor"
Components of the Elastic Constant Tensor
print "========================================="
=========================================

print "Elastic Constant C11all = ${C11all} ${cunits}"
Elastic Constant C11all = 250.170463591326 GPa
print "Elastic Constant C22all = ${C22all} ${cunits}"
Elastic Constant C22all = 250.17046360723 GPa
print "Elastic Constant C33all = ${C33all} ${cunits}"
Elastic Constant C33all = 494.79601028821 GPa

print "Elastic Constant C12all = ${C12all} ${cunits}"
Elastic Constant C12all = 147.244406277325 GPa
print "Elastic Constant C13all = ${C13all} ${cunits}"
Elastic Constant C13all = 151.974349121632 GPa
print "Elastic Constant C23all = ${C23all} ${cunits}"
Elastic Constant C23all = 151.974349128786 GPa

print "Elastic Constant C44all = ${C44all} ${cunits}"
Elastic Constant C44all = 27.5739712493189 GPa
print "Elastic Constant C55all = ${C55all} ${cunits}"
Elastic Constant C55all = 27.5739712376228 GPa
print "Elastic Constant C66all = ${C66all} ${cunits}"
Elastic Constant C66all = 131.853754607114 GPa

print "Elastic Constant C14all = ${C14all} ${cunits}"
Elastic Constant C14all = -5.0930983864037e-09 GPa
print "Elastic Constant C15all = ${C15all} ${cunits}"
Elastic Constant C15all = 1.68337829885431e-09 GPa
print "Elastic Constant C16all = ${C16all} ${cunits}"
Elastic Constant C16all = 1.12816730132652e-10 GPa

print "Elastic Constant C24all = ${C24all} ${cunits}"
Elastic Constant C24all = -5.6248071448381e-09 GPa
print "Elastic Constant C25all = ${C25all} ${cunits}"
Elastic Constant C25all = 1.12470098672939e-09 GPa
print "Elastic Constant C26all = ${C26all} ${cunits}"
Elastic Constant C26all = -2.241915404351e-09 GPa

print "Elastic Constant C34all = ${C34all} ${cunits}"
Elastic Constant C34all = -5.19812559186806e-09 GPa
print "Elastic Constant C35all = ${C35all} ${cunits}"
Elastic Constant C35all = 3.8238068707076e-09 GPa
print "Elastic Constant C36all = ${C36all} ${cunits}"
Elastic Constant C36all = -5.72205563276279e-09 GPa

print "Elastic Constant C45all = ${C45all} ${cunits}"
Elastic Constant C45all = -1.1132944693529e-08 GPa
print "Elastic Constant C46all = ${C46all} ${cunits}"
Elastic Constant C46all = -1.04950108311064e-10 GPa
print "Elastic Constant C56all = ${C56all} ${cunits}"
Elastic Constant C56all = 6.13567823299094e-10 GPa

print "========================================="
=========================================
print "Average properties for a cubic crystal"
Average properties for a cubic crystal
print "========================================="
=========================================

print "Bulk Modulus = ${bulkmodulus} ${cunits}"
Bulk Modulus = 210.835905171362 GPa
print "Shear Modulus 1 = ${shearmodulus1} ${cunits}"
Shear Modulus 1 = 62.3338990313519 GPa
print "Shear Modulus 2 = ${shearmodulus2} ${cunits}"
Shear Modulus 2 = 90.6573054931705 GPa
print "Poisson Ratio = ${poissonratio}"
Poisson Ratio = 0.311957223746319
Total wall time: 0:00:00
