ITEM: TIMESTEP
0
ITEM: NUMBER OF ATOMS
6000
ITEM: BOX BOUNDS pp pp pp
-1.0118547279446943e-01 2.7442185472794353e+01
-9.0861245751494124e-02 2.7431861245751442e+01
-3.6271280999746125e-01 1.0972671280999619e+02
ITEM: ATOMS id type x y z c_peratom fx fy fz 
122 2 5.34652 5.27923 5.13099 -25.8255 1.24958 1.80518 -0.995652 
601 2 5.42615 2.69509 2.02042 -25.2024 -0.540594 -0.950626 2.56473 
602 2 5.55574 2.65825 7.57607 -25.2084 0.630144 3.36812 1.13916 
1021 2 2.64678 5.5184 2.31902 -25.4112 0.71629 -0.43933 -0.0956418 
1022 2 2.5883 5.48217 7.94694 -26.2531 0.697093 2.48122 -3.58302 
1502 2 2.62132 2.78686 4.98541 -24.6479 1.33227 -0.624425 0.598511 
2001 1 1.54457 1.37562 1.02116 -8.51111 -2.47868 1.3463 -1.59224 
2002 1 1.60514 1.37118 6.37779 -7.82617 0.441246 -2.13882 1.17777 
2501 1 4.10756 4.17265 3.64758 -6.80138 -3.90338 -0.365154 0.173558 
3001 1 4.04899 3.9956 0.872458 -7.83743 -0.387595 0.391164 -0.491126 
3002 1 4.17695 3.9684 6.46257 -7.35385 -3.4428 0.0315825 -2.36271 
3501 1 1.38817 1.12646 3.68738 -7.5207 -1.42378 1.84595 1.08297 
4001 1 4.05644 1.50327 3.3701 -7.38769 -0.290455 0.289459 1.20206 
4501 1 1.38845 4.23753 1.07769 -7.02344 -1.53156 -2.16758 -0.533889 
4502 1 1.18198 3.97605 6.88196 -6.20845 2.11781 -1.73026 -1.46874 
5001 1 1.28918 4.0017 3.75686 -8.50727 -1.2997 0.126575 0.607953 
5501 1 4.3179 1.10604 0.697406 -7.55782 -1.60367 1.52803 1.81377 
5502 1 4.5228 1.28733 6.26273 -8.56536 -3.45252 -0.78975 1.26037 
5101 1 6.45176 4.18417 3.49748 -6.28447 3.37495 -0.732997 -1.55133 
2022 1 1.05055 6.37194 6.32936 -6.40423 0.81297 2.05965 -1.93075 
4601 1 6.6999 3.80015 0.783975 -7.77401 1.99719 2.31129 -1.96226 
1002 2 3.12681 -0.047185 7.75754 -22.7356 -2.01879 1.06082 -0.495318 
5521 1 4.25303 6.76515 1.02415 -7.33909 -3.37616 -1.23977 0.103739 
3521 1 1.09824 6.76479 3.41633 -7.36574 0.58805 0.0764657 0.160556 
2021 1 1.23165 6.74277 0.604747 -7.47274 -0.462099 0.50301 2.4461 
102 2 5.39432 0.108328 4.76508 -24.4664 1.29846 -3.11551 -1.02912 
2502 1 4.59731 4.46314 8.77581 -6.5543 -2.88939 -0.852764 1.05812 
1001 2 2.48983 -0.0131991 2.2304 -24.9393 4.31315 -2.91789 2.60297 
501 2 -0.0663122 2.59987 2.40019 -24.4714 -0.105438 0.0200207 -0.584867 
2102 1 7.16238 1.30364 6.81624 -6.15122 -1.0106 -0.766109 -2.48108 
4602 1 6.79851 3.74169 6.07558 -6.97137 -1.45916 2.31579 1.40593 
2101 1 6.90162 1.19211 0.374984 -6.58419 -1.34378 -0.242803 2.92639 
3601 1 6.85685 1.23029 3.60238 -8.11731 -0.00294267 1.47794 -1.02464 
222 2 10.7999 5.14936 5.07762 -24.8623 -0.545904 2.66382 -1.64806 
701 2 10.7003 2.60029 2.2639 -25.1757 -0.02689 -1.41398 -1.61729 
702 2 10.9775 2.58908 7.69522 -24.6759 -2.91154 0.430467 3.32547 
1121 2 8.15287 5.23621 1.98936 -25.3059 -1.6484 0.884325 2.55428 
1122 2 8.30359 5.60883 7.85143 -24.6689 -3.28808 -4.16317 -1.44073 
1602 2 8.23021 2.60246 5.05683 -25.3582 0.292772 -1.81027 -0.874328 
2201 1 12.1408 1.32623 1.15685 -7.09883 0.0671527 -0.471701 -1.55654 
2202 1 12.3445 1.35034 6.5713 -8.20212 1.05812 -3.02137 -3.05636 
2601 1 9.33148 4.00825 3.51607 -7.57191 0.284247 -1.58425 1.45067 
3101 1 9.69402 4.03593 0.959442 -7.17531 1.22227 3.22744 -0.334858 
3102 1 9.37368 4.03177 6.40532 -7.72623 1.10482 -0.158319 0.472523 
3701 1 12.1111 0.814987 3.66022 -7.45057 2.14193 2.98997 1.3304 
4101 1 9.59984 1.32035 3.66109 -7.17983 -1.09723 1.2027 0.840556 
4701 1 12.6178 4.15937 0.620187 -7.50321 -2.65504 2.34172 1.67834 
4702 1 12.0137 3.76599 6.16195 -8.00375 1.98218 0.706973 0.771599 
5201 1 12.1721 3.71999 3.48498 -8.44458 -0.450083 0.978444 -0.719032 
5601 1 9.2626 1.54862 0.758253 -6.59394 1.83413 -1.45915 0.619985 
5602 1 9.58799 1.18376 6.46916 -7.41586 1.87201 1.48839 0.244261 
5622 1 9.69168 6.71573 6.42194 -7.88306 0.110555 -0.888433 0.647474 
2122 1 6.84355 6.57165 6.41504 -7.53907 -0.765201 -0.770881 0.524934 
4121 1 9.55026 6.49619 3.65229 -6.86823 0.667244 0.244615 -0.205054 
3721 1 12.3209 6.4842 3.79665 -7.83622 -0.101502 -1.51098 0.964493 
2222 1 12.4301 6.49724 6.68388 -7.19462 -1.54759 -1.45618 -0.376009 
1101 2 8.09228 0.00621541 1.97336 -25.487 1.49254 1.24077 0.922198 
1702 2 13.3926 2.38983 4.70607 -24.194 1.35256 1.45939 3.03806 
202 2 10.8703 0.0058013 5.221 -24.7017 -0.748207 -2.71997 -2.36936 
1222 2 13.6601 5.23762 7.81811 -24.3457 1.40853 0.265173 1.77534 
221 2 11.0483 5.62097 -0.285336 -24.3493 -0.598158 -2.13301 -2.88195 
5522 1 3.95986 6.94886 6.65671 -7.63025 0.213709 0.305314 -0.638433 
2121 1 6.7105 6.81105 1.08775 -7.29731 3.1157 -1.88569 -1.16553 
4021 1 3.7382 6.84096 3.85111 -7.60235 1.53555 -0.0770525 -0.0325818 
142 2 5.61726 10.9431 5.11074 -25.1357 -1.92941 1.07013 2.24195 
621 2 5.52887 8.10935 2.27962 -25.4688 -0.844699 1.35827 0.736891 
622 2 5.22574 8.30926 8.19598 -24.6128 1.36646 -1.50011 -3.15417 
1041 2 2.51865 11.0347 2.41172 -24.8719 -0.25384 -1.08581 -0.817405 
1042 2 2.73885 10.8672 8.02087 -24.9078 -3.1901 3.72325 -3.66081 
1522 2 2.86067 8.35193 5.16464 -24.1859 -1.07503 -0.422805 0.64001 
2041 1 1.35173 12.4018 0.622845 -7.54622 -0.322477 0.136602 1.93822 
2042 1 1.23543 12.3493 6.67691 -7.37071 1.38017 -1.16269 -1.30981 
2521 1 4.19362 9.51327 3.38808 -7.79471 -1.05323 0.514655 2.12588 
3021 1 4.33688 9.35239 0.59011 -6.59972 0.207915 -0.532679 -0.528412 
3022 1 4.18052 9.86044 6.50563 -7.73298 -1.46887 -2.11448 -0.921895 
3541 1 1.03481 12.5011 3.33618 -7.60247 0.589811 -2.98594 2.98198 
4041 1 3.45918 12.336 3.89998 -6.83085 2.09717 0.339718 1.37143 
4521 1 1.29738 9.62583 0.699057 -7.48872 3.0315 -0.945682 4.38361 
4522 1 1.49301 9.12788 6.87279 -7.77676 -0.576518 0.811197 -1.47628 
5021 1 1.14565 9.52541 3.70977 -8.67734 0.909123 1.45848 0.872956 
5541 1 4.10432 11.8881 1.31091 -7.00319 1.42742 1.17378 -2.04466 
5542 1 4.32743 12.4034 6.53932 -6.51113 -1.33035 1.20975 -0.53925 
3641 1 6.46255 12.6747 3.97706 -7.97547 1.16611 -1.14292 1.82381 
4622 1 6.72105 9.4254 6.61023 -7.3654 0.0808156 -0.012856 -1.44685 
2141 1 6.73135 12.2626 1.00597 -8.19116 1.25262 0.692191 -0.624437 
641 2 5.47905 13.4625 2.39888 -25.1955 -4.14234 4.07518 -2.39358 
2221 1 12.6286 6.9552 1.21939 -8.66463 -2.28242 -0.869341 -1.90565 
4621 1 7.11331 9.48099 1.13368 -8.24314 -0.214553 -0.228831 -1.59207 
5121 1 6.98622 9.97334 3.83828 -7.19072 0.581733 -1.39358 -0.775489 
3621 1 6.87144 6.91577 3.74586 -6.73666 -1.31895 1.17235 0.422327 
2142 1 6.91148 12.2859 6.70634 -7.19297 1.945 -0.945727 -0.979116 
5621 1 9.53229 6.98511 0.934307 -8.92277 1.24976 -2.42167 -0.712115 
242 2 10.9103 10.4878 5.16566 -25.3396 0.279814 -0.0265508 -3.3613e-05 
721 2 11.006 7.74894 2.4811 -24.7476 -0.931197 3.67157 1.74767 
722 3 10.7377 7.95841 8.13048 -29.2733 2.42885 2.44108 -1.39536 
1141 3 8.44137 10.5572 2.11812 -28.3778 0.836676 1.78063 2.25972 
1142 3 8.01155 10.8381 7.80271 -28.0102 0.17183 -0.633364 0.175279 
1622 2 8.17029 7.979 5.41666 -25.3536 -0.0386494 1.13159 -3.27769 
2241 1 12.1135 12.5503 0.805087 -7.34854 2.04467 0.0553554 0.778039 
2242 1 12.5159 11.8702 6.54699 -7.90337 -1.48754 -2.23379 2.44621 
2621 1 9.59067 9.1899 3.88591 -7.40693 -0.213523 0.322975 0.247657 
3121 1 10.0134 9.59098 1.1752 -7.17463 -0.372832 -0.510422 0.605622 
3122 1 9.30524 9.26326 6.82873 -7.44067 -0.549368 2.05248 -0.453503 
3741 1 12.0779 12.0226 3.84819 -7.56023 0.0681439 -0.630157 -1.02176 
4141 1 9.21938 12.0928 3.35017 -7.05422 -0.177589 1.10537 0.940451 
4721 1 12.7022 9.82274 1.01184 -7.19145 0.114444 -1.53443 -1.30466 
4722 1 11.8225 8.90972 6.5218 -6.55066 0.744421 1.90467 0.047792 
5221 1 12.3062 9.12835 3.90066 -7.347 0.399985 1.44251 -0.963042 
5641 1 9.57776 12.2873 0.795486 -7.26582 -1.39789 0.0153473 0.39914 
5642 1 9.87369 12.1966 6.11468 -7.52269 -1.5602 -0.740294 0.919828 
1722 2 13.6042 7.88495 5.29994 -25.9732 -0.244205 1.34839 -1.15762 
742 2 10.8747 13.3303 7.94638 -24.3432 1.73495 2.48558 -1.84837 
1621 2 8.16566 8.10698 -0.341252 -24.038 -1.65072 -0.426122 -0.678342 
1241 2 13.6292 11.0191 2.48372 -24.6879 -0.756367 -1.9609 -0.402311 
1742 2 13.4825 13.2992 5.32435 -24.9405 1.43249 2.15389 -3.61655 
24 3 -0.0806491 5.38692 15.7782 -27.572 0.295345 -1.06332 1.34536 
4504 1 0.987823 3.83876 17.8551 -6.82193 1.90725 1.22488 -0.369659 
104 2 5.35493 -0.0365521 15.8437 -24.2315 -0.451466 -1.92365 2.64113 
2004 1 1.26024 1.29077 17.596 -7.91181 -0.838568 -1.7226 -0.673857 
5504 1 3.91015 1.52414 17.4368 -7.85356 0.965472 -2.82631 0.10624 
23 3 -0.0726659 5.63298 10.5791 -28.6589 -0.0370051 -1.75606 -1.34072 
3502 1 0.986066 2.0367 9.42115 -7.6242 -0.649343 -2.883 1.43085 
123 3 5.3759 5.31893 10.3341 -28.7129 0.158872 0.610644 2.6501 
124 2 5.39967 5.44178 16.1498 -25.7996 -0.264358 0.0805854 -0.468483 
603 2 5.49887 2.60181 13.2278 -25.1517 -0.502665 0.510419 4.14951 
1023 2 2.75206 5.61237 13.4115 -26.0352 -0.645037 0.944756 0.516176 
1503 2 2.47084 2.9417 10.8801 -24.1564 0.145659 -1.21674 -0.0628611 
1504 3 2.68123 2.6803 16.1018 -28.2698 -1.09094 0.203688 0.336043 
2003 1 1.22223 1.33388 12.1525 -8.33331 -0.673099 0.0913125 -3.38448 
2503 1 4.5483 4.34329 14.4394 -6.88124 -3.0294 -0.770591 1.24508 
3003 1 3.70587 4.44813 11.9394 -7.22329 0.548855 -3.17939 -3.38692 
3503 1 1.47162 1.62916 14.5048 -7.26531 -0.851753 -0.856644 2.84619 
4002 1 3.80572 1.26264 9.52505 -7.95424 -1.20771 0.0822941 -1.62652 
4003 1 4.05267 1.50319 14.7887 -8.21694 0.409071 -0.630511 0.0902469 
4503 1 1.08431 4.24605 12.3822 -7.50651 0.595398 -1.95561 -0.334196 
5002 1 1.68144 4.38289 9.38769 -7.28889 -1.57216 -1.05918 4.64824 
5003 1 1.60149 4.20977 15.1347 -7.91926 0.554919 2.13755 -0.00442534 
5503 1 4.15755 1.28293 12.1475 -8.03538 -0.194089 1.59604 -1.7814 
3603 1 6.71502 0.790559 14.4203 -7.88793 -0.878044 1.74991 -0.417408 
2023 1 1.14418 6.66151 11.7438 -7.22801 0.0968739 2.83462 -0.241211 
103 2 5.54291 0.103288 10.4257 -24.3066 -0.705737 -1.76061 2.61373 
3004 1 3.8371 4.02831 17.4903 -8.09143 0.347184 1.46619 -1.48542 
3602 1 6.38439 1.57268 9.14098 -7.35154 1.41859 -1.38678 2.91251 
4603 1 6.25408 3.89658 11.876 -6.69852 2.69545 2.04366 -2.55012 
2123 1 6.70161 6.35318 12.0998 -7.06625 -0.73851 2.18544 -1.84078 
3623 1 6.56908 6.7401 14.705 -7.49265 2.77699 -0.625103 -0.0785471 
2024 1 1.38175 6.68273 17.2206 -8.11618 -0.7885 -0.388441 -0.496519 
1003 2 2.77288 0.130611 13.2896 -24.7891 -2.03079 -2.50167 2.12674 
3 2 -0.094317 0.0820337 10.5596 -24.5176 -1.75715 0.246377 -0.412432 
3104 1 9.91008 4.28537 17.24 -7.95291 -1.30294 -1.75636 0.946792 
2103 1 6.93444 1.54695 11.8366 -7.89801 0.540845 -3.14563 0.154315 
5103 1 6.95673 3.76029 14.6237 -6.8166 1.65519 -1.00644 -0.155563 
5102 1 6.84592 4.1487 9.37048 -6.46951 2.27676 0.779061 -0.573754 
4704 1 12.7537 4.20867 17.7864 -7.45448 0.898343 -1.02923 -1.83566 
2204 1 12.4097 1.46211 17.4404 -7.32876 0.172102 0.474369 0.397332 
2104 1 6.94286 1.08565 17.0534 -7.68473 0.0750132 1.44023 0.96091 
2602 1 9.37106 4.06694 9.15957 -7.29343 1.31404 -0.426654 0.147417 
223 2 10.7006 5.32142 10.4931 -24.1907 -0.0840027 0.189636 1.0954 
224 3 10.6411 5.54262 15.9737 -28.989 2.14387 2.28047 -0.136732 
703 2 11.0281 2.62062 13.2836 -24.4749 -0.0156097 0.000526317 -0.0701423 
1123 3 8.05763 5.38831 13.1912 -28.2626 -1.14283 -1.09094 1.37101 
1603 3 7.97881 2.53348 10.515 -28.8223 1.4872 2.36199 -1.95352 
1604 2 8.35853 2.58204 16.1207 -24.4391 -1.23048 2.07777 -1.28613 
2203 1 12.436 1.0293 11.7324 -7.27469 -1.47793 0.81852 1.48179 
2603 1 9.46027 4.43428 14.6489 -7.30319 0.627711 -1.62579 -1.03517 
3103 1 9.56964 3.94506 11.9641 -8.17274 -0.058303 1.4951 0.109757 
3702 1 12.4057 1.35101 9.0901 -7.1124 -0.612483 0.254301 0.134086 
3703 1 12.2866 0.918376 14.7279 -7.6307 -1.85678 3.02221 -0.595881 
4102 1 9.1856 1.27837 9.17846 -7.36353 1.19636 -1.06555 0.407761 
4103 1 9.55527 1.34123 14.4769 -8.31168 -0.23456 1.35997 1.39169 
4703 1 12.7365 3.84178 12.3435 -7.8169 -1.8893 -0.608375 -1.2066 
5202 1 12.0814 4.00453 9.32981 -8.29215 1.52169 0.42653 -0.96972 
5203 1 12.1849 3.9207 15.119 -7.53049 -0.319118 -0.283717 -1.16266 
5603 1 9.71928 1.35478 11.7323 -7.52432 -0.442273 -1.12537 1.02319 
5604 1 9.68657 1.39569 17.4541 -8.10766 -0.754148 0.104688 -1.17873 
4122 1 9.48743 6.72887 9.1142 -8.05013 1.39143 1.20061 1.71294 
4604 1 6.8661 4.076 17.3343 -7.77493 0.282221 -0.511168 1.21273 
3723 1 12.2167 6.75927 14.8488 -6.92229 -0.677031 -1.51302 -1.16539 
1103 2 8.26645 -0.0702611 13.2944 -24.472 0.623843 -0.730244 -1.07966 
2144 1 6.60308 12.335 17.292 -7.03923 -2.24392 -0.651199 1.95067 
2044 1 1.16454 12.3472 17.6002 -7.42592 -0.952667 -2.03129 -0.222465 
1544 3 2.30345 13.5287 16.2754 -29.1302 2.10991 1.37546 -0.883812 
3024 1 4.01531 9.51462 17.463 -7.21619 -1.52669 1.54721 0.947174 
4023 1 4.07529 7.02935 14.7694 -6.17509 -1.43281 -4.32291 1.07098 
3522 1 0.942421 6.79414 8.90311 -6.87943 -1.23762 2.11318 1.39728 
643 2 5.35169 13.5882 13.2327 -24.1126 2.09373 0.338354 2.43557 
2124 1 6.54334 6.88788 17.4165 -6.84529 1.4247 -1.20044 0.132512 
5524 1 4.0638 6.83811 17.4967 -7.15525 -2.60808 -1.61063 1.07968 
5544 1 3.80305 12.4446 17.5317 -7.41679 -0.110146 -1.28087 -0.706278 
4022 1 3.76219 6.89339 9.33051 -7.36844 1.13237 1.04939 0.77158 
2522 1 3.90903 9.66858 9.22946 -8.80578 1.95899 -0.772567 3.79478 
5523 1 3.81055 7.01805 12.0456 -6.43014 1.24111 1.03203 -0.544288 
3523 1 1.49828 7.19604 14.3797 -7.70554 -2.09872 -1.86669 0.730167 
3542 1 1.39613 12.6969 9.35684 -7.16917 -2.36217 0.887987 0.319905 
143 2 5.11742 11.2182 10.5174 -24.2297 2.10656 -1.6316 0.888348 
144 2 5.00641 10.9957 16.1345 -25.658 1.66699 -0.80954 -0.134025 
623 2 5.39589 8.15769 13.4311 -26.276 -3.59169 -1.14199 -1.77444 
1043 3 2.34438 10.8722 13.6578 -29.4615 1.07376 -0.120791 -0.565963 
1523 2 2.43025 8.52058 10.8407 -25.1242 0.728931 -2.70087 -0.404086 
1524 3 2.49815 8.15873 16.004 -29.6626 1.9225 0.116801 0.36702 
2043 1 1.47579 12.1885 12.3997 -6.87172 -0.456726 0.131133 -1.45765 
2523 1 3.82551 9.30044 14.9337 -6.11221 -0.123628 4.75981 -0.703065 
3023 1 3.72994 9.6033 12.2322 -6.98867 0.864481 2.57178 -0.719284 
3543 1 1.19073 12.4641 14.9655 -7.12562 -0.790475 -0.134045 0.398432 
4042 1 3.82445 12.4738 9.16103 -7.6015 1.11077 -0.182167 1.15465 
4043 1 3.6406 12.2171 14.843 -7.08351 1.47459 -2.66685 0.110534 
4523 1 1.16622 9.53109 12.337 -7.12285 1.33371 -0.185629 -0.0322327 
5022 1 1.29571 9.97531 9.45942 -7.9739 -1.4159 -0.726945 1.28935 
5023 1 1.29163 9.70079 15.0177 -7.42429 -0.624526 0.463801 -0.445454 
5543 1 4.10185 12.5587 11.9317 -8.22314 -1.14748 -0.0408662 -1.70387 
4524 1 1.23831 9.49426 17.5096 -8.23147 -0.805234 0.0504293 1.56535 
5123 1 6.41843 9.56659 14.6127 -7.58647 3.32055 2.04268 1.25004 
543 2 -0.0487493 13.5594 13.2668 -25.9375 -0.239012 0.0659789 1.19867 
4624 1 6.73777 9.49345 17.4722 -6.56302 -0.441431 0.877728 0.329264 
3643 1 6.52735 12.3872 14.8278 -7.91691 -0.85114 -2.78618 -4.46172 
3642 1 6.51267 12.5999 9.31111 -7.72596 1.51306 -0.565838 0.744734 
4623 1 6.42865 9.30855 11.8675 -7.31679 0.556889 0.274208 -0.9936 
1724 2 13.6304 8.23693 16.2166 -24.9463 -2.59768 -1.84743 -1.55668 
5122 1 6.86775 9.64712 9.11238 -7.73836 -0.789097 1.34921 1.78844 
4723 1 11.753 9.3908 11.7997 -6.19733 1.55728 0.0579329 0.208239 
5643 1 9.57043 12.3215 12.178 -7.77051 -0.746888 -0.72659 -0.917807 
1623 2 8.02969 8.18219 10.6088 -25.0895 -0.69643 1.39165 -1.67504 
2224 1 11.905 6.88052 17.3494 -6.99016 1.34273 0.931392 1.73946 
4724 1 12.1671 9.61417 17.443 -8.42219 1.58815 0.672788 0.872773 
5624 1 9.26098 6.95301 17.4331 -7.32641 0.0633067 -0.0750386 0.561964 
1143 2 8.07529 11.0355 13.3216 -24.3888 0.109073 -1.96048 0.17446 
3722 1 12.0694 6.86328 9.5847 -7.32989 -1.16291 -2.04617 -2.26233 
5623 1 9.1693 6.79368 11.7134 -8.12945 3.0935 -2.37573 2.74186 
1243 2 13.6152 10.8775 13.4714 -26.3717 -0.00151695 -2.15356 -0.113833 
4143 1 9.47476 12.1806 14.9025 -8.50977 -2.64746 1.04035 -0.341276 
3622 1 6.9357 7.04577 9.03632 -8.08206 -2.2682 -1.1903 1.43211 
5222 1 12.6179 9.43441 9.31306 -6.22536 -3.0169 0.794043 -1.18173 
1644 2 7.93371 13.3436 16.0337 -24.6523 3.2542 4.5513 2.03905 
2143 1 6.86909 12.1539 11.85 -7.82578 -0.897425 0.205079 0.7354 
723 2 10.7418 8.08774 13.3117 -25.8401 0.344022 0.647923 -0.191833 
3123 1 9.17399 9.50304 11.8524 -7.00298 -0.724765 1.83752 2.68684 
2223 1 12.3769 6.82152 12.1303 -7.35838 -1.22958 -2.4467 1.75467 
1624 2 7.85523 8.06925 15.9997 -25.6897 0.575978 2.54574 1.70254 
4123 1 9.3217 6.95173 14.7958 -7.65943 0.438067 -0.923252 -2.32497 
243 2 10.7118 11.0906 10.6785 -25.3703 0.650772 -3.506 1.52781 
5223 1 12.1289 9.30545 14.493 -6.42269 1.73565 0.445223 1.44095 
2244 1 11.4989 12.5649 17.0837 -6.77926 0.862794 0.142372 0.822323 
2243 1 12.2996 12.0199 12.1518 -6.83358 -0.730373 2.31901 -1.15106 
3742 1 12.3018 12.1318 9.55328 -8.59019 -1.6954 2.41134 -2.04741 
4142 1 9.39936 12.1091 8.97992 -9.16398 -0.622473 0.97937 1.30126 
2622 1 9.75476 9.48892 9.39989 -6.9221 -0.487196 -0.230484 -1.03057 
244 3 10.7201 11.0001 15.8525 -28.8724 1.30299 -3.32765 2.18719 
2623 1 9.53604 9.48542 14.625 -7.25845 -2.45463 1.51456 0.0617663 
3743 1 12.0369 11.839 14.6627 -6.4668 -0.585954 2.93166 -0.530269 
3124 1 9.43355 9.75617 17.4566 -6.63219 0.804923 0.883598 -1.43134 
1723 2 13.5307 8.00882 10.7047 -26.4062 1.58766 1.76131 0.471791 
1743 3 13.5669 13.6353 10.7292 -28.9885 0.862603 0.284583 -0.338214 
125 3 5.03467 5.30439 21.4396 -28.0871 3.67681 -0.6267 1.56939 
604 2 5.13475 2.71855 18.9071 -24.2977 2.1811 0.129305 -0.832682 
605 2 5.48278 2.60632 24.2202 -24.6431 -0.689425 1.37776 0.921657 
1024 2 2.41553 5.36171 18.7756 -24.8012 -0.294304 -0.00537023 -0.819678 
1025 3 2.42912 5.32524 24.2127 -28.7879 0.517773 1.0275 0.856205 
1505 3 2.47309 2.77546 21.4898 -28.0514 0.722742 0.419202 1.22702 
2005 1 1.28881 0.923688 23.0953 -6.78493 1.79562 -1.08985 -1.44987 
2504 1 3.86783 4.02816 20.1048 -8.16432 -1.00118 -0.0125617 0.587096 
2505 1 3.83597 3.57878 25.5522 -7.94793 1.43146 0.491059 -0.368819 
3005 1 4.26568 4.17033 22.7771 -7.49241 -0.474519 -2.30881 0.667961 
3504 1 1.05339 1.89799 20.574 -7.36567 0.0170004 -2.07613 -1.48971 
3505 1 0.891921 1.48268 25.5288 -7.07555 2.46871 -0.526382 2.61464 
4004 1 4.08594 1.25423 20.1564 -8.31236 -1.17403 -1.34419 1.10267 
4005 1 3.4665 0.596097 26.5212 -7.05903 -2.23606 1.81225 -2.8877 
4505 1 1.66902 3.80895 23.1583 -7.91012 -1.59692 -0.918621 0.39746 
5004 1 1.39844 4.50366 20.54 -6.91677 1.1706 -0.404795 0.64798 
5005 1 1.17999 4.07031 25.8429 -7.92054 0.226493 0.923145 -1.33355 
5505 1 4.1509 1.23532 23.2418 -7.45498 -2.80892 -0.864049 0.195722 
5104 1 6.48737 4.05938 20.3645 -7.71187 0.226222 -0.504989 -0.211174 
4024 1 4.31754 6.72027 20.5057 -8.47372 -2.78504 2.29599 -2.26672 
4025 1 3.36456 6.78473 25.598 -6.89717 2.42773 -1.38456 3.24079 
1506 2 2.48147 2.74213 27.1311 -25.5494 0.537817 -0.187499 0.589633 
2025 1 1.07958 6.51302 22.6711 -7.34398 1.21694 0.716002 1.29982 
126 2 5.21475 5.46095 27.0248 -24.4522 -1.24866 0.417101 1.26863 
5525 1 3.7996 6.63521 23.2851 -7.29057 -0.264284 1.01255 -3.62783 
5105 1 6.77786 4.19979 25.952 -8.12478 -2.98381 -0.58529 1.22608 
2105 1 6.58839 1.27896 22.8944 -7.52281 2.93483 -0.895203 -0.9235 
2125 1 6.42499 6.72575 22.645 -7.50191 0.574254 -0.449652 0.425565 
3625 1 6.53627 6.77979 25.3001 -8.16255 -1.10218 1.00326 2.52168 
505 3 -0.0548689 2.7017 24.356 -29.1168 -0.804958 -1.00552 -0.916391 
4605 1 7.00316 3.92256 23.2024 -7.71912 -2.69562 -1.10586 -1.50049 
3604 1 6.8768 1.34738 20.1112 -7.98424 0.292361 -0.703108 -0.797232 
3605 1 6.87282 1.46957 25.6564 -7.35411 -1.73773 -0.391804 -1.1161 
225 2 11.056 5.68869 21.7866 -24.1871 2.0774 -2.2069 0.402109 
704 2 11.1468 2.97955 18.6719 -25.4142 -0.829054 -2.47339 0.576944 
705 2 11.1466 2.72419 24.184 -24.5227 -3.25561 -0.257739 -0.860454 
1124 2 8.32065 5.48611 18.8084 -24.7915 -1.81799 1.62576 -2.28569 
1125 2 7.91825 5.32091 24.4227 -24.8205 3.20601 1.88375 0.502531 
1605 2 8.10154 2.969 21.536 -24.7807 0.410338 -2.37317 -0.0339774 
2205 1 12.5041 1.23516 23.04 -7.44117 -3.01349 3.54381 -2.93697 
2604 1 9.25527 3.9142 19.7637 -7.94976 0.845154 -2.61619 2.49494 
2605 1 9.27078 4.02262 25.8817 -7.314 2.35578 0.453196 -0.118388 
3105 1 9.46261 4.32732 23.0339 -7.7396 2.74503 -1.07512 -1.34599 
3704 1 12.4964 1.38225 20.2912 -6.94665 0.143395 0.289647 -0.214151 
3705 1 12.1844 1.63918 25.7258 -7.37591 1.68597 -0.0326977 1.15842 
4104 1 9.7926 0.898229 19.9901 -7.19291 -2.50835 0.617893 -1.98843 
4105 1 9.60468 1.26039 25.3411 -6.71496 -0.521322 0.37312 -0.461963 
4705 1 12.5332 4.20224 22.7293 -8.18083 -1.26037 -0.357632 3.24176 
5204 1 12.1375 3.99353 20.3001 -6.80267 0.197031 0.716813 0.326606 
5205 1 12.2495 4.23055 25.5566 -8.51308 -0.655615 1.19173 0.251249 
5605 1 9.50689 1.34408 22.5851 -6.87196 0.0771216 1.49161 -0.0832477 
1606 3 7.89668 2.70867 27.0547 -28.409 0.45867 -0.794071 -0.997973 
226 2 10.7759 5.44183 27.0472 -24.2382 0.296153 0.668042 0.667195 
3724 1 12.6554 6.55913 20.2029 -7.78205 1.68435 1.77704 0.970703 
3624 1 7.0136 6.69295 20.0498 -6.8419 0.767363 -0.625697 0.156323 
4124 1 10.067 6.58669 20.2311 -7.56462 -3.21213 1.81038 -2.12406 
206 2 10.7986 0.120719 26.8268 -25.4178 -1.04981 -0.406554 0.824182 
1104 3 8.2183 0.0260559 18.7852 -27.3616 0.148637 0.17743 -0.0378341 
644 2 5.38462 13.6065 18.8577 -25.9929 0.546715 -0.763361 -0.928395 
3525 1 0.837686 6.85822 25.3006 -7.28725 0.00451484 -1.84879 0.213104 
3524 1 1.11974 7.02591 20.1008 -7.34627 1.82613 -0.185697 -1.65076 
145 2 5.47039 10.4953 21.5674 -24.7693 -2.651 4.08577 -0.0216731 
624 2 5.20411 8.21038 18.8034 -25.7019 2.36933 -0.475957 -0.515417 
625 2 5.25639 8.13639 24.1504 -24.5285 -3.01955 -1.28081 1.79532 
1044 2 2.41747 11.0201 18.9084 -25.5666 1.95651 -0.835982 0.403538 
1045 2 2.60752 10.9855 24.294 -26.1608 -0.361999 -0.629645 -1.21975 
1525 2 2.73201 7.90995 21.5198 -24.6327 -2.91125 1.61122 1.36573 
2045 1 1.14418 12.0623 22.7589 -6.99825 1.08457 2.11035 1.23525 
2524 1 3.77386 9.49321 20.1826 -7.6332 2.42139 -1.26232 0.0742811 
2525 1 3.69509 9.51305 25.6419 -7.07007 1.6095 0.0493397 -0.655255 
3025 1 3.82591 9.47391 22.9861 -7.99134 0.825834 -1.07151 -1.62742 
3544 1 1.3335 12.4885 20.2025 -7.32341 -1.85816 -0.468791 -1.29121 
3545 1 1.50511 12.4871 25.4655 -7.51837 -0.738322 0.195538 1.05366 
4044 1 4.13044 12.1889 20.0725 -6.45958 -1.86435 -0.615612 1.16936 
4045 1 4.22759 12.0739 25.6092 -7.65234 -0.315294 1.27068 1.23703 
4525 1 0.963627 9.62051 23.315 -6.4974 0.579368 -1.62608 -2.34427 
5024 1 1.31019 9.64951 20.4797 -6.933 0.264551 -0.183024 -1.08835 
5025 1 1.01541 9.59474 25.6706 -7.10612 1.98037 1.14621 4.56687 
5545 1 4.13343 12.1984 22.856 -6.71393 -0.63282 -0.966558 0.410488 
1526 2 2.57914 8.33468 27.033 -25.4883 -0.593737 -1.73086 0.949889 
3644 1 6.62557 12.0226 20.0229 -7.21375 0.816956 -0.0245538 1.21407 
5125 1 6.53064 9.79166 25.7855 -8.00647 3.37536 -5.48224 -2.7907 
5124 1 6.69123 9.19191 20.3494 -8.16946 -0.455521 1.48378 -0.15452 
4625 1 6.67543 9.40127 23.1925 -8.28172 -0.19212 -0.902636 -2.09287 
146 2 5.476 10.8979 27.0554 -24.569 -2.88498 2.14013 3.72381 
645 2 5.44503 13.5907 24.3807 -25.1667 -1.22464 -1.20382 0.0431272 
1545 2 2.588 13.5961 21.4792 -25.6076 2.20261 -0.364855 1.86361 
4125 1 9.22751 6.83989 25.6276 -8.29181 1.02125 0.677684 1.01816 
1645 2 7.99223 13.5702 21.7346 -24.8347 0.488183 1.08024 0.0895361 
2145 1 6.86385 11.99 22.8065 -8.02442 -0.876755 1.1601 0.445727 
5625 1 9.545 6.93721 22.9426 -7.79316 0.972067 -1.11963 0.832855 
2225 1 12.7403 6.87263 23.1724 -8.12341 -3.46632 1.12619 -2.69434 
3725 1 12.0677 7.18801 25.7118 -7.90773 -0.262629 -1.64709 1.98524 
3645 1 6.89975 12.3065 25.8159 -8.0564 1.07945 0.666088 0.442722 
245 2 11.0517 10.8145 21.6129 -25.0558 -3.20341 1.07064 0.655175 
724 2 10.8517 8.43136 18.724 -24.7128 -1.22823 -2.87954 -1.07898 
725 2 10.7825 8.3874 24.3973 -24.5184 -0.236437 -2.0245 -0.952849 
1144 3 8.11048 10.8231 19.2301 -29.2825 -0.247267 -0.245725 -2.18323 
1145 2 7.9036 10.7669 24.3273 -24.2872 2.81703 2.87288 -0.710242 
1625 2 8.06009 7.88283 21.6499 -24.9349 -0.259577 0.835502 -1.70716 
2245 1 12.4486 12.301 22.7613 -7.64576 -1.20312 -0.64998 0.849139 
2624 1 9.39242 9.39104 19.9427 -7.47067 0.449085 0.0254793 2.23746 
2625 1 9.62374 9.88813 25.4398 -8.53848 -2.17551 -0.585132 1.52516 
3125 1 9.27759 9.39086 22.6534 -7.15762 0.689864 2.53024 1.1404 
3744 1 11.8695 11.789 19.8217 -7.93842 0.64053 1.08618 -0.264802 
3745 1 12.5163 12.3974 25.8932 -7.91746 -0.0327684 0.689994 -1.70912 
4144 1 9.24396 12.0928 20.8369 -7.24937 1.35632 -0.883795 0.232871 
4145 1 9.92395 12.7119 26.4633 -7.09307 -1.66962 2.26627 -1.5496 
4725 1 11.9316 9.73069 23.2344 -7.05277 1.35525 0.0836919 0.987479 
5224 1 12.3566 9.30894 20.7881 -8.04021 1.71043 -1.50664 -3.93128 
5225 1 12.2449 9.77728 25.787 -8.06377 0.962247 -1.54553 2.15721 
5645 1 9.49777 12.5865 23.5077 -6.70693 0.0814473 0.102184 0.923272 
1626 2 8.12637 8.25644 26.9796 -24.1691 -0.887543 0.424303 2.23054 
246 2 10.8997 10.9477 27.1259 -25.3241 0.294741 1.56631 1.44654 
1244 2 13.6142 10.8353 18.9617 -22.9289 -0.532643 1.68704 0.235835 
1726 3 13.4743 8.28282 27.0126 -27.7659 1.45569 -0.0498233 0.45291 
1245 2 13.6149 10.8462 24.4692 -25.1373 0.96495 1.5116 -2.1231 
5644 1 8.98676 12.5039 18.3431 -6.73094 -1.48265 -1.26481 -2.35247 
127 2 5.21392 5.59982 32.3922 -24.7083 0.34725 0.939655 3.38014 
606 2 5.29467 2.88177 30.0498 -24.7944 -3.71827 -1.82514 -1.08913 
607 2 5.3139 2.70573 35.2413 -25.2788 1.52583 -1.96293 2.05188 
1026 2 2.43385 5.70321 29.9047 -25.7688 1.29981 -2.20104 -2.30269 
1027 2 2.72624 5.4673 35.2282 -23.7793 0.237368 -1.11906 1.14965 
1507 2 2.39748 2.65106 33.0078 -23.817 1.02021 -1.15579 -1.98719 
2006 1 1.20547 1.55826 28.5476 -7.78346 2.54004 -0.93577 0.00163244 
2007 1 1.07406 1.40419 34.3417 -7.08243 3.68763 -0.607668 -1.11511 
2506 1 4.02915 4.3994 30.9852 -7.62072 -0.305017 0.380196 1.08513 
3006 1 3.79787 4.22512 28.31 -6.72962 -0.246024 -0.570453 -1.25106 
3007 1 4.06898 3.83309 33.802 -8.15521 -0.71122 1.95639 -1.52165 
3506 1 1.15087 1.58384 31.3831 -8.15483 2.42043 -0.520288 0.664119 
4006 1 3.93109 1.59987 31.4402 -7.60852 -1.04107 0.178655 1.56906 
4506 1 1.06776 4.30072 28.6161 -6.58534 1.64265 -0.0494311 0.379342 
4507 1 1.19241 3.9861 34.2598 -8.94333 0.152677 3.65128 -1.14159 
5006 1 1.23095 4.33514 31.4251 -7.91441 0.51185 -0.27557 0.673724 
5506 1 4.20778 1.54456 28.7084 -6.48501 -1.89712 -0.0944594 0.897068 
5507 1 4.08544 0.993548 34.2357 -8.00317 -1.20939 1.1415 -0.714246 
506 2 -0.0761981 2.84429 29.9513 -25.7685 0.604609 1.9937 0.761119 
3606 1 6.59699 1.68358 31.074 -7.2718 3.11797 -0.67043 2.70505 
4606 1 6.41385 4.20133 28.9902 -7.73046 1.73141 1.27768 -3.02061 
2106 1 6.72171 1.36925 28.241 -7.13626 0.666161 -0.94903 0.877054 
2127 1 6.60582 6.78297 33.7422 -6.81443 0.309452 0.455325 1.5062 
27 2 -0.0715702 5.53867 32.7405 -24.2358 -0.982375 0.0206187 -0.977629 
1006 2 2.67439 0.302355 30.0636 -24.8444 0.093719 -0.43666 -2.47379 
6 2 0.0311217 0.0221474 27.2574 -25.8527 -3.10227 1.92324 -1.93015 
507 3 -0.0994505 2.90899 35.3929 -28.6755 -0.455568 -3.48109 1.08653 
7 2 -0.0905095 0.110397 32.6996 -25.2873 0.745546 -2.54385 4.37811 
1206 2 13.5713 -0.0583868 29.6747 -25.1076 0.0971935 1.96572 0.454855 
207 2 10.9381 0.253787 32.5791 -24.8806 1.13277 -2.67561 -0.246468 
1706 2 13.5036 2.89521 27.1842 -25.6839 1.53243 -0.245859 0.11488 
5106 1 7.03092 4.79462 31.7324 -7.3079 0.354895 -2.56292 -1.87295 
4607 1 6.78664 4.05009 34.34 -6.73541 0.940439 -0.584884 -0.332356 
2107 1 6.89371 1.24388 34.2334 -7.55967 0.0258085 0.277824 -2.22832 
227 3 10.9338 5.39981 32.5681 -28.5147 -0.54356 1.19903 0.725665 
706 2 10.3139 2.63211 29.5379 -23.854 3.37424 -0.569075 1.83623 
707 2 11.0941 2.90928 35.4599 -24.3632 -0.289284 -0.402954 1.3886 
1126 2 7.94485 5.52348 29.7367 -24.8912 1.93093 2.76596 2.21147 
1127 2 8.25358 5.76954 35.5273 -25.4519 -0.846685 -1.40515 -0.686815 
1607 2 8.23891 2.8325 32.7441 -24.6998 -0.970631 1.14444 0.130643 
2206 1 11.9808 1.48829 28.4224 -7.51246 0.475677 -1.01176 -0.264939 
2207 1 12.3985 1.67764 33.9141 -8.47661 -0.665185 -1.01345 0.59499 
2606 1 9.4933 4.11809 31.0306 -7.57553 0.0504069 -0.833828 1.00727 
3106 1 9.07305 4.02416 28.4906 -8.53454 0.258797 0.624588 -1.76936 
3107 1 9.54264 4.45938 34.0624 -7.93621 0.445686 -1.21246 -0.598285 
3706 1 12.3651 1.22602 31.1368 -7.59964 0.0606441 1.21529 0.74592 
4106 1 9.47019 1.33537 31.4322 -7.80894 -0.778262 1.66146 -2.95124 
4706 1 12.2194 4.08214 28.4587 -6.77755 -3.73209 0.6837 -0.60148 
4707 1 12.2565 4.24805 34.1239 -8.11817 0.684972 1.10536 -0.252856 
5206 1 12.1925 4.43919 31.3482 -7.10789 1.09644 -1.587 0.292418 
5606 1 9.28793 1.1752 28.1015 -8.18614 -0.241699 1.7654 1.56061 
5607 1 9.68729 1.44995 33.9709 -8.16366 -0.374873 1.90811 2.61975 
2226 1 12.2478 6.73306 28.5837 -7.52236 -0.268157 1.32083 0.110567 
1107 2 8.47141 0.0373554 35.4518 -24.7529 -1.87516 -0.1963 -0.647996 
526 2 -0.026185 8.23278 29.9069 -25.8996 -2.75314 -0.0369113 -2.15973 
647 2 5.44431 13.5331 35.5206 -24.5349 1.48668 -0.0483295 0.494647 
5526 1 3.79993 6.80983 28.6149 -6.79842 0.972259 1.15368 -1.37085 
2026 1 1.10743 7.01248 28.047 -6.88662 -0.211946 -0.46343 0.401412 
4026 1 4.13673 7.16131 31.3471 -7.19623 0.729697 0.916091 -1.02537 
3526 1 1.41979 7.17657 31.0176 -7.23248 0.766309 -1.08153 2.50603 
46 2 -0.0655556 10.9611 27.2963 -25.0176 -2.75095 -1.08786 -2.93945 
2027 1 1.02508 7.20385 33.7962 -7.71513 1.6525 -2.34213 -0.200452 
5527 1 3.89337 6.82423 33.859 -8.1532 -1.1043 0.900853 1.9925 
147 3 5.32679 11.3218 32.6873 -28.1598 0.341307 -0.525849 -1.44788 
626 2 5.44395 8.44166 29.883 -26.0221 0.148326 -0.573647 -0.108878 
627 2 5.36454 8.29286 35.3083 -24.2324 1.91 -1.42705 -0.814174 
1046 2 2.36358 11.0656 29.9619 -24.5773 1.28267 1.01682 -0.0121404 
1047 3 2.7604 11.071 35.2933 -27.4868 -1.5571 0.213522 1.47139 
1527 2 2.53757 8.67241 32.8069 -24.2255 1.32305 -3.56231 -3.52655 
2046 1 1.03188 12.4868 28.2895 -8.34776 0.796894 0.694328 1.11301 
2047 1 1.33715 12.2945 34.2119 -8.37755 -0.278398 -0.406254 -1.63601 