LAMMPS (22 Dec 2022)
  using 1 OpenMP thread(s) per MPI task
Loaded 1 plugins from C:\Program Files\LAMMPS 64-bit 23Jun2022\plugins
Loaded 0 plugins from C:\Program Files\LAMMPS 64-bit 23Jun2022-MPI\plugins
Loaded 1 plugins from C:\Program Files\LAMMPS 64-bit 22Dec2022-MSMPI\plugins
Loaded 1 plugins from C:\Program Files\LAMMPS 64-bit 28Mar2023-MPI\plugins
#-----------------------------------------------------------------------------------------
# 4.2 Creation of Al-Mg-Zn alloys
#  Test: LAMMPS 64-bit 22Dec2022-MSMPI version
#-----------------------------------------------------------------------------------------
# Note: The key is to set the temperature process so that the nucleus of
#   the desired crystal (in this case, FCC Al) remains as small as possible.
#-----------------------------------------------------------------------------------------
clear
  using 1 OpenMP thread(s) per MPI task
Loaded 1 plugins from C:\Program Files\LAMMPS 64-bit 23Jun2022\plugins
Loaded 0 plugins from C:\Program Files\LAMMPS 64-bit 23Jun2022-MPI\plugins
Loaded 1 plugins from C:\Program Files\LAMMPS 64-bit 22Dec2022-MSMPI\plugins
Loaded 1 plugins from C:\Program Files\LAMMPS 64-bit 28Mar2023-MPI\plugins
echo both
#-------------------- Environment Settings -----------------------------------------------
variable       Tm equal  273+670.0 # <= near the melting point (640) + 30 K
variable  Tdesird equal  273+200.0 # Desired Temperature [K]

variable      cMg equal   0.066 # Mg concentration
variable      cZn equal   0.003 # Zn concentration

#variable      cVa equal 0.00016 # vacancy concentration (e.g., 0.016%)

variable      xha equal    1000 # simulation size, x axis [Angstrom] (e.g., 50 - 1000)
variable      yha equal    1000 # simulation size, y axis [Angstrom] (e.g., 50 - 1000)
variable      zha equal      10 # simulation size, z axis [Angstrom] (e.g.,  8 - 20)

variable Nout     equal    1000 # output (e.g., 10 - 1000)

variable rseed    equal   12345 # random seed (Note: If you want different results, use different values.)

#-------------------- Initialization -----------------------------------------------------
units metal
dimension 3
boundary p p p

#-------------------- Atom & Lattice description ----------------------------------------
atom_style atomic

#----------------------------------------------------------------------
region box block 0 ${xha} 0 ${yha} 0 ${zha} units box
region box block 0 1000 0 ${yha} 0 ${zha} units box
region box block 0 1000 0 1000 0 ${zha} units box
region box block 0 1000 0 1000 0 10 units box
create_box 3 box
Created orthogonal box = (0 0 0) to (1000 1000 10)
  2 by 5 by 1 MPI processor grid

lattice fcc 4.04685 # Al FCC lattice constant [Angstrom]
Lattice spacing in x,y,z = 4.04685 4.04685 4.04685
region al block 0 ${xha} 0 ${yha} 0 ${zha} units box
region al block 0 1000 0 ${yha} 0 ${zha} units box
region al block 0 1000 0 1000 0 ${zha} units box
region al block 0 1000 0 1000 0 10 units box
create_atoms 1 region al units box
Created 612563 atoms
  using box units in orthogonal box = (0 0 0) to (1000 1000 10)
  create_atoms CPU = 0.007 seconds

# creating composition by using set command for AlMgZn alloy
set region al type/fraction 2 ${cMg} ${rseed} # set Mg (type = 2) concentration randomly
set region al type/fraction 2 0.066 ${rseed} 
set region al type/fraction 2 0.066 12345 
Setting atom values ...
  40606 settings made for type/fraction
set region al type/fraction 3 ${cZn} ${rseed} # set Zn (type = 3) concentration randomly
set region al type/fraction 3 0.003 ${rseed} 
set region al type/fraction 3 0.003 12345 
Setting atom values ...
  1890 settings made for type/fraction

# vacancy
#delete_atoms random fraction ${cVa} yes all NULL ${rseed}
#delete_atoms random count 1 yes all NULL ${rseed}
#----------------------------------------------------------------------

variable elem string "Al Mg Zn"

#-------------------- Force field --------------------------------------------------------
pair_style meam

#----- MEAM_potential_2021_version -----
variable padress string "./../MEAM_potential_2021_version"
pair_coeff * *  ${padress}/library.meam ${elem}  ${padress}/AlZnMg.meam ${elem}
pair_coeff * *  ./../MEAM_potential_2021_version/library.meam ${elem}  ${padress}/AlZnMg.meam ${elem}
pair_coeff * *  ./../MEAM_potential_2021_version/library.meam Al Mg Zn  ${padress}/AlZnMg.meam ${elem}
pair_coeff * *  ./../MEAM_potential_2021_version/library.meam Al Mg Zn  ./../MEAM_potential_2021_version/AlZnMg.meam ${elem}
pair_coeff * *  ./../MEAM_potential_2021_version/library.meam Al Mg Zn  ./../MEAM_potential_2021_version/AlZnMg.meam Al Mg Zn

#----- MEAM_potential_2018_version -----
#variable padress string "./../MEAM_potential_2018_version"
#pair_coeff * *  ${padress}/MgAlZn.library.meam ${elem}  ${padress}/MgAlZn.parameter.meam ${elem}

#-------------------- Energy Minimization ------------------------------------------------
# 0 [K], structure optimization
fix             emin all box/relax iso 1.0
min_style       cg
min_modify      dmax 0.2
min_modify      line quadratic
minimize        1.0e-6 1.0e-8 4000 10000
Neighbor list info ...
  update: every = 1 steps, delay = 0 steps, check = yes
  max neighbors/atom: 2000, page size: 100000
  master list distance cutoff = 8
  ghost atom cutoff = 8
  binsize = 4, bins = 250 250 3
  2 neighbor lists, perpetual/occasional/extra = 2 0 0
  (1) pair meam, perpetual
      attributes: full, newton on
      pair build: full/bin/atomonly
      stencil: full/bin/3d
      bin: standard
  (2) pair meam, perpetual, half/full from (1)
      attributes: half, newton on
      pair build: halffull/newton
      stencil: none
      bin: none
Per MPI rank memory allocation (min/avg/max) = 276.6 | 277.2 | 278.2 Mbytes
   Step          Temp          E_pair         E_mol          TotEng         Press          Volume    
         0   0             -1133949.4      0             -1133949.4      144537.06      10000000
      4000   0             -1506837.4      0             -1506837.4     -58.715122      12080189     
Loop time of 3831.3 on 10 procs for 4000 steps with 612563 atoms

75.5% CPU use with 10 MPI tasks x 1 OpenMP threads

Minimization stats:
  Stopping criterion = max iterations
  Energy initial, next-to-last, final = 
       -1133949.410708  -1506825.70712731  -1506836.08130015
  Force two-norm initial, final = 2706586.5 12285.789
  Force max component initial, final = 2706369.6 1268.268
  Final line search alpha, max atom move = 6.7441816e-08 8.5534298e-05
  Iterations, force evaluations = 4000 4000

MPI task timing breakdown:
Section |  min time  |  avg time  |  max time  |%varavg| %total
---------------------------------------------------------------
Pair    | 3631.3     | 3636.9     | 3642.7     |   5.2 | 94.93
Neigh   | 11.854     | 12.075     | 12.266     |   3.8 |  0.32
Comm    | 127.31     | 132.47     | 138.14     |  24.2 |  3.46
Output  | 0.000527   | 0.0005947  | 0.000626   |   0.0 |  0.00
Modify  | 0          | 0          | 0          |   0.0 |  0.00
Other   |            | 49.86      |            |       |  1.30

Nlocal:        61256.3 ave       61380 max       61132 min
Histogram: 5 0 0 0 0 0 0 0 0 5
Nghost:         102148 ave      102578 max      100800 min
Histogram: 1 1 0 0 0 0 0 0 4 4
Neighs:    2.97112e+06 ave 2.99116e+06 max 2.95577e+06 min
Histogram: 3 0 0 3 0 0 2 0 0 2
FullNghs:  5.94224e+06 ave 5.98211e+06 max 5.91167e+06 min
Histogram: 3 0 0 3 0 0 2 0 0 2

Total # of neighbors = 59422358
Ave neighs/atom = 97.006117
Neighbor list builds = 97
Dangerous builds = 0
unfix           emin

#-------------------- Settings -----------------------------------------------------------
reset_timestep 0

timestep     0.002 # 2.0 [fs] (Recommend 0.1-3.5 [fs]), sets the timestep for subsequent simulations

thermo       100
thermo_style custom step temp pe etotal ke vol

#------------------------------
dump            d1 all cfg ${Nout} cfg/run.melt.*.cfg mass type xs ys zs id type vx vy vz fx fy fz
dump            d1 all cfg 1000 cfg/run.melt.*.cfg mass type xs ys zs id type vx vy vz fx fy fz
dump_modify     d1 element ${elem}
dump_modify     d1 element Al Mg Zn
#------------------------------

velocity all create 4.0 ${rseed} mom yes rot yes dist gaussian
velocity all create 4.0 12345 mom yes rot yes dist gaussian

#-------------------- Run the simulation -------------------------------------------------
# Heating
#fix f1 all nvt temp 4.0 ${Tm} $(100*dt)
fix f1 all npt temp 4.0 ${Tm} $(100*dt) iso 1.0 1.0 $(1000*dt)
fix f1 all npt temp 4.0 943 $(100*dt) iso 1.0 1.0 $(1000*dt)
fix f1 all npt temp 4.0 943 0.2000000000000000111 iso 1.0 1.0 $(1000*dt)
fix f1 all npt temp 4.0 943 0.2000000000000000111 iso 1.0 1.0 2
run 5000 # 10 [ps] (e.g., 10 - 100 [ps]) # <= run $(int(5000*exp(-640/670)/exp(-640/v_Tm)))
Per MPI rank memory allocation (min/avg/max) = 280.1 | 280.7 | 281.6 Mbytes
   Step          Temp          PotEng         TotEng         KinEng         Volume    
         0   4             -1506837.4     -1506520.7      316.71941      12080189     
       100   1.1120819     -1879730.2     -1879642.2      88.054484      10786448     
       200   0.15812013    -1881178       -1881165.4      12.519929      10777475     
       300   0.10845632    -1881685.1     -1881676.5      8.5875557      10775058     
       400   0.11750779    -1882113.9     -1882104.6      9.3042498      10771950     
       500   0.17007963    -1882641.6     -1882628.1      13.46688       10767379     
       600   0.27095137    -1883422.3     -1883400.8      21.45389       10759996     
       700   0.44326301    -1884631       -1884595.9      35.0975        10748074     
       800   0.72251655    -1886520.5     -1886463.3      57.208754      10729235     
       900   1.0893528     -1889342.8     -1889256.5      86.254797      10701417     
      1000   1.4180252     -1893080.9     -1892968.6      112.27903      10665397     
      1100   1.56301       -1897288.7     -1897164.9      123.7589       10625753     
      1200   1.5153022     -1901354.2     -1901234.2      119.9814       10588351     
      1300   1.3743183     -1904909.6     -1904800.8      108.81832      10556962     
      1400   1.2173645     -1907880.1     -1907783.7      96.390742      10532475     
      1500   1.0827822     -1910333.1     -1910247.4      85.734533      10513941     
      1600   0.97013243    -1912354.3     -1912277.5      76.814943      10499909     
      1700   0.88844991    -1914039.6     -1913969.2      70.347333      10488944     
      1800   0.8393141     -1915473.6     -1915407.1      66.456767      10479951     
      1900   0.8247587     -1916723.1     -1916657.8      65.304273      10472197     
      2000   0.83638225    -1917842.9     -1917776.7      66.224624      10465238     
      2100   0.88590508    -1918867.8     -1918797.7      70.145834      10458803     
      2200   0.96315946    -1919821.7     -1919745.4      76.262825      10452743     
      2300   1.1067871     -1920729.9     -1920642.3      87.635238      10446913     
      2400   1.3362828     -1921607.1     -1921501.3      105.80668      10441174     
      2500   1.7809623     -1922494.1     -1922353.1      141.01633      10435281     
      2600   2.6424802     -1923416       -1923206.7      209.23119      10429130     
      2700   4.5763635     -1924379.8     -1924017.5      362.35579      10422775     
      2800   11.328024     -1925448.3     -1924551.3      896.95127      10415922     
      2900   45.603626     -1926150.8     -1922539.9      3610.8884      10413841     
      3000   436.7974      -1920304.4     -1885718.9      34585.554      10489050     
      3100   2526.8408     -1866319.1     -1666244.2      200074.89      11063038     
      3200   383.65922     -1865726.4     -1835348.3      30378.081      10968360     
      3300   162.25048     -1884407.8     -1871560.8      12846.969      10773544     
      3400   189.34527     -1892794.6     -1877802.3      14992.331      10698764     
      3500   391.45419     -1888688       -1857692.7      30995.285      10736752     
      3600   1050.5779     -1856888.4     -1773703.8      83184.602      11013844     
      3700   1290.2233     -1820451.6     -1718291.9      102159.69      11443670     
      3800   666.09898     -1835677.9     -1782936.3      52741.619      11304206     
      3900   440.25343     -1854513.4     -1819654.2      34859.202      11119786     
      4000   465.50141     -1860296.6     -1823438.3      36858.333      11070945     
      4100   690.20684     -1850174.4     -1795524        54650.476      11166416     
      4200   1041.1535     -1823708.5     -1741270.1      82438.383      11416790     
      4300   1094.6826     -1806816.7     -1720139.9      86676.808      11620410     
      4400   853.33923     -1817363.5     -1749796.2      67567.275      11510048     
      4500   690.74844     -1832970.9     -1778277.5      54693.36       11339935     
      4600   683.04036     -1839313.5     -1785230.5      54083.036      11264947     
      4700   808.52274     -1833223.3     -1769204.6      64018.711      11315428     
      4800   999.38704     -1817422.9     -1738291.6      79131.319      11467230     
      4900   1084.6937     -1803794.3     -1717908.4      85885.891      11619115     
      5000   1008.2775     -1803598.9     -1723763.6      79835.263      11629915     
Loop time of 7402.02 on 10 procs for 5000 steps with 612563 atoms

Performance: 0.117 ns/day, 205.612 hours/ns, 0.675 timesteps/s, 413.781 katom-step/s
77.6% CPU use with 10 MPI tasks x 1 OpenMP threads

MPI task timing breakdown:
Section |  min time  |  avg time  |  max time  |%varavg| %total
---------------------------------------------------------------
Pair    | 7046       | 7061.8     | 7072.3     |   8.5 | 95.40
Neigh   | 68.516     | 68.937     | 69.472     |   3.9 |  0.93
Comm    | 212.99     | 224.5      | 239.2      |  46.3 |  3.03
Output  | 2.2945     | 2.3027     | 2.3097     |   0.2 |  0.03
Modify  | 35.031     | 36.429     | 37.887     |  17.7 |  0.49
Other   |            | 8.036      |            |       |  0.11

Nlocal:        61256.3 ave       62449 max       60419 min
Histogram: 1 3 0 2 0 1 1 1 0 1
Nghost:         109909 ave      111525 max      108401 min
Histogram: 1 0 2 2 1 1 0 1 0 2
Neighs:    3.48504e+06 ave 3.62468e+06 max  3.4035e+06 min
Histogram: 3 1 2 0 0 2 0 1 0 1
FullNghs:  6.97008e+06 ave 7.24902e+06 max 6.80726e+06 min
Histogram: 3 1 2 0 0 2 0 1 0 1

Total # of neighbors = 69700774
Ave neighs/atom = 113.78548
Neighbor list builds = 322
Dangerous builds = 19
unfix f1

#-------------------- Run the simulation -------------------------------------------------
# Annealing
#fix f2 all nvt temp ${Tm} ${Tm} $(100*dt)
fix f2 all npt temp ${Tm} ${Tm} $(100*dt) iso 1.0 1.0 $(1000*dt)
fix f2 all npt temp 943 ${Tm} $(100*dt) iso 1.0 1.0 $(1000*dt)
fix f2 all npt temp 943 943 $(100*dt) iso 1.0 1.0 $(1000*dt)
fix f2 all npt temp 943 943 0.2000000000000000111 iso 1.0 1.0 $(1000*dt)
fix f2 all npt temp 943 943 0.2000000000000000111 iso 1.0 1.0 2
run 3000 # 6 [ps] (e.g., 6 - 60 [ps]) # <= run $(int(3000*exp(-640/670)/exp(-640/v_Tm)))
Per MPI rank memory allocation (min/avg/max) = 291.1 | 291.5 | 292 Mbytes
   Step          Temp          PotEng         TotEng         KinEng         Volume    
      5000   1008.2775     -1803598.9     -1723763.6      79835.263      11629915     
      5100   992.47842     -1803707.9     -1725123.6      78584.296      11627570     
      5200   976.24087     -1804071.1     -1726772.5      77298.609      11633267     
      5300   967.95238     -1804982.2     -1728339.9      76642.327      11639281     
      5400   962.52503     -1806025.6     -1729813        76212.591      11626729     
      5500   958.55832     -1807109.1     -1731210.6      75898.507      11603231     
      5600   951.90331     -1807834.1     -1732462.5      75371.564      11585922     
      5700   947.08448     -1808498.6     -1733508.6      74990.01       11568299     
      5800   942.2227      -1808893.1     -1734288.1      74605.055      11553002     
      5900   940.33169     -1809118.7     -1734663.3      74455.325      11543489     
      6000   939.42189     -1808987.9     -1734604.6      74383.287      11539252     
      6100   943.16154     -1808852.2     -1734172.8      74679.392      11540159     
      6200   944.19952     -1808525.6     -1733764.1      74761.579      11542124     
      6300   944.11435     -1808332.9     -1733578        74754.835      11544995     
      6400   943.53349     -1808271.3     -1733562.5      74708.843      11548129     
      6500   943.80372     -1808299.4     -1733569.1      74730.24       11545878     
      6600   943.57162     -1808210.8     -1733498.9      74711.862      11543249     
      6700   942.759       -1808071.8     -1733424.2      74647.519      11544788     
      6800   942.22287     -1807900.1     -1733295.1      74605.068      11549883     
      6900   942.90735     -1807724.5     -1733065.2      74659.265      11552500     
      7000   944.15413     -1807636.7     -1732878.7      74757.985      11551858     
      7100   944.02553     -1807584.4     -1732836.6      74747.803      11551097     
      7200   943.43891     -1807648.4     -1732947.1      74701.354      11550521     
      7300   942.20629     -1807649.9     -1733046.2      74603.756      11548951     
      7400   941.65894     -1807540.1     -1732979.7      74560.416      11548035     
      7500   940.21731     -1807103.4     -1732657.1      74446.268      11552607     
      7600   942.24134     -1806782.5     -1732176        74606.531      11560778     
      7700   942.86649     -1806344.1     -1731688.1      74656.03       11568424     
      7800   944.03762     -1806045       -1731296.3      74748.76       11573045     
      7900   944.12079     -1805876.3     -1731121        74755.346      11573546     
      8000   945.67787     -1806101.2     -1731222.6      74878.634      11572667     
Loop time of 4591.69 on 10 procs for 3000 steps with 612563 atoms

Performance: 0.113 ns/day, 212.578 hours/ns, 0.653 timesteps/s, 400.221 katom-step/s
77.8% CPU use with 10 MPI tasks x 1 OpenMP threads

MPI task timing breakdown:
Section |  min time  |  avg time  |  max time  |%varavg| %total
---------------------------------------------------------------
Pair    | 4339.3     | 4371.8     | 4394.1     |  24.9 | 95.21
Neigh   | 40.398     | 41.462     | 42.465     |  11.2 |  0.90
Comm    | 127.69     | 149.26     | 180.88     | 132.1 |  3.25
Output  | 1.3038     | 1.3061     | 1.3078     |   0.1 |  0.03
Modify  | 18.652     | 23.061     | 25.65      |  60.4 |  0.50
Other   |            | 4.767      |            |       |  0.10

Nlocal:        61256.3 ave       63157 max       60208 min
Histogram: 2 0 2 3 1 1 0 0 0 1
Nghost:         110147 ave      113336 max      108231 min
Histogram: 1 2 0 3 2 1 0 0 0 1
Neighs:    3.49946e+06 ave 3.72174e+06 max 3.39288e+06 min
Histogram: 1 3 2 1 2 0 0 0 0 1
FullNghs:  6.99892e+06 ave 7.44358e+06 max 6.78586e+06 min
Histogram: 1 3 2 1 2 0 0 0 0 1

Total # of neighbors = 69989156
Ave neighs/atom = 114.25626
Neighbor list builds = 182
Dangerous builds = 0
unfix f2

#-------------------- Run the simulation -------------------------------------------------
# Cooling
#fix f3 all nvt temp ${Tm} ${Tdesird} $(100*dt)
fix f3 all npt temp ${Tm} ${Tdesird} $(100*dt) iso 1.0 1.0 $(1000*dt)
fix f3 all npt temp 943 ${Tdesird} $(100*dt) iso 1.0 1.0 $(1000*dt)
fix f3 all npt temp 943 473 $(100*dt) iso 1.0 1.0 $(1000*dt)
fix f3 all npt temp 943 473 0.2000000000000000111 iso 1.0 1.0 $(1000*dt)
fix f3 all npt temp 943 473 0.2000000000000000111 iso 1.0 1.0 2
run 100000 # 200 [ps] (e.g., 80 - 800 [ps]) # <= run $(int(40000*exp(-640/670)/exp(-640/v_Tm)))
Per MPI rank memory allocation (min/avg/max) = 291.1 | 291.6 | 292.1 Mbytes
   Step          Temp          PotEng         TotEng         KinEng         Volume    
      8000   945.67787     -1806101.2     -1731222.6      74878.634      11572667     
      8100   944.55332     -1806185.8     -1731396.2      74789.593      11572105     
      8200   943.97614     -1806317.8     -1731573.9      74743.892      11570996     
      8300   943.70053     -1806500.2     -1731778.1      74722.069      11569589     
      8400   941.77251     -1806539.9     -1731970.5      74569.408      11569128     
      8500   939.09126     -1806435.4     -1732078.3      74357.108      11569837     
      8600   939.37069     -1806366.7     -1731987.5      74379.233      11572142     
      8700   940.54453     -1806326.2     -1731854        74472.178      11571609     
      8800   941.34992     -1806480.3     -1731944.4      74535.948      11570853     
      8900   938.73513     -1806428       -1732099.1      74328.909      11570086     
      9000   939.41777     -1806612       -1732229        74382.961      11569553     
      9100   939.7432      -1806802.4     -1732393.6      74408.729      11569121     
      9200   938.13057     -1806832.8     -1732551.7      74281.041      11567741     
      9300   938.1829      -1806991.5     -1732706.3      74285.184      11565447     
      9400   936.80518     -1807025.5     -1732849.4      74176.096      11563943     
      9500   936.03493     -1807086.4     -1732971.3      74115.108      11564252     
      9600   936.00824     -1807173.4     -1733060.4      74112.995      11562504     
      9700   934.97519     -1807212.9     -1733181.7      74031.198      11561093     
      9800   934.3803      -1807242.9     -1733258.9      73984.095      11563263     
      9900   934.86754     -1807297.1     -1733274.4      74022.674      11566195     
     10000   934.18646     -1807300.3     -1733331.5      73968.747      11564878     
     10100   933.72321     -1807402.7     -1733470.6      73932.066      11562013     
     10200   933.51577     -1807563       -1733647.4      73915.642      11561673     
     10300   932.14207     -1807457.2     -1733650.3      73806.872      11562716     
     10400   932.66356     -1807489.2     -1733641        73848.164      11564491     
     10500   932.33465     -1807518.9     -1733696.7      73822.12       11565591     
     10600   930.42376     -1807525.6     -1733854.8      73670.817      11564645     
     10700   931.1566      -1807665       -1733936.2      73728.843      11563273     
     10800   929.89859     -1807610.1     -1733980.9      73629.234      11565468     
     10900   929.12588     -1807593.3     -1734025.2      73568.051      11568071     
     11000   926.85491     -1807675.1     -1734286.9      73388.235      11566917     
     11100   929.05318     -1807870.2     -1734307.9      73562.294      11565735     
     11200   929.12774     -1807753.4     -1734185.2      73568.198      11568096     
     11300   927.14592     -1807502       -1734090.7      73411.278      11571881     
     11400   928.0626      -1807479.3     -1733995.5      73483.86       11573946     
     11500   926.749       -1807358.8     -1733979        73379.85       11574251     
     11600   925.95745     -1807535.4     -1734218.3      73317.174      11573946     
     11700   926.13641     -1807656       -1734324.7      73331.345      11572929     
     11800   925.09609     -1807672.8     -1734423.8      73248.972      11570712     
     11900   924.10534     -1807717.3     -1734546.8      73170.525      11570817     
     12000   923.87348     -1807838.3     -1734686.1      73152.166      11570191     
     12100   925.52115     -1808022.8     -1734740.2      73282.629      11567351     
     12200   924.24854     -1808030.9     -1734849.1      73181.863      11565073     
     12300   923.82427     -1808128.2     -1734979.9      73148.27       11563482     
     12400   924.2582      -1808233.4     -1735050.8      73182.628      11562528     
     12500   922.29202     -1808216.7     -1735189.8      73026.947      11560301     
     12600   923.02718     -1808392       -1735306.9      73085.156      11557576     
     12700   921.98787     -1808447.9     -1735445.1      73002.864      11555632     
     12800   921.07506     -1808511.1     -1735580.5      72930.588      11555574     
     12900   919.82662     -1808540.5     -1735708.7      72831.736      11554743     
     13000   918.90717     -1808543.9     -1735785        72758.935      11550095     
     13100   919.69441     -1808664.5     -1735843.2      72821.268      11548622     
     13200   917.18599     -1808637.9     -1736015.3      72622.652      11549597     
     13300   917.73597     -1808688.5     -1736022.3      72666.199      11548578     
     13400   918.48457     -1808711.1     -1735985.6      72725.473      11545100     
     13500   917.73889     -1808661.3     -1735994.9      72666.43       11545310     
     13600   916.09926     -1808657       -1736120.4      72536.604      11547414     
     13700   915.52628     -1808774.9     -1736283.7      72491.236      11544460     
     13800   915.84876     -1808823.8     -1736307.1      72516.77       11537646     
     13900   915.30253     -1808861.5     -1736388        72473.52       11536050     
     14000   914.86017     -1808914.1     -1736475.6      72438.494      11538901     
     14100   915.31086     -1808980.8     -1736506.6      72474.18       11537669     
     14200   916.64086     -1809178.8     -1736599.3      72579.488      11531018     
     14300   914.91273     -1809209.7     -1736767        72442.655      11525643     
     14400   915.44336     -1809393.5     -1736908.8      72484.671      11527883     
     14500   912.22342     -1809257.7     -1737028        72229.716      11530322     
     14600   911.28018     -1809239.9     -1737084.9      72155.031      11526447     
     14700   913.34007     -1809476.1     -1737158        72318.133      11520520     
     14800   911.76633     -1809566.5     -1737373        72193.524      11518977     
     14900   911.10754     -1809607.6     -1737466.2      72141.361      11518847     
     15000   909.76532     -1809589.7     -1737554.6      72035.084      11517130     
     15100   910.11894     -1809743.1     -1737680        72063.084      11512702     
     15200   910.33387     -1809890.7     -1737810.6      72080.102      11509825     
     15300   908.90746     -1809868.3     -1737901.2      71967.159      11508222     
     15400   909.45326     -1809998.6     -1737988.2      72010.375      11507645     
     15500   907.9763      -1809991.2     -1738097.7      71893.43       11505901     
     15600   907.46249     -1810037.7     -1738185        71852.746      11504042     
     15700   906.85914     -1810067.7     -1738262.8      71804.973      11502593     
     15800   907.61079     -1810224.6     -1738360.1      71864.489      11499444     
     15900   907.47631     -1810333.1     -1738479.3      71853.84       11497518     
     16000   906.05431     -1810342.9     -1738601.6      71741.247      11496494     
     16100   905.2566      -1810391.1     -1738713        71678.084      11494808     
     16200   906.03369     -1810550.6     -1738810.9      71739.614      11493544     
     16300   904.77072     -1810550.8     -1738911.2      71639.612      11492063     
     16400   904.82078     -1810643.3     -1738999.8      71643.576      11489246     
     16500   902.55043     -1810532.6     -1739068.8      71463.81       11488814     
     16600   902.36449     -1810593.8     -1739144.7      71449.088      11489870     
     16700   901.90496     -1810629.4     -1739216.7      71412.702      11487434     
     16800   901.13583     -1810676.3     -1739324.4      71351.803      11483553     
     16900   901.40608     -1810772.5     -1739399.3      71373.201      11483985     
     17000   901.33714     -1810842.4     -1739474.6      71367.742      11485901     
     17100   901.06364     -1810925.1     -1739579        71346.087      11484227     
     17200   899.95785     -1810961.8     -1739703.2      71258.53       11480505     
     17300   900.78275     -1811096.1     -1739772.2      71323.846      11478737     
     17400   899.21637     -1811066.3     -1739866.4      71199.82       11480467     
     17500   900.06001     -1811198.5     -1739931.9      71266.619      11481064     
     17600   899.42396     -1811283.9     -1740067.7      71216.257      11475979     
     17700   897.36142     -1811219.1     -1740166.1      71052.945      11473696     
     17800   897.86185     -1811342.5     -1740249.9      71092.569      11475819     
     17900   894.89916     -1811216.8     -1740358.8      70857.984      11477952     
     18000   897.06628     -1811463.4     -1740433.8      71029.576      11474895     
     18100   894.76688     -1811422.1     -1740574.5      70847.51       11469728     
     18200   895.37501     -1811552       -1740656.4      70895.662      11469216     
     18300   895.03866     -1811644.9     -1740775.9      70869.029      11471719     
     18400   893.23126     -1811623.6     -1740897.7      70725.92       11471566     
     18500   894.82051     -1811803.6     -1740951.8      70851.756      11468352     
     18600   894.11127     -1811930.2     -1741134.6      70795.599      11464945     
     18700   893.92624     -1812015.5     -1741234.6      70780.948      11464791     
     18800   892.74667     -1812057.2     -1741369.7      70687.55       11465984     
     18900   891.93922     -1812059.4     -1741435.8      70623.616      11464784     
     19000   892.06116     -1812171.5     -1741538.3      70633.271      11463702     
     19100   890.38328     -1812208.7     -1741708.3      70500.417      11461633     
     19200   890.37565     -1812272.3     -1741772.5      70499.813      11460800     
     19300   890.95587     -1812404.7     -1741858.9      70545.755      11461271     
     19400   890.72222     -1812523.7     -1741996.4      70527.254      11461364     
     19500   889.85998     -1812551.8     -1742092.8      70458.982      11459314     
     19600   888.7978      -1812521.2     -1742146.3      70374.879      11458348     
     19700   888.5235      -1812602       -1742248.8      70353.16       11459296     
     19800   888.50515     -1812702.4     -1742350.7      70351.707      11459634     
     19900   886.42821     -1812625.9     -1742438.6      70187.255      11456497     
     20000   887.72871     -1812846       -1742555.8      70290.229      11454463     
     20100   886.92845     -1812914.5     -1742687.7      70226.865      11453922     
     20200   887.83633     -1813117.8     -1742819        70298.75       11453064     
     20300   885.61515     -1813092.7     -1742969.8      70122.878      11452539     
     20400   885.16133     -1813174.4     -1743087.5      70086.944      11451346     
     20500   884.29557     -1813216       -1743197.6      70018.393      11449307     
     20600   883.68425     -1813292.7     -1743322.7      69969.989      11447699     
     20700   883.96986     -1813443.9     -1743451.3      69992.603      11448420     
     20800   882.22243     -1813438.5     -1743584.3      69854.242      11448537     
     20900   882.03937     -1813545.1     -1743705.3      69839.748      11446515     
     21000   882.35309     -1813703.3     -1743838.7      69864.588      11443310     
     21100   883.02678     -1813881.7     -1743963.8      69917.931      11442262     
     21200   881.0706      -1813844.3     -1744081.2      69763.04       11443624     
     21300   881.91727     -1814024       -1744193.9      69830.08       11443187     
     21400   880.24448     -1814044.1     -1744346.5      69697.629      11440753     
     21500   880.1533      -1814164.9     -1744474.4      69690.409      11438646     
     21600   879.88138     -1814290.7     -1744621.8      69668.879      11438408     
     21700   879.00639     -1814333.5     -1744733.9      69599.597      11437563     
     21800   878.63745     -1814411.6     -1744841.2      69570.384      11437066     
     21900   877.9782      -1814460.1     -1744941.9      69518.185      11436494     
     22000   877.30011     -1814497.3     -1745032.8      69464.494      11435625     
     22100   876.72882     -1814541.2     -1745122        69419.259      11433415     
     22200   877.50807     -1814691.2     -1745210.2      69480.96       11432434     
     22300   876.16361     -1814702.9     -1745328.4      69374.506      11432737     
     22400   876.03394     -1814803.6     -1745439.4      69364.238      11432998     
     22500   875.65663     -1814892.1     -1745557.8      69334.363      11430099     
     22600   874.37977     -1814915.7     -1745682.4      69233.261      11428392     
     22700   874.42383     -1815027.8     -1745791.1      69236.75       11430845     
     22800   873.52952     -1815044.9     -1745878.9      69165.939      11430705     
     22900   874.07777     -1815176.1     -1745966.8      69209.349      11428201     
     23000   872.85443     -1815202.5     -1746090        69112.486      11426241     
     23100   872.05509     -1815204.8     -1746155.6      69049.194      11427357     
     23200   870.85421     -1815215.6     -1746261.5      68954.108      11428216     
     23300   871.99924     -1815432.7     -1746388        69044.772      11426128     
     23400   871.07243     -1815450.8     -1746479.4      68971.387      11424424     
     23500   870.96104     -1815533.3     -1746570.8      68962.567      11424976     
     23600   869.46762     -1815520.4     -1746676.1      68844.318      11424533     
     23700   870.0828      -1815662.3     -1746769.2      68893.028      11422241     
     23800   870.42122     -1815817.5     -1746897.6      68919.824      11420810     
     23900   869.54256     -1815873.3     -1747023.1      68850.252      11419976     
     24000   869.88002     -1816042.1     -1747165.2      68876.972      11419347     
     24100   868.58847     -1816099       -1747324.3      68774.707      11417246     
     24200   868.76094     -1816266.4     -1747478        68788.363      11413557     
     24300   867.54414     -1816340.7     -1747648.6      68692.018      11413062     
     24400   867.42232     -1816468.3     -1747785.9      68682.372      11414005     
     24500   865.47088     -1816458.1     -1747930.2      68527.857      11412991     
     24600   864.82634     -1816520.2     -1748043.4      68476.823      11411056     
     24700   865.29878     -1816683.7     -1748169.5      68514.23       11408372     
     24800   863.83987     -1816706.9     -1748308.2      68398.714      11408584     
     24900   863.86013     -1816815.1     -1748414.7      68400.318      11409962     
     25000   864.94125     -1817044.5     -1748558.5      68485.921      11406730     
     25100   862.56004     -1817015.4     -1748718        68297.377      11401063     
     25200   862.64848     -1817171.5     -1748867.1      68304.38       11402294     
     25300   861.9524      -1817248.2     -1748999        68249.264      11405925     
     25400   860.86463     -1817300.4     -1749137.3      68163.135      11402533     
     25500   863.35148     -1817616.4     -1749256.3      68360.043      11397217     
     25600   861.81939     -1817656.9     -1749418.2      68238.732      11396932     
     25700   860.43388     -1817700       -1749571        68129.028      11398706     
     25800   859.55984     -1817755.3     -1749695.5      68059.822      11397549     
     25900   860.28645     -1817935.1     -1749817.8      68117.355      11393905     
     26000   860.17785     -1818091.6     -1749982.9      68108.756      11391296     
     26100   858.58203     -1818106.6     -1750124.2      67982.399      11391921     
     26200   857.91085     -1818190.2     -1750261        67929.255      11392642     
     26300   857.07251     -1818264.1     -1750401.3      67862.875      11390417     
     26400   856.71279     -1818365.4     -1750531        67834.392      11388043     
     26500   856.59902     -1818471.8     -1750646.4      67825.384      11388250     
     26600   855.77921     -1818506.9     -1750746.4      67760.472      11387938     
     26700   856.673       -1818679.2     -1750847.9      67831.242      11386753     
     26800   854.89472     -1818627.9     -1750937.5      67690.438      11386201     
     26900   855.30909     -1818740.8     -1751017.6      67723.248      11385874     
     27000   855.6673      -1818858       -1751106.4      67751.611      11386234     
     27100   853.06771     -1818752.5     -1751206.7      67545.776      11385271     
     27200   853.73569     -1818910.9     -1751312.2      67598.667      11382307     
     27300   853.9571      -1819064.1     -1751447.9      67616.198      11380704     
     27400   852.6777      -1819126.8     -1751611.9      67514.895      11380670     
     27500   852.67961     -1819296.8     -1751781.8      67515.046      11379567     
     27600   852.21958     -1819417.2     -1751938.6      67478.621      11377527     
     27700   851.04889     -1819456.7     -1752070.8      67385.926      11376747     
     27800   850.21163     -1819520.8     -1752201.2      67319.632      11377068     
     27900   849.23487     -1819539.5     -1752297.2      67242.292      11376759     
     28000   850.90024     -1819772.5     -1752398.3      67374.156      11374826     
     28100   849.27735     -1819758.9     -1752513.3      67245.656      11373375     
     28200   849.55292     -1819903.5     -1752636.1      67267.475      11373216     
     28300   849.42853     -1820029.9     -1752772.2      67257.626      11372475     
     28400   848.12594     -1820075.1     -1752920.6      67154.487      11370951     
     28500   846.20656     -1820053.8     -1753051.3      67002.511      11370485     
     28600   847.9153      -1820310.9     -1753173.1      67137.809      11370676     
     28700   845.51509     -1820244.1     -1753296.4      66947.76       11369003     
     28800   846.70243     -1820448.6     -1753406.8      67041.774      11366305     
     28900   846.71035     -1820597.2     -1753554.8      67042.401      11365538     
     29000   845.44262     -1820633.4     -1753691.4      66942.022      11366516     
     29100   844.27402     -1820676.5     -1753827        66849.493      11364973     
     29200   842.14028     -1820640.3     -1753959.8      66680.543      11362738     
     29300   844.91622     -1821004.4     -1754104        66900.342      11361405     
     29400   843.79146     -1821067.9     -1754256.6      66811.284      11358632     
     29500   842.10794     -1821109.8     -1754431.8      66677.983      11359084     
     29600   841.51665     -1821192.1     -1754560.9      66631.164      11361313     
     29700   841.48269     -1821306.1     -1754677.6      66628.475      11359734     
     29800   840.76141     -1821390.4     -1754819        66571.365      11355532     
     29900   841.19221     -1821538.8     -1754933.4      66605.475      11354766     
     30000   840.34358     -1821595.2     -1755056.9      66538.281      11355673     
     30100   839.11454     -1821606.7     -1755165.7      66440.966      11355290     
     30200   840.18551     -1821826.6     -1755300.8      66525.765      11352856     
     30300   838.91463     -1821867.1     -1755441.9      66425.137      11351264     
     30400   837.86705     -1821906.1     -1755563.9      66342.19       11352597     
     30500   837.27761     -1821985.4     -1755689.9      66295.518      11353364     
     30600   837.29085     -1822094.8     -1755798.2      66296.566      11349391     
     30700   837.93119     -1822307.5     -1755960.2      66347.268      11345938     
     30800   836.0932      -1822314.9     -1756113.1      66201.737      11347837     
     30900   836.02629     -1822470.9     -1756274.5      66196.439      11349612     
     31000   836.7801      -1822659.6     -1756403.4      66256.126      11344464     
     31100   836.67242     -1822821.2     -1756573.6      66247.599      11340873     
     31200   835.28562     -1822862.5     -1756724.7      66137.793      11342619     
     31300   833.30656     -1822845.7     -1756864.7      65981.091      11343553     
     31400   833.94856     -1823000.7     -1756968.8      66031.924      11341336     
     31500   833.80091     -1823138.5     -1757118.2      66020.233      11338217     
     31600   832.48701     -1823181.9     -1757265.7      65916.199      11336299     
     31700   833.0414      -1823368.7     -1757408.6      65960.096      11335740     
     31800   831.82161     -1823411.6     -1757548.1      65863.513      11337287     
     31900   831.24374     -1823502.5     -1757684.7      65817.757      11337028     
     32000   830.68783     -1823603.5     -1757829.7      65773.74       11332868     
     32100   831.77146     -1823841.5     -1757982        65859.541      11330152     
     32200   830.53886     -1823899.3     -1758137.3      65761.945      11330102     
     32300   829.86773     -1824025.7     -1758316.9      65708.804      11330539     
     32400   827.93917     -1824027.9     -1758471.8      65556.102      11328072     
     32500   829.15793     -1824261.9     -1758609.3      65652.603      11325499     
     32600   829.04198     -1824422.9     -1758779.5      65643.422      11324717     
     32700   827.51436     -1824454.6     -1758932.1      65522.465      11323609     
     32800   826.90113     -1824578.1     -1759104.2      65473.91       11319938     
     32900   827.5642      -1824804.7     -1759278.3      65526.412      11319292     
     33000   826.60977     -1824903       -1759452.1      65450.84       11319799     
     33100   827.28216     -1825132.9     -1759628.8      65504.08       11317608     
     33200   826.24226     -1825239.9     -1759818.2      65421.741      11314257     
     33300   825.58525     -1825365.1     -1759995.4      65369.719      11313098     
     33400   824.20957     -1825408.7     -1760148        65260.792      11314954     
     33500   824.47604     -1825564.6     -1760282.7      65281.892      11313781     
     33600   824.27027     -1825710.3     -1760444.7      65265.598      11308187     
     33700   823.89287     -1825860       -1760624.3      65235.716      11305478     
     33800   823.30275     -1825996.9     -1760807.9      65188.991      11307295     
     33900   821.25024     -1825998.4     -1760971.9      65026.473      11307586     
     34000   822.12853     -1826224.6     -1761128.6      65096.016      11302524     
     34100   821.06296     -1826325.6     -1761314        65011.645      11299185     
     34200   820.86626     -1826499.8     -1761503.8      64996.069      11301598     
     34300   819.40125     -1826512.7     -1761632.7      64880.07       11303646     
     34400   820.05153     -1826651.5     -1761719.9      64931.56       11299187     
     34500   819.43773     -1826774       -1761891.1      64882.959      11293164     
     34600   818.36826     -1826842.7     -1762044.4      64798.278      11294436     
     34700   819.50452     -1827047.8     -1762159.6      64888.247      11299246     
     34800   817.72318     -1827049.7     -1762302.5      64747.201      11295959     
     34900   819.17009     -1827308.9     -1762447.1      64861.767      11289023     
     35000   817.43043     -1827329.3     -1762605.3      64724.021      11288739     
     35100   814.97297     -1827272.9     -1762743.5      64529.44       11292816     
     35200   815.58712     -1827420.9     -1762842.9      64578.068      11292214     
     35300   816.51867     -1827636.1     -1762984.3      64651.829      11287650     
     35400   815.49847     -1827710       -1763139        64571.049      11285751     
     35500   814.62742     -1827787.1     -1763285        64502.079      11286149     
     35600   814.28583     -1827929.4     -1763454.4      64475.032      11285303     
     35700   813.5411      -1828000.6     -1763584.6      64416.065      11283137     
     35800   813.47613     -1828144.7     -1763733.7      64410.92       11281692     
     35900   813.14167     -1828301.5     -1763917.1      64384.438      11281494     
     36000   812.24684     -1828395.7     -1764082.1      64313.585      11279554     
     36100   810.79887     -1828450       -1764251.1      64198.935      11277115     
     36200   810.85376     -1828601.3     -1764398        64203.282      11276980     
     36300   810.86825     -1828746       -1764541.6      64204.429      11276025     
     36400   811.33073     -1828906.1     -1764665.1      64241.048      11274210     
     36500   809.52057     -1828925.1     -1764827.4      64097.72       11272079     
     36600   808.93443     -1829025.5     -1764974.2      64051.31       11271855     
     36700   808.15823     -1829127.4     -1765137.5      63989.85       11272790     
     36800   809.01389     -1829325       -1765267.4      64057.601      11270808     
     36900   809.31758     -1829507       -1765425.4      64081.647      11268816     
     37000   807.73025     -1829542.9     -1765586.9      63955.963      11267891     
     37100   806.83838     -1829616.3     -1765730.9      63885.344      11266053     
     37200   807.28035     -1829826.2     -1765905.9      63920.339      11264199     
     37300   806.02411     -1829884.6     -1766063.7      63820.87       11262861     
     37400   805.39408     -1829991.7     -1766220.8      63770.985      11261631     
     37500   804.70184     -1830102.3     -1766386.1      63716.173      11260128     
     37600   805.78406     -1830343.3     -1766541.4      63801.863      11259593     
     37700   803.6514      -1830357.4     -1766724.4      63633          11257698     
     37800   804.42761     -1830578.6     -1766884.1      63694.46       11255979     
     37900   804.05436     -1830734.7     -1767069.8      63664.906      11255262     
     38000   802.47623     -1830786.7     -1767246.8      63539.95       11254520     
     38100   804.54053     -1831126.2     -1767422.8      63703.401      11252831     
     38200   802.20672     -1831131.4     -1767612.8      63518.61       11249002     
     38300   802.65133     -1831377.2     -1767823.4      63553.814      11247367     
     38400   802.17857     -1831520.8     -1768004.4      63516.382      11248632     
     38500   801.21833     -1831616.1     -1768175.8      63440.35       11247203     
     38600   800.38031     -1831731.4     -1768357.4      63373.995      11242928     
     38700   799.36555     -1831836.7     -1768543        63293.647      11241715     
     38800   798.7111      -1831943.3     -1768701.5      63241.828      11242953     
     38900   799.49234     -1832168.1     -1768864.4      63303.686      11241802     
     39000   798.59235     -1832248.3     -1769015.9      63232.425      11238606     
     39100   796.90801     -1832280.8     -1769181.8      63099.059      11237236     
     39200   798.17923     -1832560.4     -1769360.7      63199.714      11237358     
     39300   796.41168     -1832611.3     -1769551.6      63059.76       11235462     
     39400   797.02619     -1832846.6     -1769738.2      63108.417      11232878     
     39500   796.18151     -1832966.8     -1769925.3      63041.535      11231367     
     39600   795.32075     -1833087.4     -1770114        62973.38       11232532     
     39700   794.57037     -1833185.7     -1770271.7      62913.965      11231973     
     39800   794.71161     -1833358.2     -1770433        62925.149      11228565     
     39900   793.78117     -1833453       -1770601.5      62851.476      11225747     
     40000   794.29566     -1833650.8     -1770758.6      62892.213      11227658     
     40100   792.2926      -1833646.6     -1770913        62733.612      11227933     
     40200   792.58149     -1833810.4     -1771053.9      62756.486      11223960     
     40300   793.04648     -1834012.3     -1771219        62793.303      11221150     
     40400   792.1648      -1834109.7     -1771386.2      62723.492      11221919     
     40500   791.04795     -1834203.2     -1771568.2      62635.061      11221180     
     40600   790.19781     -1834280.5     -1771712.8      62567.747      11219085     
     40700   791.22911     -1834544.4     -1771895        62649.405      11217049     
     40800   789.43905     -1834598.5     -1772090.8      62507.668      11215707     
     40900   789.23478     -1834756       -1772264.5      62491.493      11215678     
     41000   789.09684     -1834930.9     -1772450.3      62480.572      11213928     
     41100   789.34699     -1835132.2     -1772631.9      62500.379      11209472     
     41200   787.84468     -1835223.5     -1772842        62381.426      11207218     
     41300   787.96169     -1835420.3     -1773029.6      62390.691      11210355     
     41400   786.19203     -1835443.6     -1773193        62250.569      11210589     
     41500   786.60259     -1835630.3     -1773347.2      62283.077      11205449     
     41600   785.90056     -1835756       -1773528.5      62227.49       11202907     
     41700   785.60287     -1835904.6     -1773700.7      62203.92       11205392     
     41800   785.26342     -1836023.3     -1773846.3      62177.042      11205020     
     41900   784.7987      -1836150.1     -1774009.9      62140.246      11199184     
     42000   785.00659     -1836356.8     -1774200.1      62156.706      11196101     
     42100   784.00623     -1836471.5     -1774394        62077.498      11199082     
     42200   782.46719     -1836523.8     -1774568.2      61955.637      11198983     
     42300   783.99815     -1836823.4     -1774746.5      62076.858      11193123     
     42400   782.87047     -1836948       -1774960.4      61987.569      11189303     
     42500   782.62039     -1837147.4     -1775179.6      61967.768      11191571     
     42600   781.878       -1837290       -1775381        61908.985      11191191     
     42700   779.98429     -1837346.5     -1775587.4      61759.041      11186976     
     42800   780.15878     -1837542.1     -1775769.2      61772.858      11185241     
     42900   779.26803     -1837670.9     -1775968.5      61702.328      11184827     
     43000   779.22446     -1837840.8     -1776141.9      61698.878      11182947     
     43100   779.21581     -1838036.1     -1776338        61698.193      11179574     
     43200   778.97409     -1838219       -1776540        61679.054      11177676     
     43300   778.16087     -1838353.9     -1776739.2      61614.663      11177967     
     43400   777.33568     -1838487.9     -1776938.6      61549.325      11176381     
     43500   776.09784     -1838572.6     -1777121.3      61451.313      11173817     
     43600   776.07657     -1838752.6     -1777302.9      61449.629      11172669     
     43700   776.17488     -1838945       -1777487.6      61457.413      11171294     
     43800   775.80142     -1839104.6     -1777676.8      61427.842      11169517     
     43900   775.67287     -1839286.1     -1777868.4      61417.664      11167368     
     44000   775.31488     -1839459.7     -1778070.4      61389.318      11165777     
     44100   774.38004     -1839596.8     -1778281.5      61315.298      11164882     
     44200   773.20502     -1839707.3     -1778485        61222.26       11163191     
     44300   773.66944     -1839924       -1778665        61259.033      11159991     
     44400   772.56863     -1840044       -1778872.2      61171.87       11159961     
     44500   773.18833     -1840281.3     -1779060.4      61220.938      11160339     
     44600   772.03498     -1840360.6     -1779231        61129.616      11157486     
     44700   771.38518     -1840485.8     -1779407.7      61078.165      11154638     
     44800   770.95224     -1840648.8     -1779604.9      61043.885      11153255     
     44900   769.43395     -1840713.2     -1779789.6      60923.667      11152979     
     45000   769.49866     -1840868.5     -1779939.7      60928.791      11151418     
     45100   769.92644     -1841073.2     -1780110.5      60962.662      11149764     
     45200   768.75143     -1841150.1     -1780280.4      60869.625      11148494     
     45300   769.31539     -1841369.1     -1780454.8      60914.279      11146350     
     45400   769.40418     -1841562.3     -1780641        60921.31       11144866     
     45500   768.01958     -1841663       -1780851.3      60811.677      11143576     
     45600   768.25208     -1841881.8     -1781051.7      60830.087      11141586     
     45700   767.97126     -1842088.3     -1781280.5      60807.851      11138635     
     45800   767.3694      -1842260       -1781499.8      60760.196      11137342     
     45900   765.30321     -1842318.3     -1781721.7      60596.596      11137125     
     46000   765.36601     -1842524.5     -1781922.9      60601.568      11135910     
     46100   765.14863     -1842710.9     -1782126.5      60584.356      11133302     
     46200   765.55984     -1842941.8     -1782324.9      60616.916      11131058     
     46300   764.17762     -1843021.4     -1782514        60507.471      11130601     
     46400   763.71435     -1843189.6     -1782718.8      60470.79       11129042     
     46500   763.48939     -1843366.4     -1782913.4      60452.977      11126267     
     46600   763.10346     -1843545.3     -1783122.9      60422.419      11125386     
     46700   760.85675     -1843570.6     -1783326.1      60244.526      11125228     
     46800   761.53405     -1843818.7     -1783520.5      60298.154      11122541     
     46900   762.03266     -1844069.2     -1783731.6      60337.634      11118404     
     47000   761.57279     -1844243.6     -1783942.4      60301.222      11118018     
     47100   760.77658     -1844377.7     -1784139.5      60238.178      11119564     
     47200   759.07629     -1844420.5     -1784316.9      60103.549      11116978     
     47300   759.18038     -1844625.9     -1784514.1      60111.791      11111304     
     47400   758.52003     -1844789.8     -1784730.3      60059.505      11110386     
     47500   757.47373     -1844904.2     -1784927.6      59976.658      11113269     
     47600   758.00212     -1845111.7     -1785093.2      60018.497      11112803     
     47700   758.55847     -1845316.3     -1785253.7      60062.548      11108331     
     47800   757.52414     -1845440.3     -1785459.7      59980.65       11104749     
     47900   756.20068     -1845533.5     -1785657.7      59875.859      11104883     
     48000   756.91567     -1845777.4     -1785844.9      59932.471      11105138     
     48100   755.18938     -1845844.9     -1786049.1      59795.784      11101745     
     48200   756.05411     -1846124.8     -1786260.6      59864.253      11098763     
     48300   755.27856     -1846284.5     -1786481.6      59802.845      11098633     
     48400   752.60113     -1846266.7     -1786675.8      59590.847      11098684     
     48500   753.97429     -1846571.6     -1786872        59699.574      11095454     
     48600   753.29116     -1846733.3     -1787087.8      59645.484      11091071     
     48700   753.73962     -1846973.7     -1787292.7      59680.993      11092381     
     48800   752.26615     -1847054.7     -1787490.4      59564.323      11093079     
     48900   752.23962     -1847250.2     -1787688        59562.223      11088032     
     49000   751.7505      -1847430.9     -1787907.4      59523.494      11084486     
     49100   751.43663     -1847612.2     -1788113.6      59498.641      11084992     
     49200   750.04502     -1847714.2     -1788325.8      59388.454      11084664     
     49300   749.25641     -1847850.3     -1788524.3      59326.012      11081378     
     49400   749.77164     -1848100.6     -1788733.8      59366.808      11078206     
     49500   750.0437      -1848324.5     -1788936.2      59388.35       11078500     
     49600   748.09469     -1848365.2     -1789131.2      59234.027      11078732     
     49700   748.73536     -1848589.3     -1789304.6      59284.756      11076008     
     49800   747.9228      -1848735.4     -1789514.9      59220.417      11072236     
     49900   747.57176     -1848921.5     -1789728.9      59192.622      11071979     
     50000   746.3838      -1849038.8     -1789940.2      59098.56       11072328     
     50100   746.9615      -1849285       -1790140.7      59144.302      11068268     
     50200   746.72181     -1849491.5     -1790366.2      59125.323      11064171     
     50300   745.803       -1849645.7     -1790593.1      59052.572      11064818     
     50400   744.73017     -1849783.8     -1790816.2      58967.626      11064768     
     50500   744.33033     -1849974.1     -1791038.2      58935.966      11062030     
     50600   744.39886     -1850191.4     -1791250        58941.392      11060200     
     50700   742.06058     -1850217.6     -1791461.4      58756.248      11060167     
     50800   741.91443     -1850398.9     -1791654.2      58744.675      11058850     
     50900   742.30737     -1850608.9     -1791833.1      58775.788      11056043     
     51000   741.99531     -1850786.7     -1792035.6      58751.079      11053936     
     51100   742.44876     -1851034.4     -1792247.4      58786.984      11052878     
     51200   742.00989     -1851204.7     -1792452.4      58752.234      11052171     
     51300   740.54873     -1851295.7     -1792659.2      58636.54       11049965     
     51400   740.43885     -1851500.1     -1792872.2      58627.839      11046878     
     51500   738.92137     -1851597.8     -1793090.1      58507.686      11045160     
     51600   739.3287      -1851842.1     -1793302.1      58539.938      11044710     
     51700   739.01321     -1852032       -1793517        58514.957      11042955     
     51800   738.0394      -1852161.3     -1793723.4      58437.851      11040592     
     51900   737.86216     -1852352       -1793928.2      58423.817      11039185     
     52000   738.51637     -1852615.8     -1794140.2      58475.618      11038307     
     52100   736.72837     -1852682.2     -1794348.1      58334.044      11037050     
     52200   737.20644     -1852917.2     -1794545.3      58371.898      11036049     
     52300   735.31074     -1852973.1     -1794751.3      58221.796      11033997     
     52400   734.58366     -1853118.9     -1794954.6      58164.227      11032102     
     52500   734.94268     -1853355.4     -1795162.8      58192.653      11031105     
     52600   734.28126     -1853492.6     -1795352.3      58140.282      11029888     
     52700   734.83459     -1853746.6     -1795562.5      58184.095      11028030     
     52800   734.63603     -1853934.1     -1795765.7      58168.372      11025669     
     52900   732.81751     -1854001.4     -1795977        58024.383      11024251     
     53000   732.94681     -1854217       -1796182.4      58034.62       11023604     
     53100   731.98608     -1854337.5     -1796378.9      57958.55       11022246     
     53200   731.16334     -1854475.7     -1796582.3      57893.406      11019231     
     53300   731.54263     -1854713.9     -1796790.5      57923.438      11017228     
     53400   731.03073     -1854865.2     -1796982.3      57882.906      11017793     
     53500   730.96664     -1855057       -1797179.2      57877.831      11016047     
     53600   729.99009     -1855180.4     -1797379.9      57800.508      11012447     
     53700   728.8463      -1855301.5     -1797591.6      57709.943      11011310     
     53800   728.94945     -1855505.6     -1797787.5      57718.11       11011693     
     53900   728.98529     -1855701.3     -1797980.3      57720.948      11009328     
     54000   727.43413     -1855803.3     -1798205.1      57598.127      11005974     
     54100   726.72679     -1855964       -1798421.9      57542.12       11005852     
     54200   727.79437     -1856243       -1798616.3      57626.652      11006117     
     54300   727.23853     -1856398.3     -1798815.6      57582.64       11003346     
     54400   726.47732     -1856539.4     -1799017        57522.367      10999892     
     54500   726.11075     -1856719       -1799225.6      57493.342      10999027     
     54600   724.24029     -1856771.5     -1799426.3      57345.24       10999832     
     54700   724.71305     -1857005.5     -1799622.8      57382.672      10997062     
     54800   725.06836     -1857252.8     -1799842        57410.806      10992063     
     54900   723.7365      -1857361.7     -1800056.4      57305.35       10991676     
     55000   722.65756     -1857482.5     -1800262.6      57219.919      10993172     
     55100   722.36788     -1857639       -1800442        57196.982      10991192     
     55200   723.0232      -1857897       -1800648.1      57248.871      10986805     
     55300   722.33691     -1858059.7     -1800865.1      57194.53       10985721     
     55400   721.87576     -1858233.1     -1801075.1      57158.016      10986110     
     55500   721.15072     -1858374.2     -1801273.6      57100.608      10983980     
     55600   721.27318     -1858597.9     -1801487.6      57110.304      10981531     
     55700   721.21538     -1858817.8     -1801712        57105.728      10979767     
     55800   720.43212     -1858987       -1801943.3      57043.709      10977947     
     55900   718.45878     -1859053.1     -1802165.6      56887.46       10975713     
     56000   718.57374     -1859271.6     -1802375.1      56896.563      10974381     
     56100   717.16999     -1859379.5     -1802594        56785.415      10973771     
     56200   717.62261     -1859619.5     -1802798.2      56821.253      10971991     
     56300   717.69286     -1859846.6     -1803019.8      56826.815      10968746     
     56400   716.60085     -1859981.8     -1803241.4      56740.35       10966722     
     56500   716.5988      -1860198.3     -1803458.2      56740.188      10966214     
     56600   715.79812     -1860344.6     -1803667.8      56676.79       10965490     
     56700   714.11472     -1860419       -1803875.5      56543.498      10964285     
     56800   715.3585      -1860716.9     -1804075        56641.981      10961461     
     56900   714.75202     -1860886.7     -1804292.8      56593.96       10958283     
     57000   714.56493     -1861097.3     -1804518.2      56579.146      10957697     
     57100   713.37657     -1861214.7     -1804729.6      56485.052      10958883     
     57200   713.72303     -1861438.2     -1804925.7      56512.485      10955865     
     57300   712.35886     -1861559.2     -1805154.7      56404.47       10950276     
     57400   711.80069     -1861740.4     -1805380.2      56360.274      10950163     
     57500   711.42158     -1861934       -1805603.7      56330.256      10952778     
     57600   710.95615     -1862093.6     -1805800.2      56293.404      10949479     
     57700   711.39769     -1862343.8     -1806015.4      56328.365      10943543     
     57800   710.60257     -1862519.8     -1806254.4      56265.407      10943765     
     57900   709.46741     -1862647       -1806471.5      56175.525      10945192     
     58000   708.78257     -1862805.9     -1806684.6      56121.3        10940965     
     58100   709.46232     -1863069       -1806893.9      56175.122      10936377     
     58200   708.39063     -1863206.1     -1807115.9      56090.266      10938012     
     58300   707.78512     -1863349.6     -1807307.3      56042.322      10939167     
     58400   708.27695     -1863577.6     -1807496.3      56081.265      10934830     
     58500   708.02712     -1863783.2     -1807721.7      56061.483      10930895     
     58600   707.33467     -1863958.2     -1807951.5      56006.655      10931211     
     58700   705.92886     -1864052.3     -1808157        55895.343      10932220     
     58800   706.23258     -1864283.1     -1808363.7      55919.392      10928663     
     58900   705.54221     -1864449.9     -1808585.1      55864.728      10924459     
     59000   704.05156     -1864573.3     -1808826.6      55746.699      10923952     
     59100   704.19774     -1864803       -1809044.7      55758.273      10925021     
     59200   702.47943     -1864873.2     -1809251        55622.218      10922284     
     59300   703.52109     -1865172       -1809467.3      55704.697      10918306     
     59400   702.95716     -1865356.1     -1809696.1      55660.044      10917785     
     59500   701.50565     -1865450       -1809904.9      55545.114      10917898     
     59600   701.21245     -1865631       -1810109.1      55521.899      10915578     
     59700   700.93651     -1865810       -1810310        55500.05       10913419     
     59800   700.25663     -1865954       -1810507.8      55446.217      10913102     
     59900   700.55351     -1866171.9     -1810702.2      55469.724      10912610     
     60000   699.87966     -1866319.7     -1810903.3      55416.368      10909796     
     60100   699.59431     -1866500.5     -1811106.7      55393.774      10906980     
     60200   698.4662      -1866617.1     -1811312.7      55304.451      10906900     
     60300   698.59835     -1866827.1     -1811512.2      55314.914      10906931     
     60400   697.14263     -1866903.8     -1811704.1      55199.651      10903898     
     60500   697.07345     -1867103.7     -1811909.6      55194.173      10901067     
     60600   696.40589     -1867266.6     -1812125.3      55141.316      10900747     
     60700   696.02028     -1867439.4     -1812328.6      55110.783      10900492     
     60800   697.06988     -1867716.8     -1812522.9      55193.891      10898372     
     60900   694.5369      -1867730       -1812736.7      54993.329      10895557     
     61000   695.26778     -1867989.8     -1812938.6      55051.2        10894961     
     61100   693.83479     -1868083.7     -1813145.9      54937.737      10895124     
     61200   694.26937     -1868311.3     -1813339.1      54972.146      10893404     
     61300   694.08728     -1868497.3     -1813539.5      54957.729      10889736     
     61400   691.85334     -1868527.2     -1813746.4      54780.846      10888523     
     61500   692.80364     -1868796.2     -1813940.1      54856.09       10888327     
     61600   692.22868     -1868950.3     -1814139.7      54810.565      10887057     
     61700   691.16394     -1869064.2     -1814338        54726.259      10884454     
     61800   691.59411     -1869311.5     -1814551.2      54760.32       10882630     
     61900   690.90067     -1869483.1     -1814777.7      54705.413      10882190     
     62000   690.83942     -1869695.5     -1814995        54700.563      10880355     
     62100   689.95315     -1869847.3     -1815216.9      54630.389      10877915     
     62200   689.7303      -1870037.6     -1815424.8      54612.744      10877638     
     62300   689.04396     -1870175.6     -1815617.2      54558.4        10877465     
     62400   688.15034     -1870315.4     -1815827.8      54487.643      10874712     
     62500   687.96089     -1870509.9     -1816037.3      54472.642      10872133     
     62600   687.86316     -1870712.5     -1816247.6      54464.904      10872231     
     62700   687.09105     -1870853       -1816449.2      54403.768      10871607     
     62800   688.0726      -1871132.3     -1816650.8      54481.487      10868416     
     62900   685.70538     -1871170.7     -1816876.7      54294.051      10865844     
     63000   686.58946     -1871459.3     -1817095.3      54364.052      10866001     
     63100   685.67326     -1871599.9     -1817308.4      54291.508      10865449     
     63200   684.79064     -1871731.6     -1817510        54221.622      10861781     
     63300   684.95025     -1871965.2     -1817731        54234.26       10859599     
     63400   683.49692     -1872066.9     -1817947.7      54119.185      10860083     
     63500   683.02077     -1872230.1     -1818148.6      54081.484      10859187     
     63600   683.7167      -1872486.8     -1818350.2      54136.588      10855997     
     63700   682.12219     -1872569.5     -1818559.2      54010.335      10854516     
     63800   681.91496     -1872757.9     -1818764        53993.926      10854443     
     63900   680.57085     -1872856.3     -1818968.8      53887.5        10852596     
     64000   680.95782     -1873091.3     -1819173.1      53918.14       10849561     
     64100   680.29167     -1873258.2     -1819392.8      53865.394      10848639     
     64200   680.19521     -1873449.9     -1819592.1      53857.756      10847974     
     64300   680.44225     -1873678.6     -1819801.2      53877.317      10846087     
     64400   679.15904     -1873788       -1820012.3      53775.713      10843649     
     64500   679.21212     -1874000.2     -1820220.2      53779.916      10842726     
     64600   678.64433     -1874168.6     -1820433.6      53734.958      10842359     
     64700   676.64809     -1874219.8     -1820642.9      53576.896      10840398     
     64800   676.71722     -1874430.2     -1820847.9      53582.37       10837144     
     64900   676.88772     -1874653.9     -1821058        53595.87       10835823     
     65000   676.88707     -1874857.9     -1821262.1      53595.819      10836046     
     65100   675.45537     -1874964.3     -1821481.8      53482.456      10834067     
     65200   675.56477     -1875192.7     -1821701.6      53491.119      10829932     
     65300   675.02698     -1875371.4     -1821922.9      53448.537      10828814     
     65400   674.7935      -1875565.1     -1822135        53430.05       10830407     
     65500   674.36515     -1875736.9     -1822340.8      53396.133      10828747     
     65600   673.87875     -1875914       -1822556.4      53357.62       10823914     
     65700   673.52874     -1876109       -1822779.1      53329.907      10822549     
     65800   672.08647     -1876216.3     -1823000.6      53215.708      10824091     
     65900   672.72482     -1876477.4     -1823211.2      53266.252      10821909     
     66000   672.46469     -1876688       -1823442.4      53245.656      10817536     
     66100   670.62544     -1876765.7     -1823665.7      53100.024      10816860     
     66200   670.43161     -1876951.7     -1823867        53084.676      10817331     
     66300   669.81554     -1877112       -1824076.1      53035.896      10814826     
     66400   670.28999     -1877358.7     -1824285.3      53073.463      10811687     
     66500   668.06854     -1877400.8     -1824503.2      52897.569      10811293     
     66600   669.33272     -1877701.6     -1824704        52997.666      10811226     
     66700   668.47409     -1877838.1     -1824908.4      52929.68       10808319     
     66800   668.2058      -1878023.7     -1825115.3      52908.437      10805744     
     66900   667.83851     -1878200.1     -1825320.7      52879.355      10805829     
     67000   665.87351     -1878234.8     -1825511        52723.767      10805941     
     67100   666.58844     -1878480.2     -1825699.8      52780.375      10802808     
     67200   664.86386     -1878542.5     -1825898.7      52643.823      10800153     
     67300   665.58301     -1878790.8     -1826090        52700.765      10800603     
     67400   665.8712      -1878997       -1826273.4      52723.584      10799581     
     67500   664.63035     -1879101       -1826475.6      52625.333      10796325     
     67600   664.08562     -1879266.2     -1826684        52582.202      10794580     
     67700   663.74877     -1879444.5     -1826888.9      52555.53       10794765     
     67800   663.6789      -1879642.6     -1827092.6      52549.997      10793766     
     67900   663.85254     -1879862.9     -1827299.1      52563.747      10791008     
     68000   662.64542     -1879974.9     -1827506.7      52468.167      10789529     
     68100   661.90897     -1880129.9     -1827720        52409.855      10789148     
     68200   660.63947     -1880233.6     -1827924.3      52309.336      10787580     
     68300   660.84345     -1880450.9     -1828125.5      52325.488      10785136     
     68400   660.73495     -1880647.7     -1828330.8      52316.896      10783457     
     68500   659.73774     -1880783.5     -1828545.5      52237.937      10782965     
     68600   660.00435     -1881013.4     -1828754.4      52259.047      10781402     
     68700   659.14748     -1881151.4     -1828960.2      52191.201      10779119     
     68800   659.03246     -1881344.6     -1829162.5      52182.094      10777953     
     68900   658.11162     -1881462.7     -1829353.5      52109.181      10776822     
     69000   658.28991     -1881671.6     -1829548.3      52123.298      10775093     
     69100   657.48314     -1881804.4     -1829745        52059.418      10773544     
     69200   656.72824     -1881930.9     -1829931.3      51999.646      10772998     
     69300   655.64933     -1882026.6     -1830112.3      51914.217      10772096     
     69400   656.23026     -1882259.4     -1830299.2      51960.215      10770514     
     69500   655.18595     -1882370.1     -1830492.5      51877.527      10769304     
     69600   654.71311     -1882526.3     -1830686.2      51840.088      10767647     
     69700   654.45385     -1882706.2     -1830886.7      51819.56       10766478     
     69800   653.57325     -1882828.9     -1831079.1      51749.834      10765338     
     69900   653.83377     -1883050.1     -1831279.6      51770.462      10763444     
     70000   653.51615     -1883236.6     -1831491.3      51745.312      10761794     
     70100   651.21321     -1883264.9     -1831702        51562.966      10760353     
     70200   651.69739     -1883504.6     -1831903.3      51601.304      10759366     
     70300   651.80437     -1883711.7     -1832101.9      51609.774      10758322     
     70400   651.2071      -1883861.1     -1832298.6      51562.482      10755984     
     70500   650.70601     -1884022.7     -1832499.9      51522.806      10754208     
     70600   649.17882     -1884099.2     -1832697.3      51401.883      10753700     
     70700   649.61316     -1884320.8     -1832884.5      51436.275      10753014     
     70800   648.73562     -1884435.7     -1833068.9      51366.791      10750698     
     70900   649.25502     -1884678.1     -1833270.2      51407.917      10749030     
     71000   649.00276     -1884850.5     -1833462.5      51387.943      10748819     
     71100   646.81751     -1884876.2     -1833661.3      51214.915      10747328     
     71200   646.83906     -1885069       -1833852.4      51216.622      10745870     
     71300   646.32047     -1885223       -1834047.4      51175.56       10744540     
     71400   645.51271     -1885355.7     -1834244.1      51111.601      10742800     
     71500   645.719       -1885570.7     -1834442.8      51127.935      10741584     
     71600   644.60609     -1885679.3     -1834639.5      51039.815      10740875     
     71700   644.911       -1885898.9     -1834834.9      51063.958      10739759     
     71800   644.72277     -1886055.3     -1835006.2      51049.054      10737791     
     71900   643.84601     -1886177       -1835197.3      50979.633      10736499     
     72000   643.1846      -1886319.2     -1835391.9      50927.262      10735966     
     72100   643.51072     -1886537.2     -1835584.1      50953.084      10734568     
     72200   642.13014     -1886618.9     -1835775.2      50843.77       10732316     
     72300   641.92374     -1886798.1     -1835970.7      50827.427      10730643     
     72400   641.61348     -1886967.7     -1836164.9      50802.861      10730166     
     72500   641.49748     -1887151.9     -1836358.2      50793.676      10729270     
     72600   639.93483     -1887218.9     -1836548.9      50669.945      10727080     
     72700   639.29416     -1887346.9     -1836727.6      50619.218      10725639     
     72800   639.43286     -1887539.5     -1836909.3      50630.2        10725386     
     72900   638.9307      -1887679.4     -1837089        50590.439      10724264     
     73000   639.12437     -1887863.6     -1837257.8      50605.774      10722576     
     73100   638.5158      -1887997.4     -1837439.9      50557.587      10720888     
     73200   637.25446     -1888081.7     -1837624        50457.714      10720138     
     73300   638.51972     -1888356.1     -1837798.2      50557.897      10719799     
     73400   637.00467     -1888416.7     -1837978.7      50437.936      10718096     
     73500   636.27424     -1888545.9     -1838165.8      50380.101      10715907     
     73600   635.67041     -1888690.6     -1838358.3      50332.29       10715342     
     73700   636.14858     -1888914.5     -1838544.4      50370.151      10715021     
     73800   634.80745     -1888991.8     -1838727.9      50263.96       10713048     
     73900   634.91327     -1889190.2     -1838917.9      50272.34       10711143     
     74000   633.78263     -1889290.2     -1839107.4      50182.816      10710677     
     74100   632.79793     -1889388.3     -1839283.4      50104.847      10710375     
     74200   632.51293     -1889543.4     -1839461.1      50082.281      10708947     
     74300   631.67449     -1889652.5     -1839636.6      50015.893      10706577     
     74400   631.70193     -1889827.6     -1839809.6      50018.066      10705332     
     74500   631.56831     -1889989.8     -1839982.3      50007.486      10704958     
     74600   630.69235     -1890096.6     -1840158.4      49938.127      10703792     
     74700   630.22439     -1890235.8     -1840334.8      49901.074      10701283     
     74800   630.94868     -1890476.6     -1840518.2      49958.424      10700390     
     74900   629.90308     -1890576.5     -1840700.9      49875.633      10700513     
     75000   629.78935     -1890740.5     -1840873.9      49866.628      10698938     
     75100   629.56926     -1890904.3     -1841055.1      49849.201      10696366     
     75200   628.82972     -1891032.5     -1841241.8      49790.645      10695818     
     75300   628.37466     -1891171.9     -1841417.3      49754.613      10696113     
     75400   626.71792     -1891212.9     -1841589.4      49623.433      10694306     
     75500   627.01161     -1891403.4     -1841756.7      49646.687      10692144     
     75600   626.01179     -1891492.8     -1841925.3      49567.522      10691847     
[...]
     87100   571.66777     -1902214.9     -1856950.3      45264.57       10599189     
     87200   571.36813     -1902294.4     -1857053.6      45240.844      10601232     
     87300   571.08858     -1902367.1     -1857148.4      45218.71       10599714     
     87400   571.43292     -1902491.7     -1857245.7      45245.974      10596209     
     87500   570.38701     -1902521.8     -1857358.7      45163.16       10596887     
     87600   569.46284     -1902547.6     -1857457.6      45089.984      10599094     
     87700   569.67667     -1902666.2     -1857559.3      45106.915      10597261     
     87800   568.96878     -1902726.1     -1857675.2      45050.865      10593672     
     87900   567.80591     -1902753.9     -1857795.1      44958.788      10594903     
     88000   566.94369     -1902790.7     -1857900.2      44890.518      10597432     
     88100   567.76887     -1902952.5     -1857996.7      44955.856      10594405     
     88200   567.30226     -1903025.9     -1858107        44918.91       10591192     
     88300   566.00054     -1903026.5     -1858210.7      44815.839      10593483     
     88400   565.47393     -1903068.7     -1858294.5      44774.143      10595556     
     88500   564.92686     -1903111.9     -1858381.1      44730.826      10591897     
     88600   564.89449     -1903209.8     -1858481.6      44728.263      10589575     
     88700   564.96289     -1903311.6     -1858577.9      44733.678      10592311     
     88800   564.3689      -1903355.6     -1858668.9      44686.647      10593090     
     88900   563.43573     -1903368.7     -1858755.9      44612.758      10589557     
     89000   563.1958      -1903442.9     -1858849.1      44593.761      10588242     
     89100   562.13449     -1903450.6     -1858940.9      44509.727      10590913     
     89200   562.04003     -1903528       -1859025.8      44502.247      10590985     
     89300   561.59429     -1903585.4     -1859118.4      44466.953      10587680     
     89400   561.02806     -1903649       -1859226.9      44422.119      10586988     
     89500   559.78212     -1903654.8     -1859331.3      44323.466      10589101     
     89600   558.92299     -1903683.6     -1859428.1      44255.44       10588285     
     89700   559.75413     -1903847.3     -1859526.1      44321.25       10585355     
     89800   558.77016     -1903870.2     -1859626.9      44243.339      10585101     
     89900   559.0243      -1903981       -1859717.6      44263.462      10586570     
     90000   557.6671      -1903959.7     -1859803.7      44155.999      10585862     
     90100   558.07637     -1904091.6     -1859903.2      44188.405      10583559     
     90200   557.54141     -1904144.2     -1859998.1      44146.047      10583833     
     90300   556.53893     -1904155.2     -1860088.5      44066.67       10584506     
     90400   555.89613     -1904201.7     -1860185.9      44015.774      10583210     
     90500   556.44909     -1904332.2     -1860272.6      44059.557      10581796     
     90600   555.22634     -1904332.7     -1860369.9      43962.74       10582415     
     90700   554.16909     -1904333.5     -1860454.5      43879.027      10582524     
     90800   554.23402     -1904430       -1860545.8      43884.168      10581307     
     90900   553.72366     -1904481.5     -1860637.8      43843.758      10580384     
     91000   553.66474     -1904565.3     -1860726.2      43839.092      10580845     
     91100   553.30585     -1904617.8     -1860807.1      43810.676      10580655     
     91200   552.21637     -1904623.7     -1860899.3      43724.411      10579610     
     91300   552.59414     -1904746.8     -1860992.5      43754.323      10578699     
     91400   552.15448     -1904800.5     -1861081        43719.511      10578714     
     91500   551.54704     -1904851.9     -1861180.5      43671.414      10578583     
     91600   551.24489     -1904917.4     -1861269.9      43647.49       10577567     
     91700   550.29753     -1904947       -1861374.6      43572.477      10576917     
     91800   549.8488      -1905005.1     -1861468.2      43536.947      10577130     
     91900   549.14777     -1905048.6     -1861567.1      43481.44       10576622     
     92000   548.33807     -1905072.1     -1861654.8      43417.327      10575277     
     92100   547.94972     -1905137.2     -1861750.7      43386.578      10574929     
     92200   547.45976     -1905187.1     -1861839.3      43347.784      10575532     
     92300   546.58809     -1905208.1     -1861929.3      43278.765      10575177     
     92400   547.45439     -1905370       -1862022.6      43347.358      10573580     
     92500   545.96433     -1905343.3     -1862113.9      43229.376      10573363     
     92600   546.52391     -1905478.8     -1862205.1      43273.683      10573899     
     92700   545.17459     -1905460.1     -1862293.2      43166.844      10572539     
     92800   544.81305     -1905525.1     -1862386.9      43138.217      10571562     
     92900   544.6714      -1905602.6     -1862475.6      43127.002      10572085     
     93000   543.74473     -1905615.2     -1862561.6      43053.628      10572023     
     93100   542.75824     -1905626.4     -1862650.8      42975.518      10570589     
     93200   543.90582     -1905809.8     -1862743.4      43066.383      10569845     
     93300   542.61734     -1905794.3     -1862829.9      42964.361      10570313     
     93400   542.43799     -1905867.7     -1862917.6      42950.16       10570480     
     93500   542.1852      -1905930.9     -1863000.8      42930.144      10569305     
     93600   541.40953     -1905958.6     -1863089.9      42868.727      10567932     
     93700   541.03175     -1906019.1     -1863180.3      42838.814      10568285     
     93800   540.69501     -1906080.1     -1863268        42812.151      10569263     
     93900   540.77498     -1906178.7     -1863360.2      42818.483      10567560     
     94000   539.71523     -1906189.3     -1863454.7      42734.572      10565716     
     94100   539.0944      -1906237.9     -1863552.5      42685.415      10566746     
     94200   538.5819      -1906288.8     -1863644        42644.836      10567283     
     94300   538.3462      -1906360.7     -1863734.6      42626.173      10565188     
     94400   537.00029     -1906352.7     -1863833.1      42519.604      10563972     
     94500   536.27843     -1906383.8     -1863921.3      42462.447      10565391     
     94600   535.7483      -1906428.4     -1864008        42420.471      10565757     
     94700   535.20512     -1906468.8     -1864091.3      42377.462      10563097     
     94800   535.78939     -1906606.3     -1864182.6      42423.725      10561825     
     94900   534.59809     -1906600.3     -1864270.9      42329.398      10564181     
     95000   534.11966     -1906633.8     -1864342.3      42291.516      10564687     
     95100   534.08633     -1906717.1     -1864428.2      42288.877      10561374     
     95200   534.29633     -1906824.7     -1864519.2      42305.505      10559910     
     95300   532.91298     -1906807.3     -1864611.3      42195.971      10562745     
     95400   532.76565     -1906879.3     -1864695        42184.306      10563235     
     95500   531.90649     -1906897.1     -1864780.8      42116.277      10559342     
     95600   531.71536     -1906982.5     -1864881.4      42101.144      10558511     
     95700   531.59523     -1907055.8     -1864964.2      42091.632      10561579     
     95800   530.56247     -1907058.4     -1865048.6      42009.858      10561050     
     95900   530.14672     -1907116.5     -1865139.6      41976.94       10557208     
     96000   529.74728     -1907170.6     -1865225.3      41945.312      10557120     
     96100   528.75477     -1907179.5     -1865312.8      41866.725      10560093     
     96200   528.36654     -1907219.8     -1865383.8      41835.985      10559289     
     96300   529.23344     -1907376.4     -1865471.7      41904.626      10555853     
     96400   527.57607     -1907342.8     -1865569.4      41773.396      10556123     
     96500   528.2055      -1907474.5     -1865651.3      41823.234      10558520     
     96600   527.3917      -1907496.2     -1865737.4      41758.797      10557015     
     96700   526.98945     -1907552.7     -1865825.7      41726.947      10553893     
     96800   526.39627     -1907599.1     -1865919.1      41679.979      10554982     
     96900   525.13582     -1907580.6     -1866000.4      41580.177      10557236     
     97000   525.5172      -1907678.6     -1866068.2      41610.375      10554995     
     97100   525.08109     -1907735.5     -1866159.7      41575.844      10552174     
     97200   524.1843      -1907755.1     -1866250.3      41504.836      10554373     
     97300   523.51298     -1907780.6     -1866328.9      41451.681      10555945     
     97400   522.88666     -1907814.5     -1866412.4      41402.089      10552590     
     97500   523.66506     -1907967.9     -1866504.2      41463.722      10550643     
     97600   522.53751     -1907964.1     -1866589.7      41374.443      10553200     
     97700   522.38441     -1908030.4     -1866668.1      41362.321      10553784     
     97800   521.94114     -1908085.7     -1866758.4      41327.223      10550721     
     97900   521.42022     -1908136.8     -1866850.9      41285.976      10549668     
     98000   521.18978     -1908209.3     -1866941.6      41267.73       10552024     
     98100   519.57713     -1908163       -1867023        41140.041      10551889     
     98200   520.06232     -1908286.9     -1867108.5      41178.458      10548522     
     98300   518.76351     -1908275.5     -1867199.9      41075.619      10548488     
     98400   517.86992     -1908287.3     -1867282.4      41004.864      10550646     
     98500   518.11844     -1908390       -1867365.5      41024.542      10549748     
     98600   517.30749     -1908404.1     -1867443.8      40960.331      10547609     
     98700   517.37748     -1908495.7     -1867529.8      40965.873      10547890     
     98800   517.53852     -1908586.2     -1867607.5      40978.624      10548972     
     98900   516.82409     -1908609.4     -1867687.3      40922.055      10547898     
     99000   515.4357      -1908583.5     -1867771.4      40812.123      10546085     
     99100   515.12697     -1908647.6     -1867859.9      40787.678      10546571     
     99200   515.10546     -1908722       -1867936.1      40785.975      10547280     
     99300   514.62573     -1908771.6     -1868023.6      40747.989      10545562     
     99400   515.03112     -1908892.3     -1868112.2      40780.089      10544402     
     99500   513.85543     -1908889.9     -1868202.9      40686.997      10545184     
     99600   512.57759     -1908879.1     -1868293.3      40585.818      10545496     
     99700   511.41657     -1908877.1     -1868383.2      40493.889      10544031     
     99800   511.9922      -1909011.8     -1868472.4      40539.467      10543170     
     99900   511.22318     -1909031.1     -1868552.5      40478.576      10543747     
    100000   511.14019     -1909104.2     -1868632.2      40472.005      10543809     
    100100   510.76537     -1909154.6     -1868712.3      40442.327      10542333     
    100200   510.65347     -1909225.7     -1868792.3      40433.467      10541555     
    100300   509.27376     -1909200.1     -1868875.8      40324.222      10542447     
    100400   508.84395     -1909249.7     -1868959.5      40290.189      10542290     
    100500   508.9069      -1909338.2     -1869043.1      40295.173      10540739     
    100600   508.30984     -1909386.6     -1869138.7      40247.899      10540225     
    100700   508.34397     -1909481.1     -1869230.5      40250.6        10540881     
    100800   507.04284     -1909465.9     -1869318.3      40147.577      10540415     
    100900   506.79305     -1909535       -1869407.2      40127.799      10538921     
    101000   506.27502     -1909586.2     -1869499.4      40086.782      10538625     
    101100   505.72606     -1909626.1     -1869582.8      40043.315      10539367     
    101200   505.87665     -1909721.8     -1869666.5      40055.238      10538856     
    101300   504.75887     -1909711.9     -1869745.1      39966.733      10537202     
    101400   504.3499      -1909763.8     -1869829.4      39934.351      10537424     
    101500   504.09666     -1909822.1     -1869907.8      39914.3        10538188     
    101600   503.65441     -1909870.9     -1869991.7      39879.282      10537008     
    101700   503.03885     -1909908.6     -1870078.1      39830.542      10535891     
    101800   502.95112     -1909994       -1870170.4      39823.596      10536150     
    101900   502.30397     -1910027.2     -1870254.8      39772.354      10536256     
    102000   500.91093     -1910002.9     -1870340.8      39662.054      10535019     
    102100   501.11258     -1910107.2     -1870429.2      39678.02       10534088     
    102200   500.99637     -1910186       -1870517.1      39668.819      10534389     
    102300   500.22167     -1910206.4     -1870599        39607.478      10534598     
    102400   499.82217     -1910257.8     -1870682        39575.846      10533812     
    102500   499.0612      -1910280.7     -1870765.1      39515.592      10532896     
    102600   499.25227     -1910375.8     -1870845.1      39530.721      10533465     
    102700   497.886       -1910355.6     -1870933        39422.541      10533403     
    102800   498.42541     -1910484.7     -1871019.5      39465.25       10531353     
    102900   497.79186     -1910519.2     -1871104.1      39415.086      10531061     
    103000   496.61871     -1910509.4     -1871187.2      39322.196      10532314     
    103100   496.86875     -1910607.8     -1871265.8      39341.994      10531501     
    103200   497.04302     -1910705.2     -1871349.4      39355.793      10529519     
    103300   495.77298     -1910692.9     -1871437.7      39255.232      10530180     
    103400   495.55077     -1910758.5     -1871520.9      39237.637      10531208     
    103500   494.71219     -1910774.5     -1871603.3      39171.238      10529758     
    103600   494.36726     -1910834.8     -1871690.8      39143.927      10527751     
    103700   493.5613      -1910854.9     -1871774.8      39080.111      10528571     
    103800   492.78523     -1910879.6     -1871861        39018.662      10529659     
    103900   492.44903     -1910932.5     -1871940.5      38992.042      10527780     
    104000   491.82674     -1910971.8     -1872029        38942.769      10526089     
    104100   492.03166     -1911068.8     -1872109.8      38958.994      10527467     
    104200   490.69048     -1911040.1     -1872187.3      38852.8        10528259     
    104300   490.85599     -1911129.6     -1872263.7      38865.905      10526193     
    104400   490.16017     -1911163.1     -1872352.3      38810.811      10525262     
    104500   489.66591     -1911210       -1872438.3      38771.674      10526585     
    104600   489.68892     -1911292.8     -1872519.3      38773.496      10526356     
    104700   489.23695     -1911344.4     -1872606.7      38737.71       10524032     
    104800   488.1469      -1911352.6     -1872701.2      38651.4        10523840     
    104900   488.04761     -1911430       -1872786.4      38643.538      10525526     
    105000   487.42313     -1911463.7     -1872869.7      38594.092      10524731     
    105100   486.83855     -1911503.8     -1872956        38547.805      10521997     
    105200   486.29549     -1911549.2     -1873044.4      38504.806      10522592     
    105300   485.95069     -1911601.6     -1873124.1      38477.504      10524402     
    105400   485.12047     -1911610.8     -1873199        38411.767      10522710     
    105500   485.32921     -1911713.7     -1873285.4      38428.295      10520498     
    105600   484.90233     -1911763.3     -1873368.8      38394.495      10521953     
    105700   483.95985     -1911770.1     -1873450.3      38319.87       10522782     
    105800   483.39975     -1911813.5     -1873537.9      38275.521      10520322     
    105900   484.00733     -1911943.6     -1873620        38323.629      10519374     
    106000   482.72042     -1911931.1     -1873709.4      38221.732      10521108     
    106100   482.03087     -1911953.2     -1873786.1      38167.133      10520963     
    106200   482.1247      -1912044.6     -1873870.1      38174.562      10518510     
    106300   481.86        -1912109.4     -1873955.8      38153.604      10518153     
    106400   481.15659     -1912138.1     -1874040.2      38097.908      10520083     
    106500   480.57834     -1912167.3     -1874115.2      38052.123      10519270     
    106600   480.24335     -1912223.7     -1874198.1      38025.598      10516474     
    106700   478.77647     -1912194.7     -1874285.3      37909.45       10516871     
    106800   479.53697     -1912335.5     -1874365.8      37969.667      10518960     
    106900   479.15816     -1912381.5     -1874441.8      37939.673      10517499     
    107000   478.09955     -1912387       -1874531.1      37855.852      10515127     
    107100   477.75565     -1912444.9     -1874616.2      37828.622      10515907     
    107200   477.35179     -1912495.5     -1874698.9      37796.644      10517135     
    107300   476.4426      -1912502.5     -1874777.8      37724.655      10515436     
    107400   477.18442     -1912646.4     -1874863.1      37783.392      10513820     
    107500   475.9136      -1912629.9     -1874947.1      37682.769      10514998     
    107600   475.16171     -1912650.9     -1875027.7      37623.235      10515328     
    107700   474.9813      -1912714.9     -1875105.9      37608.95       10513541     
    107800   474.69326     -1912780.6     -1875194.4      37586.142      10512679     
    107900   473.86997     -1912797.2     -1875276.3      37520.955      10513788     
    108000   473.5447      -1912855.4     -1875360.2      37495.2        10513902     
Loop time of 161562 on 10 procs for 100000 steps with 612563 atoms

Performance: 0.107 ns/day, 224.392 hours/ns, 0.619 timesteps/s, 379.150 katom-step/s
75.9% CPU use with 10 MPI tasks x 1 OpenMP threads

MPI task timing breakdown:
Section |  min time  |  avg time  |  max time  |%varavg| %total
---------------------------------------------------------------
Pair    | 1.5417e+05 | 1.5441e+05 | 1.5455e+05 |  26.3 | 95.57
Neigh   | 1090.8     | 1098.4     | 1106.7     |  15.5 |  0.68
Comm    | 4924.2     | 5070.3     | 5288.7     | 146.7 |  3.14
Output  | 43.575     | 43.596     | 43.618     |   0.2 |  0.03
Modify  | 753.42     | 775.77     | 797.63     |  46.4 |  0.48
Other   |            | 164.9      |            |       |  0.10

Nlocal:        61256.3 ave       61465 max       60924 min
Histogram: 1 1 0 0 1 1 1 0 4 1
Nghost:         114140 ave      114512 max      113494 min
Histogram: 1 1 0 1 0 1 1 0 2 3
Neighs:    4.03413e+06 ave 4.06402e+06 max 3.98892e+06 min
Histogram: 1 1 0 1 0 1 0 3 2 1
FullNghs:  8.06826e+06 ave  8.1286e+06 max 7.97712e+06 min
Histogram: 1 1 0 1 0 1 0 3 2 1

Total # of neighbors = 80682634
Ave neighs/atom = 131.7132
Neighbor list builds = 4700
Dangerous builds = 0
unfix f3

write_data data_after_step1.lammps
System init for write_data ...

#-------------------- End ----------------------------------------------------------------
Total wall time: 49:16:33
