ITEM: TIMESTEP
0
ITEM: NUMBER OF ATOMS
12000
ITEM: BOX BOUNDS pp pp pp
8.5233722999584316e-02 2.7255766277000198e+01
8.9200672804086167e-02 2.7251799327195815e+01
6.6884131538917302e-01 2.1805915868461182e+02
ITEM: ATOMS id type x y z c_peratom fx fy fz 
242 2 5.64975 5.57703 6.13577 -25.5968 -0.607805 -0.331327 -0.224611 
1201 2 5.73999 2.98249 3.44355 -25.575 -1.3806 -1.19244 -0.165057 
1202 2 5.62712 2.73674 8.86749 -25.6832 -0.675938 0.948156 1.50021 
2041 2 2.93743 5.5466 3.22011 -25.6926 -0.632686 0.387175 1.55334 
2042 2 3.04085 5.44021 8.92014 -25.2393 -1.29914 0.319386 -0.153868 
3002 2 2.93463 2.77933 6.11548 -25.5105 -0.875236 0.338289 0.222285 
4001 1 1.43647 1.34955 2.06111 -7.61198 -0.635388 1.39321 -0.898701 
4002 1 1.63869 1.39445 7.63363 -7.39037 -1.12342 1.61571 -1.98058 
5001 1 4.12958 4.09059 4.76577 -7.3474 0.611776 1.19889 0.264076 
6001 1 4.47898 4.40884 2.05526 -7.14799 -1.75667 -1.13322 -0.139273 
6002 1 4.3581 4.17965 7.63058 -7.67219 -0.588973 -0.259846 -1.42317 
7001 1 1.50098 1.59517 4.73057 -7.45272 0.20187 -0.593761 1.13997 
8001 1 4.23514 1.50112 4.66584 -7.14363 0.901847 -0.555717 0.288185 
9001 1 1.61574 4.16052 1.94176 -7.96839 -0.63439 -0.686217 0.418939 
9002 1 1.46246 4.21096 7.34792 -7.37082 0.965159 -0.333161 -0.0121292 
10001 1 1.38588 4.31912 4.58798 -7.25408 -0.0677299 -0.538657 0.0167921 
11001 1 4.05932 1.66459 1.98851 -7.35487 1.73482 -0.681878 -0.0792505 
11002 1 4.33856 1.46901 7.39844 -7.37904 -1.97452 0.654459 0.566258 
4041 1 1.51034 6.73679 1.84213 -7.35666 1.42842 0.791844 -0.295806 
11042 1 4.29281 6.85078 7.59207 -7.76247 -0.85754 0.725302 -0.400531 
8041 1 4.29706 6.82937 4.75064 -7.67634 -0.601481 0.364719 -0.120661 
2001 2 2.85185 0.206903 3.37289 -25.6925 0.429327 -0.565105 1.48071 
3001 2 2.76319 2.80275 0.689637 -25.0739 0.610517 0.304817 -2.01285 
41 3 0.105752 5.46321 0.867298 -29.3391 0.897405 1.2155 -3.07988 
9201 1 6.97223 4.2958 2.00636 -7.25262 1.93669 -1.39466 0.146056 
4201 1 6.9566 1.45739 2.00273 -8.1076 0.104038 0.663191 0.7247 
4202 1 6.88137 1.37143 7.68741 -7.8421 2.14238 -1.19077 -1.18899 
4242 1 6.95205 6.73753 7.38346 -6.80774 -0.18113 1.48226 1.46692 
9202 1 7.05489 4.0213 7.90387 -6.87083 0.892019 0.748091 -2.21812 
7201 1 7.09688 1.52406 4.97484 -7.19781 -0.596918 0.295546 -0.872324 
10201 1 6.89722 4.35367 4.78746 -7.50212 0.605459 -0.631716 0.250625 
442 2 11.0508 5.27039 6.19639 -25.7083 -0.8736 2.34092 -1.58148 
1401 2 10.9684 2.68636 3.48243 -25.4552 1.70295 0.732154 -1.31473 
1402 2 10.9391 2.77881 9.01452 -25.0166 1.0051 -0.906147 -0.621984 
2241 2 8.47885 5.55108 3.4442 -25.779 -1.54598 1.33628 1.37838 
2242 2 8.34158 5.67622 8.98845 -25.0721 1.34733 -4.61646 -4.22306 
3202 2 8.54815 2.583 6.37137 -24.8073 -2.11477 0.68564 -1.40336 
4401 1 12.4876 1.55884 2.04065 -7.29124 0.196948 -0.547321 -0.188825 
4402 1 12.3112 1.14175 7.53612 -6.86051 1.37436 1.53626 -0.487669 
5201 1 9.63691 4.04813 4.884 -7.71651 0.103402 -0.533461 0.546711 
6201 1 9.75919 4.27198 2.24703 -7.88924 0.481305 -0.871849 -1.81783 
6202 1 9.67623 4.01592 7.6569 -8.07704 0.781062 0.688258 0.379106 
7401 1 12.3973 1.26763 4.74819 -7.30372 0.287541 -0.564147 0.299923 
8201 1 9.73421 1.33589 4.64692 -7.54356 -0.768571 -0.958808 1.903 
9401 1 12.5632 4.24445 1.90989 -6.95693 -0.691538 -0.366556 1.57062 
9402 1 12.4137 4.02136 7.41424 -7.99419 0.281532 -0.913588 2.05503 
10401 1 12.411 3.86565 4.79064 -7.51587 -0.812332 1.65592 -1.41997 
11201 1 9.8179 1.33281 2.04042 -7.86348 -1.3161 0.396384 -1.05989 
11202 1 9.82356 1.21545 7.59409 -7.743 -2.14822 0.0206488 -0.937321 
11242 1 9.53381 6.8088 7.28714 -6.82514 1.49696 -0.621925 2.06808 
4442 1 12.3544 6.67221 7.32644 -7.36231 -0.0145921 0.0966741 1.31676 
7441 1 12.4169 6.60781 4.74276 -7.23762 1.6686 0.412388 -1.02871 
4241 1 7.18069 6.85267 2.09494 -7.19762 -1.23763 0.662808 -0.87594 
8241 1 9.8683 6.78944 4.77852 -6.87978 -0.66733 -0.170451 -1.16337 
4441 1 12.3399 6.84231 1.99345 -7.42219 1.21628 0.871482 0.712149 
441 2 11.088 5.64019 0.670874 -25.626 0.336188 -1.08296 -0.933431 
2442 2 13.7223 5.52829 8.72882 -25.4055 0.778419 -0.529561 0.994798 
2441 2 13.81 5.46 3.33463 -25.325 -0.244746 -0.27484 0.36087 
3402 2 13.7406 2.74194 6.083 -25.5661 1.18017 -1.53279 0.622104 
642 2 16.5384 5.51484 6.06101 -25.5273 0.195866 -1.02479 0.0687552 
1601 2 16.4215 2.69586 3.41063 -25.7965 1.29884 1.1939 -0.0205455 
1602 2 16.4609 2.83596 8.74564 -25.0689 1.08968 0.733276 0.229356 
2641 3 19.1539 5.43201 3.32827 -28.8116 0.958043 -0.0653625 -0.0801555 
2642 3 19.3789 5.47421 9.01823 -29.1196 -1.93783 -0.283678 -2.16203 
3602 3 19.328 2.98676 6.06177 -28.9185 -1.23598 -0.0670794 -0.131747 
4601 1 17.9863 1.33682 1.89188 -7.3158 -0.250644 0.700369 0.0981887 
4602 1 17.8036 1.48436 7.29684 -8.07353 1.38108 0.867434 0.53845 
5401 1 15.1283 4.16363 4.78523 -7.47948 -0.614863 0.769233 -1.38883 
6401 1 15.2648 4.05131 1.90507 -7.51705 -0.348726 -0.22751 1.10419 
6402 1 15.2329 4.17948 7.40946 -7.74366 -0.94712 -0.945146 1.22448 
7601 1 17.8425 1.412 4.47693 -6.67003 1.38675 -0.907245 1.24109 
8401 1 15.1679 1.49207 4.79675 -7.03108 -0.81812 -0.582736 0.33868 
9601 1 17.8274 4.17227 1.99435 -7.71925 1.12883 -1.05142 1.33153 
9602 1 17.9708 4.20781 7.45506 -7.27658 0.541561 -0.828666 0.371617 
10601 1 17.7577 3.95908 4.7993 -7.41888 0.468418 1.76195 -0.424299 
11401 1 15.2544 1.28814 2.11942 -7.64402 -2.11508 2.06483 0.738181 
11402 1 15.1205 1.31745 7.4682 -7.6882 -0.405963 0.824022 0.94292 
7641 1 18.0879 6.76345 4.4915 -8.07609 -0.998613 -0.307348 1.67087 
5601 1 20.3411 4.20769 4.75319 -7.54843 -0.13757 -0.449363 -1.1426 
11442 1 15.0824 6.79243 7.41863 -7.70876 -0.455247 0.89619 0.0902436 
11441 1 15.0702 6.71851 1.93793 -7.78121 1.00458 0.827263 1.49481 
4641 1 17.9315 6.7154 1.92923 -7.55021 -0.66565 0.749126 -0.129083 
4642 1 17.7326 6.79912 7.41262 -7.24727 0.658921 0.0414526 -0.891302 
2602 3 18.9725 0.0966918 8.60913 -28.2876 2.40623 0.502636 1.84408 
3601 2 19.243 2.86583 0.703646 -25.384 -1.025 -2.06759 -1.46659 
6602 1 20.6969 4.40245 7.37086 -7.43912 -0.502208 -0.916176 1.33811 
11601 1 20.6259 1.34281 1.82264 -8.0366 0.356424 0.676964 1.52667 
11602 1 20.6281 1.7789 7.27998 -8.06152 -1.26767 -1.78241 -0.517477 
6601 1 20.5633 4.03523 2.01399 -8.29602 0.476598 0.199993 0.934177 
8641 1 20.743 6.79165 4.94826 -7.10969 -0.533607 -0.157115 -0.665757 
1001 2 27.2106 2.90171 3.33082 -25.1804 2.25662 -0.341955 1.25473 
8601 1 20.5971 1.50192 4.67824 -8.16985 0.478062 -0.375399 -0.851046 
1002 2 27.2285 2.86224 8.77954 -25.7014 1.69329 -0.999486 0.559653 
42 2 27.2515 5.53798 5.93085 -25.3516 0.844921 0.760084 1.23766 
842 3 21.9813 5.48977 6.04614 -29.6749 -0.676079 0.31045 0.916095 
1801 3 21.7654 2.72149 3.31937 -28.0749 1.06811 0.753265 0.447381 
1802 2 21.7839 2.78911 8.81224 -25.6469 2.58925 0.969526 -0.609492 
2841 3 24.7111 5.58579 3.42248 -27.8059 -0.776832 0.202208 -0.556864 
2842 2 24.7693 5.49716 8.69809 -25.7073 -2.88582 0.934394 -0.162233 
3802 2 24.5745 2.73558 6.03799 -25.4983 -0.0840643 0.405976 1.04091 
4801 1 23.2307 1.50432 2.20246 -7.66905 -0.168606 -0.509733 -1.11261 
4802 1 23.3188 1.44745 7.63411 -6.65109 -1.64962 -1.22372 -1.46437 
5801 1 25.8076 4.19385 4.6926 -8.42955 -0.871942 -0.5456 -0.56657 
6801 1 26.0775 4.32909 1.9715 -8.36315 -1.42693 -1.98781 0.515521 
6802 1 25.9952 4.15431 7.41402 -7.67739 0.276359 -0.281132 -1.19627 
7801 1 23.3885 1.32624 4.84076 -7.96149 -1.38034 0.618745 -0.340334 
8801 1 26.057 1.39764 4.66598 -7.38435 -1.12864 0.368367 1.37077 
9801 1 23.349 4.06796 1.94488 -8.21808 -0.172125 1.33045 0.553306 
9802 1 23.3485 4.02706 7.3412 -6.91004 -0.416838 1.34422 0.112156 
10801 1 22.9291 4.20304 4.76575 -7.77355 1.55201 -0.488532 -1.73716 
11801 1 25.9182 1.58383 2.23821 -7.46219 -1.276 0.148523 -3.34176 
11802 1 25.8185 1.39039 7.38717 -7.44456 2.08184 0.343578 -0.0752006 
11641 1 20.6422 6.68839 2.28093 -7.46274 0.632204 0.0611935 -0.680813 
4842 1 23.0916 6.77993 7.42906 -7.25153 0.396259 -0.224765 0.259205 
8841 1 25.9382 6.80078 4.67091 -7.85953 -0.0025701 1.34736 -0.936962 
11841 1 26.1058 6.79021 1.98789 -7.58555 -0.925148 1.82189 1.17594 
802 2 21.9202 0.142495 6.12218 -24.9204 0.512366 -0.344512 0.734629 
2 2 27.2045 0.159174 6.07314 -25.4249 1.8342 -1.28593 0.404505 
3801 3 24.6029 2.84808 0.808057 -28.526 0.224805 -0.772079 -1.41018 
7041 1 1.53875 6.93888 4.41681 -7.18609 -0.413267 0.733647 1.56179 
4042 1 1.51934 7.00815 7.4552 -7.62965 0.0342548 -1.40704 -0.54634 
11041 1 4.3774 6.98205 1.93748 -8.15294 -1.78618 1.04965 -0.288982 
282 2 5.73416 10.9774 6.13662 -25.0062 -1.53464 0.00428745 -0.246784 
1241 2 5.52126 8.25567 3.29629 -25.1949 1.9474 0.146985 1.36969 
1242 2 5.59451 8.23594 8.90463 -25.2533 0.942346 0.673371 -1.50792 
2081 3 3.01474 10.905 3.29128 -28.496 -1.71052 0.429058 1.12876 
2082 2 2.88669 11.0893 8.63996 -24.7215 0.773188 -0.0586008 1.48697 
3042 2 2.82956 8.21149 6.13494 -25.237 0.509793 0.21995 -2.23953 
4081 1 1.48945 12.2915 2.0059 -7.97766 -0.328105 -1.32923 -1.18342 
4082 1 1.53537 12.404 7.43216 -8.21539 -0.0620273 -0.635247 -1.09034 
5041 1 4.36713 9.58881 4.72186 -7.72389 -0.345077 0.11979 -0.222672 
6041 1 4.01909 9.69374 1.97379 -7.86835 1.30882 -0.334979 -0.241108 
6042 1 4.06323 9.62079 7.47774 -7.96165 0.700995 -0.270587 -0.793716 
7081 1 1.36781 12.314 4.66998 -6.84871 1.42377 0.352822 0.0723396 
8081 1 4.12915 12.2834 4.80242 -7.71576 0.336937 0.0688971 -0.788909 
9041 1 1.43783 9.35904 1.9344 -7.86908 -0.750304 1.02207 -1.16657 
9042 1 1.22075 9.56846 7.1766 -7.88397 2.24857 0.598545 2.3287 
10041 1 1.57214 9.64366 4.6504 -7.17482 0.695269 -0.284847 -1.22799 
11081 1 4.13692 12.4314 1.97282 -7.73122 1.14146 -0.45117 2.39145 
11082 1 4.45211 12.4138 7.42952 -7.98443 -1.28736 -0.199491 -0.248306 
1042 2 0.229058 8.35596 8.72017 -25.205 -2.17296 -1.97881 0.417381 
82 2 0.139075 10.8853 5.93065 -25.3014 -0.67989 2.59213 -0.835705 
1081 2 0.149164 13.5678 3.18389 -25.5234 -0.521408 0.304068 2.861 
7241 1 7.05481 7.0848 4.78563 -6.67139 -0.20072 -0.562998 -0.802273 
481 2 11.1482 10.8345 0.814389 -25.955 -1.27278 0.316837 -1.90407 
9241 1 6.94928 9.49227 1.88467 -7.75683 -1.0551 1.18893 0.985481 
10241 1 7.08765 9.66053 4.77627 -7.84351 -0.349522 1.16792 -0.535818 
7281 1 6.89671 12.4057 4.79965 -7.75188 -1.32532 0.773672 0.137666 
4281 1 6.92607 12.2767 2.20059 -7.60833 -0.60583 0.168906 -1.27944 
9242 1 7.0251 9.68683 7.50052 -8.07815 -0.532035 -0.497704 -0.734878 
4282 1 7.07442 12.4623 7.44014 -7.49944 -0.638212 -1.33455 0.654446 
11241 1 9.76695 7.10944 2.08343 -7.37366 0.0612434 -1.71329 -0.863342 
482 2 11.1108 10.9202 6.07363 -25.1212 -0.706424 -1.39696 0.504608 
1441 3 11.1035 8.09964 3.50292 -29.6625 0.0750403 0.567867 -0.090865 
1442 3 11.127 8.02189 8.85917 -29.0542 -0.0854509 1.66926 -1.35097 
2281 2 8.24554 11.0458 3.46532 -25.0367 1.36061 -1.48165 -1.4119 
2282 2 8.34033 10.9859 8.77867 -25.4935 0.0856183 -0.294042 1.19823 
3242 2 8.42939 8.4094 6.08426 -25.8694 -0.196587 -3.15974 1.05768 
4481 1 12.3546 12.3214 1.77532 -7.09873 1.57339 -0.264749 -0.346576 
4482 1 12.6071 12.1432 7.14101 -7.97136 -1.94202 -0.350472 1.2248 
5241 1 9.90634 9.4582 4.84989 -7.69767 -0.199973 1.18659 0.128706 
6241 1 9.86133 9.66435 2.22823 -6.61733 -1.79205 -0.0789609 0.303581 
6242 1 9.80175 9.43579 7.66983 -7.41385 -0.379535 1.42702 -0.918829 
7481 1 12.0357 12.1408 4.39004 -7.64912 0.398047 -0.180949 1.1492 
8281 1 9.39728 12.258 4.9116 -7.69295 1.1455 0.290952 -0.935969 
9441 1 12.4223 9.47803 2.12005 -7.55784 0.578 -0.290337 0.0463818 
9442 1 12.449 9.23613 7.45892 -6.99885 0.68726 1.63785 0.516531 
10441 1 12.6034 9.38942 4.80164 -7.53433 -0.564654 0.164516 0.0460578 
11281 1 9.74443 12.232 1.9809 -7.47886 -1.92196 1.57485 0.933684 
11282 1 9.69435 12.3399 7.46195 -6.9272 1.61333 -3.20659 0.682742 
2481 2 13.5977 10.871 3.33396 -25.8556 1.87519 0.969446 0.188129 
3241 2 8.3741 8.25263 0.677986 -25.4657 0.431761 0.540717 0.184891 
11642 1 20.3677 6.92812 7.51845 -6.97501 0.233597 -0.275998 0.968282 
3442 3 13.8916 8.14111 6.04125 -29.0554 -1.23184 -0.175015 0.0547513 
2482 2 13.8454 10.9613 8.74484 -25.4226 -1.8523 -2.38378 1.65321 
8441 1 15.2768 6.92714 4.75971 -8.02768 -0.186556 -0.0498411 -0.951006 
682 2 16.4558 10.8062 6.03397 -25.846 1.08318 0.9569 -1.56099 
1641 2 16.5218 8.16415 3.13727 -25.3199 0.155965 0.0864056 0.901144 
1642 2 16.4821 8.15978 8.71515 -25.8672 0.330941 0.124614 -0.208995 
2681 2 19.244 10.8371 3.24946 -25.0699 -1.02794 0.175552 0.915346 
2682 3 19.1518 10.8103 8.77409 -28.8589 -0.493046 0.193425 -0.724882 
3642 3 19.2208 7.89549 5.97005 -29.4404 0.255221 1.66767 1.12246 
4681 1 17.8214 12.074 1.88475 -7.69969 0.206424 1.2611 1.34138 
4682 1 17.7267 12.0249 7.52743 -7.40863 0.937764 0.623044 -0.169766 
5441 1 15.1792 9.62275 4.43 -7.10694 0.25544 -0.722787 0.483828 
6441 1 15.1195 9.53533 1.75843 -7.57417 1.78919 0.767772 0.882766 
6442 1 15.1942 9.49774 7.18553 -7.78526 -1.48342 -0.884446 1.0719 
7681 1 17.7326 12.3808 4.70197 -7.64183 0.49464 -0.75229 0.0519593 
8481 1 14.8958 12.2714 4.7732 -7.26847 0.259146 0.401363 0.693761 
9641 1 17.8808 9.44995 1.77526 -7.6636 -1.10846 -0.0876238 0.782811 
9642 1 17.8452 9.35716 7.14654 -6.75216 -0.481456 0.192752 0.16562 
10641 1 17.8474 9.50477 4.48249 -7.46111 0.9105 0.135112 0.0937177 
11481 1 14.9884 12.2782 2.16297 -7.1437 0.382902 0.0651082 -1.50376 
11482 1 15.0996 12.1813 7.5659 -7.27079 1.3014 0.159914 -2.33871 
6642 1 20.3477 9.45899 7.43632 -7.3681 1.06915 1.31073 0.985997 
1682 2 16.3931 13.4702 8.77086 -26.1115 1.03416 1.6625 1.88733 
6641 1 20.3719 9.41038 1.97076 -8.082 2.69773 0.876189 1.15344 
1681 2 16.4071 13.6205 3.28844 -25.5389 -0.732193 -0.797238 1.72855 
3441 2 13.868 8.20818 0.684503 -25.8663 -1.83008 -1.76403 -1.99774 
3881 3 24.7858 13.5216 0.671771 -28.5871 -2.65151 0.491017 0.669829 
1881 2 21.9298 13.5673 3.18333 -25.7808 0.708799 0.676527 0.413334 
4841 1 23.4659 6.9508 2.0826 -8.19482 -0.113609 -0.897678 0.74939 
11681 1 20.6941 12.1743 1.98971 -7.48404 -1.97953 -0.678521 0.232854 
11682 1 20.5134 12.1549 7.40138 -7.95048 0.0797521 0.217292 -0.878012 
5641 1 20.7747 9.38969 4.76759 -7.61043 -1.34074 0.530651 -0.344827 
1882 2 21.8913 13.5345 8.63829 -24.9949 -1.09333 0.804926 0.0570305 
8681 1 20.5104 12.0712 4.65816 -7.98299 -0.0269875 0.864114 0.635285 
11842 1 25.8388 6.89591 7.35078 -7.35484 0.663234 -0.329467 -0.830212 
7841 1 23.3047 7.05682 4.90983 -7.80831 0.968334 -0.988283 -1.51598 
1041 3 27.1827 8.30752 3.16043 -28.3869 1.88635 -1.1255 1.60861 
882 3 21.7038 10.7849 6.0952 -28.5978 0.839644 -0.116947 -0.552519 
1841 2 22.0517 8.15398 3.39329 -25.3442 -1.15634 0.0050333 0.882443 
1842 2 21.8124 8.23324 8.76535 -25.6619 -0.364343 0.273797 -0.681443 
2881 3 24.5927 10.9114 3.35334 -29.2714 -0.789541 0.988056 -0.0499681 
2882 2 24.7092 11.1851 8.69996 -25.06 -0.379692 -3.41944 0.686067 
3842 3 24.4257 8.31683 6.21118 -29.0965 0.586995 -0.478683 -0.318593 
4881 1 23.2624 12.1912 1.89345 -6.77459 -0.0950802 1.0177 -0.276433 
4882 1 23.2519 12.2636 7.4262 -8.04519 -0.849037 0.498196 -1.97063 
5841 1 26.0044 9.69877 4.74979 -7.62911 -0.853096 -3.08732 -2.12218 
6841 1 25.9255 9.45677 1.84236 -8.72113 0.668464 1.72391 2.30545 
6842 1 25.7298 9.46297 7.43405 -7.48428 0.0494885 2.28204 0.0747845 
7881 1 23.2678 12.3296 4.50835 -7.36231 0.0424641 0.984783 1.3995 
8881 1 25.9815 12.1604 4.58502 -7.10693 -1.10481 1.33283 -0.326808 
9841 1 23.0906 9.68127 2.05268 -7.67238 0.820649 -1.89234 0.463253 
9842 1 23.0062 9.49136 7.33451 -7.72287 -0.0261423 0.758013 -0.848214 
10841 1 23.3789 9.71842 4.60733 -7.35015 0.0468914 -0.905964 1.07521 
11881 1 25.7373 12.2498 1.88588 -7.76437 2.70488 -0.911837 0.67596 
11882 1 25.8406 12.4956 7.33272 -7.89928 1.30972 -0.864704 0.051512 
881 3 21.8237 10.664 0.779781 -28.8663 0.283822 2.37941 -0.333133 
4004 1 1.49246 1.2734 18.4031 -7.48343 0.343143 1.45594 -1.16616 
243 3 5.80124 5.38098 11.5925 -28.567 -2.2043 0.410166 1.18935 
244 2 5.46509 5.46774 17.0869 -25.0192 0.990453 0.374496 -1.89629 
1203 2 5.66174 2.66046 14.2745 -25.5626 -0.831965 0.213332 0.230445 
2043 2 2.94922 5.44921 14.1483 -25.4148 0.368108 0.192086 1.06641 
3003 2 2.96575 2.69888 11.5505 -26.1821 -0.573663 -0.499063 -0.847664 
3004 2 2.98481 2.73816 16.9697 -24.7663 -0.635303 -1.21719 -0.845873 
4003 1 1.49855 1.1162 13.0484 -7.38096 0.771756 1.7789 -0.381097 
5002 1 4.24881 4.19639 10.3494 -7.22479 1.38536 0.0886532 -0.805239 
5003 1 4.18609 3.98402 15.57 -7.8312 0.576112 0.0553608 -0.0378599 
6003 1 4.16917 4.08898 12.8813 -7.08921 1.22317 -0.00816859 0.85106 
7002 1 1.47818 1.51402 10.1968 -6.82823 0.167368 -1.41739 1.04349 
7003 1 1.481 1.41179 15.6745 -7.91689 1.26239 0.355025 0.447682 
8002 1 4.3052 1.55351 10.104 -7.19607 -1.2621 -2.04436 0.220845 
8003 1 4.38169 1.14193 15.4542 -7.71036 -0.94019 0.491057 0.995264 
9003 1 1.56699 3.99382 12.7515 -7.57428 -0.454113 0.635185 0.879314 
10002 1 1.59481 4.08658 10.1248 -7.12819 -0.607776 1.06053 -0.656269 
10003 1 1.42536 4.15871 15.4647 -7.91526 0.48201 0.542232 0.464123 
11003 1 4.3367 1.36285 12.771 -7.12408 0.254363 -0.274284 -0.03198 
11004 1 4.40605 1.48503 18.2507 -7.5597 -1.52932 0.54234 -0.126805 
6004 1 4.15205 4.24476 18.2774 -7.96131 -1.42446 -1.01565 2.23405 
9204 1 6.67278 4.00937 18.3193 -7.54169 1.76378 0.851228 0.594362 
1003 2 0.236751 2.82931 14.1798 -25.2164 -0.871753 -1.25311 -0.310798 
4043 1 1.7405 6.7919 12.8328 -8.15351 -1.32329 0.565878 -0.214757 
8043 1 4.20145 6.7643 15.7286 -7.7526 0.444951 0.623956 -0.194971 
9203 1 6.82546 4.01045 12.9255 -7.45515 -0.0392042 0.420553 0.348831 
8042 1 4.59626 6.83404 10.3052 -8.01894 -1.02728 0.523934 0.338683 
4044 1 1.46463 6.72029 18.1753 -7.41697 0.532486 -0.222416 1.77644 
11043 1 4.52552 6.81997 13.0254 -7.21031 -1.7855 -0.584983 -1.13513 
9004 1 1.56482 3.89395 18.2049 -8.02458 -0.506621 1.48006 0.263326 
44 2 0.111516 5.55769 16.7353 -25.0918 1.15662 -1.39081 1.12449 
43 2 0.267912 5.53216 11.4839 -25.3707 -1.01249 -0.722941 -0.141258 
7042 1 1.61708 6.84717 10.1805 -8.03855 0.899434 0.965932 -0.387037 
7202 1 6.92659 1.50408 10.3396 -7.70424 0.525928 0.323919 0.866105 
10203 1 6.99758 4.11261 15.7139 -7.38412 -0.604261 -0.60696 -0.463821 
4203 1 7.06227 1.3785 13.1293 -7.76556 0.197279 -0.651936 -1.46346 
7203 1 7.06581 1.30255 15.8237 -7.86929 0.295811 0.238113 -0.174211 
10202 1 7.05989 4.30928 10.4377 -7.64824 0.540179 0.344899 -0.167298 
4243 1 7.04575 6.7583 13.1113 -7.52917 0.926312 -0.307988 -4.07322 
11204 1 9.61204 1.33454 18.6805 -7.41064 -0.126242 -0.414496 -1.47002 
4204 1 6.97453 1.34615 18.5996 -7.26108 0.341982 -0.134708 -0.948058 
443 3 11.0379 5.33181 11.6374 -28.8311 0.278477 0.0435875 -0.620177 
444 2 10.8586 5.3562 17.084 -25.1062 1.24622 1.56565 0.791688 
1403 2 11.161 2.79189 14.4556 -25.7722 -1.68328 -0.353641 -2.38689 
2243 2 8.32862 5.4121 14.3066 -25.7573 -0.213231 -0.523803 0.238705 
3203 3 8.23343 2.68752 11.6212 -28.9784 0.832952 0.483958 0.822248 
3204 2 8.28931 2.70392 17.0719 -25.1956 -0.100368 -0.110238 0.508459 
4403 1 12.3845 1.53104 12.9228 -7.11541 0.605063 -2.32013 -0.99088 
4404 1 12.1773 1.22596 18.2822 -6.83175 0.0317615 1.08137 0.449927 
5202 1 9.79957 4.03288 10.4797 -7.71809 -0.974223 0.241869 -0.603549 
5203 1 9.71262 4.17973 15.5573 -7.67055 0.54723 -2.04634 2.31403 
6203 1 9.39849 3.97863 13.0602 -6.95795 1.57268 -0.542499 -1.18696 
6204 1 9.36467 4.02447 18.526 -7.63238 0.741938 0.68278 -1.58381 
7402 1 12.2794 1.48003 10.2295 -7.99659 0.881764 -1.22261 0.160632 
7403 1 12.5709 1.55829 15.5305 -7.01287 -0.622996 -0.80949 1.07856 
8202 1 9.60799 1.33574 10.2025 -7.78666 -0.812468 -0.117664 1.32726 
8203 1 9.88614 1.37559 15.8369 -7.74864 -0.941038 -0.371143 0.899037 
9403 1 12.333 4.07516 12.8787 -7.55252 -0.611661 1.33556 0.938496 
10402 1 12.4 4.2814 10.266 -7.56052 -0.760775 -0.587981 -1.57181 
10403 1 12.4751 4.29601 15.6671 -7.77497 -1.1863 -0.196192 0.708951 
11203 1 9.78934 1.31317 13.0487 -7.03076 -0.669894 0.209357 -0.381135 
9404 1 12.0617 4.08059 18.5499 -7.64556 1.6153 -0.489513 -2.01235 
4444 1 12.6963 6.57931 18.2842 -7.4506 -1.64961 0.6163 0.312596 
4244 1 6.99547 6.72376 18.3654 -7.95979 -3.32048 0.384667 -0.662039 
11243 1 9.69373 6.60834 12.7411 -8.1516 0.150071 0.541906 1.0488 
4443 1 12.3079 6.81111 12.6053 -7.78379 -0.305009 0.427145 1.94383 
7243 1 7.10648 6.81642 15.5443 -7.32375 -2.27099 -0.164194 1.99035 
8242 1 9.89571 6.762 10.0654 -8.05857 0.981054 0.116 0.774142 
8243 1 9.70622 6.70979 15.7283 -7.07205 0.353254 1.01581 -0.972566 
11244 1 9.52285 6.83289 18.4519 -7.27894 2.66032 -1.62781 -0.0294017 
2603 2 19.0948 0.188945 14.0739 -25.3945 0.0668551 -0.0258223 0.841558 
8602 1 20.4543 1.16419 9.90864 -7.62904 0.471127 0.982746 -0.711901 
604 2 16.4068 0.133587 16.9068 -25.5499 0.965265 0.999141 1.18104 
3404 2 13.754 2.72817 17.0066 -25.6127 -0.869531 1.42925 -0.23974 
2443 2 13.6844 5.59837 14.212 -25.3965 0.478229 0.0338062 0.850262 
3403 2 13.6868 2.75733 11.426 -25.3105 -0.1236 1.05657 2.66294 
643 2 16.3831 5.60944 11.5341 -25.931 0.0328121 -1.37959 0.0196457 
644 3 16.5337 5.79211 16.8847 -28.9728 0.31322 -1.73841 0.575508 
1603 2 16.4385 3.02843 14.1654 -26.129 -0.67236 -2.2642 2.45105 
2643 2 19.3229 5.62878 14.4161 -25.2805 -0.697963 -0.415842 -2.49945 
3603 2 19.2486 2.69855 11.5136 -25.2925 -3.48013 1.64547 -2.19018 
3604 2 19.1772 2.89721 16.9184 -25.6891 -0.0219365 -0.779524 1.3068 
4603 1 17.6183 1.44951 12.8196 -7.3698 2.09456 0.379094 -0.667193 
4604 1 17.8164 1.54728 18.2413 -7.31976 -1.50506 1.29849 0.574261 
5402 1 14.9869 4.19285 10.3357 -7.46844 1.48254 0.356197 -1.8458 
5403 1 15.1073 4.29415 15.7494 -6.5385 -0.0414529 0.0571433 -0.83996 
6403 1 15.0701 4.30499 13.0205 -7.47304 -0.996905 0.15499 -1.00404 
6404 1 14.9995 4.17771 18.2918 -7.80325 0.620186 -0.939727 0.701334 
7602 1 17.8483 1.35926 9.99729 -8.05872 -0.668688 0.733622 -0.0148087 
7603 1 18.0457 1.60858 15.6278 -7.06577 -2.12855 0.00819856 -1.66409 
8402 1 15.0958 1.56469 10.1468 -8.2249 -0.0350971 -1.47359 0.052007 
8403 1 15.1249 1.58969 15.6882 -6.94456 1.93862 -0.148361 0.467082 
9603 1 17.6853 4.15531 12.862 -6.65324 1.44815 0.908717 -1.18365 
9604 1 17.8188 4.4545 18.0538 -7.99256 0.0409101 -0.175549 1.69611 
10602 1 17.9172 4.15617 10.1931 -7.07983 -0.578063 -1.71285 -0.715743 
10603 1 17.7444 4.45438 15.473 -7.07841 -0.111615 -0.612729 0.348202 
11403 1 15.1225 1.3713 13.116 -6.84956 -0.795873 0.565693 -2.6747 
5603 1 20.4051 4.13635 15.6258 -7.59135 1.0943 0.482335 0.103934 
11404 1 14.7824 1.40729 18.4357 -7.61339 2.56839 0.534765 0.0104497 
8642 1 20.4623 6.72928 10.2278 -7.92765 0.905981 0.703916 -0.402482 
7642 1 17.8324 6.66305 10.1283 -7.4054 -0.0717016 1.99408 -0.865027 
6603 1 20.3657 3.92919 12.8969 -7.10148 0.368194 2.35275 1.22332 
11444 1 15.2667 6.869 18.3928 -7.5821 -0.117318 -0.0845409 -0.802417 
4844 1 23.6471 6.84459 18.3615 -7.5907 -3.46554 0.782559 -0.508187 
8843 1 26.0164 6.80611 15.4814 -7.5369 -1.65037 0.971016 -1.12545 
11844 1 26.0737 6.78454 18.0435 -7.20751 -0.27054 0.73463 1.87528 
804 2 21.8969 0.100804 16.8538 -26.0717 -0.176397 1.15076 2.03533 
5602 1 20.5874 4.06701 10.2312 -7.99504 -0.105662 -0.323065 -1.01271 
11603 1 20.4973 1.35026 12.5065 -7.75684 0.925683 -1.37331 2.64412 
4843 1 23.3475 6.55925 13.0141 -7.14461 -1.09052 1.22576 -1.12988 
11604 1 20.5184 1.46281 18.2694 -6.87463 -0.391835 0.392822 0.0216634 
6604 1 20.594 4.04544 18.3203 -7.70546 -0.85995 1.84579 0.340551 
8603 1 20.6121 1.42165 15.4274 -7.36077 -0.171364 -0.640982 -0.582456 
4804 1 23.0895 1.54211 18.3448 -7.10554 1.44491 -0.953764 0.352652 
843 2 22.0674 5.59238 11.4035 -25.2539 -1.15948 -0.689395 1.32589 
844 2 21.9127 5.52502 17.2188 -25.1616 0.797402 0.487309 -2.33806 
1803 2 21.8204 2.94401 14.2453 -25.6686 0.726873 -1.98026 0.279319 
2843 3 24.569 5.51566 14.3565 -28.9672 -0.618458 0.570254 -1.00349 
3803 2 24.6795 2.7497 11.5302 -25.543 -0.712493 1.24903 -0.333384 
3804 2 24.6254 2.84767 16.8736 -25.3021 -1.6516 -0.544296 1.05903 
4803 1 23.3932 1.42506 13.0771 -7.09752 -0.972538 0.340487 -2.61964 
5802 1 25.9561 4.32174 10.1073 -7.55447 0.744703 -1.744 0.946591 
5803 1 25.7743 4.21681 15.4971 -8.12993 0.819284 -0.357906 0.571335 
6803 1 26.0669 4.08707 12.8038 -7.45437 -0.758134 0.803502 0.37732 
6804 1 25.9725 4.0398 18.4191 -8.09811 -0.48204 1.15604 -1.66756 
7802 1 23.2615 1.67037 10.1189 -7.56759 -0.72817 -2.51349 2.53852 
7803 1 23.2336 1.50662 15.5963 -7.37788 0.741602 0.215333 1.08732 
8802 1 25.929 1.49265 10.0518 -7.55235 -0.132555 -0.880855 0.59298 
8803 1 26.0649 1.53653 15.6399 -7.70147 -0.565259 0.662626 -1.98413 
9803 1 23.0696 4.01032 12.8047 -7.34577 1.62359 0.582639 -0.701391 
9804 1 23.2157 4.13186 18.3209 -7.39659 0.896943 0.692429 -0.986093 
10802 1 23.2146 4.29315 10.0252 -7.19315 0.73062 0.653052 0.153788 
10803 1 23.0922 4.20908 15.6118 -7.60048 0.96234 0.601666 0.117645 
11803 1 26.0732 1.45615 12.8012 -7.7058 -0.860559 -0.020416 1.02423 
11804 1 25.8301 1.31267 18.1029 -7.28772 0.316342 2.13679 1.24722 
11843 1 25.8369 6.82455 12.8523 -7.343 2.44902 0.519208 -0.670279 
8643 1 20.7668 6.78577 15.7793 -7.14707 -1.44441 0.297552 -0.8395 
11643 1 20.6243 6.8521 12.9128 -7.60676 -0.401195 -1.39493 0.093395 
4 3 27.2452 0.206475 16.8141 -29.5195 0.340205 -1.92633 1.97257 
2803 2 24.6034 0.161328 14.3497 -25.6143 -0.0317689 -0.941039 -0.0373651 
83 2 0.290435 10.8708 11.4012 -25.2663 -1.56985 1.43113 1.978 
1083 2 0.120284 13.5411 14.2787 -25.6625 3.16259 1.53095 -0.442916 
7043 1 1.42841 6.93031 15.5623 -7.33885 1.74133 -0.191402 -0.864305 
11044 1 4.08199 6.9131 18.433 -7.50478 0.882408 0.255223 -0.646469 
6044 1 4.0776 9.70951 18.336 -7.51017 1.00755 -0.685464 0.704263 
11084 1 4.21826 12.3776 18.4559 -7.1835 1.25938 -0.457492 0.631034 
283 3 5.47482 10.9122 11.5295 -28.4959 0.381312 0.517147 -0.199385 
284 2 5.70004 11.0695 17.0907 -25.6193 -2.07485 -1.61745 0.126272 
1243 2 5.68492 8.13132 14.2981 -25.3868 -1.67414 0.666266 0.971272 
2083 2 2.80741 10.9653 14.2203 -26.2122 1.53574 -0.257172 0.0179837 
3043 2 2.92747 8.30534 11.4072 -24.5567 1.10333 -0.538298 1.33567 
3044 2 2.88261 8.32601 17.0084 -25.9015 -1.53468 -0.506006 -0.823143 
4083 1 1.50695 12.2607 12.7428 -7.28303 -0.0722403 0.56311 -0.353897 
4084 1 1.5553 12.2269 18.3073 -7.14702 -0.85279 0.297109 0.553092 
5042 1 4.25706 9.72242 10.0967 -7.85014 -0.843904 -0.544547 0.761367 
5043 1 4.12723 9.64472 15.5849 -7.10375 0.904172 -1.15513 -0.119348 
6043 1 4.2433 9.63146 12.8326 -7.51519 -0.282132 -0.000543498 -0.60569 
7082 1 1.58597 12.4872 9.98933 -7.34213 0.0744965 -2.04224 0.921627 
7083 1 1.75312 12.3556 15.486 -7.16828 -1.31622 1.33301 1.12854 
8082 1 4.17511 12.4751 10.0541 -7.37345 0.268677 -0.575645 0.995623 
8083 1 4.41265 12.3017 15.7899 -6.84045 -0.417397 1.07742 -1.39296 
9043 1 1.5686 9.57453 12.8812 -7.79499 -0.484118 -1.05377 -1.27079 
9044 1 1.37157 9.58229 18.2289 -7.05298 0.906521 -0.916012 0.800245 
10042 1 1.58947 9.72164 10.0843 -8.45703 0.804073 -1.1158 -1.20274 
10043 1 1.40263 9.6684 15.5373 -6.71478 0.723975 -0.249132 0.377777 
11083 1 4.11115 12.4112 12.9406 -7.1821 1.05768 -0.661772 -0.507615 
9243 1 6.84424 9.42618 12.9836 -7.80101 1.44584 0.924061 -0.984969 
9244 1 6.7817 9.50818 18.4773 -7.61168 -1.33903 -0.213559 0.592069 
4283 1 6.84555 12.1478 12.9964 -8.32692 -0.242245 0.610281 -0.594323 
7282 1 6.83657 12.4335 10.2089 -7.59578 0.194096 -0.739532 0.509383 
10242 1 6.81828 9.62291 10.1367 -7.04217 0.743393 1.55857 1.46307 
1043 2 0.214106 8.15827 14.1696 -25.5092 -1.20145 1.78526 0.402396 
84 3 0.144585 10.96 17.1579 -29.6087 0.305226 -0.91287 -1.58571 
7242 1 7.34063 7.12975 9.98769 -7.8796 -3.33934 0.344661 2.55159 
10243 1 6.91662 9.46602 15.8244 -8.02443 -0.551637 1.36063 -1.58122 
4284 1 7.03119 12.1529 18.5388 -7.36599 -1.1657 0.43896 -0.319775 
7283 1 6.95143 12.2689 15.7568 -7.66926 1.58622 0.598743 -1.1775 
3484 2 13.6049 13.5648 17.0795 -25.3611 0.0624951 0.72758 -0.385267 
9444 1 12.2232 9.38325 18.4582 -7.73355 -0.62506 0.00150076 -0.452311 
4484 1 12.1381 12.1323 18.5404 -7.77555 0.105621 -1.27208 -0.639186 
7442 1 12.5677 6.94258 10.0181 -7.25841 -1.1711 0.70746 -0.694412 
7443 1 12.4579 7.06636 15.5843 -7.31004 0.687411 -1.44684 -1.20149 
483 2 10.8606 11.0806 11.5932 -25.3022 1.45675 -1.70594 -0.285317 
484 2 10.9998 10.8926 16.9987 -25.278 -0.912656 -1.25451 -0.33733 
1443 2 11.0037 8.17907 14.1359 -25.4788 0.68538 -0.476361 2.13303 
2283 2 8.13733 10.8203 14.2838 -25.0336 1.78941 0.285848 0.744115 
3243 2 8.41047 8.03466 11.6023 -24.7243 0.278945 2.72252 0.379313 
3244 2 8.09491 8.09487 17.0309 -25.4714 3.05509 -0.197681 -0.0247122 
4483 1 12.2455 12.3685 12.999 -7.84183 0.344028 0.481513 -0.890581 
5242 1 9.6284 9.59687 10.2971 -7.2333 -0.0756244 -0.280909 0.26037 
5243 1 9.76247 9.44705 15.5314 -7.04353 -1.82806 1.01976 1.21999 
6243 1 9.64388 9.45187 12.9444 -7.76024 -1.4307 0.541581 -0.891696 
7482 1 12.3219 12.3264 10.0882 -7.6532 0.117907 -0.081358 0.582468 
7483 1 12.338 12.2328 15.7256 -7.77955 -0.236079 1.30572 0.1177 
8282 1 9.5317 12.3369 10.2293 -8.14663 0.385892 0.478538 0.101435 
8283 1 9.65671 12.2967 15.5214 -7.57466 -0.0880181 -0.0874519 1.16719 
9443 1 12.2702 9.70209 13.0139 -7.60376 -0.0654155 -1.25896 -1.43628 
10442 1 12.424 9.6836 10.2051 -7.38357 0.0121936 -0.413073 -0.114022 
10443 1 12.3642 9.61393 15.7215 -6.72363 1.47233 0.4841 0.21663 
11283 1 9.56464 12.3363 12.9424 -7.91035 -0.669493 0.0363348 -0.198194 
11284 1 9.51819 12.1887 18.3686 -7.42372 1.42997 -1.05014 -1.28908 
2483 2 13.5963 10.9943 14.1843 -25.4758 1.0336 -0.34589 1.88821 
6244 1 9.25999 9.28139 18.405 -7.2939 3.30551 2.50257 1.19535 
3283 2 8.18295 13.5944 11.6389 -24.9317 -0.0673591 1.61113 -0.644065 
3684 2 19.1284 13.6248 16.9468 -25.5195 -0.856983 0.214853 0.346939 
8682 1 20.4435 12.2565 10.0272 -7.67134 1.07917 -1.15478 0.883749 
4644 1 17.7545 7.23112 18.4204 -7.43193 1.29022 -1.03308 -1.5138 
7643 1 18.1867 7.03515 15.6704 -7.86019 -0.982029 0.787284 0.264008 