LAMMPS (22 Dec 2022)
  using 1 OpenMP thread(s) per MPI task
Loaded 1 plugins from C:\Program Files\LAMMPS 64-bit 23Jun2022\plugins
Loaded 0 plugins from C:\Program Files\LAMMPS 64-bit 23Jun2022-MPI\plugins
Loaded 1 plugins from C:\Program Files\LAMMPS 64-bit 22Dec2022-MSMPI\plugins
Loaded 1 plugins from C:\Program Files\LAMMPS 64-bit 28Mar2023-MPI\plugins
#------------------------------------------------------------------------------------------
# LAMMPS 64-bit 22Dec2022-MSMPI
#------------------------------------------------------------------------------------------
clear
  using 1 OpenMP thread(s) per MPI task
Loaded 1 plugins from C:\Program Files\LAMMPS 64-bit 23Jun2022\plugins
Loaded 0 plugins from C:\Program Files\LAMMPS 64-bit 23Jun2022-MPI\plugins
Loaded 1 plugins from C:\Program Files\LAMMPS 64-bit 22Dec2022-MSMPI\plugins
Loaded 1 plugins from C:\Program Files\LAMMPS 64-bit 28Mar2023-MPI\plugins
#echo both
# ---------- Initializing Simulation ---------------------------------
units metal
dimension 3
boundary p p p
atom_style atomic
atom_modify map array

#read_data ./../../Pt.data
#read_data ./../../Pd.data
read_data ./../../Rh.data
Reading data file ...
  orthogonal box = (0 0 0) to (3.843898 3.843898 3.843898)
  2 by 2 by 2 MPI processor grid
  reading atoms ...
  4 atoms
  read_data CPU = 0.001 seconds

replicate 1 1 1
Replication is creating a 1x1x1 = 1 times larger system...
  orthogonal box = (0 0 0) to (3.843898 3.843898 3.843898)
  2 by 2 by 2 MPI processor grid
  4 atoms
  replicate CPU = 0.000 seconds

# ---------- Defining the Interatomic Potential ---------------------
pair_style meam
#pair_coeff * * ./../../library.meam Pt Pd Rh ./../../PtPdRh.meam Pt
#pair_coeff * * ./../../library.meam Pt Pd Rh ./../../PtPdRh.meam Pd
pair_coeff * * ./../../library.meam Pt Pd Rh ./../../PtPdRh.meam Rh

# ---------- Running Minimization -------------------------------------
fix 1 all box/relax iso 0.0 vmax 0.001

thermo 10
thermo_style custom step pe etotal lx ly lz vol press pxx pyy pzz

min_style cg
minimize 1e-25 1e-25 5000 10000
Neighbor list info ...
  update: every = 1 steps, delay = 0 steps, check = yes
  max neighbors/atom: 2000, page size: 100000
  master list distance cutoff = 6
  ghost atom cutoff = 6
  binsize = 3, bins = 2 2 2
  2 neighbor lists, perpetual/occasional/extra = 2 0 0
  (1) pair meam, perpetual
      attributes: full, newton on
      pair build: full/bin/atomonly
      stencil: full/bin/3d
      bin: standard
  (2) pair meam, perpetual, half/full from (1)
      attributes: half, newton on
      pair build: halffull/newton
      stencil: none
      bin: none
WARNING: Proc sub-domain size < neighbor skin, could lead to lost atoms (src/domain.cpp:966)
Per MPI rank memory allocation (min/avg/max) = 9.653 | 9.653 | 9.653 Mbytes
   Step         PotEng         TotEng           Lx             Ly             Lz           Volume         Press           Pxx            Pyy            Pzz      
         0  -22.879795     -22.879795      3.843898       3.843898       3.843898       56.795714      5379.7643      5379.7643      5379.7643      5379.7643    
         5  -22.88         -22.88          3.8466609      3.8466609      3.8466609      56.918272     -4.4078237e-11 -4.8085349e-11 -4.207468e-11  -4.207468e-11 
Loop time of 0.00158513 on 8 procs for 5 steps with 4 atoms

0.0% CPU use with 8 MPI tasks x 1 OpenMP threads

Minimization stats:
  Stopping criterion = energy tolerance
  Energy initial, next-to-last, final = 
     -22.8797946762077  -22.8800000004346  -22.8800000004346
  Force two-norm initial, final = 0.5721234 5.7608733e-15
  Force max component initial, final = 0.5721234 4.6943425e-15
  Final line search alpha, max atom move = 1 4.6943425e-15
  Iterations, force evaluations = 5 10

MPI task timing breakdown:
Section |  min time  |  avg time  |  max time  |%varavg| %total
---------------------------------------------------------------
Pair    | 0.000919   | 0.000931   | 0.000942   |   0.0 | 58.73
Neigh   | 0          | 0          | 0          |   0.0 |  0.00
Comm    | 0.00023    | 0.0002435  | 0.000255   |   0.0 | 15.36
Output  | 0          | 0          | 0          |   0.0 |  0.00
Modify  | 0          | 0          | 0          |   0.0 |  0.00
Other   |            | 0.0004106  |            |       | 25.90

Nlocal:            0.5 ave           1 max           0 min
Histogram: 4 0 0 0 0 0 0 0 0 4
Nghost:          255.5 ave         256 max         255 min
Histogram: 4 0 0 0 0 0 0 0 0 4
Neighs:           13.5 ave          27 max           0 min
Histogram: 4 0 0 0 0 0 0 0 0 4
FullNghs:           27 ave          54 max           0 min
Histogram: 4 0 0 0 0 0 0 0 0 4

Total # of neighbors = 216
Ave neighs/atom = 54
Neighbor list builds = 0
Dangerous builds = 0

variable  natoms equal "count(all)"
variable      x0 equal "lx"
variable      y0 equal "ly"
variable      z0 equal "lz"
variable      v0 equal "vol"
variable   etot0 equal "etotal"
variable   ecoh0 equal "pe/v_natoms"

unfix 1
write_data ./../step2_elastic/data.in
System init for write_data ...
WARNING: Proc sub-domain size < neighbor skin, could lead to lost atoms (src/domain.cpp:966)

# ---------- For Equation of States -------------------------------------
change_box all x scale 0.94 y scale 0.94 z scale 0.94 remap
Changing box ...
  orthogonal box = (0.11401838 -0.0013814506 -0.0013814506) to (3.7298796 3.8452795 3.8452795)
  orthogonal box = (0.11401838 0.11401838 -0.0013814506) to (3.7298796 3.7298796 3.8452795)
  orthogonal box = (0.11401838 0.11401838 0.11401838) to (3.7298796 3.7298796 3.7298796)
run 1
WARNING: No fixes with time integration, atoms won't move (src/verlet.cpp:60)
WARNING: Proc sub-domain size < neighbor skin, could lead to lost atoms (src/domain.cpp:966)
Per MPI rank memory allocation (min/avg/max) = 8.528 | 8.528 | 8.528 Mbytes
   Step         PotEng         TotEng           Lx             Ly             Lz           Volume         Press           Pxx            Pyy            Pzz      
         5  -21.065482     -21.065482      3.6158612      3.6158612      3.6158612      47.275406      720110.61      720110.61      720110.61      720110.61    
         6  -21.065482     -21.065482      3.6158612      3.6158612      3.6158612      47.275406      720110.61      720110.61      720110.61      720110.61    
Loop time of 0.000118375 on 8 procs for 1 steps with 4 atoms

Performance: 729.884 ns/day, 0.033 hours/ns, 8447.730 timesteps/s, 33.791 katom-step/s
0.0% CPU use with 8 MPI tasks x 1 OpenMP threads

MPI task timing breakdown:
Section |  min time  |  avg time  |  max time  |%varavg| %total
---------------------------------------------------------------
Pair    | 8.1e-05    | 8.4e-05    | 8.6e-05    |   0.0 | 70.96
Neigh   | 0          | 0          | 0          |   0.0 |  0.00
Comm    | 1.6e-05    | 1.825e-05  | 2.1e-05    |   0.0 | 15.42
Output  | 1.1e-05    | 1.175e-05  | 1.3e-05    |   0.0 |  9.93
Modify  | 0          | 2.5e-07    | 1e-06      |   0.0 |  0.21
Other   |            | 4.125e-06  |            |       |  3.48

Nlocal:            0.5 ave           1 max           0 min
Histogram: 4 0 0 0 0 0 0 0 0 4
Nghost:          255.5 ave         256 max         255 min
Histogram: 4 0 0 0 0 0 0 0 0 4
Neighs:           19.5 ave          39 max           0 min
Histogram: 4 0 0 0 0 0 0 0 0 4
FullNghs:           39 ave          78 max           0 min
Histogram: 4 0 0 0 0 0 0 0 0 4

Total # of neighbors = 312
Ave neighs/atom = 78
Neighbor list builds = 0
Dangerous builds = 0
print "# Lattice constant (Angstroms), Volume (Angstrom), Total energy (eV), Cohesive energy (eV/atom)" file lattice_cohesive_energy.txt screen no


# Loop over lattice constants
variable i loop 49 # Number of steps
label loop

change_box all x scale 1.0025 y scale 1.0025 z scale 1.0025 remap
Changing box ...
  orthogonal box = (0.10949855 0.11401838 0.11401838) to (3.7343995 3.7298796 3.7298796)
  orthogonal box = (0.10949855 0.10949855 0.11401838) to (3.7343995 3.7343995 3.7298796)
  orthogonal box = (0.10949855 0.10949855 0.10949855) to (3.7343995 3.7343995 3.7343995)

run 1
WARNING: No fixes with time integration, atoms won't move (src/verlet.cpp:60)
WARNING: Proc sub-domain size < neighbor skin, could lead to lost atoms (src/domain.cpp:966)
Per MPI rank memory allocation (min/avg/max) = 8.528 | 8.528 | 8.528 Mbytes
   Step         PotEng         TotEng           Lx             Ly             Lz           Volume         Press           Pxx            Pyy            Pzz      
         6  -21.220654     -21.220654      3.6249009      3.6249009      3.6249009      47.630859      678995.97      678995.97      678995.97      678995.97    
         7  -21.220654     -21.220654      3.6249009      3.6249009      3.6249009      47.630859      678995.97      678995.97      678995.97      678995.97    
Loop time of 0.000197875 on 8 procs for 1 steps with 4 atoms

Performance: 436.639 ns/day, 0.055 hours/ns, 5053.696 timesteps/s, 20.215 katom-step/s
0.0% CPU use with 8 MPI tasks x 1 OpenMP threads

MPI task timing breakdown:
Section |  min time  |  avg time  |  max time  |%varavg| %total
---------------------------------------------------------------
Pair    | 9.9e-05    | 0.00011562 | 0.000161   |   0.0 | 58.43
Neigh   | 0          | 0          | 0          |   0.0 |  0.00
Comm    | 1.9e-05    | 6.4375e-05 | 8.1e-05    |   0.0 | 32.53
Output  | 1.3e-05    | 1.3875e-05 | 1.4e-05    |   0.0 |  7.01
Modify  | 0          | 0          | 0          |   0.0 |  0.00
Other   |            | 4e-06      |            |       |  2.02

Nlocal:            0.5 ave           1 max           0 min
Histogram: 4 0 0 0 0 0 0 0 0 4
Nghost:          255.5 ave         256 max         255 min
Histogram: 4 0 0 0 0 0 0 0 0 4
Neighs:           19.5 ave          39 max           0 min
Histogram: 4 0 0 0 0 0 0 0 0 4
FullNghs:           39 ave          78 max           0 min
Histogram: 4 0 0 0 0 0 0 0 0 4

Total # of neighbors = 312
Ave neighs/atom = 78
Neighbor list builds = 0
Dangerous builds = 0
variable  natoms equal "count(all)"
variable xlength equal "lx"
variable  volume equal "vol"
variable  etotal equal "etotal"
variable    ecoh equal "pe/v_natoms"
print "${xlength}, ${volume}, ${etotal}, ${ecoh}" append lattice_cohesive_energy.txt screen no

next i
jump SELF loop

change_box all x scale 1.0025 y scale 1.0025 z scale 1.0025 remap
Changing box ...
  orthogonal box = (0.10496742 0.10949855 0.10949855) to (3.7389306 3.7343995 3.7343995)
  orthogonal box = (0.10496742 0.10496742 0.10949855) to (3.7389306 3.7389306 3.7343995)
  orthogonal box = (0.10496742 0.10496742 0.10496742) to (3.7389306 3.7389306 3.7389306)

run 1
WARNING: No fixes with time integration, atoms won't move (src/verlet.cpp:60)
WARNING: Proc sub-domain size < neighbor skin, could lead to lost atoms (src/domain.cpp:966)
Per MPI rank memory allocation (min/avg/max) = 8.528 | 8.528 | 8.528 Mbytes
   Step         PotEng         TotEng           Lx             Ly             Lz           Volume         Press           Pxx            Pyy            Pzz      
         7  -21.367937     -21.367937      3.6339632      3.6339632      3.6339632      47.988984      639074.96      639074.96      639074.96      639074.96    
         8  -21.367937     -21.367937      3.6339632      3.6339632      3.6339632      47.988984      639074.96      639074.96      639074.96      639074.96    
Loop time of 0.000116875 on 8 procs for 1 steps with 4 atoms

Performance: 739.251 ns/day, 0.032 hours/ns, 8556.150 timesteps/s, 34.225 katom-step/s
0.0% CPU use with 8 MPI tasks x 1 OpenMP threads

MPI task timing breakdown:
Section |  min time  |  avg time  |  max time  |%varavg| %total
---------------------------------------------------------------
Pair    | 7.7e-05    | 7.9125e-05 | 8.3e-05    |   0.0 | 67.70
Neigh   | 0          | 0          | 0          |   0.0 |  0.00
Comm    | 1.8e-05    | 2.175e-05  | 2.4e-05    |   0.0 | 18.61
Output  | 1.1e-05    | 1.175e-05  | 1.2e-05    |   0.0 | 10.05
Modify  | 0          | 1.25e-07   | 1e-06      |   0.0 |  0.11
Other   |            | 4.125e-06  |            |       |  3.53

Nlocal:            0.5 ave           1 max           0 min
Histogram: 4 0 0 0 0 0 0 0 0 4
Nghost:          255.5 ave         256 max         255 min
Histogram: 4 0 0 0 0 0 0 0 0 4
Neighs:           19.5 ave          39 max           0 min
Histogram: 4 0 0 0 0 0 0 0 0 4
FullNghs:           39 ave          78 max           0 min
Histogram: 4 0 0 0 0 0 0 0 0 4

Total # of neighbors = 312
Ave neighs/atom = 78
Neighbor list builds = 0
Dangerous builds = 0
variable  natoms equal "count(all)"
variable xlength equal "lx"
variable  volume equal "vol"
variable  etotal equal "etotal"
variable    ecoh equal "pe/v_natoms"
print "${xlength}, ${volume}, ${etotal}, ${ecoh}" append lattice_cohesive_energy.txt screen no

next i
jump SELF loop

change_box all x scale 1.0025 y scale 1.0025 z scale 1.0025 remap
Changing box ...
  orthogonal box = (0.10042497 0.10496742 0.10496742) to (3.743473 3.7389306 3.7389306)
  orthogonal box = (0.10042497 0.10042497 0.10496742) to (3.743473 3.743473 3.7389306)
  orthogonal box = (0.10042497 0.10042497 0.10042497) to (3.743473 3.743473 3.743473)

run 1
WARNING: No fixes with time integration, atoms won't move (src/verlet.cpp:60)
WARNING: Proc sub-domain size < neighbor skin, could lead to lost atoms (src/domain.cpp:966)
Per MPI rank memory allocation (min/avg/max) = 8.528 | 8.528 | 8.528 Mbytes
   Step         PotEng         TotEng           Lx             Ly             Lz           Volume         Press           Pxx            Pyy            Pzz      
         8  -21.507469     -21.507469      3.6430481      3.6430481      3.6430481      48.349802      600321.55      600321.55      600321.55      600321.55    
         9  -21.507469     -21.507469      3.6430481      3.6430481      3.6430481      48.349802      600321.55      600321.55      600321.55      600321.55    
Loop time of 0.000115875 on 8 procs for 1 steps with 4 atoms

Performance: 745.631 ns/day, 0.032 hours/ns, 8629.989 timesteps/s, 34.520 katom-step/s
0.0% CPU use with 8 MPI tasks x 1 OpenMP threads

MPI task timing breakdown:
Section |  min time  |  avg time  |  max time  |%varavg| %total
---------------------------------------------------------------
Pair    | 7.9e-05    | 8.1125e-05 | 8.5e-05    |   0.0 | 70.01
Neigh   | 0          | 0          | 0          |   0.0 |  0.00
Comm    | 1.6e-05    | 1.9875e-05 | 2.2e-05    |   0.0 | 17.15
Output  | 1e-05      | 1.0625e-05 | 1.1e-05    |   0.0 |  9.17
Modify  | 0          | 2.5e-07    | 1e-06      |   0.0 |  0.22
Other   |            | 4e-06      |            |       |  3.45

Nlocal:            0.5 ave           1 max           0 min
Histogram: 4 0 0 0 0 0 0 0 0 4
Nghost:          255.5 ave         256 max         255 min
Histogram: 4 0 0 0 0 0 0 0 0 4
Neighs:           19.5 ave          39 max           0 min
Histogram: 4 0 0 0 0 0 0 0 0 4
FullNghs:           39 ave          78 max           0 min
Histogram: 4 0 0 0 0 0 0 0 0 4

Total # of neighbors = 312
Ave neighs/atom = 78
Neighbor list builds = 0
Dangerous builds = 0
variable  natoms equal "count(all)"
variable xlength equal "lx"
variable  volume equal "vol"
variable  etotal equal "etotal"
variable    ecoh equal "pe/v_natoms"
print "${xlength}, ${volume}, ${etotal}, ${ecoh}" append lattice_cohesive_energy.txt screen no

next i
jump SELF loop

change_box all x scale 1.0025 y scale 1.0025 z scale 1.0025 remap
Changing box ...
  orthogonal box = (0.09587116 0.10042497 0.10042497) to (3.7480268 3.743473 3.743473)
  orthogonal box = (0.09587116 0.09587116 0.10042497) to (3.7480268 3.7480268 3.743473)
  orthogonal box = (0.09587116 0.09587116 0.09587116) to (3.7480268 3.7480268 3.7480268)

run 1
WARNING: No fixes with time integration, atoms won't move (src/verlet.cpp:60)
WARNING: Proc sub-domain size < neighbor skin, could lead to lost atoms (src/domain.cpp:966)
Per MPI rank memory allocation (min/avg/max) = 8.528 | 8.528 | 8.528 Mbytes
   Step         PotEng         TotEng           Lx             Ly             Lz           Volume         Press           Pxx            Pyy            Pzz      
         9  -21.639387     -21.639387      3.6521557      3.6521557      3.6521557      48.713333      562710.16      562710.16      562710.16      562710.16    
        10  -21.639387     -21.639387      3.6521557      3.6521557      3.6521557      48.713333      562710.16      562710.16      562710.16      562710.16    
Loop time of 0.00011375 on 8 procs for 1 steps with 4 atoms

Performance: 759.560 ns/day, 0.032 hours/ns, 8791.209 timesteps/s, 35.165 katom-step/s
0.0% CPU use with 8 MPI tasks x 1 OpenMP threads

MPI task timing breakdown:
Section |  min time  |  avg time  |  max time  |%varavg| %total
---------------------------------------------------------------
Pair    | 7.8e-05    | 8.025e-05  | 8.2e-05    |   0.0 | 70.55
Neigh   | 0          | 0          | 0          |   0.0 |  0.00
Comm    | 1.8e-05    | 1.875e-05  | 2.1e-05    |   0.0 | 16.48
Output  | 1.1e-05    | 1.1625e-05 | 1.2e-05    |   0.0 | 10.22
Modify  | 0          | 1.25e-07   | 1e-06      |   0.0 |  0.11
Other   |            | 3e-06      |            |       |  2.64

Nlocal:            0.5 ave           1 max           0 min
Histogram: 4 0 0 0 0 0 0 0 0 4
Nghost:          255.5 ave         256 max         255 min
Histogram: 4 0 0 0 0 0 0 0 0 4
Neighs:           19.5 ave          39 max           0 min
Histogram: 4 0 0 0 0 0 0 0 0 4
FullNghs:           39 ave          78 max           0 min
Histogram: 4 0 0 0 0 0 0 0 0 4

Total # of neighbors = 312
Ave neighs/atom = 78
Neighbor list builds = 0
Dangerous builds = 0
variable  natoms equal "count(all)"
variable xlength equal "lx"
variable  volume equal "vol"
variable  etotal equal "etotal"
variable    ecoh equal "pe/v_natoms"
print "${xlength}, ${volume}, ${etotal}, ${ecoh}" append lattice_cohesive_energy.txt screen no

next i
jump SELF loop

change_box all x scale 1.0025 y scale 1.0025 z scale 1.0025 remap
Changing box ...
  orthogonal box = (0.091305965 0.09587116 0.09587116) to (3.752592 3.7480268 3.7480268)
  orthogonal box = (0.091305965 0.091305965 0.09587116) to (3.752592 3.752592 3.7480268)
  orthogonal box = (0.091305965 0.091305965 0.091305965) to (3.752592 3.752592 3.752592)

run 1
WARNING: No fixes with time integration, atoms won't move (src/verlet.cpp:60)
WARNING: Proc sub-domain size < neighbor skin, could lead to lost atoms (src/domain.cpp:966)
Per MPI rank memory allocation (min/avg/max) = 8.528 | 8.528 | 8.528 Mbytes
   Step         PotEng         TotEng           Lx             Ly             Lz           Volume         Press           Pxx            Pyy            Pzz      
        10  -21.763827     -21.763827      3.6612861      3.6612861      3.6612861      49.079597      526215.83      526215.83      526215.83      526215.83    
        11  -21.763827     -21.763827      3.6612861      3.6612861      3.6612861      49.079597      526215.83      526215.83      526215.83      526215.83    
Loop time of 0.00024025 on 8 procs for 1 steps with 4 atoms

Performance: 359.625 ns/day, 0.067 hours/ns, 4162.331 timesteps/s, 16.649 katom-step/s
0.0% CPU use with 8 MPI tasks x 1 OpenMP threads

MPI task timing breakdown:
Section |  min time  |  avg time  |  max time  |%varavg| %total
---------------------------------------------------------------
Pair    | 0.000149   | 0.00017212 | 0.000184   |   0.0 | 71.64
Neigh   | 0          | 0          | 0          |   0.0 |  0.00
Comm    | 2.8e-05    | 3.975e-05  | 6.4e-05    |   0.0 | 16.55
Output  | 1.9e-05    | 2.0625e-05 | 2.2e-05    |   0.0 |  8.58
Modify  | 0          | 3.75e-07   | 2e-06      |   0.0 |  0.16
Other   |            | 7.375e-06  |            |       |  3.07

Nlocal:            0.5 ave           1 max           0 min
Histogram: 4 0 0 0 0 0 0 0 0 4
Nghost:          255.5 ave         256 max         255 min
Histogram: 4 0 0 0 0 0 0 0 0 4
Neighs:           19.5 ave          39 max           0 min
Histogram: 4 0 0 0 0 0 0 0 0 4
FullNghs:           39 ave          78 max           0 min
Histogram: 4 0 0 0 0 0 0 0 0 4

Total # of neighbors = 312
Ave neighs/atom = 78
Neighbor list builds = 0
Dangerous builds = 0
variable  natoms equal "count(all)"
variable xlength equal "lx"
variable  volume equal "vol"
variable  etotal equal "etotal"
variable    ecoh equal "pe/v_natoms"
print "${xlength}, ${volume}, ${etotal}, ${ecoh}" append lattice_cohesive_energy.txt screen no

next i
jump SELF loop

change_box all x scale 1.0025 y scale 1.0025 z scale 1.0025 remap
Changing box ...
  orthogonal box = (0.086729358 0.091305965 0.091305965) to (3.7571686 3.752592 3.752592)
  orthogonal box = (0.086729358 0.086729358 0.091305965) to (3.7571686 3.7571686 3.752592)
  orthogonal box = (0.086729358 0.086729358 0.086729358) to (3.7571686 3.7571686 3.7571686)

run 1
WARNING: No fixes with time integration, atoms won't move (src/verlet.cpp:60)
WARNING: Proc sub-domain size < neighbor skin, could lead to lost atoms (src/domain.cpp:966)
Per MPI rank memory allocation (min/avg/max) = 8.528 | 8.528 | 8.528 Mbytes
   Step         PotEng         TotEng           Lx             Ly             Lz           Volume         Press           Pxx            Pyy            Pzz      
        11  -21.880924     -21.880924      3.6704393      3.6704393      3.6704393      49.448615      490813.73      490813.73      490813.73      490813.73    
        12  -21.880924     -21.880924      3.6704393      3.6704393      3.6704393      49.448615      490813.73      490813.73      490813.73      490813.73    
Loop time of 0.0002205 on 8 procs for 1 steps with 4 atoms

Performance: 391.837 ns/day, 0.061 hours/ns, 4535.147 timesteps/s, 18.141 katom-step/s
0.0% CPU use with 8 MPI tasks x 1 OpenMP threads

MPI task timing breakdown:
Section |  min time  |  avg time  |  max time  |%varavg| %total
---------------------------------------------------------------
Pair    | 0.000143   | 0.00015475 | 0.000169   |   0.0 | 70.18
Neigh   | 0          | 0          | 0          |   0.0 |  0.00
Comm    | 2.7e-05    | 4.05e-05   | 5.2e-05    |   0.0 | 18.37
Output  | 1.6e-05    | 1.8e-05    | 1.9e-05    |   0.0 |  8.16
Modify  | 0          | 6.25e-07   | 2e-06      |   0.0 |  0.28
Other   |            | 6.625e-06  |            |       |  3.00

Nlocal:            0.5 ave           1 max           0 min
Histogram: 4 0 0 0 0 0 0 0 0 4
Nghost:          255.5 ave         256 max         255 min
Histogram: 4 0 0 0 0 0 0 0 0 4
Neighs:           19.5 ave          39 max           0 min
Histogram: 4 0 0 0 0 0 0 0 0 4
FullNghs:           39 ave          78 max           0 min
Histogram: 4 0 0 0 0 0 0 0 0 4

Total # of neighbors = 312
Ave neighs/atom = 78
Neighbor list builds = 0
Dangerous builds = 0
variable  natoms equal "count(all)"
variable xlength equal "lx"
variable  volume equal "vol"
variable  etotal equal "etotal"
variable    ecoh equal "pe/v_natoms"
print "${xlength}, ${volume}, ${etotal}, ${ecoh}" append lattice_cohesive_energy.txt screen no

next i
jump SELF loop

change_box all x scale 1.0025 y scale 1.0025 z scale 1.0025 remap
Changing box ...
  orthogonal box = (0.082141308 0.086729358 0.086729358) to (3.7617567 3.7571686 3.7571686)
  orthogonal box = (0.082141308 0.082141308 0.086729358) to (3.7617567 3.7617567 3.7571686)
  orthogonal box = (0.082141308 0.082141308 0.082141308) to (3.7617567 3.7617567 3.7617567)

run 1
WARNING: No fixes with time integration, atoms won't move (src/verlet.cpp:60)
WARNING: Proc sub-domain size < neighbor skin, could lead to lost atoms (src/domain.cpp:966)
Per MPI rank memory allocation (min/avg/max) = 8.528 | 8.528 | 8.528 Mbytes
   Step         PotEng         TotEng           Lx             Ly             Lz           Volume         Press           Pxx            Pyy            Pzz      
        12  -21.99081      -21.99081       3.6796154      3.6796154      3.6796154      49.820408      456479.86      456479.86      456479.86      456479.86    
        13  -21.99081      -21.99081       3.6796154      3.6796154      3.6796154      49.820408      456479.86      456479.86      456479.86      456479.86    
Loop time of 0.000214125 on 8 procs for 1 steps with 4 atoms

Performance: 403.503 ns/day, 0.059 hours/ns, 4670.169 timesteps/s, 18.681 katom-step/s
0.0% CPU use with 8 MPI tasks x 1 OpenMP threads

MPI task timing breakdown:
Section |  min time  |  avg time  |  max time  |%varavg| %total
---------------------------------------------------------------
Pair    | 0.000136   | 0.00014862 | 0.000162   |   0.0 | 69.41
Neigh   | 0          | 0          | 0          |   0.0 |  0.00
Comm    | 2.7e-05    | 3.9625e-05 | 5.3e-05    |   0.0 | 18.51
Output  | 1.7e-05    | 1.7875e-05 | 1.9e-05    |   0.0 |  8.35
Modify  | 0          | 3.75e-07   | 1e-06      |   0.0 |  0.18
Other   |            | 7.625e-06  |            |       |  3.56

Nlocal:            0.5 ave           1 max           0 min
Histogram: 4 0 0 0 0 0 0 0 0 4
Nghost:          255.5 ave         256 max         255 min
Histogram: 4 0 0 0 0 0 0 0 0 4
Neighs:           19.5 ave          39 max           0 min
Histogram: 4 0 0 0 0 0 0 0 0 4
FullNghs:           39 ave          78 max           0 min
Histogram: 4 0 0 0 0 0 0 0 0 4

Total # of neighbors = 312
Ave neighs/atom = 78
Neighbor list builds = 0
Dangerous builds = 0
variable  natoms equal "count(all)"
variable xlength equal "lx"
variable  volume equal "vol"
variable  etotal equal "etotal"
variable    ecoh equal "pe/v_natoms"
print "${xlength}, ${volume}, ${etotal}, ${ecoh}" append lattice_cohesive_energy.txt screen no

next i
jump SELF loop

change_box all x scale 1.0025 y scale 1.0025 z scale 1.0025 remap
Changing box ...
  orthogonal box = (0.077541789 0.082141308 0.082141308) to (3.7663562 3.7617567 3.7617567)
  orthogonal box = (0.077541789 0.077541789 0.082141308) to (3.7663562 3.7663562 3.7617567)
  orthogonal box = (0.077541789 0.077541789 0.077541789) to (3.7663562 3.7663562 3.7663562)

run 1
WARNING: No fixes with time integration, atoms won't move (src/verlet.cpp:60)
WARNING: Proc sub-domain size < neighbor skin, could lead to lost atoms (src/domain.cpp:966)
Per MPI rank memory allocation (min/avg/max) = 8.528 | 8.528 | 8.528 Mbytes
   Step         PotEng         TotEng           Lx             Ly             Lz           Volume         Press           Pxx            Pyy            Pzz      
        13  -22.093619     -22.093619      3.6888144      3.6888144      3.6888144      50.194996      423190.19      423190.19      423190.19      423190.19    
        14  -22.093619     -22.093619      3.6888144      3.6888144      3.6888144      50.194996      423190.19      423190.19      423190.19      423190.19    
Loop time of 0.00022475 on 8 procs for 1 steps with 4 atoms

Performance: 384.427 ns/day, 0.062 hours/ns, 4449.388 timesteps/s, 17.798 katom-step/s
0.0% CPU use with 8 MPI tasks x 1 OpenMP threads

MPI task timing breakdown:
Section |  min time  |  avg time  |  max time  |%varavg| %total
---------------------------------------------------------------
Pair    | 0.000145   | 0.00015713 | 0.00017    |   0.0 | 69.91
Neigh   | 0          | 0          | 0          |   0.0 |  0.00
Comm    | 2.7e-05    | 4.0625e-05 | 5.3e-05    |   0.0 | 18.08
Output  | 1.7e-05    | 1.825e-05  | 1.9e-05    |   0.0 |  8.12
Modify  | 0          | 1.25e-07   | 1e-06      |   0.0 |  0.06
Other   |            | 8.625e-06  |            |       |  3.84

Nlocal:            0.5 ave           1 max           0 min
Histogram: 4 0 0 0 0 0 0 0 0 4
Nghost:          255.5 ave         256 max         255 min
Histogram: 4 0 0 0 0 0 0 0 0 4
Neighs:           19.5 ave          39 max           0 min
Histogram: 4 0 0 0 0 0 0 0 0 4
FullNghs:           39 ave          78 max           0 min
Histogram: 4 0 0 0 0 0 0 0 0 4

Total # of neighbors = 312
Ave neighs/atom = 78
Neighbor list builds = 0
Dangerous builds = 0
variable  natoms equal "count(all)"
variable xlength equal "lx"
variable  volume equal "vol"
variable  etotal equal "etotal"
variable    ecoh equal "pe/v_natoms"
print "${xlength}, ${volume}, ${etotal}, ${ecoh}" append lattice_cohesive_energy.txt screen no

next i
jump SELF loop

change_box all x scale 1.0025 y scale 1.0025 z scale 1.0025 remap
Changing box ...
  orthogonal box = (0.072930771 0.077541789 0.077541789) to (3.7709672 3.7663562 3.7663562)
  orthogonal box = (0.072930771 0.072930771 0.077541789) to (3.7709672 3.7709672 3.7663562)
  orthogonal box = (0.072930771 0.072930771 0.072930771) to (3.7709672 3.7709672 3.7709672)

run 1
WARNING: No fixes with time integration, atoms won't move (src/verlet.cpp:60)
WARNING: Proc sub-domain size < neighbor skin, could lead to lost atoms (src/domain.cpp:966)
Per MPI rank memory allocation (min/avg/max) = 8.528 | 8.528 | 8.528 Mbytes
   Step         PotEng         TotEng           Lx             Ly             Lz           Volume         Press           Pxx            Pyy            Pzz      
        14  -22.189479     -22.189479      3.6980365      3.6980365      3.6980365      50.5724        390921.6       390921.6       390921.6       390921.6     
        15  -22.189479     -22.189479      3.6980365      3.6980365      3.6980365      50.5724        390921.6       390921.6       390921.6       390921.6     
Loop time of 0.000211375 on 8 procs for 1 steps with 4 atoms

Performance: 408.752 ns/day, 0.059 hours/ns, 4730.928 timesteps/s, 18.924 katom-step/s
0.0% CPU use with 8 MPI tasks x 1 OpenMP threads

MPI task timing breakdown:
Section |  min time  |  avg time  |  max time  |%varavg| %total
---------------------------------------------------------------
Pair    | 0.000138   | 0.00014788 | 0.000159   |   0.0 | 69.96
Neigh   | 0          | 0          | 0          |   0.0 |  0.00
Comm    | 2.7e-05    | 3.7875e-05 | 4.8e-05    |   0.0 | 17.92
Output  | 1.7e-05    | 1.7875e-05 | 1.9e-05    |   0.0 |  8.46
Modify  | 0          | 2.5e-07    | 1e-06      |   0.0 |  0.12
Other   |            | 7.5e-06    |            |       |  3.55

Nlocal:            0.5 ave           1 max           0 min
Histogram: 4 0 0 0 0 0 0 0 0 4
Nghost:          255.5 ave         256 max         255 min
Histogram: 4 0 0 0 0 0 0 0 0 4
Neighs:           19.5 ave          39 max           0 min
Histogram: 4 0 0 0 0 0 0 0 0 4
FullNghs:           39 ave          78 max           0 min
Histogram: 4 0 0 0 0 0 0 0 0 4

Total # of neighbors = 312
Ave neighs/atom = 78
Neighbor list builds = 0
Dangerous builds = 0
variable  natoms equal "count(all)"
variable xlength equal "lx"
variable  volume equal "vol"
variable  etotal equal "etotal"
variable    ecoh equal "pe/v_natoms"
print "${xlength}, ${volume}, ${etotal}, ${ecoh}" append lattice_cohesive_energy.txt screen no

next i
jump SELF loop

change_box all x scale 1.0025 y scale 1.0025 z scale 1.0025 remap
Changing box ...
  orthogonal box = (0.068308226 0.072930771 0.072930771) to (3.7755898 3.7709672 3.7709672)
  orthogonal box = (0.068308226 0.068308226 0.072930771) to (3.7755898 3.7755898 3.7709672)
  orthogonal box = (0.068308226 0.068308226 0.068308226) to (3.7755898 3.7755898 3.7755898)

run 1
WARNING: No fixes with time integration, atoms won't move (src/verlet.cpp:60)
WARNING: Proc sub-domain size < neighbor skin, could lead to lost atoms (src/domain.cpp:966)
Per MPI rank memory allocation (min/avg/max) = 8.528 | 8.528 | 8.528 Mbytes
   Step         PotEng         TotEng           Lx             Ly             Lz           Volume         Press           Pxx            Pyy            Pzz      
        15  -22.278521     -22.278521      3.7072815      3.7072815      3.7072815      50.952642      359650.88      359650.88      359650.88      359650.88    
        16  -22.278521     -22.278521      3.7072815      3.7072815      3.7072815      50.952642      359650.88      359650.88      359650.88      359650.88    
Loop time of 0.000260375 on 8 procs for 1 steps with 4 atoms

Performance: 331.829 ns/day, 0.072 hours/ns, 3840.614 timesteps/s, 15.362 katom-step/s
0.0% CPU use with 8 MPI tasks x 1 OpenMP threads

MPI task timing breakdown:
Section |  min time  |  avg time  |  max time  |%varavg| %total
---------------------------------------------------------------
Pair    | 0.000135   | 0.00016312 | 0.000208   |   0.0 | 62.65
Neigh   | 0          | 0          | 0          |   0.0 |  0.00
Comm    | 2.8e-05    | 7.225e-05  | 0.000101   |   0.0 | 27.75
Output  | 1.7e-05    | 1.8e-05    | 1.9e-05    |   0.0 |  6.91
Modify  | 0          | 6.25e-07   | 2e-06      |   0.0 |  0.24
Other   |            | 6.375e-06  |            |       |  2.45

Nlocal:            0.5 ave           1 max           0 min
Histogram: 4 0 0 0 0 0 0 0 0 4
Nghost:          255.5 ave         256 max         255 min
Histogram: 4 0 0 0 0 0 0 0 0 4
Neighs:           19.5 ave          39 max           0 min
Histogram: 4 0 0 0 0 0 0 0 0 4
FullNghs:           39 ave          78 max           0 min
Histogram: 4 0 0 0 0 0 0 0 0 4

Total # of neighbors = 312
Ave neighs/atom = 78
Neighbor list builds = 0
Dangerous builds = 0
variable  natoms equal "count(all)"
variable xlength equal "lx"
variable  volume equal "vol"
variable  etotal equal "etotal"
variable    ecoh equal "pe/v_natoms"
print "${xlength}, ${volume}, ${etotal}, ${ecoh}" append lattice_cohesive_energy.txt screen no

next i
jump SELF loop

change_box all x scale 1.0025 y scale 1.0025 z scale 1.0025 remap
Changing box ...
  orthogonal box = (0.063674124 0.068308226 0.068308226) to (3.7802239 3.7755898 3.7755898)
  orthogonal box = (0.063674124 0.063674124 0.068308226) to (3.7802239 3.7802239 3.7755898)
  orthogonal box = (0.063674124 0.063674124 0.063674124) to (3.7802239 3.7802239 3.7802239)

run 1
WARNING: No fixes with time integration, atoms won't move (src/verlet.cpp:60)
WARNING: Proc sub-domain size < neighbor skin, could lead to lost atoms (src/domain.cpp:966)
Per MPI rank memory allocation (min/avg/max) = 8.528 | 8.528 | 8.528 Mbytes
   Step         PotEng         TotEng           Lx             Ly             Lz           Volume         Press           Pxx            Pyy            Pzz      
        16  -22.360872     -22.360872      3.7165498      3.7165498      3.7165498      51.335743      329355.74      329355.74      329355.74      329355.74    
        17  -22.360872     -22.360872      3.7165498      3.7165498      3.7165498      51.335743      329355.74      329355.74      329355.74      329355.74    
Loop time of 0.00020875 on 8 procs for 1 steps with 4 atoms

Performance: 413.892 ns/day, 0.058 hours/ns, 4790.419 timesteps/s, 19.162 katom-step/s
0.0% CPU use with 8 MPI tasks x 1 OpenMP threads

MPI task timing breakdown:
Section |  min time  |  avg time  |  max time  |%varavg| %total
---------------------------------------------------------------
Pair    | 0.000132   | 0.00014438 | 0.000158   |   0.0 | 69.16
Neigh   | 0          | 0          | 0          |   0.0 |  0.00
Comm    | 2.6e-05    | 3.95e-05   | 5.2e-05    |   0.0 | 18.92
Output  | 1.7e-05    | 1.7875e-05 | 1.9e-05    |   0.0 |  8.56
Modify  | 0          | 3.75e-07   | 1e-06      |   0.0 |  0.18
Other   |            | 6.625e-06  |            |       |  3.17

Nlocal:            0.5 ave           1 max           0 min
Histogram: 4 0 0 0 0 0 0 0 0 4
Nghost:          255.5 ave         256 max         255 min
Histogram: 4 0 0 0 0 0 0 0 0 4
Neighs:           19.5 ave          39 max           0 min
Histogram: 4 0 0 0 0 0 0 0 0 4
FullNghs:           39 ave          78 max           0 min
Histogram: 4 0 0 0 0 0 0 0 0 4

Total # of neighbors = 312
Ave neighs/atom = 78
Neighbor list builds = 0
Dangerous builds = 0
variable  natoms equal "count(all)"
variable xlength equal "lx"
variable  volume equal "vol"
variable  etotal equal "etotal"
variable    ecoh equal "pe/v_natoms"
print "${xlength}, ${volume}, ${etotal}, ${ecoh}" append lattice_cohesive_energy.txt screen no

next i
jump SELF loop

change_box all x scale 1.0025 y scale 1.0025 z scale 1.0025 remap
Changing box ...
  orthogonal box = (0.059028436 0.063674124 0.063674124) to (3.7848696 3.7802239 3.7802239)
  orthogonal box = (0.059028436 0.059028436 0.063674124) to (3.7848696 3.7848696 3.7802239)
  orthogonal box = (0.059028436 0.059028436 0.059028436) to (3.7848696 3.7848696 3.7848696)

run 1
WARNING: No fixes with time integration, atoms won't move (src/verlet.cpp:60)
WARNING: Proc sub-domain size < neighbor skin, could lead to lost atoms (src/domain.cpp:966)
Per MPI rank memory allocation (min/avg/max) = 8.528 | 8.528 | 8.528 Mbytes
   Step         PotEng         TotEng           Lx             Ly             Lz           Volume         Press           Pxx            Pyy            Pzz      
        17  -22.43666      -22.43666       3.7258411      3.7258411      3.7258411      51.721725      300013.79      300013.79      300013.79      300013.79    
        18  -22.43666      -22.43666       3.7258411      3.7258411      3.7258411      51.721725      300013.79      300013.79      300013.79      300013.79    
Loop time of 0.00021525 on 8 procs for 1 steps with 4 atoms

Performance: 401.394 ns/day, 0.060 hours/ns, 4645.761 timesteps/s, 18.583 katom-step/s
0.0% CPU use with 8 MPI tasks x 1 OpenMP threads

MPI task timing breakdown:
Section |  min time  |  avg time  |  max time  |%varavg| %total
---------------------------------------------------------------
Pair    | 0.000139   | 0.00014825 | 0.000159   |   0.0 | 68.87
Neigh   | 0          | 0          | 0          |   0.0 |  0.00
Comm    | 2.8e-05    | 3.775e-05  | 4.7e-05    |   0.0 | 17.54
Output  | 1.6e-05    | 1.85e-05   | 2.5e-05    |   0.0 |  8.59
Modify  | 0          | 3.75e-07   | 1e-06      |   0.0 |  0.17
Other   |            | 1.037e-05  |            |       |  4.82

Nlocal:            0.5 ave           1 max           0 min
Histogram: 4 0 0 0 0 0 0 0 0 4
Nghost:          255.5 ave         256 max         255 min
Histogram: 4 0 0 0 0 0 0 0 0 4
Neighs:           19.5 ave          39 max           0 min
Histogram: 4 0 0 0 0 0 0 0 0 4
FullNghs:           39 ave          78 max           0 min
Histogram: 4 0 0 0 0 0 0 0 0 4

Total # of neighbors = 312
Ave neighs/atom = 78
Neighbor list builds = 0
Dangerous builds = 0
variable  natoms equal "count(all)"
variable xlength equal "lx"
variable  volume equal "vol"
variable  etotal equal "etotal"
variable    ecoh equal "pe/v_natoms"
print "${xlength}, ${volume}, ${etotal}, ${ecoh}" append lattice_cohesive_energy.txt screen no

next i
jump SELF loop

change_box all x scale 1.0025 y scale 1.0025 z scale 1.0025 remap
Changing box ...
  orthogonal box = (0.054371135 0.059028436 0.059028436) to (3.7895269 3.7848696 3.7848696)
  orthogonal box = (0.054371135 0.054371135 0.059028436) to (3.7895269 3.7895269 3.7848696)
  orthogonal box = (0.054371135 0.054371135 0.054371135) to (3.7895269 3.7895269 3.7895269)

run 1
WARNING: No fixes with time integration, atoms won't move (src/verlet.cpp:60)
WARNING: Proc sub-domain size < neighbor skin, could lead to lost atoms (src/domain.cpp:966)
Per MPI rank memory allocation (min/avg/max) = 8.528 | 8.528 | 8.528 Mbytes
   Step         PotEng         TotEng           Lx             Ly             Lz           Volume         Press           Pxx            Pyy            Pzz      
        18  -22.506009     -22.506009      3.7351557      3.7351557      3.7351557      52.110608      271603.53      271603.53      271603.53      271603.53    
        19  -22.506009     -22.506009      3.7351557      3.7351557      3.7351557      52.110608      271603.53      271603.53      271603.53      271603.53    
Loop time of 0.00021025 on 8 procs for 1 steps with 4 atoms

Performance: 410.939 ns/day, 0.058 hours/ns, 4756.243 timesteps/s, 19.025 katom-step/s
0.0% CPU use with 8 MPI tasks x 1 OpenMP threads

MPI task timing breakdown:
Section |  min time  |  avg time  |  max time  |%varavg| %total
---------------------------------------------------------------
Pair    | 0.000138   | 0.000148   | 0.000159   |   0.0 | 70.39
Neigh   | 0          | 0          | 0          |   0.0 |  0.00
Comm    | 2.7e-05    | 3.7375e-05 | 4.7e-05    |   0.0 | 17.78
Output  | 1.7e-05    | 1.775e-05  | 1.9e-05    |   0.0 |  8.44
Modify  | 0          | 0          | 0          |   0.0 |  0.00
Other   |            | 7.125e-06  |            |       |  3.39

Nlocal:            0.5 ave           1 max           0 min
Histogram: 4 0 0 0 0 0 0 0 0 4
Nghost:          255.5 ave         256 max         255 min
Histogram: 4 0 0 0 0 0 0 0 0 4
Neighs:           19.5 ave          39 max           0 min
Histogram: 4 0 0 0 0 0 0 0 0 4
FullNghs:           39 ave          78 max           0 min
Histogram: 4 0 0 0 0 0 0 0 0 4

Total # of neighbors = 312
Ave neighs/atom = 78
Neighbor list builds = 0
Dangerous builds = 0
variable  natoms equal "count(all)"
variable xlength equal "lx"
variable  volume equal "vol"
variable  etotal equal "etotal"
variable    ecoh equal "pe/v_natoms"
print "${xlength}, ${volume}, ${etotal}, ${ecoh}" append lattice_cohesive_energy.txt screen no

next i
jump SELF loop

change_box all x scale 1.0025 y scale 1.0025 z scale 1.0025 remap
Changing box ...
  orthogonal box = (0.04970219 0.054371135 0.054371135) to (3.7941958 3.7895269 3.7895269)
  orthogonal box = (0.04970219 0.04970219 0.054371135) to (3.7941958 3.7941958 3.7895269)
  orthogonal box = (0.04970219 0.04970219 0.04970219) to (3.7941958 3.7941958 3.7941958)

run 1
WARNING: No fixes with time integration, atoms won't move (src/verlet.cpp:60)
WARNING: Proc sub-domain size < neighbor skin, could lead to lost atoms (src/domain.cpp:966)
Per MPI rank memory allocation (min/avg/max) = 8.528 | 8.528 | 8.528 Mbytes
   Step         PotEng         TotEng           Lx             Ly             Lz           Volume         Press           Pxx            Pyy            Pzz      
        19  -22.569044     -22.569044      3.7444936      3.7444936      3.7444936      52.502415      244103.36      244103.36      244103.36      244103.36    
        20  -22.569044     -22.569044      3.7444936      3.7444936      3.7444936      52.502415      244103.36      244103.36      244103.36      244103.36    
Loop time of 0.000212125 on 8 procs for 1 steps with 4 atoms

Performance: 407.307 ns/day, 0.059 hours/ns, 4714.202 timesteps/s, 18.857 katom-step/s
0.0% CPU use with 8 MPI tasks x 1 OpenMP threads

MPI task timing breakdown:
Section |  min time  |  avg time  |  max time  |%varavg| %total
---------------------------------------------------------------
Pair    | 0.000135   | 0.00014838 | 0.000162   |   0.0 | 69.95
Neigh   | 0          | 0          | 0          |   0.0 |  0.00
Comm    | 2.7e-05    | 3.9875e-05 | 5.4e-05    |   0.0 | 18.80
Output  | 1.6e-05    | 1.7625e-05 | 1.9e-05    |   0.0 |  8.31
Modify  | 0          | 2.5e-07    | 1e-06      |   0.0 |  0.12
Other   |            | 6e-06      |            |       |  2.83

Nlocal:            0.5 ave           1 max           0 min
Histogram: 4 0 0 0 0 0 0 0 0 4
Nghost:          255.5 ave         256 max         255 min
Histogram: 4 0 0 0 0 0 0 0 0 4
Neighs:           19.5 ave          39 max           0 min
Histogram: 4 0 0 0 0 0 0 0 0 4
FullNghs:           39 ave          78 max           0 min
Histogram: 4 0 0 0 0 0 0 0 0 4

Total # of neighbors = 312
Ave neighs/atom = 78
Neighbor list builds = 0
Dangerous builds = 0
variable  natoms equal "count(all)"
variable xlength equal "lx"
variable  volume equal "vol"
variable  etotal equal "etotal"
variable    ecoh equal "pe/v_natoms"
print "${xlength}, ${volume}, ${etotal}, ${ecoh}" append lattice_cohesive_energy.txt screen no

next i
jump SELF loop

change_box all x scale 1.0025 y scale 1.0025 z scale 1.0025 remap
Changing box ...
  orthogonal box = (0.045021573 0.04970219 0.04970219) to (3.7988764 3.7941958 3.7941958)
  orthogonal box = (0.045021573 0.045021573 0.04970219) to (3.7988764 3.7988764 3.7941958)
  orthogonal box = (0.045021573 0.045021573 0.045021573) to (3.7988764 3.7988764 3.7988764)

run 1
WARNING: No fixes with time integration, atoms won't move (src/verlet.cpp:60)
WARNING: Proc sub-domain size < neighbor skin, could lead to lost atoms (src/domain.cpp:966)
Per MPI rank memory allocation (min/avg/max) = 8.528 | 8.528 | 8.528 Mbytes
   Step         PotEng         TotEng           Lx             Ly             Lz           Volume         Press           Pxx            Pyy            Pzz      
        20  -22.625887     -22.625887      3.7538549      3.7538549      3.7538549      52.897169      217492.56      217492.56      217492.56      217492.56    
        21  -22.625887     -22.625887      3.7538549      3.7538549      3.7538549      52.897169      217492.56      217492.56      217492.56      217492.56    
Loop time of 0.0002095 on 8 procs for 1 steps with 4 atoms

Performance: 412.411 ns/day, 0.058 hours/ns, 4773.270 timesteps/s, 19.093 katom-step/s
0.0% CPU use with 8 MPI tasks x 1 OpenMP threads

MPI task timing breakdown:
Section |  min time  |  avg time  |  max time  |%varavg| %total
---------------------------------------------------------------
Pair    | 0.000134   | 0.00014537 | 0.000159   |   0.0 | 69.39
Neigh   | 0          | 0          | 0          |   0.0 |  0.00
Comm    | 2.7e-05    | 3.875e-05  | 5e-05      |   0.0 | 18.50
Output  | 1.7e-05    | 1.7375e-05 | 1.8e-05    |   0.0 |  8.29
Modify  | 0          | 1.25e-07   | 1e-06      |   0.0 |  0.06
Other   |            | 7.875e-06  |            |       |  3.76

Nlocal:            0.5 ave           1 max           0 min
Histogram: 4 0 0 0 0 0 0 0 0 4
Nghost:          255.5 ave         256 max         255 min
Histogram: 4 0 0 0 0 0 0 0 0 4
Neighs:           19.5 ave          39 max           0 min
Histogram: 4 0 0 0 0 0 0 0 0 4
FullNghs:           39 ave          78 max           0 min
Histogram: 4 0 0 0 0 0 0 0 0 4

Total # of neighbors = 312
Ave neighs/atom = 78
Neighbor list builds = 0
Dangerous builds = 0
variable  natoms equal "count(all)"
variable xlength equal "lx"
variable  volume equal "vol"
variable  etotal equal "etotal"
variable    ecoh equal "pe/v_natoms"
print "${xlength}, ${volume}, ${etotal}, ${ecoh}" append lattice_cohesive_energy.txt screen no

next i
jump SELF loop

change_box all x scale 1.0025 y scale 1.0025 z scale 1.0025 remap
Changing box ...
  orthogonal box = (0.040329255 0.045021573 0.045021573) to (3.8035687 3.7988764 3.7988764)
  orthogonal box = (0.040329255 0.040329255 0.045021573) to (3.8035687 3.8035687 3.7988764)
  orthogonal box = (0.040329255 0.040329255 0.040329255) to (3.8035687 3.8035687 3.8035687)

run 1
WARNING: No fixes with time integration, atoms won't move (src/verlet.cpp:60)
WARNING: Proc sub-domain size < neighbor skin, could lead to lost atoms (src/domain.cpp:966)
Per MPI rank memory allocation (min/avg/max) = 8.528 | 8.528 | 8.528 Mbytes
   Step         PotEng         TotEng           Lx             Ly             Lz           Volume         Press           Pxx            Pyy            Pzz      
        21  -22.67666      -22.67666       3.7632395      3.7632395      3.7632395      53.29489       191750.31      191750.31      191750.31      191750.31    
        22  -22.67666      -22.67666       3.7632395      3.7632395      3.7632395      53.29489       191750.31      191750.31      191750.31      191750.31    
Loop time of 0.00021425 on 8 procs for 1 steps with 4 atoms

Performance: 403.267 ns/day, 0.060 hours/ns, 4667.445 timesteps/s, 18.670 katom-step/s
0.0% CPU use with 8 MPI tasks x 1 OpenMP threads

MPI task timing breakdown:
Section |  min time  |  avg time  |  max time  |%varavg| %total
---------------------------------------------------------------
Pair    | 0.000132   | 0.00014562 | 0.000159   |   0.0 | 67.97
Neigh   | 0          | 0          | 0          |   0.0 |  0.00
Comm    | 2.7e-05    | 4e-05      | 5.3e-05    |   0.0 | 18.67
Output  | 1.6e-05    | 1.7375e-05 | 1.8e-05    |   0.0 |  8.11
Modify  | 0          | 0          | 0          |   0.0 |  0.00
Other   |            | 1.125e-05  |            |       |  5.25

Nlocal:            0.5 ave           1 max           0 min
Histogram: 4 0 0 0 0 0 0 0 0 4
Nghost:          255.5 ave         256 max         255 min
Histogram: 4 0 0 0 0 0 0 0 0 4
Neighs:           19.5 ave          39 max           0 min
Histogram: 4 0 0 0 0 0 0 0 0 4
FullNghs:           39 ave          78 max           0 min
Histogram: 4 0 0 0 0 0 0 0 0 4

Total # of neighbors = 312
Ave neighs/atom = 78
Neighbor list builds = 0
Dangerous builds = 0
variable  natoms equal "count(all)"
variable xlength equal "lx"
variable  volume equal "vol"
variable  etotal equal "etotal"
variable    ecoh equal "pe/v_natoms"
print "${xlength}, ${volume}, ${etotal}, ${ecoh}" append lattice_cohesive_energy.txt screen no

next i
jump SELF loop

change_box all x scale 1.0025 y scale 1.0025 z scale 1.0025 remap
Changing box ...
  orthogonal box = (0.035625205 0.040329255 0.040329255) to (3.8082728 3.8035687 3.8035687)
  orthogonal box = (0.035625205 0.035625205 0.040329255) to (3.8082728 3.8082728 3.8035687)
  orthogonal box = (0.035625205 0.035625205 0.035625205) to (3.8082728 3.8082728 3.8082728)

run 1
WARNING: No fixes with time integration, atoms won't move (src/verlet.cpp:60)
WARNING: Proc sub-domain size < neighbor skin, could lead to lost atoms (src/domain.cpp:966)
Per MPI rank memory allocation (min/avg/max) = 8.528 | 8.528 | 8.528 Mbytes
   Step         PotEng         TotEng           Lx             Ly             Lz           Volume         Press           Pxx            Pyy            Pzz      
        22  -22.721483     -22.721483      3.7726476      3.7726476      3.7726476      53.695602      166856.62      166856.62      166856.62      166856.62    
        23  -22.721483     -22.721483      3.7726476      3.7726476      3.7726476      53.695602      166856.62      166856.62      166856.62      166856.62    
Loop time of 0.00022025 on 8 procs for 1 steps with 4 atoms

Performance: 392.281 ns/day, 0.061 hours/ns, 4540.295 timesteps/s, 18.161 katom-step/s
0.0% CPU use with 8 MPI tasks x 1 OpenMP threads

MPI task timing breakdown:
Section |  min time  |  avg time  |  max time  |%varavg| %total
---------------------------------------------------------------
Pair    | 0.00014    | 0.000153   | 0.000167   |   0.0 | 69.47
Neigh   | 0          | 0          | 0          |   0.0 |  0.00
Comm    | 2.7e-05    | 4.075e-05  | 5.4e-05    |   0.0 | 18.50
Output  | 1.6e-05    | 1.85e-05   | 2e-05      |   0.0 |  8.40
Modify  | 0          | 3.75e-07   | 1e-06      |   0.0 |  0.17
Other   |            | 7.625e-06  |            |       |  3.46

Nlocal:            0.5 ave           1 max           0 min
Histogram: 4 0 0 0 0 0 0 0 0 4
Nghost:          255.5 ave         256 max         255 min
Histogram: 4 0 0 0 0 0 0 0 0 4
Neighs:           19.5 ave          39 max           0 min
Histogram: 4 0 0 0 0 0 0 0 0 4
FullNghs:           39 ave          78 max           0 min
Histogram: 4 0 0 0 0 0 0 0 0 4

Total # of neighbors = 312
Ave neighs/atom = 78
Neighbor list builds = 0
Dangerous builds = 0
variable  natoms equal "count(all)"
variable xlength equal "lx"
variable  volume equal "vol"
variable  etotal equal "etotal"
variable    ecoh equal "pe/v_natoms"
print "${xlength}, ${volume}, ${etotal}, ${ecoh}" append lattice_cohesive_energy.txt screen no

next i
jump SELF loop

change_box all x scale 1.0025 y scale 1.0025 z scale 1.0025 remap
Changing box ...
  orthogonal box = (0.030909396 0.035625205 0.035625205) to (3.8129886 3.8082728 3.8082728)
  orthogonal box = (0.030909396 0.030909396 0.035625205) to (3.8129886 3.8129886 3.8082728)
  orthogonal box = (0.030909396 0.030909396 0.030909396) to (3.8129886 3.8129886 3.8129886)

run 1
WARNING: No fixes with time integration, atoms won't move (src/verlet.cpp:60)
WARNING: Proc sub-domain size < neighbor skin, could lead to lost atoms (src/domain.cpp:966)
Per MPI rank memory allocation (min/avg/max) = 8.528 | 8.528 | 8.528 Mbytes
   Step         PotEng         TotEng           Lx             Ly             Lz           Volume         Press           Pxx            Pyy            Pzz      
        23  -22.760476     -22.760476      3.7820792      3.7820792      3.7820792      54.099327      142791.44      142791.44      142791.44      142791.44    
        24  -22.760476     -22.760476      3.7820792      3.7820792      3.7820792      54.099327      142791.44      142791.44      142791.44      142791.44    
Loop time of 0.000209 on 8 procs for 1 steps with 4 atoms

Performance: 413.397 ns/day, 0.058 hours/ns, 4784.689 timesteps/s, 19.139 katom-step/s
0.0% CPU use with 8 MPI tasks x 1 OpenMP threads

MPI task timing breakdown:
Section |  min time  |  avg time  |  max time  |%varavg| %total
---------------------------------------------------------------
Pair    | 0.000136   | 0.00014663 | 0.000158   |   0.0 | 70.16
Neigh   | 0          | 0          | 0          |   0.0 |  0.00
Comm    | 2.7e-05    | 3.7125e-05 | 4.8e-05    |   0.0 | 17.76
Output  | 1.6e-05    | 1.725e-05  | 1.8e-05    |   0.0 |  8.25
Modify  | 0          | 1.25e-07   | 1e-06      |   0.0 |  0.06
Other   |            | 7.875e-06  |            |       |  3.77

Nlocal:            0.5 ave           1 max           0 min
Histogram: 4 0 0 0 0 0 0 0 0 4
Nghost:          255.5 ave         256 max         255 min
Histogram: 4 0 0 0 0 0 0 0 0 4
Neighs:           19.5 ave          39 max           0 min
Histogram: 4 0 0 0 0 0 0 0 0 4
FullNghs:           39 ave          78 max           0 min
Histogram: 4 0 0 0 0 0 0 0 0 4

Total # of neighbors = 312
Ave neighs/atom = 78
Neighbor list builds = 0
Dangerous builds = 0
variable  natoms equal "count(all)"
variable xlength equal "lx"
variable  volume equal "vol"
variable  etotal equal "etotal"
variable    ecoh equal "pe/v_natoms"
print "${xlength}, ${volume}, ${etotal}, ${ecoh}" append lattice_cohesive_energy.txt screen no

next i
jump SELF loop

change_box all x scale 1.0025 y scale 1.0025 z scale 1.0025 remap
Changing box ...
  orthogonal box = (0.026181797 0.030909396 0.030909396) to (3.8177162 3.8129886 3.8129886)
  orthogonal box = (0.026181797 0.026181797 0.030909396) to (3.8177162 3.8177162 3.8129886)
  orthogonal box = (0.026181797 0.026181797 0.026181797) to (3.8177162 3.8177162 3.8177162)

run 1
WARNING: No fixes with time integration, atoms won't move (src/verlet.cpp:60)
WARNING: Proc sub-domain size < neighbor skin, could lead to lost atoms (src/domain.cpp:966)
Per MPI rank memory allocation (min/avg/max) = 8.528 | 8.528 | 8.528 Mbytes
   Step         PotEng         TotEng           Lx             Ly             Lz           Volume         Press           Pxx            Pyy            Pzz      
        24  -22.793755     -22.793755      3.7915344      3.7915344      3.7915344      54.506087      119535.5       119535.5       119535.5       119535.5     
        25  -22.793755     -22.793755      3.7915344      3.7915344      3.7915344      54.506087      119535.5       119535.5       119535.5       119535.5     
Loop time of 0.000208875 on 8 procs for 1 steps with 4 atoms

Performance: 413.645 ns/day, 0.058 hours/ns, 4787.552 timesteps/s, 19.150 katom-step/s
0.0% CPU use with 8 MPI tasks x 1 OpenMP threads

MPI task timing breakdown:
Section |  min time  |  avg time  |  max time  |%varavg| %total
---------------------------------------------------------------
Pair    | 0.000132   | 0.00014475 | 0.000158   |   0.0 | 69.30
Neigh   | 0          | 0          | 0          |   0.0 |  0.00
Comm    | 2.7e-05    | 3.9125e-05 | 5.1e-05    |   0.0 | 18.73
Output  | 1.6e-05    | 1.775e-05  | 1.9e-05    |   0.0 |  8.50
Modify  | 0          | 3.75e-07   | 2e-06      |   0.0 |  0.18
Other   |            | 6.875e-06  |            |       |  3.29

Nlocal:            0.5 ave           1 max           0 min
Histogram: 4 0 0 0 0 0 0 0 0 4
Nghost:          255.5 ave         256 max         255 min
Histogram: 4 0 0 0 0 0 0 0 0 4
Neighs:           19.5 ave          39 max           0 min
Histogram: 4 0 0 0 0 0 0 0 0 4
FullNghs:           39 ave          78 max           0 min
Histogram: 4 0 0 0 0 0 0 0 0 4

Total # of neighbors = 312
Ave neighs/atom = 78
Neighbor list builds = 0
Dangerous builds = 0
variable  natoms equal "count(all)"
variable xlength equal "lx"
variable  volume equal "vol"
variable  etotal equal "etotal"
variable    ecoh equal "pe/v_natoms"
print "${xlength}, ${volume}, ${etotal}, ${ecoh}" append lattice_cohesive_energy.txt screen no

next i
jump SELF loop

change_box all x scale 1.0025 y scale 1.0025 z scale 1.0025 remap
Changing box ...
  orthogonal box = (0.021442379 0.026181797 0.026181797) to (3.8224556 3.8177162 3.8177162)
  orthogonal box = (0.021442379 0.021442379 0.026181797) to (3.8224556 3.8224556 3.8177162)
  orthogonal box = (0.021442379 0.021442379 0.021442379) to (3.8224556 3.8224556 3.8224556)

run 1
WARNING: No fixes with time integration, atoms won't move (src/verlet.cpp:60)
WARNING: Proc sub-domain size < neighbor skin, could lead to lost atoms (src/domain.cpp:966)
Per MPI rank memory allocation (min/avg/max) = 8.556 | 8.556 | 8.558 Mbytes
   Step         PotEng         TotEng           Lx             Ly             Lz           Volume         Press           Pxx            Pyy            Pzz      
        25  -22.821437     -22.821437      3.8010132      3.8010132      3.8010132      54.915905      97069.48       97069.48       97069.48       97069.48     
        26  -22.821437     -22.821437      3.8010132      3.8010132      3.8010132      54.915905      97069.48       97069.48       97069.48       97069.48     
Loop time of 0.0002155 on 8 procs for 1 steps with 4 atoms

Performance: 400.928 ns/day, 0.060 hours/ns, 4640.371 timesteps/s, 18.561 katom-step/s
0.0% CPU use with 8 MPI tasks x 1 OpenMP threads

MPI task timing breakdown:
Section |  min time  |  avg time  |  max time  |%varavg| %total
---------------------------------------------------------------
Pair    | 0.000147   | 0.00015637 | 0.000168   |   0.0 | 72.56
Neigh   | 0          | 0          | 0          |   0.0 |  0.00
Comm    | 1.3e-05    | 2.3375e-05 | 4e-05      |   0.0 | 10.85
Output  | 1.5e-05    | 2.8125e-05 | 4.7e-05    |   0.0 | 13.05
Modify  | 0          | 2.5e-07    | 1e-06      |   0.0 |  0.12
Other   |            | 7.375e-06  |            |       |  3.42

Nlocal:            0.5 ave           4 max           0 min
Histogram: 7 0 0 0 0 0 0 0 0 1
Nghost:          255.5 ave         256 max         252 min
Histogram: 1 0 0 0 0 0 0 0 0 7
Neighs:           13.5 ave         108 max           0 min
Histogram: 7 0 0 0 0 0 0 0 0 1
FullNghs:           27 ave         216 max           0 min
Histogram: 7 0 0 0 0 0 0 0 0 1

Total # of neighbors = 216
Ave neighs/atom = 54
Neighbor list builds = 0
Dangerous builds = 0
variable  natoms equal "count(all)"
variable xlength equal "lx"
variable  volume equal "vol"
variable  etotal equal "etotal"
variable    ecoh equal "pe/v_natoms"
print "${xlength}, ${volume}, ${etotal}, ${ecoh}" append lattice_cohesive_energy.txt screen no

next i
jump SELF loop

change_box all x scale 1.0025 y scale 1.0025 z scale 1.0025 remap
Changing box ...
  orthogonal box = (0.016691112 0.021442379 0.021442379) to (3.8272069 3.8224556 3.8224556)
  orthogonal box = (0.016691112 0.016691112 0.021442379) to (3.8272069 3.8272069 3.8224556)
  orthogonal box = (0.016691112 0.016691112 0.016691112) to (3.8272069 3.8272069 3.8272069)

run 1
WARNING: No fixes with time integration, atoms won't move (src/verlet.cpp:60)
WARNING: Proc sub-domain size < neighbor skin, could lead to lost atoms (src/domain.cpp:966)
Per MPI rank memory allocation (min/avg/max) = 8.556 | 8.556 | 8.558 Mbytes
   Step         PotEng         TotEng           Lx             Ly             Lz           Volume         Press           Pxx            Pyy            Pzz      
        26  -22.843638     -22.843638      3.8105158      3.8105158      3.8105158      55.328805      75374.813      75374.813      75374.813      75374.813    
        27  -22.843638     -22.843638      3.8105158      3.8105158      3.8105158      55.328805      75374.813      75374.813      75374.813      75374.813    
Loop time of 0.000211 on 8 procs for 1 steps with 4 atoms

Performance: 409.479 ns/day, 0.059 hours/ns, 4739.336 timesteps/s, 18.957 katom-step/s
0.0% CPU use with 8 MPI tasks x 1 OpenMP threads

MPI task timing breakdown:
Section |  min time  |  avg time  |  max time  |%varavg| %total
---------------------------------------------------------------
Pair    | 0.000134   | 0.00014688 | 0.000161   |   0.0 | 69.61
Neigh   | 0          | 0          | 0          |   0.0 |  0.00
Comm    | 2.7e-05    | 3.9875e-05 | 5.3e-05    |   0.0 | 18.90
Output  | 1.6e-05    | 1.7375e-05 | 1.8e-05    |   0.0 |  8.23
Modify  | 0          | 1.25e-07   | 1e-06      |   0.0 |  0.06
Other   |            | 6.75e-06   |            |       |  3.20

Nlocal:            0.5 ave           1 max           0 min
Histogram: 4 0 0 0 0 0 0 0 0 4
Nghost:          255.5 ave         256 max         255 min
Histogram: 4 0 0 0 0 0 0 0 0 4
Neighs:           13.5 ave          27 max           0 min
Histogram: 4 0 0 0 0 0 0 0 0 4
FullNghs:           27 ave          54 max           0 min
Histogram: 4 0 0 0 0 0 0 0 0 4

Total # of neighbors = 216
Ave neighs/atom = 54
Neighbor list builds = 0
Dangerous builds = 0
variable  natoms equal "count(all)"
variable xlength equal "lx"
variable  volume equal "vol"
variable  etotal equal "etotal"
variable    ecoh equal "pe/v_natoms"
print "${xlength}, ${volume}, ${etotal}, ${ecoh}" append lattice_cohesive_energy.txt screen no

next i
jump SELF loop

change_box all x scale 1.0025 y scale 1.0025 z scale 1.0025 remap
Changing box ...
  orthogonal box = (0.011927968 0.016691112 0.016691112) to (3.83197 3.8272069 3.8272069)
  orthogonal box = (0.011927968 0.011927968 0.016691112) to (3.83197 3.83197 3.8272069)
  orthogonal box = (0.011927968 0.011927968 0.011927968) to (3.83197 3.83197 3.83197)

run 1
WARNING: No fixes with time integration, atoms won't move (src/verlet.cpp:60)
WARNING: Proc sub-domain size < neighbor skin, could lead to lost atoms (src/domain.cpp:966)
Per MPI rank memory allocation (min/avg/max) = 8.556 | 8.556 | 8.558 Mbytes
   Step         PotEng         TotEng           Lx             Ly             Lz           Volume         Press           Pxx            Pyy            Pzz      
        27  -22.860471     -22.860471      3.8200421      3.8200421      3.8200421      55.744809      54432.919      54432.919      54432.919      54432.919    
        28  -22.860471     -22.860471      3.8200421      3.8200421      3.8200421      55.744809      54432.919      54432.919      54432.919      54432.919    
Loop time of 0.000160625 on 8 procs for 1 steps with 4 atoms

Performance: 537.899 ns/day, 0.045 hours/ns, 6225.681 timesteps/s, 24.903 katom-step/s
0.0% CPU use with 8 MPI tasks x 1 OpenMP threads

MPI task timing breakdown:
Section |  min time  |  avg time  |  max time  |%varavg| %total
---------------------------------------------------------------
Pair    | 9.8e-05    | 0.00010488 | 0.000111   |   0.0 | 65.29
Neigh   | 0          | 0          | 0          |   0.0 |  0.00
Comm    | 2.5e-05    | 3.125e-05  | 3.7e-05    |   0.0 | 19.46
Output  | 1.7e-05    | 1.8e-05    | 1.9e-05    |   0.0 | 11.21
Modify  | 0          | 2.5e-07    | 1e-06      |   0.0 |  0.16
Other   |            | 6.25e-06   |            |       |  3.89

Nlocal:            0.5 ave           1 max           0 min
Histogram: 4 0 0 0 0 0 0 0 0 4
Nghost:          255.5 ave         256 max         255 min
Histogram: 4 0 0 0 0 0 0 0 0 4
Neighs:           13.5 ave          27 max           0 min
Histogram: 4 0 0 0 0 0 0 0 0 4
FullNghs:           27 ave          54 max           0 min
Histogram: 4 0 0 0 0 0 0 0 0 4

Total # of neighbors = 216
Ave neighs/atom = 54
Neighbor list builds = 0
Dangerous builds = 0
variable  natoms equal "count(all)"
variable xlength equal "lx"
variable  volume equal "vol"
variable  etotal equal "etotal"
variable    ecoh equal "pe/v_natoms"
print "${xlength}, ${volume}, ${etotal}, ${ecoh}" append lattice_cohesive_energy.txt screen no

next i
jump SELF loop

change_box all x scale 1.0025 y scale 1.0025 z scale 1.0025 remap
Changing box ...
  orthogonal box = (0.0071529151 0.011927968 0.011927968) to (3.8367451 3.83197 3.83197)
  orthogonal box = (0.0071529151 0.0071529151 0.011927968) to (3.8367451 3.8367451 3.83197)
  orthogonal box = (0.0071529151 0.0071529151 0.0071529151) to (3.8367451 3.8367451 3.8367451)

run 1
WARNING: No fixes with time integration, atoms won't move (src/verlet.cpp:60)
WARNING: Proc sub-domain size < neighbor skin, could lead to lost atoms (src/domain.cpp:966)
Per MPI rank memory allocation (min/avg/max) = 8.556 | 8.556 | 8.558 Mbytes
   Step         PotEng         TotEng           Lx             Ly             Lz           Volume         Press           Pxx            Pyy            Pzz      
        28  -22.872048     -22.872048      3.8295922      3.8295922      3.8295922      56.163942      34225.867      34225.867      34225.867      34225.867    
        29  -22.872048     -22.872048      3.8295922      3.8295922      3.8295922      56.163942      34225.867      34225.867      34225.867      34225.867    
Loop time of 0.000252375 on 8 procs for 1 steps with 4 atoms

Performance: 342.348 ns/day, 0.070 hours/ns, 3962.358 timesteps/s, 15.849 katom-step/s
0.0% CPU use with 8 MPI tasks x 1 OpenMP threads

MPI task timing breakdown:
Section |  min time  |  avg time  |  max time  |%varavg| %total
---------------------------------------------------------------
Pair    | 0.000138   | 0.00015825 | 0.000181   |   0.0 | 62.70
Neigh   | 0          | 0          | 0          |   0.0 |  0.00
Comm    | 2.7e-05    | 4.8875e-05 | 6.9e-05    |   0.0 | 19.37
Output  | 2e-05      | 2.2125e-05 | 2.4e-05    |   0.0 |  8.77
Modify  | 0          | 1.25e-07   | 1e-06      |   0.0 |  0.05
Other   |            | 2.3e-05    |            |       |  9.11

Nlocal:            0.5 ave           1 max           0 min
Histogram: 4 0 0 0 0 0 0 0 0 4
Nghost:          255.5 ave         256 max         255 min
Histogram: 4 0 0 0 0 0 0 0 0 4
Neighs:           13.5 ave          27 max           0 min
Histogram: 4 0 0 0 0 0 0 0 0 4
FullNghs:           27 ave          54 max           0 min
Histogram: 4 0 0 0 0 0 0 0 0 4

Total # of neighbors = 216
Ave neighs/atom = 54
Neighbor list builds = 0
Dangerous builds = 0
variable  natoms equal "count(all)"
variable xlength equal "lx"
variable  volume equal "vol"
variable  etotal equal "etotal"
variable    ecoh equal "pe/v_natoms"
print "${xlength}, ${volume}, ${etotal}, ${ecoh}" append lattice_cohesive_energy.txt screen no

next i
jump SELF loop

change_box all x scale 1.0025 y scale 1.0025 z scale 1.0025 remap
Changing box ...
  orthogonal box = (0.0023659249 0.0071529151 0.0071529151) to (3.8415321 3.8367451 3.8367451)
  orthogonal box = (0.0023659249 0.0023659249 0.0071529151) to (3.8415321 3.8415321 3.8367451)
  orthogonal box = (0.0023659249 0.0023659249 0.0023659249) to (3.8415321 3.8415321 3.8415321)

run 1
WARNING: No fixes with time integration, atoms won't move (src/verlet.cpp:60)
WARNING: Proc sub-domain size < neighbor skin, could lead to lost atoms (src/domain.cpp:966)
Per MPI rank memory allocation (min/avg/max) = 8.556 | 8.556 | 8.558 Mbytes
   Step         PotEng         TotEng           Lx             Ly             Lz           Volume         Press           Pxx            Pyy            Pzz      
        29  -22.878482     -22.878482      3.8391662      3.8391662      3.8391662      56.586225      14735.822      14735.822      14735.822      14735.822    
        30  -22.878482     -22.878482      3.8391662      3.8391662      3.8391662      56.586225      14735.822      14735.822      14735.822      14735.822    
Loop time of 0.0001435 on 8 procs for 1 steps with 4 atoms

Performance: 602.091 ns/day, 0.040 hours/ns, 6968.641 timesteps/s, 27.875 katom-step/s
0.0% CPU use with 8 MPI tasks x 1 OpenMP threads

MPI task timing breakdown:
Section |  min time  |  avg time  |  max time  |%varavg| %total
---------------------------------------------------------------
Pair    | 9.4e-05    | 9.7125e-05 | 0.0001     |   0.0 | 67.68
Neigh   | 0          | 0          | 0          |   0.0 |  0.00
Comm    | 2.3e-05    | 2.4625e-05 | 2.7e-05    |   0.0 | 17.16
Output  | 1.4e-05    | 1.5375e-05 | 1.7e-05    |   0.0 | 10.71
Modify  | 0          | 1.25e-07   | 1e-06      |   0.0 |  0.09
Other   |            | 6.25e-06   |            |       |  4.36

Nlocal:            0.5 ave           1 max           0 min
Histogram: 4 0 0 0 0 0 0 0 0 4
Nghost:          255.5 ave         256 max         255 min
Histogram: 4 0 0 0 0 0 0 0 0 4
Neighs:           13.5 ave          27 max           0 min
Histogram: 4 0 0 0 0 0 0 0 0 4
FullNghs:           27 ave          54 max           0 min
Histogram: 4 0 0 0 0 0 0 0 0 4

Total # of neighbors = 216
Ave neighs/atom = 54
Neighbor list builds = 0
Dangerous builds = 0
variable  natoms equal "count(all)"
variable xlength equal "lx"
variable  volume equal "vol"
variable  etotal equal "etotal"
variable    ecoh equal "pe/v_natoms"
print "${xlength}, ${volume}, ${etotal}, ${ecoh}" append lattice_cohesive_energy.txt screen no

next i
jump SELF loop

change_box all x scale 1.0025 y scale 1.0025 z scale 1.0025 remap
Changing box ...
  orthogonal box = (-0.0024330328 0.0023659249 0.0023659249) to (3.846331 3.8415321 3.8415321)
  orthogonal box = (-0.0024330328 -0.0024330328 0.0023659249) to (3.846331 3.846331 3.8415321)
  orthogonal box = (-0.0024330328 -0.0024330328 -0.0024330328) to (3.846331 3.846331 3.846331)

run 1
WARNING: No fixes with time integration, atoms won't move (src/verlet.cpp:60)
WARNING: Proc sub-domain size < neighbor skin, could lead to lost atoms (src/domain.cpp:966)
Per MPI rank memory allocation (min/avg/max) = 8.556 | 8.556 | 8.558 Mbytes
   Step         PotEng         TotEng           Lx             Ly             Lz           Volume         Press           Pxx            Pyy            Pzz      
        30  -22.879882     -22.879882      3.8487641      3.8487641      3.8487641      57.011684     -4054.5489     -4054.5489     -4054.5489     -4054.5489    
        31  -22.879882     -22.879882      3.8487641      3.8487641      3.8487641      57.011684     -4054.5489     -4054.5489     -4054.5489     -4054.5489    
Loop time of 0.000139375 on 8 procs for 1 steps with 4 atoms

Performance: 619.910 ns/day, 0.039 hours/ns, 7174.888 timesteps/s, 28.700 katom-step/s
0.0% CPU use with 8 MPI tasks x 1 OpenMP threads

MPI task timing breakdown:
Section |  min time  |  avg time  |  max time  |%varavg| %total
---------------------------------------------------------------
Pair    | 9.4e-05    | 9.475e-05  | 9.6e-05    |   0.0 | 67.98
Neigh   | 0          | 0          | 0          |   0.0 |  0.00
Comm    | 2.2e-05    | 2.275e-05  | 2.4e-05    |   0.0 | 16.32
Output  | 1.3e-05    | 1.5125e-05 | 1.7e-05    |   0.0 | 10.85
Modify  | 0          | 2.5e-07    | 1e-06      |   0.0 |  0.18
Other   |            | 6.5e-06    |            |       |  4.66

Nlocal:            0.5 ave           1 max           0 min
Histogram: 4 0 0 0 0 0 0 0 0 4
Nghost:          255.5 ave         256 max         255 min
Histogram: 4 0 0 0 0 0 0 0 0 4
Neighs:           13.5 ave          27 max           0 min
Histogram: 4 0 0 0 0 0 0 0 0 4
FullNghs:           27 ave          54 max           0 min
Histogram: 4 0 0 0 0 0 0 0 0 4

Total # of neighbors = 216
Ave neighs/atom = 54
Neighbor list builds = 0
Dangerous builds = 0
variable  natoms equal "count(all)"
variable xlength equal "lx"
variable  volume equal "vol"
variable  etotal equal "etotal"
variable    ecoh equal "pe/v_natoms"
print "${xlength}, ${volume}, ${etotal}, ${ecoh}" append lattice_cohesive_energy.txt screen no

next i
jump SELF loop

change_box all x scale 1.0025 y scale 1.0025 z scale 1.0025 remap
Changing box ...
  orthogonal box = (-0.0072439879 -0.0024330328 -0.0024330328) to (3.851142 3.846331 3.846331)
  orthogonal box = (-0.0072439879 -0.0072439879 -0.0024330328) to (3.851142 3.851142 3.846331)
  orthogonal box = (-0.0072439879 -0.0072439879 -0.0072439879) to (3.851142 3.851142 3.851142)

run 1
WARNING: No fixes with time integration, atoms won't move (src/verlet.cpp:60)
WARNING: Proc sub-domain size < neighbor skin, could lead to lost atoms (src/domain.cpp:966)
Per MPI rank memory allocation (min/avg/max) = 8.556 | 8.556 | 8.558 Mbytes
   Step         PotEng         TotEng           Lx             Ly             Lz           Volume         Press           Pxx            Pyy            Pzz      
        31  -22.876356     -22.876356      3.858386       3.858386       3.858386       57.440341     -22162.324     -22162.324     -22162.324     -22162.324    
        32  -22.876356     -22.876356      3.858386       3.858386       3.858386       57.440341     -22162.324     -22162.324     -22162.324     -22162.324    
Loop time of 0.000140375 on 8 procs for 1 steps with 4 atoms

Performance: 615.494 ns/day, 0.039 hours/ns, 7123.776 timesteps/s, 28.495 katom-step/s
0.0% CPU use with 8 MPI tasks x 1 OpenMP threads

MPI task timing breakdown:
Section |  min time  |  avg time  |  max time  |%varavg| %total
---------------------------------------------------------------
Pair    | 9.4e-05    | 9.575e-05  | 9.7e-05    |   0.0 | 68.21
Neigh   | 0          | 0          | 0          |   0.0 |  0.00
Comm    | 2.1e-05    | 2.3375e-05 | 2.5e-05    |   0.0 | 16.65
Output  | 1.3e-05    | 1.4875e-05 | 1.7e-05    |   0.0 | 10.60
Modify  | 0          | 3.75e-07   | 2e-06      |   0.0 |  0.27
Other   |            | 6e-06      |            |       |  4.27

Nlocal:            0.5 ave           1 max           0 min
Histogram: 4 0 0 0 0 0 0 0 0 4
Nghost:          255.5 ave         256 max         255 min
Histogram: 4 0 0 0 0 0 0 0 0 4
Neighs:           13.5 ave          27 max           0 min
Histogram: 4 0 0 0 0 0 0 0 0 4
FullNghs:           27 ave          54 max           0 min
Histogram: 4 0 0 0 0 0 0 0 0 4

Total # of neighbors = 216
Ave neighs/atom = 54
Neighbor list builds = 0
Dangerous builds = 0
variable  natoms equal "count(all)"
variable xlength equal "lx"
variable  volume equal "vol"
variable  etotal equal "etotal"
variable    ecoh equal "pe/v_natoms"
print "${xlength}, ${volume}, ${etotal}, ${ecoh}" append lattice_cohesive_energy.txt screen no

next i
jump SELF loop

change_box all x scale 1.0025 y scale 1.0025 z scale 1.0025 remap
Changing box ...
  orthogonal box = (-0.01206697 -0.0072439879 -0.0072439879) to (3.855965 3.851142 3.851142)
  orthogonal box = (-0.01206697 -0.01206697 -0.0072439879) to (3.855965 3.855965 3.851142)
  orthogonal box = (-0.01206697 -0.01206697 -0.01206697) to (3.855965 3.855965 3.855965)

run 1
WARNING: No fixes with time integration, atoms won't move (src/verlet.cpp:60)
WARNING: Proc sub-domain size < neighbor skin, could lead to lost atoms (src/domain.cpp:966)
Per MPI rank memory allocation (min/avg/max) = 8.556 | 8.556 | 8.558 Mbytes
   Step         PotEng         TotEng           Lx             Ly             Lz           Volume         Press           Pxx            Pyy            Pzz      
        32  -22.868014     -22.868014      3.8680319      3.8680319      3.8680319      57.872222     -39604.293     -39604.293     -39604.293     -39604.293    
        33  -22.868014     -22.868014      3.8680319      3.8680319      3.8680319      57.872222     -39604.293     -39604.293     -39604.293     -39604.293    
Loop time of 0.000179625 on 8 procs for 1 steps with 4 atoms

Performance: 481.002 ns/day, 0.050 hours/ns, 5567.154 timesteps/s, 22.269 katom-step/s
0.0% CPU use with 8 MPI tasks x 1 OpenMP threads

MPI task timing breakdown:
Section |  min time  |  avg time  |  max time  |%varavg| %total
---------------------------------------------------------------
Pair    | 0.000125   | 0.00012925 | 0.000137   |   0.0 | 71.96
Neigh   | 0          | 0          | 0          |   0.0 |  0.00
Comm    | 1.5e-05    | 2.05e-05   | 3.3e-05    |   0.0 | 11.41
Output  | 1.6e-05    | 2.4375e-05 | 3.5e-05    |   0.0 | 13.57
Modify  | 0          | 2.5e-07    | 1e-06      |   0.0 |  0.14
Other   |            | 5.25e-06   |            |       |  2.92

Nlocal:            0.5 ave           4 max           0 min
Histogram: 7 0 0 0 0 0 0 0 0 1
Nghost:          255.5 ave         256 max         252 min
Histogram: 1 0 0 0 0 0 0 0 0 7
Neighs:           13.5 ave         108 max           0 min
Histogram: 7 0 0 0 0 0 0 0 0 1
FullNghs:           27 ave         216 max           0 min
Histogram: 7 0 0 0 0 0 0 0 0 1

Total # of neighbors = 216
Ave neighs/atom = 54
Neighbor list builds = 0
Dangerous builds = 0
variable  natoms equal "count(all)"
variable xlength equal "lx"
variable  volume equal "vol"
variable  etotal equal "etotal"
variable    ecoh equal "pe/v_natoms"
print "${xlength}, ${volume}, ${etotal}, ${ecoh}" append lattice_cohesive_energy.txt screen no

next i
jump SELF loop

change_box all x scale 1.0025 y scale 1.0025 z scale 1.0025 remap
Changing box ...
  orthogonal box = (-0.01690201 -0.01206697 -0.01206697) to (3.8608 3.855965 3.855965)
  orthogonal box = (-0.01690201 -0.01690201 -0.01206697) to (3.8608 3.8608 3.855965)
  orthogonal box = (-0.01690201 -0.01690201 -0.01690201) to (3.8608 3.8608 3.8608)

run 1
WARNING: No fixes with time integration, atoms won't move (src/verlet.cpp:60)
WARNING: Proc sub-domain size < neighbor skin, could lead to lost atoms (src/domain.cpp:966)
Per MPI rank memory allocation (min/avg/max) = 8.556 | 8.556 | 8.558 Mbytes
   Step         PotEng         TotEng           Lx             Ly             Lz           Volume         Press           Pxx            Pyy            Pzz      
        33  -22.85496      -22.85496       3.877702       3.877702       3.877702       58.307349     -56396.786     -56396.786     -56396.786     -56396.786    
        34  -22.85496      -22.85496       3.877702       3.877702       3.877702       58.307349     -56396.786     -56396.786     -56396.786     -56396.786    
Loop time of 0.00014875 on 8 procs for 1 steps with 4 atoms

Performance: 580.840 ns/day, 0.041 hours/ns, 6722.689 timesteps/s, 26.891 katom-step/s
0.0% CPU use with 8 MPI tasks x 1 OpenMP threads

MPI task timing breakdown:
Section |  min time  |  avg time  |  max time  |%varavg| %total
[...]
Pair    | 8.5e-05    | 9.4875e-05 | 9.9e-05    |   0.0 | 67.77
Neigh   | 0          | 0          | 0          |   0.0 |  0.00
Comm    | 1.1e-05    | 1.5625e-05 | 2.9e-05    |   0.0 | 11.16
Output  | 1.4e-05    | 2.1875e-05 | 3.5e-05    |   0.0 | 15.62
Modify  | 0          | 2.5e-07    | 1e-06      |   0.0 |  0.18
Other   |            | 7.375e-06  |            |       |  5.27

Nlocal:            0.5 ave           4 max           0 min
Histogram: 7 0 0 0 0 0 0 0 0 1
Nghost:          107.5 ave         108 max         104 min
Histogram: 1 0 0 0 0 0 0 0 0 7
Neighs:           13.5 ave         108 max           0 min
Histogram: 7 0 0 0 0 0 0 0 0 1
FullNghs:           27 ave         216 max           0 min
Histogram: 7 0 0 0 0 0 0 0 0 1

Total # of neighbors = 216
Ave neighs/atom = 54
Neighbor list builds = 0
Dangerous builds = 0
variable  natoms equal "count(all)"
variable xlength equal "lx"
variable  volume equal "vol"
variable  etotal equal "etotal"
variable    ecoh equal "pe/v_natoms"
print "${xlength}, ${volume}, ${etotal}, ${ecoh}" append lattice_cohesive_energy.txt screen no

next i
jump SELF loop

change_box all x scale 1.0025 y scale 1.0025 z scale 1.0025 remap
Changing box ...
  orthogonal box = (-0.090895182 -0.085875621 -0.085875621) to (3.9347932 3.9297736 3.9297736)
  orthogonal box = (-0.090895182 -0.090895182 -0.085875621) to (3.9347932 3.9347932 3.9297736)
  orthogonal box = (-0.090895182 -0.090895182 -0.090895182) to (3.9347932 3.9347932 3.9347932)

run 1
WARNING: No fixes with time integration, atoms won't move (src/verlet.cpp:60)
Per MPI rank memory allocation (min/avg/max) = 8.533 | 8.533 | 8.534 Mbytes
   Step         PotEng         TotEng           Lx             Ly             Lz           Volume         Press           Pxx            Pyy            Pzz      
        48  -22.162408     -22.162408      4.0256884      4.0256884      4.0256884      65.240977     -240600.02     -240600.02     -240600.02     -240600.02    
        49  -22.162408     -22.162408      4.0256884      4.0256884      4.0256884      65.240977     -240600.02     -240600.02     -240600.02     -240600.02    
Loop time of 0.000136875 on 8 procs for 1 steps with 4 atoms

Performance: 631.233 ns/day, 0.038 hours/ns, 7305.936 timesteps/s, 29.224 katom-step/s
0.0% CPU use with 8 MPI tasks x 1 OpenMP threads

MPI task timing breakdown:
Section |  min time  |  avg time  |  max time  |%varavg| %total
---------------------------------------------------------------
Pair    | 8.2e-05    | 9.125e-05  | 9.6e-05    |   0.0 | 66.67
Neigh   | 0          | 0          | 0          |   0.0 |  0.00
Comm    | 1.1e-05    | 1.6e-05    | 3e-05      |   0.0 | 11.69
Output  | 1.5e-05    | 2.2625e-05 | 3.5e-05    |   0.0 | 16.53
Modify  | 0          | 2.5e-07    | 1e-06      |   0.0 |  0.18
Other   |            | 6.75e-06   |            |       |  4.93

Nlocal:            0.5 ave           4 max           0 min
Histogram: 7 0 0 0 0 0 0 0 0 1
Nghost:          107.5 ave         108 max         104 min
Histogram: 1 0 0 0 0 0 0 0 0 7
Neighs:           13.5 ave         108 max           0 min
Histogram: 7 0 0 0 0 0 0 0 0 1
FullNghs:           27 ave         216 max           0 min
Histogram: 7 0 0 0 0 0 0 0 0 1

Total # of neighbors = 216
Ave neighs/atom = 54
Neighbor list builds = 0
Dangerous builds = 0
variable  natoms equal "count(all)"
variable xlength equal "lx"
variable  volume equal "vol"
variable  etotal equal "etotal"
variable    ecoh equal "pe/v_natoms"
print "${xlength}, ${volume}, ${etotal}, ${ecoh}" append lattice_cohesive_energy.txt screen no

next i
jump SELF loop

change_box all x scale 1.0025 y scale 1.0025 z scale 1.0025 remap
Changing box ...
  orthogonal box = (-0.095927293 -0.090895182 -0.090895182) to (3.9398253 3.9347932 3.9347932)
  orthogonal box = (-0.095927293 -0.095927293 -0.090895182) to (3.9398253 3.9398253 3.9347932)
  orthogonal box = (-0.095927293 -0.095927293 -0.095927293) to (3.9398253 3.9398253 3.9398253)

run 1
WARNING: No fixes with time integration, atoms won't move (src/verlet.cpp:60)
Per MPI rank memory allocation (min/avg/max) = 8.533 | 8.533 | 8.534 Mbytes
   Step         PotEng         TotEng           Lx             Ly             Lz           Volume         Press           Pxx            Pyy            Pzz      
        49  -22.087447     -22.087447      4.0357526      4.0357526      4.0357526      65.731509     -248992.95     -248992.95     -248992.95     -248992.95    
        50  -22.087447     -22.087447      4.0357526      4.0357526      4.0357526      65.731509     -248992.95     -248992.95     -248992.95     -248992.95    
Loop time of 0.000134 on 8 procs for 1 steps with 4 atoms

Performance: 644.776 ns/day, 0.037 hours/ns, 7462.687 timesteps/s, 29.851 katom-step/s
0.0% CPU use with 8 MPI tasks x 1 OpenMP threads

MPI task timing breakdown:
Section |  min time  |  avg time  |  max time  |%varavg| %total
---------------------------------------------------------------
Pair    | 8.2e-05    | 9.05e-05   | 9.4e-05    |   0.0 | 67.54
Neigh   | 0          | 0          | 0          |   0.0 |  0.00
Comm    | 1.1e-05    | 1.5e-05    | 2.7e-05    |   0.0 | 11.19
Output  | 1.4e-05    | 2.125e-05  | 3.3e-05    |   0.0 | 15.86
Modify  | 0          | 2.5e-07    | 1e-06      |   0.0 |  0.19
Other   |            | 7e-06      |            |       |  5.22

Nlocal:            0.5 ave           4 max           0 min
Histogram: 7 0 0 0 0 0 0 0 0 1
Nghost:          107.5 ave         108 max         104 min
Histogram: 1 0 0 0 0 0 0 0 0 7
Neighs:           13.5 ave         108 max           0 min
Histogram: 7 0 0 0 0 0 0 0 0 1
FullNghs:           27 ave         216 max           0 min
Histogram: 7 0 0 0 0 0 0 0 0 1

Total # of neighbors = 216
Ave neighs/atom = 54
Neighbor list builds = 0
Dangerous builds = 0
variable  natoms equal "count(all)"
variable xlength equal "lx"
variable  volume equal "vol"
variable  etotal equal "etotal"
variable    ecoh equal "pe/v_natoms"
print "${xlength}, ${volume}, ${etotal}, ${ecoh}" append lattice_cohesive_energy.txt screen no

next i
jump SELF loop

change_box all x scale 1.0025 y scale 1.0025 z scale 1.0025 remap
Changing box ...
  orthogonal box = (-0.10097198 -0.095927293 -0.095927293) to (3.94487 3.9398253 3.9398253)
  orthogonal box = (-0.10097198 -0.10097198 -0.095927293) to (3.94487 3.94487 3.9398253)
  orthogonal box = (-0.10097198 -0.10097198 -0.10097198) to (3.94487 3.94487 3.94487)

run 1
WARNING: No fixes with time integration, atoms won't move (src/verlet.cpp:60)
Per MPI rank memory allocation (min/avg/max) = 8.533 | 8.533 | 8.534 Mbytes
   Step         PotEng         TotEng           Lx             Ly             Lz           Volume         Press           Pxx            Pyy            Pzz      
        50  -22.009398     -22.009398      4.045842       4.045842       4.045842       66.225729     -256971.24     -256971.24     -256971.24     -256971.24    
        51  -22.009398     -22.009398      4.045842       4.045842       4.045842       66.225729     -256971.24     -256971.24     -256971.24     -256971.24    
Loop time of 0.0001365 on 8 procs for 1 steps with 4 atoms

Performance: 632.967 ns/day, 0.038 hours/ns, 7326.007 timesteps/s, 29.304 katom-step/s
0.0% CPU use with 8 MPI tasks x 1 OpenMP threads

MPI task timing breakdown:
Section |  min time  |  avg time  |  max time  |%varavg| %total
---------------------------------------------------------------
Pair    | 8.3e-05    | 9.2625e-05 | 9.7e-05    |   0.0 | 67.86
Neigh   | 0          | 0          | 0          |   0.0 |  0.00
Comm    | 1e-05      | 1.5e-05    | 2.8e-05    |   0.0 | 10.99
Output  | 1.6e-05    | 2.1875e-05 | 3.4e-05    |   0.0 | 16.03
Modify  | 0          | 2.5e-07    | 1e-06      |   0.0 |  0.18
Other   |            | 6.75e-06   |            |       |  4.95

Nlocal:            0.5 ave           4 max           0 min
Histogram: 7 0 0 0 0 0 0 0 0 1
Nghost:          107.5 ave         108 max         104 min
Histogram: 1 0 0 0 0 0 0 0 0 7
Neighs:           13.5 ave         108 max           0 min
Histogram: 7 0 0 0 0 0 0 0 0 1
FullNghs:           27 ave         216 max           0 min
Histogram: 7 0 0 0 0 0 0 0 0 1

Total # of neighbors = 216
Ave neighs/atom = 54
Neighbor list builds = 0
Dangerous builds = 0
variable  natoms equal "count(all)"
variable xlength equal "lx"
variable  volume equal "vol"
variable  etotal equal "etotal"
variable    ecoh equal "pe/v_natoms"
print "${xlength}, ${volume}, ${etotal}, ${ecoh}" append lattice_cohesive_energy.txt screen no

next i
jump SELF loop

change_box all x scale 1.0025 y scale 1.0025 z scale 1.0025 remap
Changing box ...
  orthogonal box = (-0.10602929 -0.10097198 -0.10097198) to (3.9499273 3.94487 3.94487)
  orthogonal box = (-0.10602929 -0.10602929 -0.10097198) to (3.9499273 3.9499273 3.94487)
  orthogonal box = (-0.10602929 -0.10602929 -0.10602929) to (3.9499273 3.9499273 3.9499273)

run 1
WARNING: No fixes with time integration, atoms won't move (src/verlet.cpp:60)
Per MPI rank memory allocation (min/avg/max) = 8.533 | 8.533 | 8.534 Mbytes
   Step         PotEng         TotEng           Lx             Ly             Lz           Volume         Press           Pxx            Pyy            Pzz      
        51  -21.928346     -21.928346      4.0559566      4.0559566      4.0559566      66.723664     -264546.42     -264546.42     -264546.42     -264546.42    
        52  -21.928346     -21.928346      4.0559566      4.0559566      4.0559566      66.723664     -264546.42     -264546.42     -264546.42     -264546.42    
Loop time of 0.000135375 on 8 procs for 1 steps with 4 atoms

Performance: 638.227 ns/day, 0.038 hours/ns, 7386.888 timesteps/s, 29.548 katom-step/s
0.0% CPU use with 8 MPI tasks x 1 OpenMP threads

MPI task timing breakdown:
Section |  min time  |  avg time  |  max time  |%varavg| %total
---------------------------------------------------------------
Pair    | 8.2e-05    | 9.1875e-05 | 9.6e-05    |   0.0 | 67.87
Neigh   | 0          | 0          | 0          |   0.0 |  0.00
Comm    | 1e-05      | 1.5e-05    | 2.8e-05    |   0.0 | 11.08
Output  | 1.5e-05    | 2.1625e-05 | 3.4e-05    |   0.0 | 15.97
Modify  | 0          | 1.25e-07   | 1e-06      |   0.0 |  0.09
Other   |            | 6.75e-06   |            |       |  4.99

Nlocal:            0.5 ave           4 max           0 min
Histogram: 7 0 0 0 0 0 0 0 0 1
Nghost:          107.5 ave         108 max         104 min
Histogram: 1 0 0 0 0 0 0 0 0 7
Neighs:           13.5 ave         108 max           0 min
Histogram: 7 0 0 0 0 0 0 0 0 1
FullNghs:           27 ave         216 max           0 min
Histogram: 7 0 0 0 0 0 0 0 0 1

Total # of neighbors = 216
Ave neighs/atom = 54
Neighbor list builds = 0
Dangerous builds = 0
variable  natoms equal "count(all)"
variable xlength equal "lx"
variable  volume equal "vol"
variable  etotal equal "etotal"
variable    ecoh equal "pe/v_natoms"
print "${xlength}, ${volume}, ${etotal}, ${ecoh}" append lattice_cohesive_energy.txt screen no

next i
jump SELF loop

change_box all x scale 1.0025 y scale 1.0025 z scale 1.0025 remap
Changing box ...
  orthogonal box = (-0.11109923 -0.10602929 -0.10602929) to (3.9549972 3.9499273 3.9499273)
  orthogonal box = (-0.11109923 -0.11109923 -0.10602929) to (3.9549972 3.9549972 3.9499273)
  orthogonal box = (-0.11109923 -0.11109923 -0.11109923) to (3.9549972 3.9549972 3.9549972)

run 1
WARNING: No fixes with time integration, atoms won't move (src/verlet.cpp:60)
Per MPI rank memory allocation (min/avg/max) = 8.533 | 8.533 | 8.534 Mbytes
   Step         PotEng         TotEng           Lx             Ly             Lz           Volume         Press           Pxx            Pyy            Pzz      
        52  -21.844374     -21.844374      4.0660965      4.0660965      4.0660965      67.225344     -271729.58     -271729.58     -271729.58     -271729.58    
        53  -21.844374     -21.844374      4.0660965      4.0660965      4.0660965      67.225344     -271729.58     -271729.58     -271729.58     -271729.58    
Loop time of 0.000133875 on 8 procs for 1 steps with 4 atoms

Performance: 645.378 ns/day, 0.037 hours/ns, 7469.655 timesteps/s, 29.879 katom-step/s
0.0% CPU use with 8 MPI tasks x 1 OpenMP threads

MPI task timing breakdown:
Section |  min time  |  avg time  |  max time  |%varavg| %total
---------------------------------------------------------------
Pair    | 8.1e-05    | 9.05e-05   | 9.4e-05    |   0.0 | 67.60
Neigh   | 0          | 0          | 0          |   0.0 |  0.00
Comm    | 1e-05      | 1.4875e-05 | 2.6e-05    |   0.0 | 11.11
Output  | 1.4e-05    | 2.1375e-05 | 3.2e-05    |   0.0 | 15.97
Modify  | 0          | 3.75e-07   | 1e-06      |   0.0 |  0.28
Other   |            | 6.75e-06   |            |       |  5.04

Nlocal:            0.5 ave           4 max           0 min
Histogram: 7 0 0 0 0 0 0 0 0 1
Nghost:          107.5 ave         108 max         104 min
Histogram: 1 0 0 0 0 0 0 0 0 7
Neighs:           13.5 ave         108 max           0 min
Histogram: 7 0 0 0 0 0 0 0 0 1
FullNghs:           27 ave         216 max           0 min
Histogram: 7 0 0 0 0 0 0 0 0 1

Total # of neighbors = 216
Ave neighs/atom = 54
Neighbor list builds = 0
Dangerous builds = 0
variable  natoms equal "count(all)"
variable xlength equal "lx"
variable  volume equal "vol"
variable  etotal equal "etotal"
variable    ecoh equal "pe/v_natoms"
print "${xlength}, ${volume}, ${etotal}, ${ecoh}" append lattice_cohesive_energy.txt screen no

next i
jump SELF loop

change_box all x scale 1.0025 y scale 1.0025 z scale 1.0025 remap
Changing box ...
  orthogonal box = (-0.11618185 -0.11109923 -0.11109923) to (3.9600799 3.9549972 3.9549972)
  orthogonal box = (-0.11618185 -0.11618185 -0.11109923) to (3.9600799 3.9600799 3.9549972)
  orthogonal box = (-0.11618185 -0.11618185 -0.11618185) to (3.9600799 3.9600799 3.9600799)

run 1
WARNING: No fixes with time integration, atoms won't move (src/verlet.cpp:60)
Per MPI rank memory allocation (min/avg/max) = 8.533 | 8.533 | 8.534 Mbytes
   Step         PotEng         TotEng           Lx             Ly             Lz           Volume         Press           Pxx            Pyy            Pzz      
        53  -21.757565     -21.757565      4.0762617      4.0762617      4.0762617      67.730795     -278531.78     -278531.78     -278531.78     -278531.78    
        54  -21.757565     -21.757565      4.0762617      4.0762617      4.0762617      67.730795     -278531.78     -278531.78     -278531.78     -278531.78    
Loop time of 0.000134875 on 8 procs for 1 steps with 4 atoms

Performance: 640.593 ns/day, 0.037 hours/ns, 7414.272 timesteps/s, 29.657 katom-step/s
0.0% CPU use with 8 MPI tasks x 1 OpenMP threads

MPI task timing breakdown:
Section |  min time  |  avg time  |  max time  |%varavg| %total
---------------------------------------------------------------
Pair    | 8.1e-05    | 9.1125e-05 | 9.6e-05    |   0.0 | 67.56
Neigh   | 0          | 0          | 0          |   0.0 |  0.00
Comm    | 1.1e-05    | 1.5625e-05 | 2.9e-05    |   0.0 | 11.58
Output  | 1.4e-05    | 2.125e-05  | 3.4e-05    |   0.0 | 15.76
Modify  | 0          | 1.25e-07   | 1e-06      |   0.0 |  0.09
Other   |            | 6.75e-06   |            |       |  5.00

Nlocal:            0.5 ave           4 max           0 min
Histogram: 7 0 0 0 0 0 0 0 0 1
Nghost:          107.5 ave         108 max         104 min
Histogram: 1 0 0 0 0 0 0 0 0 7
Neighs:           13.5 ave         108 max           0 min
Histogram: 7 0 0 0 0 0 0 0 0 1
FullNghs:           27 ave         216 max           0 min
Histogram: 7 0 0 0 0 0 0 0 0 1

Total # of neighbors = 216
Ave neighs/atom = 54
Neighbor list builds = 0
Dangerous builds = 0
variable  natoms equal "count(all)"
variable xlength equal "lx"
variable  volume equal "vol"
variable  etotal equal "etotal"
variable    ecoh equal "pe/v_natoms"
print "${xlength}, ${volume}, ${etotal}, ${ecoh}" append lattice_cohesive_energy.txt screen no

next i
jump SELF loop

change_box all x scale 1.0025 y scale 1.0025 z scale 1.0025 remap
Changing box ...
  orthogonal box = (-0.12127718 -0.11618185 -0.11618185) to (3.9651752 3.9600799 3.9600799)
  orthogonal box = (-0.12127718 -0.12127718 -0.11618185) to (3.9651752 3.9651752 3.9600799)
  orthogonal box = (-0.12127718 -0.12127718 -0.12127718) to (3.9651752 3.9651752 3.9651752)

run 1
WARNING: No fixes with time integration, atoms won't move (src/verlet.cpp:60)
Per MPI rank memory allocation (min/avg/max) = 8.533 | 8.533 | 8.534 Mbytes
   Step         PotEng         TotEng           Lx             Ly             Lz           Volume         Press           Pxx            Pyy            Pzz      
        54  -21.668001     -21.668001      4.0864524      4.0864524      4.0864524      68.240047     -284963.76     -284963.76     -284963.76     -284963.76    
        55  -21.668001     -21.668001      4.0864524      4.0864524      4.0864524      68.240047     -284963.76     -284963.76     -284963.76     -284963.76    
Loop time of 0.000134 on 8 procs for 1 steps with 4 atoms

Performance: 644.776 ns/day, 0.037 hours/ns, 7462.687 timesteps/s, 29.851 katom-step/s
0.0% CPU use with 8 MPI tasks x 1 OpenMP threads

MPI task timing breakdown:
Section |  min time  |  avg time  |  max time  |%varavg| %total
---------------------------------------------------------------
Pair    | 8.3e-05    | 9.15e-05   | 9.5e-05    |   0.0 | 68.28
Neigh   | 0          | 0          | 0          |   0.0 |  0.00
Comm    | 1.1e-05    | 1.4375e-05 | 2.6e-05    |   0.0 | 10.73
Output  | 1.4e-05    | 2.1125e-05 | 3.2e-05    |   0.0 | 15.76
Modify  | 0          | 2.5e-07    | 1e-06      |   0.0 |  0.19
Other   |            | 6.75e-06   |            |       |  5.04

Nlocal:            0.5 ave           4 max           0 min
Histogram: 7 0 0 0 0 0 0 0 0 1
Nghost:          107.5 ave         108 max         104 min
Histogram: 1 0 0 0 0 0 0 0 0 7
Neighs:           13.5 ave         108 max           0 min
Histogram: 7 0 0 0 0 0 0 0 0 1
FullNghs:           27 ave         216 max           0 min
Histogram: 7 0 0 0 0 0 0 0 0 1

Total # of neighbors = 216
Ave neighs/atom = 54
Neighbor list builds = 0
Dangerous builds = 0
variable  natoms equal "count(all)"
variable xlength equal "lx"
variable  volume equal "vol"
variable  etotal equal "etotal"
variable    ecoh equal "pe/v_natoms"
print "${xlength}, ${volume}, ${etotal}, ${ecoh}" append lattice_cohesive_energy.txt screen no

next i
jump SELF loop

print "-------------------------------------------------------------"
-------------------------------------------------------------
print "Show results of 1st step (Running Minimization)"
Show results of 1st step (Running Minimization)
print "The number of atoms = ${natoms};"
The number of atoms = 4;
print "The lattice constant, x (Angstoms) = ${x0};"
The lattice constant, x (Angstoms) = 4.08645235840654;
print "The lattice constant, y (Angstoms) = ${y0};"
The lattice constant, y (Angstoms) = 4.08645235840654;
print "The lattice constant, z (Angstoms) = ${z0};"
The lattice constant, z (Angstoms) = 4.08645235840654;
print "The volume (Angstoms^3) = ${v0};"
The volume (Angstoms^3) = 68.2400474726174;
print "The total energy (eV) = ${etot0};"
The total energy (eV) = -21.6680006149907;
print "The cohesive energy (eV/atom) = ${ecoh0};"
The cohesive energy (eV/atom) = -5.41700015374767;
print "-------------------------------------------------------------"
-------------------------------------------------------------
print "Simulations completed !"
Simulations completed !
Total wall time: 0:00:00
