LAMMPS data file via write_data, version 22 Dec 2022, timestep = 100000

40323 atoms
3 atom types

0 256 xlo xhi
0 256 ylo yhi
0 10 zlo zhi

Masses

1 26.982
2 24.32
3 65.39

Atoms # atomic

4 1 2.770914573236743 2.648208964035077 4.303821045587742 0 0 0
20445 2 0.7329196364091504 0.6132305058996769 4.077162695714962 1 0 0
2 1 2.6070560755998526 0.9707506365806546 2.082986821787895 0 0 0
3393 1 0.7602466195326402 2.949995189465628 2.505831353376207 0 0 1
3394 1 2.7822078266431762 3.408761280799355 0.6733397872773863 0 0 1
20289 1 0.9134393939097222 1.4370537797129748 0.1146161966620737 0 1 1
8 1 4.7774020190481075 0.5838177027447113 4.051032549600325 0 0 0
7 1 6.943948944309506 0.8303382328030677 2.0835706405719248 0 0 0
1670 1 6.620281845377362 2.5517173766103007 4.23692593869312 0 0 0
6 1 4.51073890678111 2.659572394781579 2.3498296001507297 0 0 0
3332 1 6.62814364360698 3.191168734534097 0.5742659983897697 0 0 1
3330 1 4.733112517251897 1.1430531044229668 0.2799966106526844 0 0 1
12 1 8.628766145958622 2.8818812474950075 2.5864546759980933 0 0 0
11 1 10.676659232535789 0.899903798494556 1.9766419250788123 0 0 0
1673 1 8.651874260067245 0.4168994587586849 3.896059095017155 0 0 0
1674 1 10.575042145788837 2.5494348174624775 4.296442168962652 0 0 0
10 1 10.849509574777604 3.2582405156852237 0.5414194318296573 0 0 0
9 1 8.881997171881393 1.3296051967371245 0.19149333407255636 0 0 0
15 1 14.711044891417444 0.7721036196149926 2.0814685408318616 0 0 0
16 1 12.608831094142717 2.882800276925769 2.530881346494785 0 0 0
1677 2 12.757493825151593 0.49080403370060927 4.072045806180227 0 0 0
1678 1 14.711581911825961 2.4910164148516483 4.443221970430961 0 0 0
14 1 14.923872215648418 3.3024364373957154 0.6562312543856077 0 0 0
13 1 12.731539867508248 1.3334008844546095 0.0949482054914988 0 0 0
20 1 16.776251859100533 2.9334302708097244 2.418248091515519 0 0 0
1681 1 16.742563423580574 0.4515035823353962 4.122424689688976 0 0 0
1682 1 18.60819305609054 2.303120422082834 4.622704917913894 0 0 0
19 1 18.779170495908176 3.317367546636434 0.7359174592993525 0 0 0
17867 1 18.792645540594574 0.9255879385789129 2.2046565987775817 0 1 0
24 1 22.84753794499339 2.3756794373138903 4.4945919141716955 0 0 0
18 1 20.911836732464398 2.6996020540654047 2.5764098288592914 0 0 0
3340 2 23.15556586861084 3.09122771106237 0.6316761997368007 0 0 1
1685 1 20.82236984530192 0.5661188316953446 4.261824804346449 0 0 0
21 2 21.97788633066331 0.2246226164573729 1.1151326566324786 0 0 0
22 1 24.88733077849085 2.711652185510417 2.715171571680006 0 0 0
23 1 24.84306808364934 0.3660520602835803 4.094792220515947 0 0 0
28 1 26.77589254135417 2.292180499731231 4.539279902601283 0 0 0
25 1 26.723110389474304 0.6258688407218073 1.9735593912563707 0 0 0
26 1 26.50338100361673 3.339600475896898 0.611151688268176 0 0 0
3341 1 24.745870675604976 1.1600900673101793 0.2601245146358098 0 0 1
27 1 28.68361095464159 0.4665099210259081 4.232146880370132 0 0 0
31 1 30.700392903209192 0.7909903348494143 2.2670932547364453 0 0 0
32 1 28.715939861181337 2.702716064269287 2.5658421763883754 0 0 0
1694 1 30.931669770336427 2.423583769008713 4.414047117136394 0 0 0
30 1 30.779086099248698 3.0281149289239773 0.7399961277360095 0 0 0
3343 1 28.861649710957685 1.297332866560232 0.36964266088569464 0 0 1
35 1 35.01581389823788 0.9335627120712425 2.205321407127934 0 0 0
36 1 33.204430390861134 2.846279158039843 2.7214419128709957 0 0 0
1697 1 32.95815143960417 0.5284529369554481 4.036013952476944 0 0 0
1698 1 35.163585697198194 2.4651110745648688 4.5801894047187925 0 0 0
3346 1 34.81198139621711 3.1419605953255005 0.6440058537028827 0 0 1
3344 1 32.90281076871087 1.339416187959384 0.368777687230774 0 0 1
40 1 37.04225268073041 2.751060121947205 2.453823785129006 0 0 0
1702 1 38.926765023400144 2.5709359565512324 4.533735062288464 0 0 0
39 1 39.073563420867515 0.7866797707903573 2.155774303418318 0 0 0
1701 1 37.131051492519596 0.489207574531778 4.060763081916407 0 0 0
38 1 39.058621570548596 3.3292917868867513 0.5670239527703228 0 0 0
34 1 37.14311603297439 1.0894739213889717 0.0964467679146276 0 0 0
19477 1 41.152201523870396 0.6500146690457052 4.241852364536783 0 1 0
43 1 43.35140535954237 0.8376897241790353 2.332298532232264 0 0 0
44 2 41.19710698922534 2.7663088435763576 2.59936038519506 0 0 0
1706 1 43.30699856229948 2.4703216172155416 4.80654175863635 0 0 0
42 1 43.198628606168654 3.139796135333969 0.7688644730524847 0 0 0
41 1 41.12377316884066 1.3517531003028247 0.4009975270180654 0 0 0
47 1 47.18718205334641 0.7555849388613834 2.255720725449599 0 0 0
48 1 45.3829943625068 2.7197340281482303 2.498152242016571 0 0 0
1709 1 45.16800851945419 0.3343880472285899 4.179054627832458 0 0 0
1710 1 46.93387479979215 2.262422232330339 4.701734112953052 0 0 0
46 1 47.264768097482936 3.4594673956509117 0.6165657461836317 0 0 0
3351 1 45.02224240303585 1.2293814013586628 0.3387282160533234 0 0 1
51 1 51.39950436549093 0.8350743986016544 2.3354969736969986 0 0 0
52 1 49.30746999875333 2.7149679581424437 2.378394648680017 0 0 0
1713 1 49.18250795530904 0.624998873281931 4.009325547237014 0 0 0
1714 1 51.44890433298899 2.754711707611884 4.519524267258919 0 0 0
50 1 51.23987431041395 3.0587559206414525 0.5056941100807393 0 0 0
49 1 49.25394721896042 1.3109128474259315 0.2097037742231421 0 0 0
55 1 55.104858036658804 1.0968507739927442 2.212388115511144 0 0 0
56 1 53.315839414326135 2.9553278955914433 2.4966720519876584 0 0 0
1717 1 53.28825914995442 0.5602225892928123 4.059568447822559 0 0 0
1718 1 55.363145417163125 2.637621942465647 4.456687704232488 0 0 0
54 1 55.313798000978885 3.303788942950181 0.6107540660922262 0 0 0
53 1 53.282814755970044 1.2804666936801896 0.25335344812430477 0 0 0
59 1 59.322071587537216 0.5906842206947183 2.021130881519158 0 0 0
60 1 57.295631022450685 2.867191737254725 2.4370425667868467 0 0 0
1721 1 57.27195088050443 0.6681862385883878 4.0627873620502095 0 0 0
1722 1 59.3055423581395 2.5448388593012425 4.712466105677056 0 0 0
58 1 59.389321247384366 3.192983871012111 0.6348797412148847 0 0 0
3357 1 57.19921985032372 1.465484400002694 0.3455741228908607 0 0 1
63 1 63.498337456477365 0.8057820591426746 2.3386831918821764 0 0 0
64 1 61.36802210544218 2.822370387593412 2.747740037311175 0 0 0
1725 1 61.309125211055346 0.405538969135792 3.995749939246673 0 0 0
1726 1 63.23251270392425 2.2782666142526304 4.626419334813163 0 0 0
189 1 63.613991731462704 3.1419075091429347 0.745617901744674 0 0 0
61 1 61.36634077498408 1.167693471654552 0.28441274814185197 0 0 0
68 1 65.53371970588691 2.61080329284481 2.729865006109056 0 0 0
66 1 67.46713915540592 0.8560906511704299 2.350009238823285 0 0 0
1729 1 65.40003555925625 0.361471984313384 4.191699551960703 0 0 0
1730 1 67.39128346607637 2.2395384264333957 4.804775893922599 0 0 0
197 1 67.36889628640047 3.155342544149349 0.6817912126936895 0 0 0
62 2 65.64634161447006 1.125846446817565 0.1746137994331192 0 0 0
71 1 71.72050293075503 0.8129055929065461 2.2533523892643506 0 0 0
72 1 69.44683354871178 2.738452271768158 2.6800024747698568 0 0 0
1734 1 71.43153233578558 2.3820216654072683 4.541227972776757 0 0 0
201 1 71.60120468449678 2.9730847887270526 0.6899903260617396 0 0 0
70 1 69.79027579729652 0.9309666799913788 0.4040374776538788 0 0 0
1733 1 69.30213013642617 0.3195757717915655 4.384528910178276 0 0 0
75 1 75.68858565944468 0.4849637877553853 2.1722676411481263 0 0 0
76 1 73.67376981023595 2.600092303487325 2.621564584067935 0 0 0
1738 2 75.66327314409955 1.8888250689150816 4.678885459874835 0 0 0
205 1 75.66484263798216 2.878736484471182 0.5658551828121104 0 0 0
74 1 73.54139329033993 0.9898317248964917 0.3339896769781773 0 0 0
1669 1 6.732737738321186 0.06624060013552437 5.9138007270632755 0 0 0
1865 1 74.0693378986525 4.110097881348534 5.012136012068936 0 0 0
80 1 77.37562308268107 2.556688770615652 2.4319358695960283 0 0 0
78 1 79.6574316718375 2.6565244908204657 0.48725034723988275 0 0 0
3367 1 77.64539460022908 0.9315485448096228 0.16106107645772222 0 0 1
1737 1 73.5184681946258 0.28285624827063954 4.1166895811626 0 0 0
1742 1 79.72432652602483 1.7543102874438758 4.069975584474787 0 0 0
1869 1 77.65273605713165 4.117048495306052 4.810445912457463 0 0 0
83 1 83.76494658476234 0.2897413884482166 2.0988384009612546 0 0 0
84 1 81.73721124659802 2.430130935519697 2.5695976055248924 0 0 0
1746 1 83.96230307847188 2.12366262748429 4.502498674676728 0 0 0
82 2 83.99684487082699 2.5810893015375 0.7337658158940248 0 0 0
79 1 81.83460555977798 0.8229085279799995 0.26702194752311176 0 0 0
1873 1 81.88219835274435 3.9970297844522946 4.645274323174187 0 0 0
211 1 83.83581473383614 4.36080895727949 2.946646609539239 0 0 0
21581 1 127.93380677694158 40.79601386656005 7.604155720191948 0 0 -1
87 1 87.9613791835591 0.25053343918852333 2.1786506743882605 0 0 0
88 2 85.7957386998407 2.0522392242628564 2.6380885428651775 0 0 0
1750 1 87.69518545340786 1.7094809293181332 4.489310494028205 0 0 0
86 1 87.80841889095612 2.5826379801976245 0.6254204461407973 0 0 0
85 1 85.87065244148523 0.5628453372948538 0.41402744715701456 0 0 0
1877 1 85.86884915040793 3.941238982851909 4.997135883135532 0 0 0
215 1 87.74255428695348 4.1604773439044775 2.822858270673413 0 0 0
92 1 89.68683304319877 2.307278735809353 2.6063097392267345 0 0 0
1754 1 91.89201031262216 1.8265346834197238 4.5788358460533 0 0 0
90 1 91.70128887978856 2.6494931478001718 0.649887690932226 0 0 0
91 1 91.78155110714663 0.319333765544657 2.1494539462710436 0 0 0
219 1 91.92334452137791 4.219397654291227 3.009816618463982 0 0 0
96 1 93.88014068952793 2.1278053007936655 2.689000902649606 0 0 0
3375 1 93.78487812631768 0.4525767539837154 0.379073414980839 0 0 1
1758 1 95.94260678514448 1.8049673264210142 4.465396799562839 0 0 0
1699 1 34.84793934904273 0.17569767188791865 5.926368599393243 0 0 0
1885 1 93.87173591578551 3.9216310488171118 4.821867557607125 0 0 0
94 1 95.92364660974489 2.369768767784357 0.8870197380342847 0 0 0
100 1 98.05451129049911 2.284152409187496 2.6767414687683315 0 0 0
97 1 98.01864480063252 0.5379049705207578 0.5367515962377406 0 0 0
223 1 96.20218840772728 4.22627817036411 2.9103315850914533 0 0 0
98 1 100.08489809323905 2.4237693830440037 0.8800787265591298 0 0 0
1762 1 100.00395570053381 1.591235759435304 4.395129861609238 0 0 0
104 1 102.32126100303202 2.383677338185546 2.505087512608373 0 0 0
101 1 102.26613925874129 0.3191397611877913 0.5132646768524086 0 0 0
1893 1 102.66201256033288 4.20936230521918 4.834135617258243 0 0 0
227 1 100.2451280191992 4.1926853975427045 3.1706010444855726 0 0 0
3242 1 40.748549926768376 51.19381770838372 0.988714672402519 0 0 0
1028 1 0.2394891053497864 34.97277126976724 4.371892528885073 0 0 0
102 1 104.23016424934987 2.4195276498502847 0.6789673017920373 0 0 0
1766 1 104.20915103062589 2.0378965289032314 4.400938389642273 0 0 0
108 1 106.3868501247705 2.372223882819002 2.3503487786915946 0 0 0
17909 1 106.14346071994586 0.5147753047429313 0.013424741397036645 0 1 0
231 1 104.57301558093347 4.514950709421074 2.654429517651508 0 0 0
106 1 109.23803700587737 2.7300857937280862 3.3848129295640406 0 0 0
111 1 110.71844272588854 0.5161856975557476 3.237813087531551 0 0 0
110 1 110.70924379675289 2.4198512110915145 1.1805642498067181 0 0 0
107 1 108.35302051800451 0.14752313352524593 1.7650135561635516 0 0 0
3382 1 108.19078488208552 2.6673004288359596 0.0018460096967905853 0 0 1
113 1 112.62124791714943 0.5025228747356613 0.7857413170823913 0 0 0
116 1 113.03057018089257 2.6568357993362275 2.71861447551015 0 0 0
115 1 114.95354307073194 0.7912485293086474 2.757565664529157 0 0 0
1778 1 115.16128873037438 2.7370592104765215 4.487454741260584 0 0 0
114 2 114.74825526931774 2.44901499045097 0.4841959846757536 0 0 0
1777 1 112.94895855433738 0.8676981092251381 4.7097520013132215 0 0 0
120 1 116.90803883393032 2.8901091544305673 2.3240464876921556 0 0 0
1782 1 119.25748919597483 3.3978778412296773 4.327067134825526 0 0 0
118 1 119.11877654451146 1.0906241730252544 2.8931640941927883 0 0 0
117 1 117.03771031603533 0.5313032233649986 0.7005626293752156 0 0 0
3388 1 119.05450232470662 2.5520170100342656 0.5945679004821002 0 0 1
122 1 123.2067337196567 1.2423518406014584 2.8843641535981797 0 0 0
124 1 121.1148149031573 1.5295007224166723 5.033417356527277 0 0 0
249 1 121.12218361218602 3.224474672635819 2.6238535230778064 0 0 0
251 1 123.07407523433804 3.4420000881481863 4.3997228273416615 0 0 0
3389 1 121.24267394732803 0.9911121402483996 0.986908071865942 0 0 1
3453 1 123.09199792969974 3.0353745440098727 0.5214704318868952 0 0 1
126 1 127.2981327670755 1.457137751443351 2.6702593813426843 0 0 0
128 1 125.19420857200262 1.7381736446618121 4.61586373626093 0 0 0
253 1 125.16742797850355 3.5358573439768017 2.44439778517865 0 0 0
3391 1 125.01293550498464 1.0673623826427256 0.9574586242724087 0 0 1
255 1 126.95465016859751 3.919154261410327 4.4529317026450075 0 0 0
3392 1 127.18504702522117 3.15308046831183 0.5487331027251459 0 0 1
129 1 0.7420623402222077 5.36093030632927 0.928363659405939 0 0 0
131 1 2.619769749321035 5.077172174692726 2.9185393426720503 0 0 0
130 1 2.9955713747224473 7.291222482924594 1.1952716215818477 0 0 0
132 1 0.7747845900776068 6.934645181492848 3.2756615206393356 0 0 0
1793 1 0.7038777951871069 4.635410927711632 4.9547255324231445 0 0 0
135 1 6.415943888914192 4.808273027303513 2.8832290301775716 0 0 0
136 2 4.71679118173199 6.895615543374088 3.23017931449177 0 0 0
134 1 6.587002520127211 7.235640391741587 1.3092142566828304 0 0 0
133 1 4.662781212049009 5.37892446609604 0.6288835838065755 0 0 0
1797 2 4.593506827676054 4.363490322369206 4.817705042058307 0 0 0
1801 1 8.711456209624657 4.58044874504828 4.723048737336468 0 0 0
139 1 10.830647843901797 4.7330392955136675 2.7573081422004617 0 0 0
140 1 8.632592518431276 6.830980610863466 3.1302390265419877 0 0 0
138 1 10.770255068748178 7.107767456588934 1.2414818843738127 0 0 0
137 1 8.748069848735776 5.247170343017941 0.873450540618667 0 0 0
143 1 14.577643390494465 4.810278605533217 2.778305888931257 0 0 0
144 1 12.993022496760974 6.860180697966384 3.2481726868119614 0 0 0
142 1 14.953287809217207 7.654785333037558 1.4208597645919652 0 0 0
141 1 12.770800066578522 5.215578912130263 0.9016493959929144 0 0 0
1805 1 12.81982317728504 4.568512901793271 4.733501616662129 0 0 0
1809 1 16.63657223132651 4.574135055568555 4.785111183323454 0 0 0
147 1 18.902154828212055 4.896205730031082 2.8276125012203885 0 0 0
148 1 16.709797403339916 6.916909781879487 3.340083566030148 0 0 0
146 1 18.638747688560564 7.316191404486194 1.4396525633363608 0 0 0
145 1 16.6364883093282 5.30632024792858 0.9509301109229706 0 0 0
151 1 22.624583709690945 4.619795980072676 2.961361557618462 0 0 0
152 2 20.53327874003242 6.652187389198023 3.1946512589549703 0 0 0
150 2 22.985332939680852 7.297308385087125 1.308899473795751 0 0 0
149 1 20.856461654086687 5.111282535333218 1.0059704687162707 0 0 0
1813 1 20.68152175523413 4.115122582742917 4.842060953375598 0 0 0
155 1 26.958356252906096 4.685068648979002 3.0549237150816104 0 0 0
156 1 24.86972330780358 6.66550696118318 3.212150558743247 0 0 0
154 1 26.865669777762136 7.201318664840927 1.5121766666575691 0 0 0
153 1 24.640143525447627 5.2601084905016116 1.055326397649212 0 0 0
1817 1 24.719084679961554 4.25859545868727 4.698939096987518 0 0 0
159 1 30.878111513507314 4.8028262674632165 2.962656214335272 0 0 0
160 1 28.800301516654116 6.605253705771597 3.328052894029754 0 0 0
158 1 30.798334115901273 7.186135392733068 1.4650174592430207 0 0 0
157 1 28.765430582873044 5.274229787794663 1.1220907792437034 0 0 0
1821 1 28.881706477636726 4.3764866470192825 4.914950271662659 0 0 0
163 1 34.93827592795432 5.016179435333032 2.9215173845276863 0 0 0
162 1 34.79706872787251 7.2322186802292014 1.39362029635873 0 0 0
164 1 32.75730370981927 6.790129555328024 3.5057011137163823 0 0 0
161 2 32.84304884548745 5.116659318176858 1.1057208151037021 0 0 0
1825 1 33.05836766045562 4.392750959657289 4.921571443928302 0 0 0
1829 1 36.99832220924357 4.439321340815415 4.717019413286469 0 0 0
167 1 39.18786415234811 4.6903128335064235 2.84090925598309 0 0 0
166 1 39.21546595539756 6.957870045093635 1.3951726583131907 0 0 0
168 1 36.9175387286146 6.889608617666275 3.084424573103861 0 0 0
165 1 37.14020269814052 5.0951118947131855 0.7895458222972436 0 0 0
171 1 43.53149233626075 4.871113527019548 2.99540413021343 0 0 0
170 1 43.340086443243734 7.257903664408317 1.3886606217814281 0 0 0
172 1 41.35263049871356 6.624306045856348 3.3370213581443 0 0 0
169 1 41.2727868476863 5.380850606313267 1.0479110987736824 0 0 0
1833 1 41.07131680093952 4.48017280983331 4.966584415457083 0 0 0
1837 2 45.37548907858547 4.553027076730416 4.902302547648313 0 0 0
175 1 47.26724167356276 4.793101003524181 2.8867474719699326 0 0 0
174 1 47.23953211061428 7.177894953141557 1.3427460947425969 0 0 0
176 1 45.295861818077945 6.836583411781553 3.351741030756988 0 0 0
173 1 45.37331541971462 5.290463647005542 0.9218545372648155 0 0 0
179 1 51.121872307692996 4.848479104878341 2.851937108853092 0 0 0
178 1 51.23101161561973 7.074300612601918 1.4253359112752613 0 0 0
180 1 49.13215606693959 6.847332802241106 3.4017017505292038 0 0 0
177 1 49.40962976538041 5.100797250005044 1.1758653463107769 0 0 0
1841 1 49.02974216031328 4.34789111397021 4.716153318083038 0 0 0
1845 1 53.37014832651416 4.5546267249113415 4.78206385820462 0 0 0
181 1 53.268035120395204 5.265245532685246 1.162728346607509 0 0 0
183 1 55.39500988309056 4.800804929212864 2.9025720026875934 0 0 0
182 1 55.43402273809579 7.267116569271731 1.4292927740945687 0 0 0
184 1 53.372988108292574 7.0869490031558815 3.320293343517161 0 0 0
185 1 57.400132089763545 5.202894939823233 1.0942353172922712 0 0 0
187 1 59.39107145669516 4.728022864538378 2.9901981275446814 0 0 0
188 1 57.478807666444 6.563011778753927 3.4272592231717294 0 0 0
313 1 59.280885468416095 7.0540471207714885 1.3804084544293713 0 0 0
186 1 61.4560824776848 5.07210205419074 0.9715213227315814 0 0 0
191 1 63.451935780805115 4.664519870405661 2.9726555460157202 0 0 0
190 1 63.4958153961446 7.035767759732297 1.4027207049708563 0 0 0
192 1 61.23595825346926 6.666930090197753 3.3018751784434097 0 0 0
193 1 65.50642720283435 5.19512029988371 0.9107435040594605 0 0 0
195 1 67.59355447176192 4.786120724799976 2.994604452827187 0 0 0
194 1 67.48229110614754 7.1233608924746665 1.6092751325112236 0 0 0
321 1 65.51061052860219 6.7446988575917715 3.4264637764811283 0 0 0
1857 1 65.2238909586474 4.2930834827894735 4.978616081974983 0 0 0
1861 1 69.26876552620058 4.228973280011531 5.100899483841751 0 0 0
199 1 71.59734268610433 4.606360428829881 2.9998982341840983 0 0 0
198 1 69.62447292153213 5.195072125877027 1.0218653895907575 0 0 0
200 1 69.87774299631133 6.5362952529960925 3.4122024509497657 0 0 0
329 1 71.75838646830329 6.898536141075099 1.3015571349587418 0 0 0
203 1 75.78774461252567 4.5967927139135005 2.9028752769501915 0 0 0
204 1 73.83734484156507 6.532875965898129 3.4039698736774455 0 0 0
202 1 73.75695945527075 4.963859376345965 1.1146195299169888 0 0 0
333 1 75.72995210726688 7.009338940185115 1.4401509664023406 0 0 0
331 1 75.7093436949267 8.523881148436592 3.83449404972541 0 0 0
207 1 79.58234563144387 4.456680077984438 2.9004714484523895 0 0 0
208 1 77.67677036569053 6.642136992252188 3.3710513304673664 0 0 0
337 1 79.64704375330396 6.821391848591239 1.2859118569490373 0 0 0
206 1 77.83833012262255 4.753892174680904 1.0035773026863746 0 0 0
335 1 79.73368448863248 8.598686553324363 3.763606120536869 0 0 0
212 1 81.60242553408364 6.407980421986228 3.2914238728518956 0 0 0
210 1 83.5996169244944 6.662692773511833 1.3002017256156522 0 0 0
209 1 81.70409129142716 4.665875984592537 0.9194396638139262 0 0 0
339 1 83.80434755686402 8.351888788184986 3.5739494147462847 0 0 0
216 1 85.9340610504137 6.161694161203369 3.1127341962329385 0 0 0
214 1 87.82255402761837 6.73847477896929 1.4709151153999176 0 0 0
213 1 85.71708288067425 4.7055442560850524 1.0933558494367475 0 0 0
343 1 87.79283739462723 8.216554173768275 3.6789917957171596 0 0 0
220 2 89.63581459120081 6.328462972929195 3.295431682630484 0 0 0
217 1 89.85671024846752 4.412494263824121 1.1655148762400658 0 0 0
347 1 91.95631280667912 8.433693097649453 3.7346115164190237 0 0 0
218 1 91.81208298053258 6.793382049784215 1.6037037693181873 0 0 0
224 1 93.87811488364254 6.050813007146949 3.335597349753336 0 0 0
221 1 94.00007595376063 4.598139053266665 1.0019027700812075 0 0 0
346 1 94.17382512893884 8.57351008563929 1.9298174866627227 0 0 0
351 1 96.05495675165383 6.479853812542756 1.4071298941919417 0 0 0
225 1 98.08070582754513 4.354581285741043 1.0151138331268472 0 0 0
228 1 98.42572323153061 6.166164771555599 3.366076857042441 0 0 0
2017 1 96.24663545914453 7.913593659116728 3.4872977609967033 0 0 0
353 2 98.13542350678671 8.32177886768097 1.593426232089877 0 0 0
229 1 102.39402324856134 4.243156794545231 0.8730899841775174 0 0 0
226 1 100.41669293150947 6.242387942561661 1.3491535429980286 0 0 0
232 1 102.62840115650259 6.361391927646031 2.770423939461211 0 0 0
355 1 100.35677302984213 8.432248563452891 3.2550995611421683 0 0 0
1890 1 100.86628299538916 6.42146647402361 4.9800200730663216 0 0 0
357 1 102.27352566324014 8.367532821594454 0.9045253171182501 0 0 0
359 1 102.81306331594726 8.546568597533113 4.813454633400114 0 0 0
233 1 106.16397218801407 4.703838063044945 0.3042744249500325 0 0 0
230 1 104.22700289264617 6.589789007232869 0.6638194126434088 0 0 0
235 1 107.2544783819921 4.597408538682386 4.0153157608932855 0 0 0
234 1 106.74697427402059 6.63642182688523 2.086401707039158 0 0 0
236 1 105.00945422172104 6.744054863740721 4.300637184101009 0 0 0
363 1 106.9719353736229 8.607716471011535 3.973319535700276 0 0 0
3509 1 106.12557812067666 8.764534719819382 0.12091128237164862 0 0 1
237 1 108.58893276411395 4.63477901458601 1.691068572678852 0 0 0
239 2 111.06649920117583 4.691889025366125 3.00573095323172 0 0 0
238 1 110.55501453157147 6.758606358711555 1.434086873991074 0 0 0
240 2 109.01711215731417 6.65502007119472 3.6194432889181183 0 0 0
241 1 112.9283480839057 4.710599249970249 0.8548422515314963 0 0 0
243 1 114.88970730214935 4.494664209121075 2.384395248345151 0 0 0
244 1 113.01064095123436 6.647428723372225 2.86140795182045 0 0 0
1906 1 115.29364133423053 6.77892636726418 4.4239267585391975 0 0 0
1905 1 113.34121499403427 4.694548684624233 4.777305109150603 0 0 0
242 1 114.87130902168188 6.712524436746707 9.980796116013476 0 0 -1
247 1 118.73574467154768 4.9611382722935415 1.8859701507886566 0 0 0
1909 1 117.0736274223364 5.050735612195413 4.223905415200111 0 0 0
248 2 116.79425531932608 6.665630028296692 2.0654385535932835 0 0 0
1910 1 118.97557308177646 7.103313317462984 3.8576936785017577 0 0 0
245 1 116.64891386510502 4.492248409660399 0.17216975112037652 0 0 0
252 1 120.86990101005148 6.848100210264263 1.7948448641468535 0 0 0
250 1 123.15713620554035 5.45624953900347 2.1921472377296993 0 0 0
1914 1 120.97489578580112 5.520145185409173 4.108734201044281 0 0 0
2043 1 123.12136217004065 7.744439563175165 3.5110685587175032 0 0 0
3452 1 121.02109055831804 4.654439321456557 0.0778131973381761 0 0 1
256 1 125.11193926434663 5.818649284101302 3.839713515776426 0 0 0
254 1 127.21483509928159 5.577942093606346 2.067839183818255 0 0 0
381 2 125.1485411636544 7.355600697382637 1.6270193188349273 0 0 0
383 1 127.19812663308656 7.95472620259291 3.5899588435827186 0 0 0
3455 1 125.070416958372 5.17782216636393 0.08889705890023289 0 0 1
257 1 0.6925209381504244 9.313735373039817 1.495859805730488 0 0 0
259 1 2.792827752774188 8.964599174368693 3.4616019611698134 0 0 0
258 1 2.747236609797166 11.283060248642697 1.980004340030989 0 0 0
385 1 0.7245165001366273 10.84751328109358 3.821478337389379 0 0 0
3521 2 0.9098842812056632 11.739313196109753 0.10871933985568205 0 0 1
263 1 6.738171826356054 8.875294034192667 3.6429707839222245 0 0 0
261 1 4.673356639469572 9.235441228365293 1.5515426562473325 0 0 0
262 1 6.941454029749483 11.158767598131696 1.9408738599295583 0 0 0
264 1 4.905705498066158 10.890581989727785 3.8445851545080547 0 0 0
3523 1 4.761339395507204 11.706566173964571 0.09483184593939128 0 0 1
267 1 10.66859606633094 8.893948978058061 3.5561601842702926 0 0 0
268 2 8.768943568706549 10.923014242567035 4.008426289557415 0 0 0
265 1 8.678812495062457 9.106244622030445 1.6071277739472396 0 0 0
266 1 10.866572546839983 11.349199332387409 2.293404011972767 0 0 0
3525 1 8.787052288881831 11.745679726712345 0.08952472895902329 0 0 1
271 2 14.851673356359495 9.042023298501622 3.6739510283725223 0 0 0
270 1 14.813467012725985 11.450307670256047 2.1716800739634308 0 0 0
272 1 12.931638737857309 10.924059896467456 4.203006938185179 0 0 0
269 1 12.831584309489994 9.4114669321929 1.8209015678508236 0 0 0
3527 1 12.589999066686385 11.718912884504922 0.056863674750357585 0 0 1
275 1 18.914465149313138 8.885477123783199 3.6447244138501653 0 0 0
274 1 19.16974545188233 11.122308847574025 2.0176753131383256 0 0 0
276 1 16.86994866215971 10.83212014399761 3.935208901951203 0 0 0
273 1 17.04223967766172 9.224077867395636 1.8037002706102627 0 0 0
3466 1 16.929725870640876 11.652307239292062 0.20778228684474306 0 0 1
277 1 20.91654734939998 9.10708610418482 1.8154485544678178 0 0 0
279 1 22.976718149627025 8.774255783645295 3.6722710268145735 0 0 0
278 1 23.033115356925236 11.145372762696113 1.9395474848783385 0 0 0
280 1 21.061594373660547 11.012649536882524 3.8926783692919686 0 0 0
3531 1 21.017169465091555 11.620695283572617 0.28683222156366467 0 0 1
283 1 26.78319338530445 8.681998437332528 3.6836514012471686 0 0 0
282 1 27.098420020653883 11.170952257132779 2.0681959168951995 0 0 0
284 1 24.873867470104113 10.781783844925867 3.9894848689815174 0 0 0
281 1 24.844938094277367 9.210968288591001 1.7744959337453352 0 0 0
3533 1 25.018812753350478 11.744515867143768 0.09384040064391629 0 0 1
411 2 26.99021135123134 12.944722783274656 4.43988714747248 0 0 0
287 1 30.933164641995525 8.719628428255557 3.653419225906428 0 0 0
288 1 28.95385990300967 10.898211111199664 4.104782582062259 0 0 0
285 1 28.94304706160769 9.290328220234507 1.6352946448593888 0 0 0
286 1 31.198310498756214 11.198269686507883 2.2442240305316874 0 0 0
413 1 29.136522240159348 11.436647301357652 0.05839246004177369 0 0 0
2081 1 31.135250786898567 12.647273027980967 4.619176196197437 0 0 0
291 1 34.99278858754573 8.909695763012785 3.5980081032864493 0 0 0
290 1 35.20220666039116 11.268906562358973 2.1869703423763256 0 0 0
292 1 32.97398605336022 10.552084032531502 3.9431687561392152 0 0 0
289 1 32.90725620425629 9.131775434589661 1.8420821783780743 0 0 0
419 1 35.12011296818348 12.523852247673174 4.279355320045502 0 0 0
3537 1 32.972906217238446 11.416961056957684 0.24606225092660797 0 0 1
295 1 38.96837005059929 8.68142283882883 3.5142777904708433 0 0 0
293 1 36.93240937856231 9.1435135931214 1.6339072816049491 0 0 0
296 1 37.071476686292705 10.582621005092564 4.102658156447652 0 0 0
425 1 39.11201370312662 11.159597543858274 2.110040039766214 0 0 0
423 1 39.274741250829216 12.742776065936447 4.289193374588978 0 0 0
294 1 37.2657097839417 11.626386174438542 0.2756972025370801 0 0 0
299 1 43.36183993109294 8.752122796742741 3.688834146782993 0 0 0
297 1 41.18345554645131 8.866592084378176 1.671313162881418 0 0 0
298 1 43.184832555157335 11.113334326528474 1.8647152685211943 0 0 0
300 1 41.00814302759698 10.675601200142708 3.875487783590207 0 0 0
427 1 43.2826348809019 12.366852211887087 4.46696936611164 0 0 0
301 1 45.35199598152146 9.317066123835495 1.885379795910775 0 0 0
303 1 47.070444525212 8.807454969012834 3.5633708699950324 0 0 0
304 1 45.41433953312983 10.884809920950245 4.096747267171408 0 0 0
429 1 47.528981985946906 11.042128432637018 1.9208970001947252 0 0 0
431 1 47.347035044646994 12.725938975666264 4.205092854140367 0 0 0
307 1 51.431740659092306 8.929514586436797 3.9042229790007434 0 0 0
305 1 49.28417314732036 9.07178618515344 1.8646453797036744 0 0 0
306 1 51.38536088393103 11.248218111028738 2.1538651493320073 0 0 0
308 1 49.344722463960714 10.837626579352921 3.8784870655970183 0 0 0
435 1 51.5110717482236 12.783574251960715 4.293380485693221 0 0 0
302 1 49.48502304143571 11.558676445223103 0.2034353110658724 0 0 0
311 1 55.34646322444065 8.931179512358227 3.6888524551385595 0 0 0
309 1 53.34071432675115 9.359214331533916 1.7752653450402958 0 0 0
312 2 53.401738863127406 10.799235576890819 4.101100534715549 0 0 0
439 1 55.44300508580433 11.320694447767258 2.240835676643723 0 0 0
437 1 53.41486820788599 11.902378507494959 0.23802278778877398 0 0 0
2102 1 55.40312275593244 12.806661601059943 4.502989187724417 0 0 0
315 1 59.23058926204794 8.6426023036708 3.5666712680995687 0 0 0
310 1 57.451179169940474 9.163821302817777 1.78513597023115 0 0 0
314 1 59.52999399167429 10.923178642805352 2.0778652575737406 0 0 0
316 1 57.64269233786294 10.751504926366787 3.9679756222016715 0 0 0
441 1 57.53463657763816 11.710903224510032 0.1663477769805024 0 0 0
443 1 59.474948862338316 12.941365722488753 4.486265881848981 0 0 0
317 1 61.44489109881834 9.212233655409605 1.7274485671854616 0 0 0
319 1 63.31732317611855 8.832112739925977 3.920580186787067 0 0 0
320 1 61.29778325958098 10.908383668636729 4.045375747685456 0 0 0
447 1 63.47619372771169 11.109741110796032 2.2903575622287833 0 0 0
2110 1 63.43943909288384 12.689609630130706 4.356928425745283 0 0 0
445 1 61.568977525952754 11.580151362616851 0.23560111598601796 0 0 0
3487 1 63.47950397760941 9.416313278104413 9.817306384892948 0 0 0