ITEM: TIMESTEP
0
ITEM: NUMBER OF ATOMS
12000
ITEM: BOX BOUNDS pp pp pp
-4.2137779364158412e-01 2.7762377793641960e+01
-4.5024208784368902e-01 2.7791242087843653e+01
-3.4442201991397354e+00 2.2217222019913564e+02
ITEM: ATOMS id type x y z c_peratom fx fy fz 
242 2 5.56741 4.85947 2.23148 -24.0302 -0.901156 1.0741 -0.534627 
1201 2 5.35762 2.10567 -0.343456 -24.341 -1.16005 -0.372616 -1.63579 
1202 2 5.22975 2.4811 5.26348 -24.417 -1.95119 -1.52289 -0.133081 
2041 2 1.99833 4.99016 -0.232959 -24.2773 2.90204 1.28604 -3.46199 
2042 2 2.25288 4.97423 5.21287 -24.6681 -2.36626 -1.27192 -0.879433 
3002 2 2.44479 2.23792 2.34764 -25.8858 2.30397 0.675713 -1.08519 
4001 1 1.22705 0.662959 -1.95695 -7.51704 -3.3705 1.22642 -1.19386 
4002 1 1.47265 0.452576 3.35746 -6.90778 -1.5248 1.60664 -0.0177415 
5001 1 3.7882 3.64631 0.701841 -7.17715 0.574357 1.10071 -0.303787 
6001 1 3.29951 3.78402 -2.44659 -6.92515 1.2743 1.01378 1.10098 
6002 1 4.30461 3.64069 3.55498 -7.76785 -0.158743 1.3965 0.0100761 
9001 1 0.799627 3.69326 -1.69671 -7.4416 -1.78046 -0.21152 0.910904 
9002 1 1.45225 3.14035 4.04804 -7.02112 3.49846 0.12537 -0.0632954 
10001 1 1.1809 4.19502 1.43603 -6.96981 -1.18523 -0.784929 2.23045 
11001 1 3.68047 0.965665 -2.25894 -7.29455 1.04912 0.738144 0.798314 
11002 1 3.94319 1.02058 3.76956 -7.36776 0.412065 -0.219801 0.111817 
8001 1 3.91572 0.93653 0.788115 -7.26608 1.56312 -0.821705 1.06083 
4201 1 6.27678 0.447474 -1.8186 -6.58208 0.450317 5.0027 0.560948 
10201 1 6.55642 3.57243 0.705003 -7.82589 0.642235 3.50796 -0.460889 
4241 1 6.38464 6.2525 -2.29072 -7.56336 -1.67367 1.36292 0.342328 
9201 1 6.55127 3.55429 -2.23611 -8.22254 -0.411201 -0.87715 2.04499 
1002 2 -0.0524565 2.26335 5.1735 -25.3384 -4.64566 0.406577 -2.23724 
11842 1 -0.193303 5.00007 4.15242 -6.41216 -0.122661 1.66012 6.2875 
4041 1 0.938778 6.57805 -2.05077 -7.98646 0.61 0.803947 1.36368 
4242 1 6.56871 6.35019 3.70851 -7.86713 -2.11451 3.43725 0.145529 
8801 1 1.44451 1.50319 0.602634 -6.94252 -2.88478 -1.05215 -0.608246 
2001 2 2.63143 -0.434355 -0.739892 -25.5958 1.41383 -0.121909 2.99771 
241 2 4.94829 4.79774 -3.44232 -24.3015 1.77191 -0.537027 -0.60962 
2 2 -0.414212 -0.427057 2.24635 -25.0368 3.27015 -1.73134 2.28292 
7202 1 6.64525 1.22015 4.23374 -7.29824 1.02745 2.26244 -0.558 
9202 1 7.25759 4.13921 3.63521 -7.4669 -0.563146 -3.79809 0.257865 
7201 1 6.89346 1.09087 0.969177 -7.34473 -0.893772 -1.27575 1.19012 
4202 1 9.615 0.938415 4.20658 -8.47067 -0.0681755 -0.982651 -0.638564 
442 2 10.7938 5.07607 2.41446 -26.1019 0.647719 0.813416 -1.08382 
1401 2 10.7494 2.39047 -0.36473 -24.311 0.492527 -0.659122 -0.00619806 
1402 2 11.1483 2.01598 5.30152 -23.1374 -1.53798 2.11046 -0.0324327 
2241 2 7.87854 5.11964 -0.839936 -24.592 0.329558 0.947943 0.786677 
2242 2 8.28801 5.04963 5.43249 -24.0507 -0.329646 -0.437484 -2.46285 
3202 2 8.14808 2.20994 2.99961 -24.2825 1.60832 0.365814 -3.03775 
4401 1 12.3601 0.69874 0.905827 -8.51875 0.529931 0.74513 1.90383 
4402 1 12.7245 1.0656 3.79944 -9.44907 -2.82362 -0.222063 1.57916 
5201 1 9.38947 3.48791 1.49087 -7.18102 1.03274 -1.12625 -1.42204 
6201 1 9.41607 3.59701 -1.77181 -8.05287 -0.998356 -0.308435 0.798975 
6202 1 9.9399 3.68307 4.08845 -7.23349 -0.584431 -0.634987 1.4182 
8201 1 9.52291 0.476675 1.01636 -7.09811 2.39875 2.71149 2.01756 
9401 1 12.2043 3.95072 0.568902 -6.98155 -1.43879 -3.23925 -0.344319 
9402 1 12.5463 3.98133 3.46807 -6.96656 -1.06478 -2.42637 -0.980936 
11201 1 9.30991 0.783642 -1.74156 -8.22133 0.712484 1.38322 -1.41883 
10440 1 12.1418 3.98947 -2.41498 -7.49379 0.257531 -0.319717 1.02828 
11242 1 9.36409 6.43348 3.67556 -7.65522 0.0519879 0.685108 0.932802 
5441 1 12.3607 6.44431 0.643358 -5.76002 -1.10124 2.18329 1.57948 
7440 1 12.2228 1.27859 -1.82182 -7.30107 -0.698043 -0.423393 -0.238384 
2442 2 13.5146 4.99303 5.0379 -25.1369 1.54978 3.59119 0.501018 
8241 1 9.33496 6.32869 0.706428 -6.47224 0.696572 0.07817 0.245652 
11241 1 9.05116 6.38619 -2.20083 -6.94973 0.986956 -0.136893 0.224765 
2441 2 13.3905 5.22019 -0.886635 -25.5232 -0.56956 -0.145591 1.79182 
2201 2 8.05638 -0.306059 -0.332927 -25.4198 -2.17055 -2.80157 -0.689772 
3201 2 8.08338 2.28231 -3.23937 -23.965 -0.242883 -0.452716 -1.42883 
401 2 10.9562 -0.448198 -3.20039 -24.3239 -0.115144 0.283509 1.46007 
7401 1 15.2546 0.638997 0.817759 -9.16624 -0.201688 -0.281818 2.00256 
3402 2 13.8019 1.95233 2.26996 -23.1253 1.95452 4.45382 -2.88695 
642 2 16.2407 4.97669 2.05692 -24.7059 2.3555 -0.196645 2.30469 
1601 2 16.6228 2.11743 -0.279692 -25.4711 0.482017 2.09044 -2.02966 
1602 2 16.463 2.42789 4.96928 -25.3801 2.72368 -0.2026 1.41879 
2641 2 19.421 5.13823 -0.423931 -25.4377 -2.44259 -0.778148 1.20297 
2642 2 19.2114 5.12898 5.07484 -26.6471 0.176414 -1.86963 -0.431768 
3602 2 19.2646 2.1835 2.56914 -25.4148 1.83364 0.590059 0.0460284 
4602 1 15.0537 3.37993 3.61792 -7.83072 0.254343 1.11927 -0.269912 
5401 1 15.1045 3.52621 0.912314 -7.73039 0.316061 -1.31809 -0.158153 
6401 1 15.1016 4.13893 -1.8962 -6.38829 -2.71424 -0.117009 1.35025 
6402 1 17.9873 3.70886 3.52109 -6.74558 -1.73132 -1.3313 0.267749 
9602 1 17.5714 3.83355 -1.61249 -6.54182 2.89224 -0.053033 -0.622015 
10601 1 18.2119 3.4202 0.951243 -6.8952 -0.752908 1.1981 -0.79886 
11401 1 15.2967 1.11055 -1.86696 -6.85564 -0.744632 -0.917211 -0.773117 
11402 1 18.0497 0.849745 1.19164 -7.76697 -1.90539 -1.50536 0.506239 
7640 1 18.0355 0.793671 -1.48812 -7.40471 -1.22166 -0.252762 -1.38558 
11602 1 18.0712 0.796137 4.13935 -7.15871 1.4877 0.758035 -1.73207 
6562 1 15.5733 0.737355 3.65115 -8.51706 -2.06895 0.0321803 -1.32579 
8640 1 20.5513 0.855625 -1.73347 -8.20473 3.35057 0.703668 -0.849201 
4642 1 17.6088 6.23954 3.56804 -6.53348 -0.941054 1.7442 -0.663561 
8401 1 20.5456 0.756749 1.16621 -7.37238 1.12379 0.833669 -0.736346 
10602 1 20.6826 3.92049 3.87205 -7.11592 0.39331 -1.25976 -0.720717 
11601 1 20.5037 3.85115 -1.83164 -7.54558 0.210983 -1.40762 0.753767 
641 2 16.1785 5.55666 -3.07447 -24.8869 2.6046 -1.34129 -1.13393 
7641 1 17.5889 6.40663 0.856535 -7.71016 0.484872 -1.032 -1.14984 
5641 1 20.3629 6.48367 1.07915 -7.33731 1.36874 0.237093 0.674206 
3601 2 19.2112 2.76767 -3.17922 -24.6267 -1.68876 -0.971091 0.158878 
2402 2 14.0221 -0.354573 4.77095 -23.3053 0.662087 -3.08921 2.74841 
601 2 16.7976 -0.141952 -3.3742 -24.4787 0.810062 0.638553 2.55541 
42 2 27.6847 5.60302 2.29109 -25.7797 -1.7605 -1.17511 -5.04667 
41 2 27.6621 4.96475 -3.17566 -24.6639 6.53547 0.470397 -2.88697 
4601 1 21.1278 1.01804 3.87035 -7.03924 -1.89966 -0.320329 -0.0314165 
6601 1 21.0535 3.77055 0.989946 -7.07279 -0.79456 -0.482448 0.149675 
1001 2 27.743 1.98135 -0.474068 -24.3814 2.15623 0.345083 -2.5046 
5601 1 23.2551 6.42418 0.641031 -7.45791 -0.110401 1.38039 1.20386 
6761 1 23.6808 1.45206 -1.4717 -7.50636 0.586957 -1.69132 -1.76974 
8601 1 23.2863 0.999076 1.14942 -6.42438 0.67421 0.478506 -2.22678 
842 2 22.0319 5.21747 2.50991 -25.4046 -1.48055 -1.8931 -2.90261 
1801 2 21.9418 2.23082 -0.453426 -25.1642 0.522368 2.15743 2.02939 
1802 2 22.3672 2.42518 5.10241 -25.4199 -1.58271 -0.78908 1.45056 
2841 2 24.657 5.19319 -0.692882 -25.3972 0.949596 1.21565 1.72708 
2842 2 25.3086 4.60254 5.26167 -24.8071 -0.256057 1.59354 -1.46675 
3802 2 25.0741 2.52193 2.02944 -25.8188 -1.17847 0.127399 0.512309 
4802 1 23.7246 0.876857 3.56391 -6.5861 1.53552 0.506858 2.49133 
5801 1 26.5677 2.91686 3.56648 -5.91394 -1.7334 1.33219 1.44953 
6801 1 26.0744 4.35514 -2.18322 -6.97033 -5.32564 -3.84804 3.71399 
6802 1 23.3773 3.99864 3.87548 -7.82048 1.79434 -1.41707 0.544866 
7801 1 26.438 0.755044 1.02004 -8.46867 -0.969145 0.896316 -1.70994 
9801 1 23.1521 4.04569 -2.03518 -8.00171 1.05681 0.208095 -2.09338 
9802 1 23.7301 3.68541 0.453098 -6.556 0.0592523 -2.26957 2.28795 
10801 1 26.7215 3.30265 0.770174 -6.37851 -0.53022 0.946317 -0.790744 
11801 1 26.5281 1.51245 -2.24824 -6.57914 0.323873 -0.0350348 2.16229 
11802 1 26.6838 0.48187 3.80771 -5.97335 -0.0239498 0.0864283 1.34984 
11841 1 26.4915 6.11362 0.258245 -7.03727 1.67819 3.02975 -2.80213 
7841 1 25.3949 5.23077 2.26148 -5.40453 -0.837104 0.518639 2.39688 
801 2 22.1138 -0.345367 -3.21041 -24.2411 1.02624 0.75047 -2.18524 
11641 1 20.7253 6.50918 -1.5019 -7.58703 1.92855 0.899193 -2.79351 
2801 2 25.1083 -0.277341 -0.496445 -23.6204 -6.29308 2.63036 2.19974 
841 2 22.2309 5.55696 -3.26781 -23.5812 -0.947457 -0.561995 0.353824 
3801 2 24.4936 2.75329 -3.36673 -24.8608 2.41187 -2.28701 0.389091 
9042 1 1.47467 7.02445 3.79663 -6.94751 -1.07175 -1.7171 2.62999 
8041 1 4.34187 6.7343 1.79731 -6.17566 0.328379 -2.39017 1.36338 
11042 1 3.32957 6.68174 5.8454 -8.11205 2.4751 1.25134 1.18793 
1282 2 5.39518 13.4777 5.35712 -24.4605 -1.67001 0.361699 -1.96147 
7041 1 1.21087 6.91119 1.10949 -7.50846 -1.0359 -2.23359 -3.94834 
11041 1 3.50052 6.9158 -1.02446 -7.6634 0.70184 -0.85941 -1.08271 
282 2 5.18539 10.8424 2.28833 -24.1817 -0.64236 -0.430922 2.35729 
1241 2 5.44414 8.31954 -0.555669 -23.8162 -1.16701 -1.67921 2.80592 
1242 2 5.29438 7.80245 5.03413 -23.6471 -1.64384 0.238537 0.397329 
2081 2 2.35554 11.1427 -0.55894 -23.5903 -0.755874 -1.40213 -0.296596 
2082 2 2.27526 10.7287 5.00746 -24.1472 0.668264 0.294123 -0.710917 
3042 2 2.38051 8.20065 2.31407 -25.642 0.15976 -0.271101 -0.726235 
4081 1 0.781678 12.5197 -1.99061 -8.12353 1.33404 0.277417 0.108275 
4082 1 1.16177 12.5912 4.05018 -7.04107 1.71645 -0.751723 1.33405 
5041 1 3.79955 9.23334 1.20791 -6.82925 2.56671 3.34736 -4.2394 
6041 1 3.82912 12.2679 -1.95498 -8.50549 0.314971 -0.859978 0.845799 
6042 1 3.84339 8.95911 3.69367 -6.97309 0.437451 1.43622 2.78857 
7081 1 0.83374 12.8318 1.39347 -6.82217 -1.56025 -1.47865 -2.9073 
8081 1 3.41968 11.9574 1.18636 -8.27422 2.65752 1.52226 -1.30653 
9041 1 1.43192 10.1803 -2.41617 -7.41746 1.41866 -2.56355 0.512982 
10041 1 0.855653 9.60888 0.340082 -8.06965 -0.825361 1.10246 -0.350965 
11082 1 3.91065 12.3226 3.97778 -7.67807 0.982867 -1.53992 -0.175754 
10042 1 1.26633 10.0133 3.09651 -7.46157 -0.380974 -0.236856 1.05877 
5080 1 4.16686 9.54789 -1.73172 -8.68796 -0.653148 0.533291 -1.13777 
9242 1 6.40857 9.34376 3.99244 -7.82081 1.20434 -0.889955 -1.15448 
281 2 5.13296 10.8324 -3.41011 -23.6877 1.05018 2.57286 0.435661 
81 2 -0.303524 10.9931 -3.43565 -23.8014 -0.318462 -0.801171 -0.176837 
1082 2 -0.24186 13.4452 5.41767 -24.1253 -3.65425 2.55208 -2.63444 
3041 2 2.74332 7.83173 -2.83625 -23.1525 -0.677735 1.0789 -1.82424 
1281 2 5.04794 13.6481 -0.228522 -22.6036 -1.30553 -1.25821 -0.310349 
7241 1 6.79485 7.00924 0.477584 -7.85527 0.14075 -1.61274 1.07856 
4442 1 12.2657 6.62212 3.54938 -6.6601 -0.501795 1.43309 -0.666386 
4441 1 12.0494 6.78394 -1.86946 -7.45171 -0.935159 0.470272 -2.56146 
7281 1 6.70829 12.4578 0.788858 -8.20441 -2.99882 1.67287 1.23002 
10241 1 6.73638 9.85257 1.00662 -8.09431 -2.95552 -3.58797 3.74652 
4282 1 6.9382 11.8989 3.60704 -7.36998 -0.771638 1.19091 -0.310123 
9241 1 7.18905 9.42209 -1.42099 -7.57677 -1.46896 -2.48859 -2.40185 
4281 1 7.19792 12.1287 -1.95497 -6.66445 -0.85765 0.487825 -0.390954 
482 2 11.0287 10.7276 2.25596 -23.6326 0.95398 1.93588 3.34574 
1441 2 10.9017 8.22883 -0.622309 -24.5856 -0.801243 -1.13344 -0.921885 
1442 2 10.5796 7.98654 5.16082 -25.1306 4.40674 -2.97457 0.596733 
2281 2 8.05052 10.9331 -0.119219 -24.8634 4.01705 2.70135 -3.46355 
2282 2 8.08383 10.7194 5.20934 -25.1585 0.33048 0.618106 -0.0576344 
3242 2 7.62577 7.81339 2.46562 -23.5568 2.16643 0.725136 -0.58151 
4481 1 12.3784 12.7857 -1.47591 -9.01125 2.14538 0.771678 -1.19638 
4482 1 12.7355 12.069 3.95333 -6.73272 -1.22435 1.47706 1.41629 
5241 1 9.74849 9.65009 1.08124 -8.2541 -1.53746 -2.61981 -2.47598 
6241 1 9.69437 9.00322 -2.61598 -6.04962 0.802571 -0.599188 1.3431 
6242 1 9.16964 9.14784 4.07783 -7.7796 -1.2716 0.504823 -2.38414 
7481 1 12.7851 11.8198 1.35496 -8.58079 -4.42454 -0.98193 -0.764839 
8281 1 9.34372 12.4087 1.20076 -7.76372 2.69941 -1.91017 -3.55628 
9441 1 12.2677 10.0254 -2.45927 -7.63349 2.37511 -0.547367 1.49329 
9442 1 12.0233 9.63125 3.98108 -7.7831 0.535205 -1.86855 -1.14872 
10441 1 12.5295 9.22066 0.478379 -8.04631 -0.434127 1.25083 1.70396 
11281 1 10.0405 11.5018 -1.47172 -6.75349 -0.598963 1.84543 0.670134 
11282 1 9.91845 12.1811 3.58293 -7.00068 -0.44357 -2.03049 0.24407 
2482 2 13.6668 10.5745 5.48594 -24.9869 0.31176 1.31626 0.0442385 
2481 2 13.5812 11.2211 -0.464915 -23.6986 3.62738 -3.92678 -2.72429 
3281 2 8.10014 13.6627 -3.4091 -24.961 -2.07958 -1.75383 1.18144 
1482 2 11.0442 13.2755 5.01211 -25.4008 -0.810185 1.39477 1.20123 
1481 2 10.6747 13.5316 -0.365106 -23.6182 -0.892742 0.916191 1.23561 
3241 2 7.80244 8.14625 -3.32691 -25.2006 2.61152 -1.28753 0.369363 
3682 2 19.2614 13.5772 2.38441 -24.789 1.5643 0.558095 -0.467411 
6602 1 20.234 6.65019 3.84455 -7.00917 0.720303 0.535677 0.0565199 
11441 1 14.7834 6.89061 -1.59686 -8.17902 0.514521 -1.77199 -2.99503 
10401 1 15.0402 6.63899 1.20461 -7.87231 -0.394835 0.45022 0.572007 
3442 2 13.7789 8.20447 2.28551 -23.6683 -3.30002 -3.98369 1.08574 
7441 1 14.9935 6.76837 4.33284 -6.37072 -2.6211 -2.00867 -5.10791 
4641 1 17.9055 6.68719 -1.94182 -7.20481 -1.06805 -0.296613 -0.0750091 
11442 1 15.4115 9.50244 4.80138 -6.71798 -2.18896 1.28906 -3.44011 
8441 1 15.2295 9.56119 1.70548 -7.79338 -0.965562 -0.689659 -1.13675 
682 2 16.7093 10.7841 2.51849 -25.3352 0.900065 1.91291 0.3408 
1641 2 16.2043 7.81891 -0.332996 -24.4772 2.57028 2.96375 0.398124 
1642 2 16.5445 7.7975 5.22196 -25.6709 2.74131 -1.8276 0.288343 
2681 2 19.0547 10.9029 -0.771782 -25.7126 0.975899 -1.90014 1.36483 
2682 2 19.5378 10.6141 4.83039 -25.4014 -2.1144 1.81824 0.423391 
3642 2 18.9341 7.72539 2.15283 -25.7156 1.75755 0.13795 2.85511 
4681 1 18.0595 12.2847 -2.25208 -7.41583 -0.73057 1.07548 2.66238 
4682 1 18.0387 12.2275 3.52082 -7.20528 0.170884 -0.438078 -0.733782 
6441 1 14.7357 9.45252 -1.43569 -7.23851 0.91603 0.895289 -0.00525185 
7681 1 17.7616 12.1395 0.751616 -7.18415 3.07244 0.269784 -0.507412 
8481 1 15.3869 12.3405 0.80758 -6.66745 -2.33462 -0.221815 0.0172714 
9641 1 17.683 9.50402 -1.97389 -6.83101 -0.490382 0.25473 0.327566 
9642 1 18.1279 9.18999 3.77111 -7.33776 -2.15515 0.0634144 0.131213 
10641 1 17.8088 9.13472 1.06883 -7.1951 -1.63118 1.47568 -1.84829 
11481 1 15.353 12.223 -1.87444 -8.00269 -1.76449 0.0298195 -0.999547 
8681 1 20.5709 12.5369 1.00198 -6.86556 -0.192551 -1.21897 -0.820147 
6642 1 20.5582 9.58424 0.630108 -6.16657 0.693406 0.666031 2.14494 
8641 1 20.62 9.40778 3.33718 -6.51567 1.73091 -0.486315 0.571395 
6641 1 20.4596 9.17845 -1.66991 -6.91965 1.24986 0.440824 -3.48808 
3481 2 13.8513 13.5069 -3.11452 -22.2058 -2.1372 -2.19299 -3.21809 
11482 1 15.3207 12.2105 3.85623 -6.47388 0.724355 0.826349 -0.813652 
3641 2 19.5203 8.04736 -3.2391 -24.4948 -2.09151 0.837863 2.24451 
3441 2 13.7563 8.55839 -3.29484 -24.4686 -2.73617 -3.34455 1.75415 
3482 2 13.877 13.4262 2.009 -24.3303 1.93855 3.23272 4.54953 
1882 2 22.2815 13.2449 5.0118 -25.414 0.67557 2.98749 -2.07743 
11642 1 22.8301 6.78609 3.6341 -7.30613 4.84918 -0.54293 -3.19673 
4842 1 25.824 6.76025 4.58802 -7.02549 -3.68094 -2.13476 -1.4767 
881 2 22.4438 10.898 -3.36957 -25.2784 -2.86644 1.66014 -0.0716264 
1042 2 27.6468 7.35637 5.17912 -24.7875 2.72606 2.70023 0.763984 
1041 2 27.7261 7.95435 -0.410353 -23.4584 0.158574 -0.708448 0.575186 
3841 2 25.1955 8.40085 -3.32841 -23.8667 -2.46097 -0.889993 0.455755 
11681 1 20.7187 12.1216 -1.69794 -6.86972 -0.894773 -1.23939 -0.55662 
8841 1 27.2654 7.71852 2.33587 -6.45614 -0.838791 0.456091 -0.303257 
11682 1 20.8354 12.0417 3.74222 -6.92635 0.660954 -0.761734 -2.51129 
82 2 27.5683 10.7045 2.07445 -25.4023 0.616615 1.82308 2.92114 
4841 1 23.7564 6.90862 -2.017 -7.99093 -0.637465 -0.785383 -0.625159 
882 2 21.9851 10.8733 1.95177 -26.3005 0.469234 -0.497606 0.502592 
1841 2 22.0686 8.02247 -0.426071 -25.2923 -1.33684 0.262963 -0.207454 
1842 2 21.9046 7.73662 5.08865 -24.8081 -3.19639 2.16256 4.92634 
2881 2 24.8971 10.9691 -0.662421 -24.8906 -1.41337 -0.855901 0.939893 
2882 2 24.8314 10.7413 5.09692 -25.4262 0.707389 -2.18043 -1.34315 
3842 2 24.8038 7.84735 2.45729 -25.7782 2.11851 -0.241711 0.537248 
4881 1 23.6509 9.63629 -2.01186 -7.45077 0.768224 -0.410874 -1.41978 
4882 1 23.8415 11.9652 3.55123 -6.95525 -1.42705 1.16019 1.2297 
5841 1 25.955 9.78543 1.15936 -6.66135 -0.387221 -2.98696 -3.22999 
6842 1 26.1174 9.52919 3.88875 -6.03279 1.09628 -0.066831 0.588588 
8881 1 26.0222 12.216 0.666456 -7.41854 2.23341 2.4631 0.55195 
9842 1 23.4843 9.4271 3.02995 -6.17841 -1.51715 -0.182046 1.77557 
10841 1 23.3957 9.48689 0.407474 -6.62749 -0.434226 0.773004 1.28858 
11881 1 26.3175 12.3399 -2.03373 -8.23405 0.652885 -3.2592 1.11528 
11882 1 26.6736 12.2859 3.6784 -6.0817 0.26639 -1.00636 0.268212 
6841 1 26.6312 9.44486 -1.96514 -8.71263 0.112208 0.399655 0.817196 
9881 1 23.2928 12.592 1.023 -6.88316 -1.23718 -1.53243 -2.50286 
7920 1 23.3932 12.3332 -1.95442 -7.38322 1.81582 0.718572 1.4589 
3882 2 24.795 13.5789 2.18433 -26.2687 1.1127 -0.177408 1.41399 
8880 1 26.5453 6.72578 -2.90754 -7.1557 -1.1045 3.38311 -0.58231 
3881 2 25.422 13.5633 -3.43842 -24.4158 -5.06155 1.14259 -2.26224 
7242 1 6.48184 6.6035 6.49536 -8.35009 0.482252 0.0475392 1.34392 
11004 1 3.77091 3.2639 14.9445 -7.16206 0.51133 -0.00673745 1.26165 
5002 1 3.71393 3.66056 6.36226 -7.05953 -0.0343131 0.0677223 -1.02986 
243 2 5.75268 4.90784 8.23579 -23.6652 -3.19891 1.01895 -0.261908 
244 2 5.21791 5.23351 13.5261 -25.5645 0.890437 -1.26253 -0.647954 
1203 2 5.4314 2.35031 10.7706 -24.647 -1.53772 1.24201 0.690731 
2043 2 2.79653 5.04449 10.8316 -24.2772 0.834784 1.01224 -1.18009 
3003 2 2.30516 2.13289 8.06489 -24.3634 2.34525 2.65156 -1.69583 
3004 2 2.63935 2.01058 13.564 -25.0169 -1.21289 0.245538 -1.01814 
4003 1 0.818981 0.885427 6.47767 -8.47191 3.14702 -1.65825 0.526688 
5003 1 3.89814 3.33873 12.114 -7.8131 -2.27667 -0.773627 1.00999 
6003 1 4.16609 3.53285 8.86493 -7.14218 -1.14363 -1.72259 1.21762 
7002 1 3.82607 0.694901 6.47867 -8.46854 -0.462012 2.25878 1.26997 
7003 1 1.07782 0.500188 12.125 -7.9815 -0.588896 2.94518 0.828477 
8002 1 3.43716 0.855503 9.66499 -7.30112 3.26559 1.55736 -3.38108 
8003 1 3.77694 0.350489 12.1375 -6.86014 2.63095 1.04631 1.45637 
9003 1 1.03743 3.418 9.50582 -8.23165 0.584296 1.60517 0.757788 
10002 1 1.06519 3.70801 6.71231 -7.45686 0.374884 -1.05286 1.16829 
10003 1 0.788236 3.30973 12.7333 -6.70626 2.35982 0.51781 -0.565616 
11003 1 1.04238 0.820815 9.15627 -7.90588 -3.08868 -0.715933 1.31232 
4042 1 0.69332 6.30301 6.83726 -8.11791 0.601006 0.80093 -0.965618 
11203 1 6.30231 0.766092 9.6371 -7.3408 1.15917 -0.0462311 -1.02556 
10202 1 6.55306 3.72413 6.50584 -8.9404 2.43661 0.0243687 0.565227 
1003 2 -0.376473 2.09565 10.6437 -24.0894 0.952373 0.836238 0.930734 
44 2 -0.382883 5.12545 13.8341 -25.3467 0.224283 -0.191229 -1.25269 
43 2 -0.391973 4.92777 8.11128 -24.1654 2.96932 -2.17658 1.29165 
6004 1 3.6157 6.09186 14.8375 -7.06671 1.33805 0.431825 -0.32163 
4244 1 6.49159 6.4174 15.2492 -7.9653 1.09404 1.75592 -0.0954869 
9204 1 6.51083 3.88011 14.9369 -6.75199 -0.443663 -2.19839 2.06044 
8004 1 3.85698 0.428364 14.5819 -7.00927 -1.3213 2.86779 3.67887 
4043 1 1.38 6.433 9.57224 -7.29436 -1.29204 -0.184495 -0.70491 
4243 1 5.13485 4.88654 10.7557 -6.18308 1.47621 0.994151 -0.510562 
4004 1 1.11568 1.3443 15.0544 -7.43661 -0.641091 -1.0108 0.180183 
4204 1 6.58833 0.433363 15.2864 -7.74595 -0.868283 1.45507 -0.545699 
4 2 -0.128216 -0.387728 13.6522 -24.9915 -2.06255 -1.96939 1.28539 
4444 1 12.0559 6.24133 15.0333 -7.99195 1.81015 -0.234191 0.504698 
8042 1 6.83981 6.46143 9.38304 -8.73753 0.221122 0.568452 -0.626753 
11204 1 9.15125 0.916476 15.2248 -7.25715 -0.444146 -0.556082 -2.589 
7203 1 6.71086 0.942952 12.3307 -8.37729 -0.152154 -0.29764 -0.0330377 
10203 1 6.88735 3.71879 12.4825 -7.3386 -0.979555 -0.0744945 -2.84846 
9203 1 7.08183 3.59214 9.38344 -8.88471 0.126358 -1.94281 0.0756636 
8202 1 9.81541 0.954727 9.66156 -7.31611 -1.79745 0.564924 0.237899 
4203 1 6.85998 0.765265 6.80946 -7.23209 -2.19266 1.2213 1.04899 
11202 1 9.3848 0.645294 7.01305 -7.80218 2.36723 0.00171201 -2.08536 
7402 1 12.6116 0.785215 6.78549 -8.95503 -2.32618 -1.33444 -3.27492 
443 2 11.153 5.02583 7.87367 -26.2748 -2.07134 1.17471 2.52031 
444 2 11.052 5.03758 13.3988 -25.1457 -1.22149 0.0941642 0.805341 
1403 2 10.9371 2.4287 10.9041 -25.4712 0.337137 1.16746 -0.972738 
2243 2 7.95134 5.01485 10.8979 -25.2607 2.26616 1.51677 1.22711 
3203 2 8.15219 2.21002 7.97689 -23.8833 0.746174 -0.94229 0.810107 
3204 2 7.9998 2.20731 13.5683 -24.7028 1.6468 1.50216 2.23503 
4403 1 12.5085 1.41245 9.61018 -6.73698 -0.469921 0.692316 -1.01798 
5202 1 9.69665 3.39547 6.87604 -7.73994 -1.32268 -0.00144938 -1.02294 
5203 1 9.58279 3.67071 12.3856 -7.36145 0.26981 -1.31491 -1.32945 
6203 1 9.74231 4.06182 9.58146 -6.36411 -0.801521 -2.11496 0.778913 
7403 1 12.3413 1.11498 12.4647 -8.0705 -0.0255163 -0.193275 0.210742 
8203 1 9.60822 0.859672 12.3473 -8.66891 -1.07991 0.464309 0.287486 
9403 1 12.3763 3.77557 9.2475 -6.34363 1.14721 1.52446 -1.78988 
10402 1 12.3081 3.53103 6.43498 -8.83332 1.6425 0.171133 -0.895024 
10403 1 12.4526 3.94549 11.7865 -7.92622 -2.15003 -2.46549 4.9253 
8242 1 9.40788 6.21413 6.82211 -7.55119 -1.53273 1.27295 -1.49446 
8243 1 9.68553 6.3594 12.2849 -6.84852 -0.436047 0.417841 -1.26027 
11244 1 9.48547 6.25172 14.9637 -7.88841 -1.20261 0.654294 2.47867 
9404 1 11.9976 3.33676 14.8245 -7.18694 1.85787 1.27504 -2.82341 
2403 2 13.6552 -0.00474332 10.669 -25.1745 5.42174 0.258746 6.22793 
6204 1 9.21213 3.4434 15.0579 -6.87759 -1.44573 2.08215 0.000302932 
7442 1 11.9729 6.26755 6.28338 -6.46305 0.707857 -1.34377 -1.27187 
11243 1 9.59125 6.60863 9.33156 -6.35109 -0.0109356 2.16064 1.64385 
4443 1 12.5794 6.58259 9.19158 -6.32729 -1.13009 -0.100814 -0.241946 
404 2 10.8526 -0.415289 13.595 -24.0468 2.0906 -0.445222 2.79868 
403 2 11.0947 -0.416546 7.96085 -24.3994 -1.1425 0.0137019 0.13949 
8602 1 20.6629 0.996747 6.84167 -5.73922 1.83786 -0.345189 -1.23938 
4604 1 17.5592 0.958331 15.0934 -7.52676 0.094069 -0.351988 -0.947717 
6404 1 15.0695 3.87481 14.5071 -8.94551 -0.832379 0.0696141 5.33921 
2603 2 19.5947 -0.0919245 10.8124 -24.9194 -1.26715 -4.48335 -0.519762 
604 2 16.6517 -0.390011 13.5924 -24.3903 -2.22525 -1.48303 -0.132653 
2443 2 13.815 5.0767 10.791 -24.5315 -0.14947 3.1559 -4.32009 
3404 2 13.9169 2.43647 13.525 -23.4054 -2.67859 -2.57775 -2.15485 
3403 2 13.6715 2.34005 7.69556 -24.203 3.52938 1.79071 4.73068 
7602 1 18.1752 0.629917 6.92738 -5.6912 -1.42752 -0.0758151 0.780931 
8402 1 15.4205 1.19604 6.60233 -7.79291 -1.53775 0.451726 -1.26255 
643 2 16.2092 5.2535 8.09106 -24.6702 3.11067 1.15485 -3.32815 
644 2 16.6707 4.95285 13.63 -23.8411 1.72391 2.61224 -1.1666 
1603 2 16.5902 2.55051 10.7927 -25.4555 0.277749 -0.362162 -1.55423 
2643 2 19.2901 5.13795 10.6931 -24.1209 0.830615 0.722907 0.298077 
3603 2 19.4921 2.52611 8.10365 -26.0991 0.0637705 -2.81855 -1.98637 
3604 2 19.3169 2.38969 13.7774 -24.8976 -1.52242 2.0272 -0.568565 
4603 1 18.3888 1.30245 9.90199 -6.46961 -1.7313 2.27401 -3.38726 
5402 1 15.2991 3.99296 6.37475 -7.46895 -2.33938 -0.244446 -0.262362 
5403 1 15.2276 3.97272 12.083 -8.426 0.660103 0.0868377 -1.19737 
6403 1 15.1904 3.7388 9.13713 -7.70404 -0.906036 -0.791135 1.69126 
7603 1 17.8875 1.59522 12.231 -7.03928 0.330801 -3.93022 3.97652 
8403 1 15.1439 1.16293 11.923 -7.20986 -0.536708 1.45728 3.47846 
9603 1 18.0971 4.07201 9.25474 -8.42696 -0.866492 -0.0077008 -0.965062 
10603 1 18.07 4.06047 12.1266 -7.59818 -1.69247 0.954504 0.564619 
11403 1 15.5448 1.10339 9.48535 -6.58742 -0.896767 -1.97591 -2.75069 
7642 1 17.9881 3.47579 6.15635 -6.45859 1.45631 -0.367546 1.84787 
5603 1 20.6519 3.37819 12.4543 -7.13493 2.83169 0.447269 -1.2119 
11443 1 15.0909 6.44129 9.5014 -7.21183 0.731203 -0.175962 1.43365 
10642 1 17.8991 6.22772 6.28196 -6.72991 -3.10882 2.26734 2.48892 
11404 1 14.7595 0.707536 14.8783 -8.24843 0.325519 1.68908 -0.0497387 
4644 1 17.8549 6.09284 15.1824 -8.05295 0.576241 -0.344087 -0.38875 
9604 1 18.0206 3.54781 15.141 -7.6337 -1.60135 0.153713 0.13084 
8642 1 20.4048 6.30739 6.73485 -6.2157 0.56779 1.70185 -0.673524 
11604 1 20.3346 0.830195 14.5979 -7.27352 2.09654 -3.09453 3.15567 
5602 1 20.9993 3.84346 6.62526 -6.62984 -0.402637 -1.88801 -0.472514 
3 2 27.7208 -0.244713 7.91975 -24.5285 -0.252192 -4.53222 -0.256688 
6603 1 21.0554 3.63246 9.32135 -7.62808 -2.06959 0.878281 2.19049 
8643 1 20.8021 6.12718 11.7788 -6.90185 0.513587 -0.129243 1.77981 
11804 1 26.3185 0.622596 14.9043 -7.32178 0.573705 0.806043 -2.09948 
8802 1 26.3008 0.608414 6.52104 -6.52041 -0.771473 1.97842 -0.027539 
5802 1 26.6553 3.32959 6.41563 -7.49474 -0.832796 -0.741866 1.18698 
8603 1 21.1155 0.517426 12.1147 -6.86276 0.119335 1.74781 0.453299 
11603 1 20.9136 0.938935 9.47817 -6.16817 0.0725279 0.800132 -0.842099 
843 2 21.9765 5.16242 8.12437 -25.7858 1.77645 0.793416 -1.22852 
844 2 22.3543 4.77154 13.5287 -25.7538 -1.95715 1.7915 -0.0853902 
1803 2 22.4559 2.08471 10.83 -25.3733 -1.88682 1.79043 0.190063 
2843 2 25.4012 5.21928 10.9142 -24.2198 -4.79057 -3.47875 0.904898 
3803 2 25.0563 2.33583 8.03007 -25.1078 -1.57813 -1.90467 -0.586986 
3804 2 25.365 2.11676 13.3005 -24.1673 -1.06553 1.36467 2.44546 
4803 1 23.3953 0.796381 9.4518 -6.92504 3.70654 -1.49306 -0.617817 
5803 1 26.5479 3.66405 12.0454 -7.69885 -0.942628 -0.249831 -0.524979 
6803 1 26.4466 3.55144 9.23273 -8.31808 1.23041 -0.116473 1.65064 
7802 1 23.4551 0.900844 6.52146 -6.87509 0.400061 0.248502 -0.698637 
7803 1 23.6325 0.705155 12.3952 -7.97668 2.99108 1.84533 -0.536151 
8803 1 26.6135 0.861939 11.9558 -8.16998 -1.65153 -0.346677 0.891057 
9803 1 23.7771 3.54732 9.57567 -6.41357 0.635166 -0.253669 -0.157718 
10802 1 23.8745 3.70398 6.80522 -7.40712 -0.469029 -0.237423 -1.94585 
10803 1 23.7541 3.84956 12.1827 -7.4743 0.899296 -2.23876 -0.192123 
11803 1 26.2792 0.606882 9.25092 -8.10954 -0.487435 3.61447 1.04419 
8842 1 26.1339 5.73347 7.25639 -7.15237 -3.18864 2.41424 -1.81205 
4804 1 23.3463 0.854836 15.3301 -7.13108 -0.219494 -1.69509 -1.12171 
9804 1 23.497 3.50935 14.9757 -6.37814 0.661049 -1.97825 0.18251 
4844 1 23.7591 5.90432 14.7282 -6.2284 0.398312 3.04183 1.61513 
8843 1 26.4354 6.46705 12.3741 -7.69966 -0.462938 0.34804 1.0924 
7842 1 23.1465 6.49858 6.81966 -6.54641 0.837045 -0.027744 0.36291 
4843 1 23.35 6.42142 9.7546 -7.44577 2.50847 -0.0430837 -2.70536 
11844 1 26.3378 6.33939 15.2905 -7.60362 1.2141 -0.292238 -1.3661 
6804 1 26.5762 3.53151 14.9075 -7.34742 -2.77423 -0.591166 -0.777944 
6604 1 20.8019 3.70053 15.2822 -7.26933 -0.196938 0.468971 0.060272 
11043 1 3.93633 6.71408 9.03865 -8.11399 0.145543 0.57857 -2.14032 
4084 1 0.351692 12.9833 14.4003 -6.73045 1.65481 -0.00990758 0.551151 
3084 2 2.51621 13.6472 13.6446 -24.747 -2.9553 1.05997 -0.337659 
3083 2 2.58424 13.3634 8.04274 -24.6515 -1.09919 3.54242 0.750882 
4284 1 6.02489 12.1803 15.1068 -8.35308 3.87724 -1.50863 -1.40469 
7043 1 0.993548 6.7177 12.3372 -7.14127 -0.457829 -1.27183 -0.00204522 
8043 1 3.81105 6.66997 12.087 -7.55725 -0.0576068 1.03957 0.317977 
7082 1 0.665578 12.031 6.62342 -8.11187 1.97489 -2.37643 0.149399 
7042 1 0.902296 8.87562 6.30178 -8.19393 0.361744 2.39353 0.0555551 
8082 1 3.84999 12.1117 6.82504 -8.44509 -1.24922 2.342 -1.91163 
283 2 5.14375 10.7311 7.61905 -22.8896 3.95413 -0.0104164 3.08828 
284 2 4.70626 10.9023 13.9362 -24.8954 1.20289 -2.81492 -2.49602 
1243 2 5.27544 7.86949 10.252 -23.3574 0.0961832 -0.706089 3.86075 
2083 2 2.45027 10.6338 10.519 -24.1384 -0.316411 2.23554 2.36312 
3043 2 2.2578 7.72928 7.65216 -23.2991 0.0918332 -1.04576 0.640665 
3044 2 2.22661 8.06747 13.4829 -25.1283 0.00830173 -0.121675 1.89591 
4083 1 1.18751 12.0366 9.08838 -7.70131 1.31863 -0.158091 1.6305 
5042 1 3.81772 9.63229 6.39547 -8.2183 -1.33328 -3.01788 -0.0164418 
5043 1 3.27374 9.68979 12.4312 -7.76424 1.22216 0.155769 -0.191487 
6043 1 4.31287 9.74315 9.49565 -8.68485 -1.57175 -0.99601 -1.17408 
7083 1 1.35653 12.3012 11.9857 -6.88954 -0.333741 -1.33176 -1.14448 
8083 1 4.07259 12.6067 12.6332 -7.37009 1.87057 0.355704 -0.981713 
9043 1 0.976918 9.38805 9.37615 -8.71641 0.980339 -1.50938 -1.70204 
10043 1 0.606562 9.59806 12.1696 -7.19517 -0.0956807 -0.924386 -0.627728 
11083 1 4.12601 12.552 9.68591 -7.35632 -0.273196 -0.249835 -0.727295 
10243 1 6.34536 9.97799 12.5108 -5.49071 -0.636659 -0.000458036 -0.79242 
1283 2 5.78713 13.5965 10.9641 -24.779 -0.440228 -1.46266 -0.394351 
9044 1 1.3121 9.92066 14.9731 -7.39675 -2.23077 -0.234227 -2.38432 
1083 2 -0.230398 13.2562 10.6506 -25.533 1.47173 0.96256 0.616709 
9244 1 6.57881 9.45351 15.0319 -7.35295 -0.506885 -1.70429 0.224147 
84 2 -0.378513 10.9673 13.7176 -25.403 0.646661 -1.25 -0.522513 
11044 1 1.21254 7.03284 15.2353 -6.63546 -1.90003 0.324742 -0.453235 
11084 1 3.13119 12.2425 15.1582 -8.53437 1.1261 -0.779424 0.901681 
6244 1 9.28397 9.13899 14.9199 -8.1238 1.83307 0.855726 1.09036 
9444 1 12.3242 9.16148 15.0673 -8.09913 -2.19454 -1.05042 -0.266162 
7443 1 12.4064 6.6541 12.0765 -7.38083 1.29899 -0.85803 0.67313 
9243 1 7.03681 9.11905 10.0079 -7.40532 0.00347691 -0.864313 -2.3534 
7283 1 6.95612 12.5924 12.5343 -6.69101 -1.12447 -1.5399 -1.8489 
4283 1 7.19803 12.1504 9.5024 -7.43587 -1.41133 -0.346479 0.972069 
3284 2 8.282 13.5386 13.8529 -24.791 0.810599 2.38782 -1.08931 
7243 1 6.93854 6.63044 12.5684 -7.42512 -2.93072 -1.85565 -2.85893 
10242 1 6.85468 9.62234 6.8134 -7.88662 -0.236825 -3.47625 0.887839 
7282 1 6.80563 12.0704 6.49154 -7.98849 -1.26451 1.61408 0.532947 
8282 1 9.68581 12.0347 6.41818 -7.34275 -0.20725 -1.42406 -0.87285 
483 2 11.0599 10.7225 7.90094 -25.2229 -2.10734 -2.13427 1.52265 
484 2 10.7118 10.5866 13.8579 -24.5242 2.77542 -0.508569 -1.3472 
1443 2 10.8071 7.99933 10.7774 -25.849 1.40887 -0.753755 -0.505989 
2283 2 8.15956 10.6927 11.0787 -25.2268 -2.32848 -0.516395 -0.471089 
3243 2 8.10746 7.92424 8.14971 -24.6983 2.67935 1.03013 -0.174196 