LAMMPS data file via write_data, version 18 Jun 2019, timestep = 30000

320 atoms
4 atom types

0.0000000000000000e+00 1.8228500000000000e+01 xlo xhi
0.0000000000000000e+00 1.4582800000000001e+01 ylo yhi
0.0000000000000000e+00 1.4582800000000001e+01 zlo zhi

Masses

1 58.933
2 58.69
3 51.96
4 55.847

Atoms # atomic

1 3 3.1857578989537484e-02 1.8723871231018028e+00 1.8200462096410124e+00 0 0 0
2 3 3.8351665452077488e-03 2.6441907674067740e-02 1.4451986123777083e+01 0 0 -1
3 1 1.9019206945959195e+00 1.1264368659848008e-01 1.8706440229773753e+00 0 0 0
4 4 1.9485062586252331e+00 1.7239571100033120e+00 7.4080495389807766e-03 0 0 0
81 2 1.8214861510375009e+01 1.7882804103521561e+00 5.5382159983854020e+00 -1 0 0
82 1 1.8176438462337341e+01 1.4555436316946601e+01 3.7078957820955885e+00 -1 -1 0
83 1 1.9129422078917577e+00 1.4353535044073853e+01 5.5178429491844803e+00 0 -1 0
84 3 1.8817174322680459e+00 1.8241657852621571e+00 3.8144273571276033e+00 0 0 0
161 2 6.7264525563319091e-02 1.6692552401577359e+00 9.0850625108372629e+00 0 0 0
162 1 4.6269311907379415e-02 1.4527379473424237e+01 7.2895329177464872e+00 0 -1 0
163 2 1.8412618635072202e+00 1.4497568265108214e+01 9.0948745189603084e+00 0 -1 0
164 4 1.8943993485586224e+00 1.6157312898091902e+00 7.2596871836820558e+00 0 0 0
241 2 8.9858816306418940e-02 1.8721396920812652e+00 1.2815697451761725e+01 0 0 0
242 1 3.9002708321548868e-02 5.7633848391393405e-02 1.0965137023679448e+01 0 0 0
243 1 1.7632660704820584e+00 1.0712386540801208e-01 1.2670908542368970e+01 0 0 0
244 4 1.8016336956869230e+00 1.7921671375733184e+00 1.0804545473762639e+01 0 0 0
21 2 2.8601547435765304e-03 5.6862573292856533e+00 1.8121072791714339e+00 0 0 0
22 2 1.8152375076647147e+01 3.7034014120574512e+00 1.4552537049815182e+01 -1 0 -1
23 3 1.8913261705840212e+00 3.6167362085061749e+00 1.8360039154482957e+00 0 0 0
24 3 1.9254518330502211e+00 5.4877976934904273e+00 1.4566003707236975e+01 0 0 -1
101 2 1.2814684545695179e-01 5.5337678709151650e+00 5.5150500524445603e+00 0 0 0
102 3 1.0438458424735715e-01 3.6995838374955139e+00 3.7285640140451455e+00 0 0 0
103 4 1.9172363997320325e+00 3.6605799946547726e+00 5.5419555869378021e+00 0 0 0
104 4 1.7726575205154305e+00 5.5834893417432987e+00 3.6249655421468900e+00 0 0 0
181 2 1.4931439253328408e-02 5.6120479818989999e+00 9.0716368306864759e+00 0 0 0
182 3 2.6736795594066853e-01 3.6504198996711361e+00 7.2906093300524422e+00 0 0 0
183 2 1.8374543691159033e+00 3.7596911271073101e+00 9.1622663883424185e+00 0 0 0
184 4 1.8068351938619087e+00 5.4327274267225318e+00 7.3503464696326954e+00 0 0 0
261 3 1.8137550917477640e+01 5.6149756781662283e+00 1.2807489381464968e+01 -1 0 0
262 3 1.8111491130049476e+01 3.6238253181144322e+00 1.1046465311328255e+01 -1 0 0
263 3 1.7540131398127656e+00 3.5822161837778155e+00 1.2860369372494308e+01 0 0 0
264 4 1.7659129972183236e+00 5.5847811191084347e+00 1.0795595084619382e+01 0 0 0
41 1 1.8186987330344145e+01 9.2809433291845824e+00 1.7221347380684724e+00 -1 0 0
42 2 4.3778857105309044e-02 7.3432249500243740e+00 1.4532150695901406e+01 0 0 -1
43 4 1.8009893809704358e+00 7.4161812526212412e+00 1.9003618028244531e+00 0 0 0
44 4 1.8939822158967867e+00 9.0813640966714626e+00 1.4489915965055543e+01 0 0 -1
121 1 1.8198342613856120e+01 9.1429337177900170e+00 5.4691090775248243e+00 -1 0 0
122 1 1.8177098529123974e+01 7.2368683165069694e+00 3.6355986826096038e+00 -1 0 0
123 1 1.7181916179957308e+00 7.3949202332233543e+00 5.4054353883658832e+00 0 0 0
124 4 1.6312908651030589e+00 9.2686631463324236e+00 3.6234620858803224e+00 0 0 0
201 1 1.8057383253380557e+01 8.9865382703389791e+00 9.1105555649961723e+00 -1 0 0
202 1 1.8160435994371156e+01 7.2113562444850929e+00 7.2580370897600668e+00 -1 0 0
203 2 1.8334032922263650e+00 7.3278716676863409e+00 9.0143203450530311e+00 0 0 0
204 4 1.6818632740120230e+00 9.1920267123859727e+00 7.2711143657581028e+00 0 0 0
281 2 4.6300438858051851e-02 9.2307590230324781e+00 1.2854620573639307e+01 0 0 0
282 1 1.8114434307075655e+01 7.2603237923289816e+00 1.1008311059106832e+01 -1 0 0
283 1 1.8155991530313085e+00 7.3045651753986727e+00 1.2752166276677176e+01 0 0 0
284 4 1.7506804317607685e+00 9.0156920627465151e+00 1.0908362771667401e+01 0 0 0
61 3 1.5001680259996367e-01 1.2808995304971640e+01 1.7304824575360762e+00 0 0 0
62 1 1.8213719740375151e+01 1.0939518970897382e+01 1.4570572477434961e+01 -1 0 -1
63 2 1.8419845507275863e+00 1.1095003828582586e+01 1.6867086054562888e+00 0 0 0
64 4 1.8726445461014292e+00 1.2730128623949099e+01 1.5110209173611722e-02 0 0 0
141 3 1.5339178673235737e-01 1.2775389333043467e+01 5.4506835006773837e+00 0 0 0
142 2 1.8193667221593163e+01 1.0950775745522055e+01 3.6102744359067409e+00 -1 0 0
143 2 1.6809157061839173e+00 1.0847023390740802e+01 5.4067423432761430e+00 0 0 0
144 4 1.8794861149034683e+00 1.2704434543345258e+01 3.6648100735253379e+00 0 0 0
221 1 5.6513406930698819e-02 1.2585979371741569e+01 9.0743025315697565e+00 0 0 0
222 2 9.7568720959350250e-02 1.0938428089233295e+01 7.2689150944560472e+00 0 0 0
223 2 1.8506693505947824e+00 1.0833712549778109e+01 9.1607743757870477e+00 0 0 0
224 4 1.9913880546656080e+00 1.2789635523871324e+01 7.4537107163506375e+00 0 0 0
301 2 3.7008579213544841e-02 1.2682233803095823e+01 1.2807249686781109e+01 0 0 0
302 2 1.0909636177656544e-01 1.0799404880564881e+01 1.0966109173839095e+01 0 0 0
303 1 1.7958265139227430e+00 1.0865848187149387e+01 1.2710812581809918e+01 0 0 0
304 4 1.8614360673831303e+00 1.2756389640260513e+01 1.0962234217143314e+01 0 0 0
5 1 3.5548587169021553e+00 1.7904137287066300e+00 1.9703932839139047e+00 0 0 0
6 1 3.7941404116103477e+00 1.0563176768417706e-01 1.4566795514370606e+01 0 0 -1
7 4 5.3485552387475401e+00 1.4547826145485473e+01 1.8811579939615597e+00 0 -1 0
8 3 5.3392838754658634e+00 1.7702754045726916e+00 1.4560942377967336e+01 0 0 -1
85 1 3.7331368790570378e+00 1.8608488705191590e+00 5.4217374152524016e+00 0 0 0
86 2 3.5742866222211611e+00 1.4395040299643062e+01 3.8093214314303245e+00 0 -1 0
87 3 5.6078661793044482e+00 1.4439046325671425e+01 5.3858234957653348e+00 0 -1 0
88 4 5.4148719972688095e+00 2.0087445828791104e+00 3.6675624668478295e+00 0 0 0
165 4 3.6296847585066292e+00 1.6731421264482584e+00 9.1229258884149527e+00 0 0 0
166 2 3.9045062144972906e+00 1.4497071939589395e+01 7.2533863704168358e+00 0 -1 0
167 2 5.5070304997534505e+00 4.4517934288088597e-02 9.1432182161375444e+00 0 0 0
168 4 5.4555572061704698e+00 1.8575309313104664e+00 7.3716881785384132e+00 0 0 0
245 1 3.6444891476286343e+00 1.8305707245897511e+00 1.2745184601975017e+01 0 0 0
246 1 3.6997108199176996e+00 1.4572307963963604e+01 1.0989207384271136e+01 0 -1 0
247 2 5.4014290297698118e+00 1.4532089341256290e+01 1.2661190089573591e+01 0 -1 0
248 4 5.4501628629934578e+00 1.9000513484100208e+00 1.0939963917903716e+01 0 0 0
25 4 3.6863396298656825e+00 5.4495315057072258e+00 1.7375811988971352e+00 0 0 0
26 2 3.6577945437389912e+00 3.6215280211607634e+00 1.4582063759201645e+01 0 0 -1
27 2 5.3554070010625852e+00 3.7107964869669146e+00 1.7256679676771525e+00 0 0 0
28 3 5.4034463523440763e+00 5.4098083484930477e+00 1.4549660790768563e+01 0 0 -1
105 1 3.6039929352044378e+00 5.5483832852753743e+00 5.4888127757872889e+00 0 0 0
106 2 3.7233180117820655e+00 3.6966900340658815e+00 3.5942142819228304e+00 0 0 0
107 4 5.3277027327700734e+00 3.6212018909952737e+00 5.5111413924068353e+00 0 0 0
108 4 5.5366637576451394e+00 5.6015414717265468e+00 3.5379391039890593e+00 0 0 0
185 1 3.6942598316616317e+00 5.5564778607069893e+00 9.1500390497052084e+00 0 0 0
186 1 3.5871092646828382e+00 3.6519118311002416e+00 7.3382170573094108e+00 0 0 0
187 2 5.3545745510986036e+00 3.7548314151546256e+00 9.1845962293681840e+00 0 0 0
188 4 5.5340290830528103e+00 5.3479008122127363e+00 7.2214995862911442e+00 0 0 0
265 2 3.6173092163981369e+00 5.5301344865065305e+00 1.2674619695710835e+01 0 0 0
266 1 3.4291353378393610e+00 3.6988569100926685e+00 1.1024986528713622e+01 0 0 0
267 3 5.2289553751913651e+00 3.6717712958382385e+00 1.2724536663447090e+01 0 0 0
268 4 5.4901820725366681e+00 5.3575295022380800e+00 1.0829689263990140e+01 0 0 0
45 1 3.6448207887099877e+00 9.1608299139210239e+00 1.6900056834654014e+00 0 0 0
46 4 3.6718624814438909e+00 7.2934724523632246e+00 1.4465669405715595e+01 0 0 -1
47 2 5.2673443680822665e+00 7.2722476554665878e+00 1.8187656235277048e+00 0 0 0
48 4 5.5935035467150076e+00 9.2849457760646352e+00 2.2674438378480221e-02 0 0 0
125 1 3.5708144653261096e+00 9.0505032521032280e+00 5.5232040215861122e+00 0 0 0
126 1 3.6637244507592603e+00 7.3463992830128264e+00 3.6981023025912849e+00 0 0 0
127 2 5.5275130555499290e+00 7.2434658506826297e+00 5.4898645153153875e+00 0 0 0
128 4 5.4854541685157550e+00 9.0581689739137534e+00 3.5030460828669252e+00 0 0 0
205 1 3.5846632319077196e+00 9.0946237149393525e+00 9.0709983729722055e+00 0 0 0
206 2 3.7086066430939537e+00 7.3154960041367900e+00 7.2563314291705874e+00 0 0 0
207 4 5.5680424315806372e+00 7.3285944362463598e+00 9.0562241595763240e+00 0 0 0
208 3 5.3783759627951229e+00 9.0821287050150055e+00 7.3488823028949675e+00 0 0 0
285 1 3.6318390669403273e+00 9.1590979362139961e+00 1.2770314203647484e+01 0 0 0
286 1 3.6457019406804863e+00 7.2410556146358944e+00 1.0928959887577937e+01 0 0 0
287 1 5.3329920221666081e+00 7.2666231061289883e+00 1.2683398515732115e+01 0 0 0
288 4 5.3854133231609982e+00 9.2281145453772684e+00 1.0947227354640836e+01 0 0 0
65 1 3.6795860332204686e+00 1.2675062589188952e+01 1.8653841791913077e+00 0 0 0
66 2 3.6503063354767691e+00 1.0928912175446385e+01 1.2207134079350368e-02 0 0 0
67 4 5.4743645045866236e+00 1.0987341425210674e+01 1.9449570360351347e+00 0 0 0
68 4 5.3620084316390715e+00 1.2799293465295287e+01 1.4504241218662932e+01 0 0 -1
145 1 3.5242516114299760e+00 1.2504914172157374e+01 5.5487094455555628e+00 0 0 0
146 2 3.5473148612767216e+00 1.0922880712173811e+01 3.6601641860102512e+00 0 0 0
147 1 5.4167590588961136e+00 1.0936434373325264e+01 5.4284622222671155e+00 0 0 0
148 4 5.4189722508849973e+00 1.2732874039601441e+01 3.7672581554925126e+00 0 0 0
225 3 3.7888793702265300e+00 1.2738697087685420e+01 9.1672899366825842e+00 0 0 0
226 2 3.6921597295369022e+00 1.0846321067768594e+01 7.3355730173736831e+00 0 0 0
227 3 5.3764572994854305e+00 1.0897960086010212e+01 9.1129767505842345e+00 0 0 0
228 4 5.5178332094360654e+00 1.2710873443561590e+01 7.2732021186643259e+00 0 0 0
305 2 3.5191619169242658e+00 1.2892995888197945e+01 1.2713950775022999e+01 0 0 0
306 1 3.8182847858105253e+00 1.1110282132236911e+01 1.1135842174133366e+01 0 0 0
307 2 5.4818199698106804e+00 1.0982264382916798e+01 1.2848769933791704e+01 0 0 0
308 4 5.4463933754313283e+00 1.2804434536132737e+01 1.1130015576578636e+01 0 0 0
9 4 7.1737825701228841e+00 1.7798738015549682e+00 1.8802365882273235e+00 0 0 0
10 3 7.2214952204271370e+00 1.0960587679696779e-01 8.6769113929960895e-03 0 0 0
11 3 9.0952302109570926e+00 1.4447179047056450e+01 1.8770167179162243e+00 0 -1 0
12 3 9.2294453496074293e+00 1.9085053911340302e+00 1.6493805067826725e-01 0 0 0
89 3 7.1863589603670288e+00 1.9290568876650598e+00 5.3392322964567613e+00 0 0 0
90 1 7.1969037762949135e+00 1.4577535294080080e+01 3.8007824867622402e+00 0 -1 0
91 2 9.0402880279394751e+00 1.4520421777786382e+01 5.4580319767571472e+00 0 -1 0
92 4 8.9964583836593572e+00 1.8095872326787419e+00 3.6887620531999570e+00 0 0 0
169 3 7.4216624455129150e+00 1.8078595975164202e+00 9.0812498363185590e+00 0 0 0
170 2 7.2455918150926140e+00 1.4458603750124507e+01 7.3679896874055419e+00 0 -1 0
171 4 9.1589102798423223e+00 1.4562656296824009e+01 9.0277787818835940e+00 0 -1 0
172 4 9.0716623538224557e+00 1.7987979481259198e+00 7.1128242613112613e+00 0 0 0
249 3 7.2860627257319797e+00 1.7454088837121895e+00 1.2725011245046941e+01 0 0 0
250 2 7.3332462857983574e+00 4.4794669972497612e-02 1.0846362989550085e+01 0 0 0
251 3 9.0968729529193944e+00 1.4551867149807753e+01 1.2690756168106025e+01 0 -1 0
252 3 9.1801944458183264e+00 1.7708208718546574e+00 1.0927392176895138e+01 0 0 0
29 1 7.1573824678767357e+00 5.4818187803228184e+00 1.7432336510871826e+00 0 0 0
30 3 7.2301337238417460e+00 3.5031388946320074e+00 1.8279121204371274e-01 0 0 0
31 1 9.0980584961636826e+00 3.7213909386310258e+00 1.7672142692124972e+00 0 0 0
32 4 8.9599177560352796e+00 5.3694359400433251e+00 1.2745347101493110e-02 0 0 0
109 1 7.1230600955858341e+00 5.4010726719027398e+00 5.4230674765612417e+00 0 0 0
110 1 7.2124838391413784e+00 3.7577945066986111e+00 3.5627750770800239e+00 0 0 0
111 1 8.9648503498836476e+00 3.6861736573183541e+00 5.4133555671567404e+00 0 0 0
112 4 9.0995429623461828e+00 5.4837632141995281e+00 3.5891399435725670e+00 0 0 0
189 2 7.1642112233964141e+00 5.3704538875229746e+00 9.1060736558893183e+00 0 0 0
190 1 7.3341292754876157e+00 3.5721511922496765e+00 7.3185062004186241e+00 0 0 0
191 1 9.0861600712790729e+00 3.6873844825718112e+00 9.1583026069885118e+00 0 0 0
192 4 8.9959817806903342e+00 5.4572498769608506e+00 7.1590309125653766e+00 0 0 0
269 2 7.2812706950211812e+00 5.3677138238313784e+00 1.2756711542821376e+01 0 0 0
270 1 7.2252875016612981e+00 3.5954371491229482e+00 1.1095580599901668e+01 0 0 0
271 3 9.1615990674599921e+00 3.5509081071409838e+00 1.2790400843366500e+01 0 0 0
272 4 9.0006113657085347e+00 5.3845910510953114e+00 1.0965273792601264e+01 0 0 0
49 1 7.3018021985226946e+00 9.1393118492888821e+00 1.7994351351404023e+00 0 0 0
50 4 7.2924135693080547e+00 7.2436026484855569e+00 1.4581236671599031e+01 0 0 -1
51 4 9.1972652735440246e+00 7.3559336015339634e+00 1.6715691471049168e+00 0 0 0
52 4 9.2014360821919521e+00 9.2338336897499111e+00 1.4550781169711309e+01 0 0 -1
129 3 7.2856851659443134e+00 9.1450493237838337e+00 5.5628037235730412e+00 0 0 0
130 2 7.3091982266806923e+00 7.3819248493581533e+00 3.5811152087991349e+00 0 0 0
131 3 9.1177695881528500e+00 7.1206124484487168e+00 5.2878873211819002e+00 0 0 0
132 3 9.2282287773565201e+00 9.1843886273267081e+00 3.7046169189343723e+00 0 0 0
209 3 7.3306841193522514e+00 9.1890394345295796e+00 9.1796788755223364e+00 0 0 0
210 3 7.3000683111414855e+00 7.2575479248776631e+00 7.2870783828870600e+00 0 0 0
211 3 9.0970280184011045e+00 7.0390156260034784e+00 9.2619558022973401e+00 0 0 0
212 3 9.1691214914262229e+00 9.1791464766774578e+00 7.3993118125318356e+00 0 0 0
289 1 7.3496045007951114e+00 9.1272099042334141e+00 1.2765699494414580e+01 0 0 0
290 3 7.1618707778977582e+00 7.2728777326411169e+00 1.1158120559333343e+01 0 0 0
291 1 9.1096063102698484e+00 7.4163106084733101e+00 1.2786628657337348e+01 0 0 0
292 4 9.1800900666580798e+00 9.2174735631216382e+00 1.1030978649985531e+01 0 0 0
69 4 7.2795678273840565e+00 1.2661615474023469e+01 1.8450075814053928e+00 0 0 0
70 2 7.3665706885638667e+00 1.0916170657016561e+01 1.4539202258229592e+01 0 0 -1
71 2 9.1671414432613876e+00 1.0940626966887544e+01 1.8962020175588084e+00 0 0 0
72 3 9.1000003257640287e+00 1.2665258288583569e+01 2.2763848559831601e-02 0 0 0
149 1 7.2804481475027814e+00 1.2531206465561107e+01 5.4906174079233754e+00 0 0 0
150 2 7.3591869815411775e+00 1.0784159972491514e+01 3.7578785404515029e+00 0 0 0
151 3 9.2495471992784868e+00 1.0919031445973790e+01 5.6606023735142204e+00 0 0 0
152 4 8.9916561138232058e+00 1.2855928682257892e+01 3.5800212186826741e+00 0 0 0
229 1 7.2599868648858523e+00 1.2629689823407761e+01 9.0472189472395161e+00 0 0 0
230 3 7.1690036827148189e+00 1.0868404131702865e+01 7.4507392868278899e+00 0 0 0
231 3 9.2161373378231417e+00 1.1004733126672940e+01 9.2963180337885429e+00 0 0 0
232 4 9.0717327814929103e+00 1.2751187855681509e+01 7.3140691345935602e+00 0 0 0
309 1 7.3004175212424567e+00 1.2768800867277280e+01 1.2758413724090181e+01 0 0 0
310 1 7.2851048079860696e+00 1.0898331407601873e+01 1.0955034858821728e+01 0 0 0
311 4 9.1420666924611833e+00 1.0891097974344405e+01 1.2656021501721112e+01 0 0 0
312 2 9.0043857127619749e+00 1.2769548730097995e+01 1.0914991069671727e+01 0 0 0
13 2 1.1017912112283366e+01 1.8319015840710482e+00 1.7676053430386434e+00 0 0 0
14 3 1.0909721437551321e+01 5.9796376682593792e-02 1.4528027418035389e+01 0 0 -1
15 2 1.2721399972138411e+01 1.4505924283652472e+01 1.7894371939795690e+00 0 -1 0
16 4 1.2895650314944739e+01 1.7946001675841654e+00 1.1850727909544016e-01 0 0 0
93 1 1.0963508391008030e+01 1.8998799051293880e+00 5.2897604792730242e+00 0 0 0
94 1 1.0844404868155399e+01 8.5421223323046677e-02 3.6523195425835113e+00 0 0 0
95 3 1.2666227858817237e+01 1.4482113032176608e+01 5.5696575389156902e+00 0 -1 0
96 4 1.2773608059329911e+01 1.9789711065962721e+00 3.5990933193374630e+00 0 0 0
173 2 1.0887242368956732e+01 1.8805979631605176e+00 8.9991253173451753e+00 0 0 0
174 1 1.0887513619705038e+01 1.3715074009788716e-01 7.2107672055534380e+00 0 0 0
175 2 1.2794435124256685e+01 1.4478339430284271e+01 9.0550302703838526e+00 0 -1 0
176 4 1.2746362275121287e+01 1.8966349577627704e+00 7.2046851299195955e+00 0 0 0
253 3 1.0973812363112595e+01 1.8532430199041192e+00 1.2787334776277529e+01 0 0 0
254 3 1.1037958708116580e+01 1.4503744628896396e+01 1.0992360111007404e+01 0 -1 0
255 1 1.2643770134695163e+01 3.6474727667410889e-02 1.2754013560423887e+01 0 0 0
256 4 1.2669998988990416e+01 1.7694912966116845e+00 1.0794061204091097e+01 0 0 0
33 1 1.1000868323088691e+01 5.5098932820257653e+00 1.8113695600870889e+00 0 0 0
34 2 1.0907019710582569e+01 3.6964910764329497e+00 1.4520399661768359e+01 0 0 -1
35 3 1.2671979386999986e+01 3.8826753435398715e+00 1.8677923845898510e+00 0 0 0
36 4 1.2789273108842030e+01 5.5090074757266754e+00 1.4526727353156026e+01 0 0 -1
113 2 1.0839603703915015e+01 5.4066332352679121e+00 5.6057609656854881e+00 0 0 0
114 2 1.0813621013123466e+01 3.7317419258738140e+00 3.5590734475494181e+00 0 0 0
115 1 1.2804821827760028e+01 3.5881740625715586e+00 5.4789084499106053e+00 0 0 0
116 4 1.2721772216591370e+01 5.5532793272224055e+00 3.6822836821356004e+00 0 0 0
193 2 1.1016896655608878e+01 5.4340294582006310e+00 9.1017610712056722e+00 0 0 0
194 4 1.0867835783184010e+01 3.7209075708102932e+00 7.2580444689073076e+00 0 0 0
195 2 1.2819729899051641e+01 3.6644262532681058e+00 9.0880840079538974e+00 0 0 0
196 4 1.2789848180703036e+01 5.4607103121139966e+00 7.1242634087237162e+00 0 0 0
273 1 1.0930262022711233e+01 5.4321040258201725e+00 1.2706646929324334e+01 0 0 0
274 2 1.0865991053221048e+01 3.6784409876015931e+00 1.0918951665170189e+01 0 0 0
275 1 1.2690804784658685e+01 3.5955711454077330e+00 1.2764699090021518e+01 0 0 0
276 4 1.2779788330758793e+01 5.5627009438507393e+00 1.0988213738623701e+01 0 0 0
53 1 1.0967043775699420e+01 9.1888432827167286e+00 1.8767379018243024e+00 0 0 0
54 2 1.0837896806191532e+01 7.2537733043729977e+00 1.4490640968285581e+01 0 0 -1
55 4 1.2730654248459439e+01 7.2684560513826195e+00 1.8043581836768925e+00 0 0 0
56 4 1.2778490094575069e+01 9.1321722550924136e+00 1.4493935537945237e+01 0 0 -1
133 3 1.0857048241279903e+01 9.0621942911536806e+00 5.6045750365699707e+00 0 0 0
134 2 1.0944074301484353e+01 7.3543928344473875e+00 3.5780011908086888e+00 0 0 0
135 3 1.2812347967832107e+01 7.2551212016168574e+00 5.4153535655657246e+00 0 0 0
136 4 1.2888091683759606e+01 9.2040199770126740e+00 3.4790955693429586e+00 0 0 0
213 3 1.1027114536426545e+01 8.9784339541443412e+00 9.3838324778071094e+00 0 0 0
214 3 1.0847192630719302e+01 7.0648277319575419e+00 7.2962162682278979e+00 0 0 0
215 2 1.2859508688304253e+01 7.3017604587878706e+00 9.2361682731155756e+00 0 0 0
216 3 1.2701093491554301e+01 9.1819700683356320e+00 7.2158770384572817e+00 0 0 0
293 1 1.0890742293983601e+01 9.0343453430142677e+00 1.2857576202064365e+01 0 0 0
294 1 1.0902020997182676e+01 7.2453277868060395e+00 1.0937239059144952e+01 0 0 0
295 2 1.2707214966079725e+01 7.3482010352350846e+00 1.2771189899059122e+01 0 0 0
296 4 1.2875281581529279e+01 9.0905914021586742e+00 1.0997548953903765e+01 0 0 0
73 1 1.0956316999880379e+01 1.2752326402718664e+01 1.6562443855126610e+00 0 0 0
74 1 1.0945623026626086e+01 1.1053280118546343e+01 1.4564847868227389e+01 0 0 -1
75 1 1.2638059716765314e+01 1.0998108684668768e+01 1.5381266670859968e+00 0 0 0
76 4 1.2777671321637314e+01 1.2715846934705510e+01 1.4431974439680751e+01 0 0 -1
153 1 1.0933175478307881e+01 1.2832660457045389e+01 5.5854100794133457e+00 0 0 0
154 2 1.1029162140042208e+01 1.1032715394562542e+01 3.6412312838429677e+00 0 0 0
155 4 1.2611991683131096e+01 1.0869100084912922e+01 5.5708613949369754e+00 0 0 0
156 4 1.2604882307952330e+01 1.2752752152078250e+01 3.6962179617465334e+00 0 0 0
233 1 1.1023941099344357e+01 1.2697159968223675e+01 9.1626007942006353e+00 0 0 0
234 3 1.0939639895495333e+01 1.1114418505257539e+01 7.5111318471096284e+00 0 0 0
235 3 1.2865231449634264e+01 1.0911027234552238e+01 9.1617515246133880e+00 0 0 0
236 2 1.2603774792078974e+01 1.2790651777701120e+01 7.3435017933228561e+00 0 0 0
313 2 1.0924271293882780e+01 1.2785679483730519e+01 1.2598568314594436e+01 0 0 0
314 2 1.0959007112983203e+01 1.0881607162926075e+01 1.0979537831750761e+01 0 0 0
315 4 1.2780408081689398e+01 1.0811771359214529e+01 1.2782725445870692e+01 0 0 0
316 3 1.2820224914230176e+01 1.2797388135697524e+01 1.1055718910403806e+01 0 0 0
17 3 1.4657459938022807e+01 1.9077185824636032e+00 1.8040159318224567e+00 0 0 0
18 2 1.4647219753078055e+01 2.2060862375017365e-03 1.4517949577098001e+01 0 0 -1
19 3 1.6470964327294691e+01 1.4569892294729758e+01 1.8361149239633996e+00 0 -1 0
20 3 1.6397764009724170e+01 1.7520544406134835e+00 1.4478464998514516e+01 0 0 -1
97 3 1.4552349078715370e+01 1.8199973781205099e+00 5.5280555783975966e+00 0 0 0
98 3 1.4634724083984194e+01 1.4462576019957051e+01 3.5121785704437127e+00 0 -1 0
99 3 1.6468173486970148e+01 1.4487541661281558e+01 5.5068636485494205e+00 0 -1 0
100 3 1.6427256332755483e+01 1.8573384715961692e+00 3.8163863877033721e+00 0 0 0
177 3 1.4499343816803375e+01 1.6761835499008684e+00 9.1459800334140340e+00 0 0 0
178 3 1.4616618888281966e+01 1.4477047264270354e+01 7.3737100793171946e+00 0 -1 0
179 3 1.6534556220826520e+01 1.4396065679203810e+01 9.2053949125682664e+00 0 -1 0
180 3 1.6524189479002398e+01 1.6489222633920231e+00 7.1937769953396611e+00 0 0 0
257 3 1.4586760876732711e+01 1.9747005906837110e+00 1.2730594731909187e+01 0 0 0
258 3 1.4629226515389133e+01 1.4520757982220491e+01 1.0961686996423790e+01 0 -1 0
259 3 1.6414119347689429e+01 1.4484824922943060e+01 1.2647879745775811e+01 0 -1 0
260 4 1.6416514001702286e+01 1.7286659624311502e+00 1.0859273903537883e+01 0 0 0
37 1 1.4652490630449787e+01 5.5682482178976827e+00 1.7736836250653754e+00 0 0 0
38 2 1.4629298507871592e+01 3.6772980723569852e+00 7.1771527537240936e-03 0 0 0
39 3 1.6394003691482268e+01 3.6795205856739832e+00 1.7633062356492029e+00 0 0 0
40 4 1.6306383185128894e+01 5.5228306060554608e+00 1.4579854719117554e+01 0 0 -1
117 1 1.4648101948493100e+01 5.3853664747502306e+00 5.4665869122553401e+00 0 0 0
118 2 1.4585606736027772e+01 3.6798547430012309e+00 3.6423953171662773e+00 0 0 0
119 3 1.6350085592406334e+01 3.8413324015736134e+00 5.5231491119752976e+00 0 0 0
120 4 1.6558258188398746e+01 5.5562234784579561e+00 3.6536848923213254e+00 0 0 0
197 2 1.4606593402454262e+01 5.5271757683572655e+00 9.1888345758078884e+00 0 0 0
198 2 1.4551771951915127e+01 3.6150508906841625e+00 7.2429908772797171e+00 0 0 0
199 3 1.6399953766725464e+01 3.5255238757867593e+00 8.9324331119111999e+00 0 0 0
200 4 1.6328744082758426e+01 5.5090062731791836e+00 7.4466548331184272e+00 0 0 0
277 4 1.4567968683834771e+01 5.3340788226241553e+00 1.2615551429156303e+01 0 0 0
278 2 1.4493651164852738e+01 3.6324248421183811e+00 1.0883710198652700e+01 0 0 0
279 1 1.6464026801727133e+01 3.6926821967098968e+00 1.2704608358483808e+01 0 0 0
280 4 1.6430283577196160e+01 5.4094346324355600e+00 1.0688767717089213e+01 0 0 0
57 2 1.4785749756562483e+01 9.3608356316519199e+00 1.8113394868999959e+00 0 0 0
58 2 1.4492197026266505e+01 7.3543609574167466e+00 1.4558456586192964e+01 0 0 -1
59 1 1.6365996771015642e+01 7.3181565977599989e+00 1.9105845851558816e+00 0 0 0
60 4 1.6502933683462597e+01 9.1086340683745028e+00 1.4555862838697532e+01 0 0 -1
137 3 1.4577472347007044e+01 9.2102532082690072e+00 5.4176737630106864e+00 0 0 0
138 2 1.4683025424543102e+01 7.2606993134918660e+00 3.7055317145206481e+00 0 0 0
139 2 1.6400154313742746e+01 7.2569087734601023e+00 5.5373258362809930e+00 0 0 0
140 4 1.6532778798377489e+01 9.0913007367334870e+00 3.7332026897906188e+00 0 0 0
217 2 1.4619008446927637e+01 9.2064207549056398e+00 9.0208449913526856e+00 0 0 0
218 2 1.4626506932749903e+01 7.2575153021125649e+00 7.3414432784416617e+00 0 0 0
219 1 1.6260934683282606e+01 7.3627028312172627e+00 9.1587079012336687e+00 0 0 0
220 4 1.6348042761603349e+01 9.1207423774698313e+00 7.2397758193991120e+00 0 0 0
297 1 1.4611584797150925e+01 9.0630780690478314e+00 1.2755861693035861e+01 0 0 0
298 2 1.4604212125006864e+01 7.3079636763567093e+00 1.1030869255255631e+01 0 0 0
299 3 1.6285094763935092e+01 7.3178073517124833e+00 1.2767786937794265e+01 0 0 0
300 4 1.6381637196867324e+01 9.1772402587803832e+00 1.0937671164028931e+01 0 0 0
77 3 1.4452573276017695e+01 1.2682290134082338e+01 1.7696989963119067e+00 0 0 0
78 2 1.4643150527900978e+01 1.0934223868898066e+01 8.1484094750211775e-02 0 0 0
79 3 1.6495675363068656e+01 1.1043843475265232e+01 1.6987077568443671e+00 0 0 0
80 3 1.6551898644246194e+01 1.2711298660672558e+01 1.4572752357277535e+01 0 0 -1
157 3 1.4574191578475114e+01 1.2735769538504792e+01 5.5138596709841305e+00 0 0 0
158 2 1.4702455569601852e+01 1.0928768646255314e+01 3.7028056142538204e+00 0 0 0
159 1 1.6556816864120766e+01 1.1125471227012937e+01 5.5272465470158068e+00 0 0 0
160 3 1.6577093561059534e+01 1.2631079288718096e+01 3.5882115920524438e+00 0 0 0
237 3 1.4625261261744365e+01 1.2648580896482045e+01 9.2374965677684759e+00 0 0 0
238 1 1.4519457852080173e+01 1.1062373290522592e+01 7.2297169475497221e+00 0 0 0
239 2 1.6449488269232660e+01 1.0901670217200607e+01 9.0009470117230244e+00 0 0 0
240 3 1.6556742759174671e+01 1.2621317970580490e+01 7.3194341007640444e+00 0 0 0
317 1 1.4653130835967781e+01 1.3032785577679910e+01 1.2646565042759310e+01 0 0 0
318 1 1.4647294356007288e+01 1.1000302899518063e+01 1.0977776477483896e+01 0 0 0
319 1 1.6525211250039494e+01 1.1112342222213366e+01 1.2875507963059190e+01 0 0 0
320 4 1.6548674794240831e+01 1.2571644103841260e+01 1.0983509499276959e+01 0 0 0

Velocities

1 3.4230364259290458e-01 3.6812689835543675e+00 3.2998055872863770e+00
2 -1.2135514708756627e-01 1.4249544020388654e+00 1.4439625805718115e+00
3 2.0460057554771516e+00 2.2442854517487425e+00 -7.3637239481252093e-01
4 -2.8166142598083104e+00 -6.9860964951585128e-02 -3.4288271427880894e+00
81 7.0569652106740188e-01 5.8288415240906755e-01 5.2238820702788713e-01
82 2.4384606829689019e+00 2.9093242088631266e+00 1.0788215732114992e+00
83 -2.2328543528996891e+00 -2.9968523589752829e+00 2.4504838211306126e+00
84 -2.5385635475895286e-03 2.1198958990840784e+00 -1.7772259048504466e+00
161 1.7383347212770919e+00 8.5148052950397501e-01 3.1612156311355419e+00
162 -7.5269461723740338e-01 -9.5771677012773415e-01 -3.3910637096055534e+00
163 -3.0927629038896383e+00 -1.8590561767977973e+00 -2.3432018318333739e-01
164 5.9908863719599914e-01 -2.4111494443404516e-01 -2.8973878202438326e+00
241 1.1507834748902481e+00 -2.6376916839791704e+00 -2.0247564952961472e+00
242 -9.8414888411088419e-02 -7.3754760954147824e-01 -1.6204017080192858e+00
243 -3.1746678084343021e+00 8.5064442619503067e-01 -1.4866677865902027e+00
244 -2.1682511346703226e+00 2.8411754271162297e+00 -2.5772347822835040e+00
21 -5.1869930143038667e-01 -9.5964340256379099e-01 -2.2908751014645006e+00
22 3.2693215090531749e+00 -1.7878348336228527e+00 -2.0417100234000958e+00
23 -1.5577010102664257e-01 6.6597255412055478e-01 2.9699337219727524e+00
24 1.4531414089741428e+00 6.2142145579406372e-01 9.5512824633775820e-02
101 -2.9372483774051084e-01 2.6505348516635419e+00 -1.8001328529756369e+00
102 -2.5344300519387093e+00 1.1959049114049680e+00 -1.1256629004457876e-01
103 -2.0010311819421673e+00 -1.2518830171223772e+00 8.3126012517271219e-01
104 -1.9437698822437879e+00 -1.8102487313800522e+00 1.4665668263197109e+00
181 3.1985580834878111e+00 3.0987662704371792e+00 -2.0636663196596134e+00
182 1.7718091770585358e+00 -2.5574684855852698e+00 1.1843549366650783e+00
183 2.0028890260115162e+00 -2.3845531694365438e+00 -1.3818051529707138e+00
184 1.6592019638459818e+00 3.6133561211864662e+00 -1.0429103865384630e+00
261 8.4952814921422826e-01 -7.9826122433386393e-01 3.3352635388506382e+00
262 -2.6011824129492882e+00 3.8263976795156301e-01 -3.4370342311307729e+00
263 -3.5228682541065925e+00 2.3525933723904777e+00 -3.0587924705131044e+00
264 -6.9487736421272250e-01 -3.5112343438192717e+00 -3.6124601239028205e+00
41 7.5025119187233091e-01 -1.3961243778599188e+00 -2.7342748574202709e+00
42 -3.1716138169090300e+00 -3.2459833308135702e+00 2.0735577364435569e+00
43 6.3503207571104581e-01 3.1986932537563040e+00 -3.2176904802598592e+00
44 9.3714349155534671e-01 -3.0814071501050320e+00 1.5807287571029005e+00
121 -2.0942289199484700e+00 3.1048805752673103e+00 1.9192677401990670e+00
122 -2.5018800898207894e+00 -2.6619318970448647e+00 -3.2265956025930178e+00
123 1.3952118836180325e+00 -3.4035313914561298e+00 2.7162456707763680e+00
124 -1.3225468003708654e-01 -2.2412529638634910e+00 -1.5893379850276750e+00
201 2.0117344137675857e+00 -2.6545830908185049e+00 -4.3190779166281240e-01
202 -4.5787993420600082e-01 3.5421911304974403e+00 -2.9502501295128787e+00
203 1.3326547235474187e+00 1.4475927575684229e+00 2.0759605459266015e+00
204 -7.6139454888296365e-01 -3.5570492536974956e+00 8.7505433281387224e-01
281 1.6491920076749345e+00 -6.1070523455575032e-01 -3.5584550955911278e+00