ITEM: TIMESTEP
0
ITEM: NUMBER OF ATOMS
18000
ITEM: BOX BOUNDS pp pp pp
-2.9360395701651498e-02 2.7370360395701738e+01
-2.9690171050058112e-02 2.7370690171049734e+01
-3.7093687051566349e-01 3.2846293687051150e+02
ITEM: ATOMS id type x y z c_peratom fx fy fz 
362 2 5.57116 5.33519 5.16037 -25.6498 -1.17484 0.250555 1.14161 
1801 2 5.49914 2.59079 2.39614 -25.875 -0.226642 1.08861 0.0650378 
3061 2 2.87489 5.36822 2.47456 -25.5733 -1.08003 -0.622338 -0.794243 
4502 2 2.7894 2.68911 5.19056 -25.5671 -0.184108 -0.483468 -0.0798238 
6001 1 1.247 1.2412 1.00719 -7.49071 -0.0415691 0.110994 0.614412 
7501 1 4.13678 3.95969 3.85645 -7.54581 -0.0878627 0.035961 -0.385773 
9001 1 4.13604 4.0388 1.05604 -7.1976 -0.0412864 -0.213124 -0.131463 
10501 1 1.38025 1.22976 3.83907 -7.62085 0.320989 0.560727 -0.4082 
12001 1 4.19653 1.21222 3.73353 -7.32538 -0.912138 -0.279486 0.555281 
13501 1 1.43803 3.94597 1.1797 -7.54026 -0.45263 0.222114 -0.519114 
15001 1 1.39588 4.02003 3.91365 -7.29279 -0.345103 0.315983 -1.11876 
16501 1 4.01928 1.3262 1.11618 -7.48899 0.228526 -0.363092 -0.927633 
13502 1 1.35468 4.06003 6.46848 -7.40754 0.81632 0.394977 0.952858 
62 2 0.0552717 5.44339 5.20992 -25.0427 -1.19308 -0.933658 -0.99981 
6061 1 1.36428 6.62855 1.00093 -7.44087 0.98009 0.154573 -0.664929 
10561 1 1.38885 6.77329 3.69349 -7.82871 0.219705 -0.799576 0.859686 
12061 1 4.10094 6.67656 3.88859 -7.68203 -0.0343638 -0.294404 -0.396799 
4501 2 2.6639 2.66718 -0.327058 -25.6913 0.897165 -0.681269 0.115342 
15301 1 6.80228 4.0493 3.78719 -7.23307 0.437456 -0.805892 -0.534143 
10861 1 6.78206 6.67647 3.83794 -7.83695 0.917711 1.12619 0.0539445 
16561 1 4.16675 6.75053 1.11276 -7.22325 -0.406749 0.102186 0.563849 
3001 2 2.66646 -0.0250561 2.42136 -25.5999 0.288452 -1.14292 -0.295575 
16502 1 4.25262 1.37101 6.44871 -7.61273 -0.487775 -1.11828 0.171243 
13801 1 6.82787 4.04295 1.04742 -7.2239 0.348821 0.242792 -0.177371 
10801 1 6.84251 1.26705 3.72244 -7.36058 0.642912 -0.161041 -0.0828227 
6301 1 6.84004 1.32385 1.03284 -7.87036 0.19874 -1.44874 -0.776475 
662 2 10.9828 5.35578 5.12644 -25.2814 -0.497671 0.508373 -1.09636 
2101 2 10.9811 2.53608 2.38779 -25.5675 -0.545761 0.609022 -0.158033 
3361 2 8.21489 5.45784 2.36703 -25.4761 -0.74077 -1.63563 -0.532262 
4802 2 8.25289 2.63888 5.03333 -25.6467 -0.516081 -0.512587 0.630141 
6601 1 12.2311 1.14998 0.953478 -7.44492 1.50743 0.500426 0.789595 
7801 1 9.47032 3.93652 3.78588 -7.50438 1.62784 0.682494 -1.03603 
9301 1 9.54062 3.97005 0.934534 -7.40331 0.334846 0.55658 1.233 
11101 1 12.3695 1.2936 3.75096 -7.4906 0.0952162 0.067636 -0.373314 
12301 1 9.57957 1.20261 3.71855 -7.38909 0.216396 0.0897504 -1.03247 
14101 1 12.3238 3.91543 1.097 -7.55609 -0.273043 0.517804 -0.0807342 
15601 1 12.3142 3.99957 3.77323 -7.4723 -0.178068 0.0357471 -0.303453 
16801 1 9.65101 1.32074 0.912611 -7.27885 -1.16696 -0.522854 0.447872 
12361 1 9.49726 6.64312 3.72372 -7.80915 0.976604 1.00659 -0.231527 
6661 1 12.462 6.76569 0.883039 -7.58099 -0.709789 -0.464774 0.34183 
6302 1 6.981 1.3774 6.42981 -7.39626 -0.315151 -0.140174 0.605711 
6602 1 12.4455 1.25194 6.47912 -7.3739 -0.117296 1.00109 0.0752053 
14102 1 12.3894 4.16168 6.40255 -7.96261 -0.212372 -0.849641 1.02568 
11161 1 12.3217 6.67747 3.56049 -7.84651 -0.101494 0.849467 0.678958 
16861 1 9.59556 6.69264 0.847543 -7.64574 0.361095 0.112041 1.53599 
16862 1 9.64067 6.68355 6.42453 -7.7045 0.0446878 0.877518 0.397166 
16802 1 9.739 1.23839 6.30775 -7.43396 -0.35014 0.684339 0.877167 
661 2 10.9023 5.28724 -0.343744 -25.5252 1.31366 0.418922 -0.810881 
4801 2 8.2164 2.62786 -0.368389 -25.4823 -0.953754 0.146939 0.266537 
5102 2 13.7085 2.76168 5.11628 -25.2999 0.103521 -1.56384 -0.514002 
5101 2 13.687 2.59739 -0.279167 -25.4802 -0.204856 0.353548 -0.920482 
962 2 16.5005 5.32787 5.01912 -25.323 0.167223 0.773599 0.149282 
2401 2 16.3155 2.52028 2.31941 -25.4861 2.75081 2.01933 -0.646366 
3661 2 13.7538 5.40089 2.33167 -25.3472 0.00932533 -0.528379 -0.350392 
3961 2 19.0909 5.29711 2.23581 -25.3538 1.70708 -0.274395 0.358428 
5402 2 19.1813 2.61289 5.12434 -25.6549 -0.0681425 -0.236144 -0.936203 
6901 1 17.6888 1.23264 0.891378 -7.22203 0.794116 0.13998 0.651727 
8101 1 15.1093 4 3.68779 -7.70092 -0.484407 0.556575 0.0973529 
9601 1 15.0261 3.98594 0.940054 -7.40332 0.0121389 0.111069 0.768735 
11401 1 17.9243 1.1106 3.6632 -7.32864 -1.4507 0.278445 0.138057 
12601 1 15.0901 1.33923 3.60691 -7.70542 -0.665696 -1.82662 2.12164 
14401 1 17.7074 3.91763 0.925413 -7.54038 1.06068 0.523261 0.0746946 
15901 1 17.8006 3.87604 3.57853 -7.37323 -0.459155 0.469159 0.950484 
17101 1 15.0532 1.21329 1.04235 -7.96396 -1.33972 -0.585006 -1.33466 
6961 1 17.8167 6.74947 1.0303 -7.62364 1.09017 -0.613038 -0.540481 
12661 1 15.1432 6.75082 3.79986 -7.83014 -0.375056 0.0778895 -0.71602 
8401 1 20.4607 3.87933 3.59784 -7.52639 0.375321 0.821992 0.119122 
17401 1 20.4358 1.16086 0.951309 -7.24094 -0.0810647 0.120615 1.16825 
17161 1 15.2032 6.76344 0.992807 -7.59916 -0.675126 -0.00879511 -0.00515165 
11461 1 17.9758 6.71322 3.72241 -7.74778 -0.952317 -0.866031 -0.597078 
9602 1 15.0825 4.05943 6.42063 -7.94032 0.697251 -0.513142 0.220046 
14402 1 17.9136 4.15945 6.37114 -7.7017 -1.09744 -1.503 -0.106042 
6962 1 17.8683 6.7608 6.43011 -7.24519 -0.253709 0.142093 -0.444955 
17102 1 15.1567 1.24876 6.41682 -7.64665 0.393239 0.233783 -0.585354 
6902 1 17.9412 1.31778 6.42188 -7.29278 -1.45819 0.291521 0.405345 
61 2 27.341 5.2783 -0.296801 -25.2823 0.555364 0.56691 -0.456517 
1501 2 27.3276 2.71365 2.37436 -25.3412 1.43445 -2.54516 0.640114 
12901 1 20.5648 1.29861 3.89163 -7.29204 -0.0705409 -1.03523 -0.735548 
9901 1 20.5814 3.93064 0.786913 -7.14142 -0.610098 0.151198 1.73297 
1262 2 21.8664 5.14306 4.9868 -25.5443 0.990056 1.55928 -0.189295 
2701 2 21.8127 2.38799 2.38876 -25.7172 0.628989 1.1947 -1.47643 
4261 2 24.6326 5.24536 2.34972 -25.607 0.459288 -0.157662 0.15697 
5702 2 24.6265 2.46491 5.04329 -25.6297 0.610648 -0.69326 0.396279 
7201 1 23.151 1.06454 1.00593 -7.32647 0.131369 0.293402 -0.328638 
8701 1 25.957 3.73923 3.71152 -7.48993 -0.0824951 1.71266 0.386022 
10201 1 26.0591 3.90499 1.01228 -7.79844 -0.0357975 0.957032 -0.170787 
11701 1 23.1977 1.03295 3.71259 -7.46699 0.632724 0.634397 0.472287 
13201 1 26.0127 1.03774 3.73745 -7.17302 0.414428 1.04631 0.627723 
14701 1 23.3724 3.86452 1.02819 -7.10302 -0.760255 -0.167043 -0.610977 
16201 1 23.2434 3.72317 3.64145 -7.4501 -0.484293 0.880841 0.695846 
17701 1 25.861 1.16919 1.05701 -7.23609 0.689577 0.434238 -0.39111 
13261 1 26.0149 6.61997 3.67354 -7.17233 1.1567 -1.34977 0.836628 
12961 1 20.7397 6.63446 3.60356 -7.20007 -0.729317 -0.09018 0.0058404 
11761 1 23.4135 6.62947 3.67046 -7.28593 -0.826533 -0.260813 -0.987711 
17461 1 20.7123 6.75647 0.877258 -7.18396 -0.667017 -0.736606 0.0556727 
17761 1 26.146 6.78589 1.0166 -7.38661 -0.846344 -0.977216 -0.675271 
7261 1 23.4232 6.57242 0.854387 -7.68302 -0.224951 0.703369 0.792789 
9902 1 20.5422 3.96278 6.41698 -7.78185 0.871923 -0.939678 0.330418 
17462 1 20.549 6.65023 6.31923 -7.46649 0.517962 0.309518 0.672461 
10202 1 26.0609 3.86419 6.44141 -7.56363 -0.0331151 0.650091 0.345437 
14702 1 23.3567 3.87711 6.3485 -7.85923 -0.721649 0.0826374 1.04051 
7262 1 23.3494 6.6333 6.26089 -6.78712 -1.49404 -1.0132 1.35045 
422 2 5.41396 10.7766 5.05726 -25.431 1.10073 -0.0549808 1.04058 
1861 2 5.47909 8.01381 2.54723 -25.3713 0.544235 0.373054 -2.53658 
3121 2 2.6936 10.7985 2.3604 -25.1757 0.430177 -0.502935 -0.843992 
4562 2 2.69569 8.0504 5.09584 -25.3285 0.892781 1.15769 0.428955 
6121 1 1.27591 12.1428 0.994189 -7.47056 1.16627 -0.47076 -0.704091 
7561 1 4.12234 9.32919 3.65848 -7.82622 -0.723016 1.21007 0.317046 
9061 1 3.96655 9.48676 0.885315 -7.35676 0.202899 0.399855 0.82401 
10621 1 1.41668 12.1702 3.58312 -7.75135 -0.0105029 0.144512 1.53209 
12121 1 4.16057 12.1278 3.76261 -7.96887 -0.328737 -0.0550015 -0.388803 
13561 1 1.27643 9.39364 0.891842 -7.59416 0.379585 0.0246973 0.742375 
15061 1 1.3524 9.45318 3.73298 -7.76249 0.557912 0.246851 -0.291315 
16621 1 4.01586 12.2431 1.0215 -7.86214 0.862717 -0.502602 0.341715 
122 2 0.0460202 10.8649 5.03186 -25.1845 -0.234567 -0.840518 0.481289 
1561 2 0.0929697 8.01821 2.34038 -25.7964 -1.30723 0.55239 -0.0713092 
1921 2 5.59494 13.5315 2.37922 -25.3195 -0.712021 1.16277 0.0805332 
4622 2 2.82511 13.452 5.04838 -25.2853 -0.189156 1.63792 -0.450168 
6062 1 1.28835 6.89255 6.47944 -8.17698 0.580288 -1.05609 -0.289383 
121 2 -0.0281664 10.8597 -0.366453 -25.6818 -0.252662 -0.158225 -0.238508 
13861 1 6.80569 9.52481 0.963033 -7.0392 0.0603242 0.73248 0.425376 
1621 2 0.0870779 13.5268 2.24054 -25.7 -1.52513 0.770001 0.664403 
6122 1 1.48105 12.1865 6.38725 -7.79421 -1.59629 0.308292 0.0474084 
9062 1 4.00417 9.54476 6.3834 -7.35255 1.13854 -0.329336 0.404033 
13562 1 1.42366 9.54609 6.4693 -7.61179 -1.51073 -0.194335 -0.0403918 
421 2 5.33 10.9062 -0.311461 -25.6586 1.6901 -1.01664 -1.03796 
4621 2 2.76693 13.5994 -0.358122 -25.4646 -0.911718 -0.422563 -0.706462 
6361 1 6.89275 6.84279 1.07839 -7.2601 0.113092 -0.52301 0.157305 
15361 1 6.88165 9.48437 3.67865 -7.5997 0.268452 -0.578521 -0.0828253 
6421 1 6.95037 12.3218 1.08392 -7.63275 -0.7841 -0.7216 -0.439409 
722 2 11.1024 10.878 4.96365 -25.5359 -1.86446 0.316954 1.76412 
2161 2 10.9561 8.03874 2.32406 -25.0606 0.216917 0.456071 -0.721373 
3421 2 8.25582 10.8722 2.34622 -25.449 -0.0441556 -0.723315 -0.030641 
4862 2 8.19693 8.1071 5.13749 -25.491 0.388954 -0.080277 -0.162982 
6721 1 12.3979 12.2157 1.00826 -7.47876 -0.468403 0.0762737 -0.496801 
7861 1 9.73578 9.41335 3.68702 -7.60265 -0.586596 0.140905 -0.407779 
9361 1 9.65413 9.39988 0.88451 -7.52179 -0.00728291 0.786861 1.13547 
10921 1 6.84154 12.158 3.8532 -7.67203 0.187344 0.700916 -0.811188 
11221 1 12.3814 12.2218 3.67244 -7.69955 0.0897442 0.89878 -0.353537 
12421 1 9.58453 12.2296 3.70537 -7.53153 0.455824 -0.517041 0.0780487 
14161 1 12.4142 9.52166 1.07946 -7.41932 -0.911612 -0.812887 -0.573637 
15661 1 12.447 9.5592 3.82808 -7.89192 0.887922 -1.56144 -0.95248 
16921 1 9.6052 12.2585 1.06596 -7.66614 0.722014 -0.143161 -1.53271 
6722 1 12.4534 12.2821 6.38696 -7.4868 -0.23002 0.316106 0.342757 
4922 2 8.2786 13.4619 5.11226 -25.6506 -0.131434 1.03369 0.0587836 
9362 1 9.46099 9.50134 6.4034 -7.12303 1.40907 -0.288818 0.568111 
6662 1 12.4239 6.92676 6.29761 -7.68775 -1.15893 -1.43257 1.12752 
16922 1 9.72268 12.2165 6.44358 -7.30507 -0.466612 -0.420222 -0.582792 
13862 1 6.87118 9.46201 6.34695 -7.17694 -1.52537 0.135623 1.12311 
3721 2 13.7721 10.7617 2.35889 -25.4934 0.78753 1.62219 0.00909404 
5162 2 13.7025 8.1211 5.08201 -25.0272 1.89413 1.034 -0.0388693 
1022 2 16.5427 10.8114 5.16315 -25.804 0.480219 0.852922 -0.0963111 
2461 2 16.5141 8.11593 2.33511 -25.4331 0.211483 0.428655 0.416544 
4021 2 19.3287 10.8493 2.24663 -25.7438 -1.51475 0.0423862 0.488722 
5462 2 19.2186 8.07643 4.96367 -25.6869 0.983132 -0.027475 0.831959 
7021 1 17.871 12.2249 0.808764 -7.31975 0.614767 0.0931145 0.756965 
8161 1 15.3041 9.49713 3.80898 -7.47609 -2.46785 -0.573632 -1.10611 
9661 1 15.0542 9.52568 0.885337 -7.5682 0.956048 -1.18904 0.851462 
11521 1 17.9439 12.1123 3.73899 -7.07241 -0.206503 0.642147 -0.443049 
12721 1 15.1871 12.2511 3.87034 -7.27032 -0.527067 -0.385258 -0.694858 
14461 1 17.8928 9.44224 0.958673 -7.49694 -0.486175 0.521617 0.196195 
15961 1 17.8124 9.45461 3.76252 -7.00503 0.90375 -0.409251 -0.378762 
17221 1 15.1925 12.1418 1.02921 -6.87775 -0.420882 0.204042 0.650696 
5221 2 13.7305 13.5819 -0.290148 -26.1178 0.19542 -0.420971 -0.418575 
8461 1 20.4867 9.41521 3.53568 -7.57217 1.10022 -0.369504 1.17426 
5222 2 13.6734 13.599 5.01579 -25.6958 1.23158 0.617396 1.02694 
5522 2 19.3374 13.5514 5.10571 -25.6657 -0.271984 -1.26914 -0.67981 
17762 1 25.9047 6.85688 6.47831 -7.39294 2.20036 -1.92826 0.142348 
9961 1 20.5758 9.36973 0.875802 -7.43429 1.32045 0.875364 0.140785 
13021 1 20.633 12.1469 3.73139 -7.26321 0.506296 -0.604052 -0.235806 
17521 1 20.6208 12.1144 0.862951 -7.31346 0.0464478 -0.233209 1.18067 
1322 2 21.9641 10.6753 5.05019 -25.5965 -0.150674 1.68067 -0.0519152 
2761 2 22.0851 8.02563 2.33586 -25.4643 -1.13298 -0.430119 -0.610396 
4321 2 24.7437 10.7907 2.36412 -25.5348 -0.51335 0.321971 0.0563343 
5762 2 24.6919 8.01922 5.06274 -26.0833 -0.463718 0.049594 -0.890138 
7321 1 23.3048 12.1899 0.965145 -7.59363 0.33563 -0.478767 -0.805438 
8761 1 26.0814 9.23662 3.6931 -7.24924 -0.316616 1.46381 0.295454 
10261 1 26.0033 9.51913 1.02061 -7.16002 0.848673 0.186579 -0.586404 
11821 1 23.3857 12.2433 3.66534 -7.31638 -0.0340633 -0.532858 0.10457 
13321 1 26.0603 12.0499 3.75146 -7.60674 0.22907 0.143041 -0.471053 
14761 1 23.4298 9.4538 0.988134 -7.73273 -1.47697 -0.660541 -0.333514 
16261 1 23.2489 9.42652 3.72902 -7.83011 0.752891 -0.0582331 -0.784477 
17821 1 26.015 12.3607 0.960014 -7.28498 -0.177692 -1.55164 0.715855 
5822 2 24.7383 13.5821 5.05985 -25.7795 -0.105345 -0.943237 -0.584432 
2821 2 22.0865 13.5525 2.2767 -25.7011 -1.43839 -0.637775 0.622642 
9962 1 20.8014 9.40093 6.45001 -7.23614 -1.71162 -0.319244 -0.99531 
17822 1 26.0624 12.1862 6.47538 -7.52807 0.332346 -0.459567 -0.0896963 
7322 1 23.2732 12.0446 6.38836 -7.32846 0.493532 0.371986 0.0893588 
10262 1 25.9807 9.48548 6.42475 -7.60104 1.09255 0.768396 -0.00047044 
14762 1 23.335 9.2967 6.38817 -7.21284 0.593798 0.455974 0.56085 
482 2 5.50727 16.326 4.99171 -25.5303 0.453318 0.0830252 -0.0698402 
1981 2 5.49764 19.1258 2.16186 -25.6263 -0.0302843 0.128062 1.0961 
3181 2 2.74787 16.3406 2.23444 -25.3169 0.264546 -1.18972 0.673112 
4682 2 2.92507 19.0732 4.94868 -25.3018 -1.33853 0.797269 1.04389 
6181 1 1.34606 17.5058 0.92268 -7.74774 -0.0312099 1.39246 -0.418224 
7621 1 4.21919 14.9307 3.60278 -7.5195 -0.66065 0.0696508 0.721344 
9121 1 4.10513 14.9086 0.974152 -7.49792 0.490112 0.383719 -0.603427 
10681 1 1.35779 17.7161 3.68661 -8.01226 1.31965 -0.111716 -0.158545 
12181 1 4.11933 17.7769 3.52808 -7.71391 0.0995309 -0.938403 0.682299 
13621 1 1.33201 14.8741 0.841282 -7.58986 0.20846 0.0390987 -0.0842241 
15121 1 1.32163 14.9028 3.50484 -7.20142 2.05963 0.940239 0.773961 
16681 1 4.09445 17.653 0.897865 -7.79136 0.324851 0.18347 -0.836844 
13622 1 1.51382 14.9712 6.23285 -7.61449 -0.734934 -0.385002 0.306964 
16682 1 4.13095 17.7026 6.3685 -7.56617 0.344941 -0.33143 -0.388432 
182 2 0.180604 16.3601 5.04427 -25.3985 -1.83274 -0.781081 -0.034342 
1681 2 0.0667388 18.9973 2.38616 -25.3812 -1.22827 0.95355 -1.25433 
9181 1 4.07604 20.4634 0.888338 -6.98821 0.494592 -0.308497 0.394656 
13681 1 1.39595 20.3837 0.89533 -7.09532 -0.357856 -0.810015 -0.420432 
15181 1 1.3144 20.5044 3.55079 -7.31168 0.694365 -0.84602 0.859507 
6182 1 1.40862 17.7331 6.41465 -7.40261 0.159454 0.111474 -0.257694 
9122 1 4.16978 15.0056 6.32887 -7.43545 0.354112 -0.425888 0.288592 
7681 1 4.19674 20.4489 3.61271 -7.34094 -0.524027 -0.455093 0.817593 
13682 1 1.50188 20.5008 6.30309 -7.53417 -0.414315 -0.242595 0.742819 
2221 2 11.0035 13.6729 2.27461 -25.3821 0.334981 -0.74931 1.05291 
15421 1 6.96969 15.0789 3.64843 -7.36903 -0.285592 -1.34875 0.317307 
6481 1 6.90243 17.8058 0.88398 -7.59292 -0.694087 -1.07042 0.61116 
15481 1 6.88513 20.5006 3.74782 -7.29157 0.555827 -0.319434 -0.65201 
10981 1 6.88801 17.7524 3.73406 -7.35369 -0.457925 0.282056 -0.350892 
13921 1 6.89836 14.9941 0.97688 -7.54071 0.134981 0.429879 -0.853866 
13981 1 6.89462 20.501 0.973301 -7.27735 -0.659076 -0.759479 0.319927 
782 2 10.971 16.4551 4.99947 -25.5547 0.1354 -0.865495 1.06554 
2281 2 10.9966 19.073 2.26951 -25.588 -0.158162 0.439262 0.262418 
3481 2 8.28354 16.3918 2.37284 -25.5548 -0.33332 -0.13231 -0.604845 
4982 2 8.21766 19.1276 5.12551 -25.6158 0.326011 -0.824073 -0.919905 
6781 1 12.4307 17.7748 0.927216 -7.72634 -0.748521 -0.594409 0.301094 
7921 1 9.70891 14.928 3.77411 -7.51473 0.114389 0.526917 -0.245065 
9421 1 9.72484 15.0499 1.00395 -7.69606 -0.975186 -0.481821 -0.296512 
11281 1 12.3472 17.6622 3.64846 -7.73134 0.0556376 1.26152 -0.00357113 
12481 1 9.57825 17.7568 3.65404 -7.55787 0.457127 -0.747394 0.608365 
14221 1 12.3786 14.985 0.961029 -7.36759 -0.231268 0.458448 0.762174 
15721 1 12.5157 15.0945 3.69961 -7.38208 -1.44234 -1.54721 -0.216462 
16981 1 9.64116 17.7127 0.965882 -7.51251 0.35294 -0.198552 -0.0651899 
9481 1 9.55582 20.4261 0.914654 -7.19837 0.424153 0.149316 0.360397 
14281 1 12.2637 20.4929 0.882763 -7.53918 0.499045 -0.243047 0.283796 
15781 1 12.4526 20.449 3.63038 -7.3679 -1.43602 -0.307988 0.358788 
16982 1 9.63338 17.7392 6.46551 -7.44306 -1.08206 -1.38114 -0.490929 
6782 1 12.2926 17.8142 6.41775 -7.23509 0.908795 -1.05884 0.295123 
7981 1 9.68136 20.3576 3.68706 -7.47762 -0.297519 1.24962 0.138362 
13922 1 6.89222 14.8628 6.34065 -7.46068 -0.217343 0.710683 0.942298 
14222 1 12.3404 15.0822 6.34578 -7.32141 0.178454 -0.306071 0.838003 
14282 1 12.2066 20.4138 6.36019 -6.70342 1.15967 0.946086 -0.280214 
2521 2 16.4866 13.711 2.50997 -25.6837 -0.109099 -2.90713 -1.2061 
5282 2 13.7394 18.9975 5.03597 -25.6928 -0.714629 0.785051 0.342385 
3781 2 13.7664 16.3629 2.39083 -25.6232 0.616286 -0.167636 -1.30706 
1082 2 16.4981 16.2649 5.09929 -25.519 -0.366014 -0.605581 -0.182784 
2581 2 16.4248 18.9898 2.32686 -26.0208 0.284983 0.101248 -1.04483 
4081 2 19.2175 16.2003 2.28791 -25.4449 -0.0276917 0.392092 0.146351 
5582 2 19.1687 18.9644 4.88987 -25.7715 -0.74779 0.819244 1.24698 
7081 1 17.8781 17.7783 0.930092 -7.36695 -0.0500057 -0.463466 -0.628715 
8221 1 15.1704 14.9414 3.81333 -7.48785 -0.276561 0.423816 0.402256 
9721 1 15.0102 14.7916 1.16683 -7.08029 0.125979 1.14193 -0.619545 
11581 1 17.8222 17.567 3.61914 -7.44511 0.313606 -0.129055 -0.0889862 
12781 1 15.172 17.6217 3.72387 -7.59726 -0.768256 -0.201478 0.336704 
14521 1 17.6725 14.978 1.06677 -7.56553 0.945696 0.564221 -0.637927 
16021 1 17.9182 14.8317 3.80561 -7.7299 0.608954 0.828829 -0.121111 
17281 1 15.128 17.6373 0.922704 -7.23537 0.0490825 -0.797986 0.366804 
14582 1 17.7759 20.4542 6.44356 -6.743 0.386104 -1.18282 -0.290593 
10021 1 20.453 14.747 0.875181 -7.47541 0.281795 1.31423 0.594102 
9781 1 15.0926 20.3572 1.04069 -6.72715 -0.668171 0.470529 -0.838304 
8281 1 15.0174 20.2443 3.59568 -7.01943 0.578585 1.10168 1.11405 
16081 1 17.7512 20.3257 3.67387 -7.47627 -0.149147 -0.0288901 -0.436894 
8581 1 20.4013 20.446 3.66613 -7.59108 1.39849 -0.157638 -0.780783 
9782 1 15.136 20.4308 6.3198 -7.44303 -1.4636 -0.113756 0.384092 
7082 1 17.7556 17.5148 6.33112 -7.39111 0.524462 1.52225 0.85245 
17582 1 20.3898 17.6229 6.20984 -7.29999 1.50072 0.0683109 0.978917 
10082 1 20.5225 20.3184 6.35797 -7.19731 0.186746 -0.225976 0.431467 
8521 1 20.7254 14.7662 3.61328 -7.50313 -0.867915 1.54859 0.251176 
13081 1 20.5625 17.6337 3.63895 -7.57974 0.476931 -0.11961 -0.99044 
17581 1 20.5966 17.4942 0.968092 -7.38844 0.220633 0.889045 -0.0893785 
1382 2 21.9954 16.3139 4.9288 -25.5196 -0.591488 -0.794241 0.566497 
2881 2 21.9787 19.0498 2.27198 -25.0987 -0.668971 -0.693947 -0.361623 
4381 2 24.6829 16.2901 2.20821 -25.5727 0.175912 -0.0324137 0.764781 
5882 2 24.6831 18.9884 5.12523 -25.4239 -0.155062 0.410813 -0.127175 
7381 1 23.339 17.5837 0.818876 -7.41025 -0.513988 1.58561 0.908513 
8821 1 26.1835 14.7831 3.67897 -7.18779 -1.17727 0.905885 -0.220633 
10321 1 25.9066 14.9715 0.761112 -7.07771 0.624419 0.474216 1.72621 
11881 1 23.321 17.654 3.71258 -7.52795 0.144198 0.427404 -1.16848 
13381 1 26.0403 17.6707 3.82264 -7.4432 0.345848 -0.613414 -1.23555 
14821 1 23.1906 14.9685 0.964189 -7.44693 0.378902 -0.484151 -0.52711 
16321 1 23.3919 14.9945 3.63867 -7.3929 0.667592 -0.324677 -0.0779274 
17881 1 25.9994 17.6803 0.981584 -7.4562 0.815348 0.511515 0.036567 
10381 1 26.0649 20.4376 0.869394 -7.31284 0.0142725 -0.67289 0.515544 
10081 1 20.5993 20.4322 0.889828 -7.62745 -0.271936 -0.797021 0.774657 
14881 1 23.3486 20.4798 0.915709 -7.68362 -0.199363 -1.53325 -0.102438 
8881 1 25.9909 20.4098 3.77328 -7.42674 -0.0832622 -0.814746 -0.397046 
16381 1 23.2488 20.2947 3.66612 -7.62446 -0.369948 0.378435 0.447371 
10022 1 20.6509 14.9508 6.36883 -7.88797 0.518254 -0.573073 -0.439051 
7382 1 23.2113 17.5517 6.41532 -7.83625 0.393876 0.760528 0.595694 
17882 1 26.0603 17.7045 6.46017 -7.37089 -0.241944 -0.332024 0.302078 
14822 1 23.3629 14.8288 6.33213 -7.5182 -0.481841 0.373957 0.611064 
302 2 5.56738 27.2847 5.10846 -25.4458 -0.232864 0.637175 -0.0171131 
542 2 5.55758 21.8089 5.1162 -25.5232 -1.60676 0.421928 -1.98357 
2041 2 5.47871 24.6187 2.31062 -25.6279 0.131496 -1.40975 0.650097 
3241 2 2.72549 21.9222 2.39318 -26.043 0.139844 -1.75915 -1.15143 
4742 2 2.84228 24.5388 5.17478 -25.7375 -1.04667 -0.682683 -0.798438 
6241 1 1.35889 23.1319 1.108 -7.4259 -0.11018 0.518247 -0.746507 
7741 1 4.03383 25.8375 3.81063 -7.57959 1.24644 0.649026 -0.597227 
9241 1 4.12954 25.9507 1.0261 -7.57403 0.251165 0.547213 0.179214 
10741 1 1.34287 23.1537 3.84744 -7.0462 0.620169 0.473194 -0.0338186 
12241 1 4.07465 23.0389 3.6798 -7.10345 0.644771 1.8695 1.16847 
13741 1 1.38044 25.8631 1.08005 -7.30468 -0.108142 0.272631 -0.809663 
15241 1 1.32245 25.8483 3.72758 -7.26754 0.496301 0.590513 0.174801 
16741 1 4.19881 23.2411 1.00144 -7.16389 -0.673008 -0.0483522 -0.210093 
242 2 -0.0258944 21.7607 5.1034 -25.9436 0.759608 0.412665 -0.543954 
1741 2 -0.00432231 24.512 2.46135 -25.9118 -0.0133325 -0.526963 -0.697886 
11041 1 6.79217 23.2196 3.65025 -7.18176 0.65272 0.31167 0.242456 
2 2 0.149589 27.2007 5.14224 -25.7887 -1.8965 0.457752 0.00160043 
16742 1 4.09276 23.0907 6.41779 -7.75164 0.890555 -0.00705943 0.394261 
13742 1 1.5986 26.0153 6.3741 -7.39802 -0.146575 -0.304126 0.976031 
301 2 5.45618 27.3012 -0.321449 -25.3355 -0.92915 0.213005 -0.505098 
4741 2 2.72957 24.4847 -0.370722 -25.5865 0.14364 0.742908 0.839947 
6541 1 6.91384 23.1429 0.949341 -6.92639 -0.224869 0.476164 -0.277415 
14041 1 6.96995 25.7869 0.99261 -7.86205 -1.01036 1.86267 0.0731242 
602 2 11.048 27.2253 5.03553 -25.8845 0.108005 1.41704 0.264073 
3301 2 8.26651 27.2219 2.3314 -25.2928 0.149739 1.25355 0.116708 
15541 1 6.93161 25.9614 3.71668 -7.8016 -0.806517 -0.185422 -0.292953 
842 2 10.9658 21.8565 4.94737 -25.6193 0.480788 -1.10036 0.597852 
2341 2 10.979 24.5508 2.16566 -25.7245 -0.198465 0.158546 0.331005 
3541 2 8.19738 21.813 2.31705 -25.8608 0.413853 0.210812 -0.331938 
5042 2 8.31438 24.6432 5.04051 -25.2789 -0.126774 -0.497062 -0.928159 
6841 1 12.3353 23.2736 0.836367 -6.93286 0.323253 -0.792001 -0.637245 
8041 1 9.68534 25.9216 3.62385 -7.543 -0.462513 -0.661629 -0.213839 
9541 1 9.63156 26.0362 0.89608 -7.73874 -0.117058 -0.878144 -0.06137 
11341 1 12.2613 23.2038 3.44971 -7.38407 0.108547 -0.00703623 1.44284 
12541 1 9.60409 23.1564 3.62819 -7.61961 -0.735024 0.122129 -0.37743 
14341 1 12.4123 25.9057 0.960484 -7.43595 -0.520048 0.448946 -0.570046 
15841 1 12.3389 26.0065 3.74232 -7.3959 0.911657 -1.12421 -1.38822 
17041 1 9.62067 23.1988 0.809301 -7.09384 -0.126659 0.182095 1.39923 
3841 2 13.643 21.7734 2.29071 -26.0013 1.0257 0.257437 -1.41407 
13982 1 6.85691 20.5469 6.35706 -7.883 0.134384 -1.05784 1.00955 
6542 1 6.86013 23.3049 6.31977 -8.04876 0.165537 0.0410611 -0.082862 
14342 1 12.4691 25.925 6.35535 -6.99261 -0.421083 -0.109352 0.185863 
17042 1 9.60968 23.1906 6.31924 -7.87642 -0.345339 0.139985 0.331537 
6842 1 12.3196 23.1919 6.26696 -7.54932 0.321581 -0.166357 0.0167851 
14042 1 7.08677 26.073 6.39063 -7.56492 -0.943363 -0.866813 -0.255514 
9542 1 9.7562 25.9546 6.34942 -7.66839 -0.561915 -0.878564 0.550919 
14581 1 17.7808 20.5431 0.87892 -7.34547 0.672981 -0.549561 0.396263 
5342 2 13.6955 24.5348 5.00689 -25.6493 0.080435 -0.0746092 -0.146431 
902 2 16.401 27.2336 4.94686 -25.0828 1.21073 0.432012 1.4862 
3901 2 19.1833 27.1639 2.34318 -25.5938 0.0824563 0.833382 -0.408194 
3601 2 13.6893 27.2618 2.30715 -25.3035 -0.388336 -0.137288 0.618269 
1142 2 16.3789 21.7387 4.96511 -26.0212 0.458396 -0.147272 0.859688 
2641 2 16.4539 24.5597 2.24444 -25.4168 -0.269163 -1.24321 0.247667 
4141 2 19.1383 21.7697 2.25882 -25.3761 0.0660992 0.271014 -0.0389772 
5642 2 19.1736 24.4443 5.03505 -25.4216 -0.463622 0.0351454 0.501994 
7141 1 17.8842 23.2381 0.852155 -7.38899 -0.163396 -0.487564 1.7343 
8341 1 15.0885 25.8865 3.67132 -8.06229 0.26769 0.224204 0.297671 
9841 1 15.0542 25.8059 0.992381 -7.42735 -0.147494 1.68309 -0.603352 
11641 1 17.7041 23.0408 3.71475 -7.69333 0.568187 0.99301 -1.15418 
12841 1 14.9298 23.0665 3.65019 -7.45398 0.716793 0.363071 -0.0456586 
14641 1 17.6935 25.8984 0.887465 -7.27245 0.784675 0.588722 0.152706 
16141 1 17.9073 25.8315 3.67859 -7.9125 -0.881155 -0.711952 -0.0763898 
17341 1 15.106 23.1618 0.882102 -7.1472 0.00708907 -0.369738 0.109293 
7142 1 17.6506 23.1164 6.46044 -7.03979 2.08373 0.702614 0.0527141 
10141 1 20.4472 25.8719 0.979792 -7.45077 0.567737 -0.613909 -0.115062 
13141 1 20.4892 23.1812 3.66056 -7.90914 0.609974 -0.295047 -0.601969 
17342 1 15.1131 23.21 6.33336 -7.21104 -1.35099 -0.717379 -0.166804 
14642 1 17.8292 25.9614 6.46342 -7.38161 -0.00746986 -0.417554 -0.339035 
10142 1 20.5622 25.7021 6.34424 -7.67776 0.10692 0.361018 1.39416 
1202 2 21.871 27.2349 5.16202 -25.969 0.970569 -0.775887 -0.00240724 
4201 2 24.6664 27.2231 2.41758 -25.8608 -0.537062 -0.867545 -0.0740041 
17942 1 26.0422 23.0869 6.46051 -7.47046 -0.361624 0.537511 0.278744 
7442 1 23.2458 23.1776 6.46749 -7.40213 0.102113 0.0365728 0.521437 
8641 1 20.6733 25.9358 3.68944 -7.23029 -0.556032 -0.427427 -0.490241 
17641 1 20.647 23.1817 0.833678 -7.37871 -0.226083 -0.294224 0.851795 
1442 2 21.8644 21.7415 5.06951 -25.4961 0.432757 -0.397822 0.102835 
2941 2 22.0341 24.3859 2.40215 -25.2339 -1.24469 1.13747 0.346116 
4441 2 24.6523 21.7247 2.3526 -25.7509 1.32118 -0.292038 0.0418202 
5941 2 24.6442 24.4614 -0.232388 -25.4752 0.372281 0.179618 -1.9183 
5942 2 24.6357 24.5237 5.17173 -25.8809 0.752855 -0.374846 0.209395 
7441 1 23.2994 23.0889 1.08162 -7.5685 -0.00764768 0.0828531 -0.383114 
8941 1 26.0094 25.8123 3.78131 -7.17496 0.226139 -0.402687 0.190027 
10441 1 26.0056 25.8408 1.03818 -7.5085 0.309651 -0.030574 0.353064 
11941 1 23.3991 22.9837 3.77515 -7.6628 -1.19548 0.762943 0.0872832 
13441 1 26.0962 23.0651 3.72253 -7.15514 -0.704001 0.707386 -0.432563 
14941 1 23.2826 25.7629 1.01299 -7.84576 -0.265178 0.190461 0.649463 
16441 1 23.3316 25.7869 3.85444 -7.24202 -0.366674 -0.566535 -1.09546 
17941 1 25.9785 23.1086 0.899471 -7.18283 0.75298 0.0145559 1.17516 
17642 1 20.5342 22.9959 6.37162 -7.43287 -0.850875 0.677129 0.766856 
1201 2 21.929 27.0526 -0.344418 -25.6008 -0.429603 1.72798 0.0181632 
1 2 27.3568 27.2108 -0.332375 -25.9447 0.322484 0.327151 0.100868 
363 2 5.48964 5.34935 10.719 -25.6086 0.377651 0.00314672 -1.03567 
1802 2 5.53323 2.78968 7.88882 -25.4461 0.230204 -1.26546 -0.20108 
3062 2 2.72051 5.50921 7.92655 -25.1526 0.452579 -1.7278 -0.783445 
4503 2 2.75266 2.57179 10.5132 -25.7836 0.338086 0.294219 0.947345 
6002 1 1.4285 1.25564 6.56965 -7.601 0.669753 0.396153 -0.751386 
6003 1 1.45475 1.12308 11.9011 -7.52994 -0.744384 0.749178 0.289902 
7502 1 4.05523 4.01829 9.27985 -7.34764 0.396412 0.273263 -0.0179227 
9002 1 4.18371 4.03211 6.6045 -7.5149 -0.817308 0.998716 -0.532545 
9003 1 4.18493 3.96802 11.9691 -7.02154 0.292721 0.266102 -0.620463 
10502 1 1.3622 1.24388 9.2033 -7.4659 1.09757 -0.549887 0.332691 
12002 1 4.15443 1.35138 9.15468 -7.84754 0.484962 -0.106081 0.58682 
13503 1 1.54869 3.8934 11.8747 -7.39792 -0.90942 0.488241 0.653717 
15002 1 1.28295 3.92587 9.13883 -7.10642 0.995057 1.11785 0.415023 
16503 1 4.19008 1.20244 12.0341 -6.73294 0.0253908 0.303285 -1.64524 
16563 1 4.16108 6.75511 12.0691 -7.44989 -0.644326 -0.327463 -1.39804 
63 2 -0.010288 5.48969 10.5275 -25.4474 -0.311465 -1.59664 -0.0844879 
1502 2 0.0455861 2.52187 7.82343 -25.7894 -0.596098 0.901138 -0.0158743 
3002 2 2.90493 -0.0129183 7.8662 -25.233 -0.848 -1.10819 -0.519592 
3063 2 2.66354 5.30552 13.2914 -25.6181 1.27463 -0.283554 0.916644 
1503 2 0.0638442 2.61827 13.298 -25.2835 0.478722 -0.531238 0.511475 
10562 1 1.3058 6.74514 9.15118 -7.96118 0.647343 0.698987 0.853855 
6063 1 1.38249 6.67853 11.992 -8.04673 -0.261275 0.0658585 -0.706665 
12062 1 4.15066 6.66972 9.2817 -7.82592 -0.693017 1.27962 0.565115 
9302 1 9.66173 4.00483 6.53764 -7.52122 0.222502 -0.773986 -1.88478 
13802 1 6.93 4.06397 6.50713 -7.5559 -0.0092663 -0.59945 -0.342794 
10802 1 7.00604 1.16995 9.2445 -7.20059 -1.10918 0.657233 -1.3375 
6363 1 6.89656 6.76225 11.98 -7.71062 0.0673955 -0.0815554 -0.0409186 
6303 1 6.87049 1.34407 11.8305 -7.37468 0.287306 -0.557579 1.12699 
13803 1 6.92951 4.0216 11.9835 -7.40796 -0.596832 0.128605 0.458006 
15302 1 6.92971 3.97529 9.23386 -7.6062 -0.669472 -0.050947 0.0154963 
663 2 10.9615 5.29297 10.6247 -25.5584 0.465975 0.24557 -1.52283 
2102 2 10.9597 2.62362 7.79152 -25.4691 1.37224 -0.175031 -0.0925386 
3362 2 8.32959 5.30393 7.7725 -25.708 -1.05713 1.75246 1.34294 
4803 2 8.25252 2.59241 10.4672 -25.9023 0.635421 0.469861 0.938077 
6603 1 12.3237 1.21009 12.0044 -7.50074 1.17243 -0.276813 -0.155384 
7802 1 9.65425 4.0701 9.05982 -7.27707 0.318519 -0.315152 1.63566 
9303 1 9.56326 3.92245 11.8072 -7.19311 0.629142 0.250888 0.57816 
11102 1 12.3746 1.19403 9.23652 -7.47128 0.594704 0.246962 -0.619776 
12302 1 9.64114 1.37214 9.07875 -7.39557 0.269218 -0.442382 0.0137497 
14103 1 12.3225 3.93666 11.9273 -7.54737 0.209211 0.0457231 -0.170209 
15602 1 12.371 3.88111 9.21506 -7.4503 -0.57926 1.05712 -0.792298 
16803 1 9.69162 1.23472 11.8306 -7.22736 -0.681205 0.10266 0.131713 
11162 1 12.3946 6.77665 9.08658 -7.30267 -0.253134 -0.893263 -0.32707 
3302 2 8.34589 -0.0280299 7.67639 -25.747 -0.159184 0.220496 1.3084 
6362 1 6.84431 6.72554 6.66012 -7.24527 0.734142 0.366825 -1.19033 
10862 1 6.88813 6.69039 9.28013 -7.1594 0.114058 0.258069 0.525908 
12362 1 9.6738 6.79376 9.22825 -7.44476 -0.284365 0.20513 -0.132514 
16863 1 9.67608 6.62025 11.9595 -7.91216 0.0890481 0.896684 0.89646 