LAMMPS (22 Dec 2022)
  using 1 OpenMP thread(s) per MPI task
Loaded 1 plugins from C:\Program Files\LAMMPS 64-bit 23Jun2022\plugins
Loaded 0 plugins from C:\Program Files\LAMMPS 64-bit 23Jun2022-MPI\plugins
Loaded 1 plugins from C:\Program Files\LAMMPS 64-bit 22Dec2022-MSMPI\plugins
Loaded 1 plugins from C:\Program Files\LAMMPS 64-bit 28Mar2023-MPI\plugins
#------------------------------------------------------------------------------------------
# LAMMPS 64-bit 22Dec2022-MSMPI
#------------------------------------------------------------------------------------------
clear
  using 1 OpenMP thread(s) per MPI task
Loaded 1 plugins from C:\Program Files\LAMMPS 64-bit 23Jun2022\plugins
Loaded 0 plugins from C:\Program Files\LAMMPS 64-bit 23Jun2022-MPI\plugins
Loaded 1 plugins from C:\Program Files\LAMMPS 64-bit 22Dec2022-MSMPI\plugins
Loaded 1 plugins from C:\Program Files\LAMMPS 64-bit 28Mar2023-MPI\plugins
#echo both
# ---------- Initializing Simulation ---------------------------------
units metal
dimension 3
boundary p p p
atom_style atomic
atom_modify map array

read_data ./../../MoSi2.data
Reading data file ...
  orthogonal box = (0 0 0) to (3.220376 3.220376 7.869042)
  1 by 2 by 4 MPI processor grid
  reading atoms ...
  6 atoms
  read_data CPU = 0.001 seconds

replicate 1 1 1
Replication is creating a 1x1x1 = 1 times larger system...
  orthogonal box = (0 0 0) to (3.220376 3.220376 7.869042)
  1 by 2 by 4 MPI processor grid
  6 atoms
  replicate CPU = 0.000 seconds

# ---------- Defining the Interatomic Potential ---------------------
pair_style meam
pair_coeff * * ./../../library.meam Mo Si ./../../MoSi.meam Mo Si

# ---------- Running Minimization -------------------------------------
fix 1 all box/relax iso 0.0 vmax 0.001

thermo 10
thermo_style custom step pe etotal lx ly lz vol press pxx pyy pzz

min_style cg
minimize 1e-25 1e-25 5000 10000
Neighbor list info ...
  update: every = 1 steps, delay = 0 steps, check = yes
  max neighbors/atom: 2000, page size: 100000
  master list distance cutoff = 6.3
  ghost atom cutoff = 6.3
  binsize = 3.15, bins = 2 2 3
  2 neighbor lists, perpetual/occasional/extra = 2 0 0
  (1) pair meam, perpetual
      attributes: full, newton on
      pair build: full/bin/atomonly
      stencil: full/bin/3d
      bin: standard
  (2) pair meam, perpetual, half/full from (1)
      attributes: half, newton on
      pair build: halffull/newton
      stencil: none
      bin: none
WARNING: Proc sub-domain size < neighbor skin, could lead to lost atoms (src/domain.cpp:966)
Per MPI rank memory allocation (min/avg/max) = 9.64 | 9.641 | 9.641 Mbytes
   Step         PotEng         TotEng           Lx             Ly             Lz           Volume         Press           Pxx            Pyy            Pzz      
         0  -28.358639     -28.358639      3.220376       3.220376       7.869042       81.608431      1112974.5      990951.21      990951.21      1357021.2    
        10  -29.924415     -29.924415      3.2525798      3.2525798      7.9477324      84.081248      919929.38      819109.91      819109.91      1121568.3    
        20  -31.23565      -31.23565       3.2847835      3.2847835      8.0264228      86.603519      749433.16      667392.9       667392.9       913513.68    
        30  -32.315604     -32.315604      3.3169873      3.3169873      8.1051133      89.175736      599120.09      533680.84      533680.84      729998.59    
        40  -33.18571      -33.18571       3.349191       3.349191       8.1838037      91.798386      466863.07      416069.12      416069.12      568450.98    
        50  -33.865709     -33.865709      3.3813948      3.3813948      8.2624941      94.471959      350749.47      312845.72      312845.72      426556.98    
        60  -34.373771     -34.373771      3.4135986      3.4135986      8.3411845      97.196947      249059.83      222472.19      222472.19      302235.11    
        70  -34.726612     -34.726612      3.4458023      3.4458023      8.4198749      99.973837      160248.25      143565.75      143565.75      193613.26    
        80  -34.939592     -34.939592      3.4780061      3.4780061      8.4985654      102.80312      82925.346      74884.01       74884.01       99008.017    
        90  -35.026825     -35.026825      3.5102098      3.5102098      8.5772558      105.68528      15843.36       15311.156      15311.156      16907.766    
       100  -35.030541     -35.030541      3.5186081      3.5186081      8.597777       106.44566      1.1847831e-09  1214.9326      1214.9326     -2429.8652    
       103  -35.030541     -35.030541      3.5186081      3.5186081      8.597777       106.44566      3.3198436e-10  1214.9326      1214.9326     -2429.8652    
Loop time of 0.0157267 on 8 procs for 103 steps with 6 atoms

74.5% CPU use with 8 MPI tasks x 1 OpenMP threads

Minimization stats:
  Stopping criterion = energy tolerance
  Energy initial, next-to-last, final = 
     -28.3586393968447  -35.0305408317872  -35.0305408317872
  Force two-norm initial, final = 170.09978 7.5243037e-14
  Force max component initial, final = 170.07135 6.056088e-14
  Final line search alpha, max atom move = 1 6.056088e-14
  Iterations, force evaluations = 103 114

MPI task timing breakdown:
Section |  min time  |  avg time  |  max time  |%varavg| %total
---------------------------------------------------------------
Pair    | 0.00925    | 0.0093516  | 0.009423   |   0.1 | 59.46
Neigh   | 0          | 0          | 0          |   0.0 |  0.00
Comm    | 0.001542   | 0.00163    | 0.001724   |   0.1 | 10.36
Output  | 0.000112   | 0.0001215  | 0.000167   |   0.0 |  0.77
Modify  | 0          | 0          | 0          |   0.0 |  0.00
Other   |            | 0.004624   |            |       | 29.40

Nlocal:           0.75 ave           1 max           0 min
Histogram: 2 0 0 0 0 0 0 0 0 6
Nghost:         197.25 ave         200 max         195 min
Histogram: 3 0 1 0 0 0 0 0 3 1
Neighs:           25.5 ave          34 max           0 min
Histogram: 2 0 0 0 0 0 0 0 0 6
FullNghs:           51 ave          68 max           0 min
Histogram: 2 0 0 0 0 0 0 0 0 6

Total # of neighbors = 408
Ave neighs/atom = 68
Neighbor list builds = 0
Dangerous builds = 0

variable  natoms equal "count(all)"
variable      x0 equal "lx"
variable      y0 equal "ly"
variable      z0 equal "lz"
variable      v0 equal "vol"
variable   etot0 equal "etotal"
variable   ecoh0 equal "pe/v_natoms"

unfix 1
write_data ./../step2_elastic/data.in
System init for write_data ...
WARNING: Proc sub-domain size < neighbor skin, could lead to lost atoms (src/domain.cpp:966)

# ---------- For Equation of States -------------------------------------
change_box all x scale 0.94 y scale 0.94 z scale 0.94 remap
Changing box ...
  orthogonal box = (-0.043557795 -0.14911604 -0.3643675) to (3.2639338 3.369492 8.2334095)
  orthogonal box = (-0.043557795 -0.043557795 -0.3643675) to (3.2639338 3.2639338 8.2334095)
  orthogonal box = (-0.043557795 -0.043557795 -0.10643419) to (3.2639338 3.2639338 7.9754762)
run 1
WARNING: No fixes with time integration, atoms won't move (src/verlet.cpp:60)
WARNING: Proc sub-domain size < neighbor skin, could lead to lost atoms (src/domain.cpp:966)
Per MPI rank memory allocation (min/avg/max) = 8.516 | 8.516 | 8.516 Mbytes
   Step         PotEng         TotEng           Lx             Ly             Lz           Volume         Press           Pxx            Pyy            Pzz      
       103  -32.02058      -32.02058       3.3074916      3.3074916      8.0819104      88.412064      641396.84      571253.87      571253.87      781682.77    
       104  -32.02058      -32.02058       3.3074916      3.3074916      8.0819104      88.412064      641396.84      571253.87      571253.87      781682.77    
Loop time of 0.000161125 on 8 procs for 1 steps with 6 atoms

Performance: 536.230 ns/day, 0.045 hours/ns, 6206.362 timesteps/s, 37.238 katom-step/s
0.0% CPU use with 8 MPI tasks x 1 OpenMP threads

MPI task timing breakdown:
Section |  min time  |  avg time  |  max time  |%varavg| %total
---------------------------------------------------------------
Pair    | 7.8e-05    | 9.175e-05  | 0.000106   |   0.0 | 56.94
Neigh   | 0          | 0          | 0          |   0.0 |  0.00
Comm    | 3.9e-05    | 5.25e-05   | 6.6e-05    |   0.0 | 32.58
Output  | 1.1e-05    | 1.2125e-05 | 1.3e-05    |   0.0 |  7.53
Modify  | 0          | 1.25e-07   | 1e-06      |   0.0 |  0.08
Other   |            | 4.625e-06  |            |       |  2.87

Nlocal:           0.75 ave           1 max           0 min
Histogram: 2 0 0 0 0 0 0 0 0 6
Nghost:         197.25 ave         200 max         195 min
Histogram: 3 0 1 0 0 0 0 0 3 1
Neighs:           22.5 ave          30 max           0 min
Histogram: 2 0 0 0 0 0 0 0 0 6
FullNghs:           45 ave          60 max           0 min
Histogram: 2 0 0 0 0 0 0 0 0 6

Total # of neighbors = 360
Ave neighs/atom = 60
Neighbor list builds = 0
Dangerous builds = 0
print "# Lattice constant (Angstroms), Volume (Angstrom), Total energy (eV), Cohesive energy (eV/atom)" file lattice_cohesive_energy.txt screen no


# Loop over lattice constants
variable i loop 49 # Number of steps
label loop

change_box all x scale 1.0025 y scale 1.0025 z scale 1.0025 remap
Changing box ...
  orthogonal box = (-0.047692159 -0.043557795 -0.10643419) to (3.2680682 3.2639338 7.9754762)
  orthogonal box = (-0.047692159 -0.047692159 -0.10643419) to (3.2680682 3.2680682 7.9754762)
  orthogonal box = (-0.047692159 -0.047692159 -0.11653658) to (3.2680682 3.2680682 7.9855786)

run 1
WARNING: No fixes with time integration, atoms won't move (src/verlet.cpp:60)
WARNING: Proc sub-domain size < neighbor skin, could lead to lost atoms (src/domain.cpp:966)
Per MPI rank memory allocation (min/avg/max) = 8.516 | 8.516 | 8.516 Mbytes
   Step         PotEng         TotEng           Lx             Ly             Lz           Volume         Press           Pxx            Pyy            Pzz      
       104  -32.278983     -32.278983      3.3157603      3.3157603      8.1021152      89.076813      604438.63      538387.39      538387.39      736541.12    
       105  -32.278983     -32.278983      3.3157603      3.3157603      8.1021152      89.076813      604438.63      538387.39      538387.39      736541.12    
Loop time of 0.00011 on 8 procs for 1 steps with 6 atoms

Performance: 785.455 ns/day, 0.031 hours/ns, 9090.909 timesteps/s, 54.545 katom-step/s
0.0% CPU use with 8 MPI tasks x 1 OpenMP threads

MPI task timing breakdown:
Section |  min time  |  avg time  |  max time  |%varavg| %total
---------------------------------------------------------------
Pair    | 8e-05      | 8.05e-05   | 8.1e-05    |   0.0 | 73.18
Neigh   | 0          | 0          | 0          |   0.0 |  0.00
Comm    | 1.3e-05    | 1.4e-05    | 1.5e-05    |   0.0 | 12.73
Output  | 1.1e-05    | 1.15e-05   | 1.2e-05    |   0.0 | 10.45
Modify  | 0          | 1.25e-07   | 1e-06      |   0.0 |  0.11
Other   |            | 3.875e-06  |            |       |  3.52

Nlocal:           0.75 ave           1 max           0 min
Histogram: 2 0 0 0 0 0 0 0 0 6
Nghost:         197.25 ave         200 max         195 min
Histogram: 3 0 1 0 0 0 0 0 3 1
Neighs:           22.5 ave          30 max           0 min
Histogram: 2 0 0 0 0 0 0 0 0 6
FullNghs:           45 ave          60 max           0 min
Histogram: 2 0 0 0 0 0 0 0 0 6

Total # of neighbors = 360
Ave neighs/atom = 60
Neighbor list builds = 0
Dangerous builds = 0
variable  natoms equal "count(all)"
variable xlength equal "lx"
variable  volume equal "vol"
variable  etotal equal "etotal"
variable    ecoh equal "pe/v_natoms"
print "${xlength}, ${volume}, ${etotal}, ${ecoh}" append lattice_cohesive_energy.txt screen no

next i
jump SELF loop

change_box all x scale 1.0025 y scale 1.0025 z scale 1.0025 remap
Changing box ...
  orthogonal box = (-0.05183686 -0.047692159 -0.11653658) to (3.2722129 3.2680682 7.9855786)
  orthogonal box = (-0.05183686 -0.05183686 -0.11653658) to (3.2722129 3.2722129 7.9855786)
  orthogonal box = (-0.05183686 -0.05183686 -0.12666422) to (3.2722129 3.2722129 7.9957062)

run 1
WARNING: No fixes with time integration, atoms won't move (src/verlet.cpp:60)
WARNING: Proc sub-domain size < neighbor skin, could lead to lost atoms (src/domain.cpp:966)
Per MPI rank memory allocation (min/avg/max) = 8.516 | 8.516 | 8.516 Mbytes
   Step         PotEng         TotEng           Lx             Ly             Lz           Volume         Press           Pxx            Pyy            Pzz      
       105  -32.524111     -32.524111      3.3240497      3.3240497      8.1223704      89.746561      568586.39      506506.59      506506.59      692745.98    
       106  -32.524111     -32.524111      3.3240497      3.3240497      8.1223704      89.746561      568586.39      506506.59      506506.59      692745.98    
Loop time of 0.000107125 on 8 procs for 1 steps with 6 atoms

Performance: 806.534 ns/day, 0.030 hours/ns, 9334.889 timesteps/s, 56.009 katom-step/s
0.0% CPU use with 8 MPI tasks x 1 OpenMP threads

MPI task timing breakdown:
Section |  min time  |  avg time  |  max time  |%varavg| %total
---------------------------------------------------------------
Pair    | 7.7e-05    | 7.7875e-05 | 7.9e-05    |   0.0 | 72.70
Neigh   | 0          | 0          | 0          |   0.0 |  0.00
Comm    | 1.2e-05    | 1.3375e-05 | 1.4e-05    |   0.0 | 12.49
Output  | 1.1e-05    | 1.175e-05  | 1.2e-05    |   0.0 | 10.97
Modify  | 0          | 2.5e-07    | 1e-06      |   0.0 |  0.23
Other   |            | 3.875e-06  |            |       |  3.62

Nlocal:           0.75 ave           1 max           0 min
Histogram: 2 0 0 0 0 0 0 0 0 6
Nghost:         197.25 ave         200 max         195 min
Histogram: 3 0 1 0 0 0 0 0 3 1
Neighs:           22.5 ave          30 max           0 min
Histogram: 2 0 0 0 0 0 0 0 0 6
FullNghs:           45 ave          60 max           0 min
Histogram: 2 0 0 0 0 0 0 0 0 6

Total # of neighbors = 360
Ave neighs/atom = 60
Neighbor list builds = 0
Dangerous builds = 0
variable  natoms equal "count(all)"
variable xlength equal "lx"
variable  volume equal "vol"
variable  etotal equal "etotal"
variable    ecoh equal "pe/v_natoms"
print "${xlength}, ${volume}, ${etotal}, ${ecoh}" append lattice_cohesive_energy.txt screen no

next i
jump SELF loop

change_box all x scale 1.0025 y scale 1.0025 z scale 1.0025 remap
Changing box ...
  orthogonal box = (-0.055991922 -0.05183686 -0.12666422) to (3.2763679 3.2722129 7.9957062)
  orthogonal box = (-0.055991922 -0.055991922 -0.12666422) to (3.2763679 3.2763679 7.9957062)
  orthogonal box = (-0.055991922 -0.055991922 -0.13681719) to (3.2763679 3.2763679 8.0058592)

run 1
WARNING: No fixes with time integration, atoms won't move (src/verlet.cpp:60)
WARNING: Proc sub-domain size < neighbor skin, could lead to lost atoms (src/domain.cpp:966)
Per MPI rank memory allocation (min/avg/max) = 8.516 | 8.516 | 8.516 Mbytes
   Step         PotEng         TotEng           Lx             Ly             Lz           Volume         Press           Pxx            Pyy            Pzz      
       106  -32.756212     -32.756212      3.3323598      3.3323598      8.1426764      90.421344      533814.75      475588.81      475588.81      650266.64    
       107  -32.756212     -32.756212      3.3323598      3.3323598      8.1426764      90.421344      533814.75      475588.81      475588.81      650266.64    
Loop time of 0.000117 on 8 procs for 1 steps with 6 atoms

Performance: 738.462 ns/day, 0.033 hours/ns, 8547.009 timesteps/s, 51.282 katom-step/s
0.0% CPU use with 8 MPI tasks x 1 OpenMP threads

MPI task timing breakdown:
Section |  min time  |  avg time  |  max time  |%varavg| %total
---------------------------------------------------------------
Pair    | 7.6e-05    | 7.85e-05   | 8.1e-05    |   0.0 | 67.09
Neigh   | 0          | 0          | 0          |   0.0 |  0.00
Comm    | 1.5e-05    | 1.7125e-05 | 1.9e-05    |   0.0 | 14.64
Output  | 1.5e-05    | 1.55e-05   | 1.7e-05    |   0.0 | 13.25
Modify  | 0          | 0          | 0          |   0.0 |  0.00
Other   |            | 5.875e-06  |            |       |  5.02

Nlocal:           0.75 ave           1 max           0 min
Histogram: 2 0 0 0 0 0 0 0 0 6
Nghost:         197.25 ave         200 max         195 min
Histogram: 3 0 1 0 0 0 0 0 3 1
Neighs:           22.5 ave          30 max           0 min
Histogram: 2 0 0 0 0 0 0 0 0 6
FullNghs:           45 ave          60 max           0 min
Histogram: 2 0 0 0 0 0 0 0 0 6

Total # of neighbors = 360
Ave neighs/atom = 60
Neighbor list builds = 0
Dangerous builds = 0
variable  natoms equal "count(all)"
variable xlength equal "lx"
variable  volume equal "vol"
variable  etotal equal "etotal"
variable    ecoh equal "pe/v_natoms"
print "${xlength}, ${volume}, ${etotal}, ${ecoh}" append lattice_cohesive_energy.txt screen no

next i
jump SELF loop

change_box all x scale 1.0025 y scale 1.0025 z scale 1.0025 remap
Changing box ...
  orthogonal box = (-0.060157372 -0.055991922 -0.13681719) to (3.2805334 3.2763679 8.0058592)
  orthogonal box = (-0.060157372 -0.060157372 -0.13681719) to (3.2805334 3.2805334 8.0058592)
  orthogonal box = (-0.060157372 -0.060157372 -0.14699553) to (3.2805334 3.2805334 8.0160375)

run 1
WARNING: No fixes with time integration, atoms won't move (src/verlet.cpp:60)
WARNING: Proc sub-domain size < neighbor skin, could lead to lost atoms (src/domain.cpp:966)
Per MPI rank memory allocation (min/avg/max) = 8.516 | 8.516 | 8.516 Mbytes
   Step         PotEng         TotEng           Lx             Ly             Lz           Volume         Press           Pxx            Pyy            Pzz      
       107  -32.975528     -32.975528      3.3406907      3.3406907      8.1630331      91.101201      500098.77      445611.65      445611.65      609073.01    
       108  -32.975528     -32.975528      3.3406907      3.3406907      8.1630331      91.101201      500098.77      445611.65      445611.65      609073.01    
Loop time of 0.000108125 on 8 procs for 1 steps with 6 atoms

Performance: 799.075 ns/day, 0.030 hours/ns, 9248.555 timesteps/s, 55.491 katom-step/s
0.0% CPU use with 8 MPI tasks x 1 OpenMP threads

MPI task timing breakdown:
Section |  min time  |  avg time  |  max time  |%varavg| %total
---------------------------------------------------------------
Pair    | 7.7e-05    | 7.8375e-05 | 7.9e-05    |   0.0 | 72.49
Neigh   | 0          | 0          | 0          |   0.0 |  0.00
Comm    | 1.3e-05    | 1.4e-05    | 1.5e-05    |   0.0 | 12.95
Output  | 1.2e-05    | 1.25e-05   | 1.3e-05    |   0.0 | 11.56
Modify  | 0          | 0          | 0          |   0.0 |  0.00
Other   |            | 3.25e-06   |            |       |  3.01

Nlocal:           0.75 ave           1 max           0 min
Histogram: 2 0 0 0 0 0 0 0 0 6
Nghost:         197.25 ave         200 max         195 min
Histogram: 3 0 1 0 0 0 0 0 3 1
Neighs:           22.5 ave          30 max           0 min
Histogram: 2 0 0 0 0 0 0 0 0 6
FullNghs:           45 ave          60 max           0 min
Histogram: 2 0 0 0 0 0 0 0 0 6

Total # of neighbors = 360
Ave neighs/atom = 60
Neighbor list builds = 0
Dangerous builds = 0
variable  natoms equal "count(all)"
variable xlength equal "lx"
variable  volume equal "vol"
variable  etotal equal "etotal"
variable    ecoh equal "pe/v_natoms"
print "${xlength}, ${volume}, ${etotal}, ${ecoh}" append lattice_cohesive_energy.txt screen no

next i
jump SELF loop

change_box all x scale 1.0025 y scale 1.0025 z scale 1.0025 remap
Changing box ...
  orthogonal box = (-0.064333235 -0.060157372 -0.14699553) to (3.2847092 3.2805334 8.0160375)
  orthogonal box = (-0.064333235 -0.064333235 -0.14699553) to (3.2847092 3.2847092 8.0160375)
  orthogonal box = (-0.064333235 -0.064333235 -0.15719932) to (3.2847092 3.2847092 8.0262413)

run 1
WARNING: No fixes with time integration, atoms won't move (src/verlet.cpp:60)
WARNING: Proc sub-domain size < neighbor skin, could lead to lost atoms (src/domain.cpp:966)
Per MPI rank memory allocation (min/avg/max) = 8.516 | 8.516 | 8.516 Mbytes
   Step         PotEng         TotEng           Lx             Ly             Lz           Volume         Press           Pxx            Pyy            Pzz      
       108  -33.182301     -33.182301      3.3490425      3.3490425      8.1834406      91.78617       467414.05      416553.33      416553.33      569135.49    
       109  -33.182301     -33.182301      3.3490425      3.3490425      8.1834406      91.78617       467414.05      416553.33      416553.33      569135.49    
Loop time of 0.000107 on 8 procs for 1 steps with 6 atoms

Performance: 807.477 ns/day, 0.030 hours/ns, 9345.794 timesteps/s, 56.075 katom-step/s
0.0% CPU use with 8 MPI tasks x 1 OpenMP threads

MPI task timing breakdown:
Section |  min time  |  avg time  |  max time  |%varavg| %total
---------------------------------------------------------------
Pair    | 7.6e-05    | 7.675e-05  | 7.7e-05    |   0.0 | 71.73
Neigh   | 0          | 0          | 0          |   0.0 |  0.00
Comm    | 1.3e-05    | 1.45e-05   | 1.5e-05    |   0.0 | 13.55
Output  | 1.1e-05    | 1.15e-05   | 1.2e-05    |   0.0 | 10.75
Modify  | 0          | 0          | 0          |   0.0 |  0.00
Other   |            | 4.25e-06   |            |       |  3.97

Nlocal:           0.75 ave           1 max           0 min
Histogram: 2 0 0 0 0 0 0 0 0 6
Nghost:         197.25 ave         200 max         195 min
Histogram: 3 0 1 0 0 0 0 0 3 1
Neighs:           22.5 ave          30 max           0 min
Histogram: 2 0 0 0 0 0 0 0 0 6
FullNghs:           45 ave          60 max           0 min
Histogram: 2 0 0 0 0 0 0 0 0 6

Total # of neighbors = 360
Ave neighs/atom = 60
Neighbor list builds = 0
Dangerous builds = 0
variable  natoms equal "count(all)"
variable xlength equal "lx"
variable  volume equal "vol"
variable  etotal equal "etotal"
variable    ecoh equal "pe/v_natoms"
print "${xlength}, ${volume}, ${etotal}, ${ecoh}" append lattice_cohesive_energy.txt screen no

next i
jump SELF loop

change_box all x scale 1.0025 y scale 1.0025 z scale 1.0025 remap
Changing box ...
  orthogonal box = (-0.068519538 -0.064333235 -0.15719932) to (3.2888955 3.2847092 8.0262413)
  orthogonal box = (-0.068519538 -0.068519538 -0.15719932) to (3.2888955 3.2888955 8.0262413)
  orthogonal box = (-0.068519538 -0.068519538 -0.16742862) to (3.2888955 3.2888955 8.0364706)

run 1
WARNING: No fixes with time integration, atoms won't move (src/verlet.cpp:60)
WARNING: Proc sub-domain size < neighbor skin, could lead to lost atoms (src/domain.cpp:966)
Per MPI rank memory allocation (min/avg/max) = 8.516 | 8.516 | 8.516 Mbytes
   Step         PotEng         TotEng           Lx             Ly             Lz           Volume         Press           Pxx            Pyy            Pzz      
       109  -33.376767     -33.376767      3.3574151      3.3574151      8.2038992      92.476288      435736.54      388392.27      388392.27      530425.07    
       110  -33.376767     -33.376767      3.3574151      3.3574151      8.2038992      92.476288      435736.54      388392.27      388392.27      530425.07    
Loop time of 0.00015725 on 8 procs for 1 steps with 6 atoms

Performance: 549.444 ns/day, 0.044 hours/ns, 6359.300 timesteps/s, 38.156 katom-step/s
0.0% CPU use with 8 MPI tasks x 1 OpenMP threads

MPI task timing breakdown:
Section |  min time  |  avg time  |  max time  |%varavg| %total
---------------------------------------------------------------
Pair    | 9.9e-05    | 0.00011262 | 0.000126   |   0.0 | 71.62
Neigh   | 0          | 0          | 0          |   0.0 |  0.00
Comm    | 1.4e-05    | 2.775e-05  | 4.1e-05    |   0.0 | 17.65
Output  | 1.1e-05    | 1.25e-05   | 1.3e-05    |   0.0 |  7.95
Modify  | 0          | 1.25e-07   | 1e-06      |   0.0 |  0.08
Other   |            | 4.25e-06   |            |       |  2.70

Nlocal:           0.75 ave           1 max           0 min
Histogram: 2 0 0 0 0 0 0 0 0 6
Nghost:         197.25 ave         200 max         195 min
Histogram: 3 0 1 0 0 0 0 0 3 1
Neighs:           22.5 ave          30 max           0 min
Histogram: 2 0 0 0 0 0 0 0 0 6
FullNghs:           45 ave          60 max           0 min
Histogram: 2 0 0 0 0 0 0 0 0 6

Total # of neighbors = 360
Ave neighs/atom = 60
Neighbor list builds = 0
Dangerous builds = 0
variable  natoms equal "count(all)"
variable xlength equal "lx"
variable  volume equal "vol"
variable  etotal equal "etotal"
variable    ecoh equal "pe/v_natoms"
print "${xlength}, ${volume}, ${etotal}, ${ecoh}" append lattice_cohesive_energy.txt screen no

next i
jump SELF loop

change_box all x scale 1.0025 y scale 1.0025 z scale 1.0025 remap
Changing box ...
  orthogonal box = (-0.072716307 -0.068519538 -0.16742862) to (3.2930923 3.2888955 8.0364706)
  orthogonal box = (-0.072716307 -0.072716307 -0.16742862) to (3.2930923 3.2930923 8.0364706)
  orthogonal box = (-0.072716307 -0.072716307 -0.1776835) to (3.2930923 3.2930923 8.0467255)

run 1
WARNING: No fixes with time integration, atoms won't move (src/verlet.cpp:60)
WARNING: Proc sub-domain size < neighbor skin, could lead to lost atoms (src/domain.cpp:966)
Per MPI rank memory allocation (min/avg/max) = 8.516 | 8.516 | 8.516 Mbytes
   Step         PotEng         TotEng           Lx             Ly             Lz           Volume         Press           Pxx            Pyy            Pzz      
       110  -33.559163     -33.559163      3.3658086      3.3658086      8.224409       93.171596      405042.74      361107.49      361107.49      492913.25    
       111  -33.559163     -33.559163      3.3658086      3.3658086      8.224409       93.171596      405042.74      361107.49      361107.49      492913.25    
Loop time of 0.000109875 on 8 procs for 1 steps with 6 atoms

Performance: 786.348 ns/day, 0.031 hours/ns, 9101.251 timesteps/s, 54.608 katom-step/s
0.0% CPU use with 8 MPI tasks x 1 OpenMP threads

MPI task timing breakdown:
Section |  min time  |  avg time  |  max time  |%varavg| %total
---------------------------------------------------------------
Pair    | 7.7e-05    | 7.725e-05  | 7.8e-05    |   0.0 | 70.31
Neigh   | 0          | 0          | 0          |   0.0 |  0.00
Comm    | 1.4e-05    | 1.425e-05  | 1.5e-05    |   0.0 | 12.97
Output  | 1.4e-05    | 1.4875e-05 | 1.6e-05    |   0.0 | 13.54
Modify  | 0          | 0          | 0          |   0.0 |  0.00
Other   |            | 3.5e-06    |            |       |  3.19

Nlocal:           0.75 ave           1 max           0 min
Histogram: 2 0 0 0 0 0 0 0 0 6
Nghost:         197.25 ave         200 max         195 min
Histogram: 3 0 1 0 0 0 0 0 3 1
Neighs:           22.5 ave          30 max           0 min
Histogram: 2 0 0 0 0 0 0 0 0 6
FullNghs:           45 ave          60 max           0 min
Histogram: 2 0 0 0 0 0 0 0 0 6

Total # of neighbors = 360
Ave neighs/atom = 60
Neighbor list builds = 0
Dangerous builds = 0
variable  natoms equal "count(all)"
variable xlength equal "lx"
variable  volume equal "vol"
variable  etotal equal "etotal"
variable    ecoh equal "pe/v_natoms"
print "${xlength}, ${volume}, ${etotal}, ${ecoh}" append lattice_cohesive_energy.txt screen no

next i
jump SELF loop

change_box all x scale 1.0025 y scale 1.0025 z scale 1.0025 remap
Changing box ...
  orthogonal box = (-0.076923568 -0.072716307 -0.1776835) to (3.2972996 3.2930923 8.0467255)
  orthogonal box = (-0.076923568 -0.076923568 -0.1776835) to (3.2972996 3.2972996 8.0467255)
  orthogonal box = (-0.076923568 -0.076923568 -0.18796401) to (3.2972996 3.2972996 8.057006)

run 1
WARNING: No fixes with time integration, atoms won't move (src/verlet.cpp:60)
WARNING: Proc sub-domain size < neighbor skin, could lead to lost atoms (src/domain.cpp:966)
Per MPI rank memory allocation (min/avg/max) = 8.516 | 8.516 | 8.516 Mbytes
   Step         PotEng         TotEng           Lx             Ly             Lz           Volume         Press           Pxx            Pyy            Pzz      
       111  -33.729721     -33.729721      3.3742231      3.3742231      8.24497        93.872131      375309.52      334678.23      334678.23      456572.1     
       112  -33.729721     -33.729721      3.3742231      3.3742231      8.24497        93.872131      375309.52      334678.23      334678.23      456572.1     
Loop time of 0.000104 on 8 procs for 1 steps with 6 atoms

Performance: 830.769 ns/day, 0.029 hours/ns, 9615.385 timesteps/s, 57.692 katom-step/s
0.0% CPU use with 8 MPI tasks x 1 OpenMP threads

MPI task timing breakdown:
Section |  min time  |  avg time  |  max time  |%varavg| %total
---------------------------------------------------------------
Pair    | 7.4e-05    | 7.5375e-05 | 7.6e-05    |   0.0 | 72.48
Neigh   | 0          | 0          | 0          |   0.0 |  0.00
Comm    | 1.2e-05    | 1.3625e-05 | 1.5e-05    |   0.0 | 13.10
Output  | 1e-05      | 1.075e-05  | 1.1e-05    |   0.0 | 10.34
Modify  | 0          | 0          | 0          |   0.0 |  0.00
Other   |            | 4.25e-06   |            |       |  4.09

Nlocal:           0.75 ave           1 max           0 min
Histogram: 2 0 0 0 0 0 0 0 0 6
Nghost:         197.25 ave         200 max         195 min
Histogram: 3 0 1 0 0 0 0 0 3 1
Neighs:           22.5 ave          30 max           0 min
Histogram: 2 0 0 0 0 0 0 0 0 6
FullNghs:           45 ave          60 max           0 min
Histogram: 2 0 0 0 0 0 0 0 0 6

Total # of neighbors = 360
Ave neighs/atom = 60
Neighbor list builds = 0
Dangerous builds = 0
variable  natoms equal "count(all)"
variable xlength equal "lx"
variable  volume equal "vol"
variable  etotal equal "etotal"
variable    ecoh equal "pe/v_natoms"
print "${xlength}, ${volume}, ${etotal}, ${ecoh}" append lattice_cohesive_energy.txt screen no

next i
jump SELF loop

change_box all x scale 1.0025 y scale 1.0025 z scale 1.0025 remap
Changing box ...
  orthogonal box = (-0.081141347 -0.076923568 -0.18796401) to (3.3015173 3.2972996 8.057006)
  orthogonal box = (-0.081141347 -0.081141347 -0.18796401) to (3.3015173 3.3015173 8.057006)
  orthogonal box = (-0.081141347 -0.081141347 -0.19827022) to (3.3015173 3.3015173 8.0673122)

run 1
WARNING: No fixes with time integration, atoms won't move (src/verlet.cpp:60)
WARNING: Proc sub-domain size < neighbor skin, could lead to lost atoms (src/domain.cpp:966)
Per MPI rank memory allocation (min/avg/max) = 8.516 | 8.516 | 8.516 Mbytes
   Step         PotEng         TotEng           Lx             Ly             Lz           Volume         Press           Pxx            Pyy            Pzz      
       112  -33.888671     -33.888671      3.3826587      3.3826587      8.2655824      94.577934      346514.22      309084.25      309084.25      421374.16    
       113  -33.888671     -33.888671      3.3826587      3.3826587      8.2655824      94.577934      346514.22      309084.25      309084.25      421374.16    
Loop time of 0.000104875 on 8 procs for 1 steps with 6 atoms

Performance: 823.838 ns/day, 0.029 hours/ns, 9535.161 timesteps/s, 57.211 katom-step/s
0.0% CPU use with 8 MPI tasks x 1 OpenMP threads

MPI task timing breakdown:
Section |  min time  |  avg time  |  max time  |%varavg| %total
---------------------------------------------------------------
Pair    | 7.6e-05    | 7.625e-05  | 7.7e-05    |   0.0 | 72.71
Neigh   | 0          | 0          | 0          |   0.0 |  0.00
Comm    | 1.2e-05    | 1.3625e-05 | 1.5e-05    |   0.0 | 12.99
Output  | 1e-05      | 1.1e-05    | 1.2e-05    |   0.0 | 10.49
Modify  | 0          | 1.25e-07   | 1e-06      |   0.0 |  0.12
Other   |            | 3.875e-06  |            |       |  3.69

Nlocal:           0.75 ave           1 max           0 min
Histogram: 2 0 0 0 0 0 0 0 0 6
Nghost:         197.25 ave         200 max         195 min
Histogram: 3 0 1 0 0 0 0 0 3 1
Neighs:           22.5 ave          30 max           0 min
Histogram: 2 0 0 0 0 0 0 0 0 6
FullNghs:           45 ave          60 max           0 min
Histogram: 2 0 0 0 0 0 0 0 0 6

Total # of neighbors = 360
Ave neighs/atom = 60
Neighbor list builds = 0
Dangerous builds = 0
variable  natoms equal "count(all)"
variable xlength equal "lx"
variable  volume equal "vol"
variable  etotal equal "etotal"
variable    ecoh equal "pe/v_natoms"
print "${xlength}, ${volume}, ${etotal}, ${ecoh}" append lattice_cohesive_energy.txt screen no

next i
jump SELF loop

change_box all x scale 1.0025 y scale 1.0025 z scale 1.0025 remap
Changing box ...
  orthogonal box = (-0.08536967 -0.081141347 -0.19827022) to (3.3057457 3.3015173 8.0673122)
  orthogonal box = (-0.08536967 -0.08536967 -0.19827022) to (3.3057457 3.3057457 8.0673122)
  orthogonal box = (-0.08536967 -0.08536967 -0.2086022) to (3.3057457 3.3057457 8.0776442)

run 1
WARNING: No fixes with time integration, atoms won't move (src/verlet.cpp:60)
WARNING: Proc sub-domain size < neighbor skin, could lead to lost atoms (src/domain.cpp:966)
Per MPI rank memory allocation (min/avg/max) = 8.516 | 8.516 | 8.516 Mbytes
   Step         PotEng         TotEng           Lx             Ly             Lz           Volume         Press           Pxx            Pyy            Pzz      
       113  -34.036239     -34.036239      3.3911153      3.3911153      8.2862464      95.289043      318634.61      284305.65      284305.65      387292.53    
       114  -34.036239     -34.036239      3.3911153      3.3911153      8.2862464      95.289043      318634.61      284305.65      284305.65      387292.53    
Loop time of 0.00010425 on 8 procs for 1 steps with 6 atoms

Performance: 828.777 ns/day, 0.029 hours/ns, 9592.326 timesteps/s, 57.554 katom-step/s
0.0% CPU use with 8 MPI tasks x 1 OpenMP threads

MPI task timing breakdown:
Section |  min time  |  avg time  |  max time  |%varavg| %total
---------------------------------------------------------------
Pair    | 7.6e-05    | 7.6625e-05 | 7.7e-05    |   0.0 | 73.50
Neigh   | 0          | 0          | 0          |   0.0 |  0.00
Comm    | 1.2e-05    | 1.2875e-05 | 1.3e-05    |   0.0 | 12.35
Output  | 1e-05      | 1.075e-05  | 1.2e-05    |   0.0 | 10.31
Modify  | 0          | 0          | 0          |   0.0 |  0.00
Other   |            | 4e-06      |            |       |  3.84

Nlocal:           0.75 ave           1 max           0 min
Histogram: 2 0 0 0 0 0 0 0 0 6
Nghost:         197.25 ave         200 max         195 min
Histogram: 3 0 1 0 0 0 0 0 3 1
Neighs:           22.5 ave          30 max           0 min
Histogram: 2 0 0 0 0 0 0 0 0 6
FullNghs:           45 ave          60 max           0 min
Histogram: 2 0 0 0 0 0 0 0 0 6

Total # of neighbors = 360
Ave neighs/atom = 60
Neighbor list builds = 0
Dangerous builds = 0
variable  natoms equal "count(all)"
variable xlength equal "lx"
variable  volume equal "vol"
variable  etotal equal "etotal"
variable    ecoh equal "pe/v_natoms"
print "${xlength}, ${volume}, ${etotal}, ${ecoh}" append lattice_cohesive_energy.txt screen no

next i
jump SELF loop

change_box all x scale 1.0025 y scale 1.0025 z scale 1.0025 remap
Changing box ...
  orthogonal box = (-0.089608564 -0.08536967 -0.2086022) to (3.3099846 3.3057457 8.0776442)
  orthogonal box = (-0.089608564 -0.089608564 -0.2086022) to (3.3099846 3.3099846 8.0776442)
  orthogonal box = (-0.089608564 -0.089608564 -0.21896001) to (3.3099846 3.3099846 8.088002)

run 1
WARNING: No fixes with time integration, atoms won't move (src/verlet.cpp:60)
WARNING: Proc sub-domain size < neighbor skin, could lead to lost atoms (src/domain.cpp:966)
Per MPI rank memory allocation (min/avg/max) = 8.516 | 8.516 | 8.516 Mbytes
   Step         PotEng         TotEng           Lx             Ly             Lz           Volume         Press           Pxx            Pyy            Pzz      
       114  -34.172651     -34.172651      3.3995931      3.3995931      8.306962       96.005499      291648.83      260322.87      260322.87      354300.77    
       115  -34.172651     -34.172651      3.3995931      3.3995931      8.306962       96.005499      291648.83      260322.87      260322.87      354300.77    
Loop time of 0.000105875 on 8 procs for 1 steps with 6 atoms

Performance: 816.057 ns/day, 0.029 hours/ns, 9445.100 timesteps/s, 56.671 katom-step/s
0.0% CPU use with 8 MPI tasks x 1 OpenMP threads

MPI task timing breakdown:
Section |  min time  |  avg time  |  max time  |%varavg| %total
---------------------------------------------------------------
Pair    | 7.7e-05    | 7.75e-05   | 7.8e-05    |   0.0 | 73.20
Neigh   | 0          | 0          | 0          |   0.0 |  0.00
Comm    | 1.3e-05    | 1.325e-05  | 1.4e-05    |   0.0 | 12.51
Output  | 1e-05      | 1.1e-05    | 1.2e-05    |   0.0 | 10.39
Modify  | 0          | 2.5e-07    | 1e-06      |   0.0 |  0.24
Other   |            | 3.875e-06  |            |       |  3.66

Nlocal:           0.75 ave           1 max           0 min
Histogram: 2 0 0 0 0 0 0 0 0 6
Nghost:         197.25 ave         200 max         195 min
Histogram: 3 0 1 0 0 0 0 0 3 1
Neighs:           22.5 ave          30 max           0 min
Histogram: 2 0 0 0 0 0 0 0 0 6
FullNghs:           45 ave          60 max           0 min
Histogram: 2 0 0 0 0 0 0 0 0 6

Total # of neighbors = 360
Ave neighs/atom = 60
Neighbor list builds = 0
Dangerous builds = 0
variable  natoms equal "count(all)"
variable xlength equal "lx"
variable  volume equal "vol"
variable  etotal equal "etotal"
variable    ecoh equal "pe/v_natoms"
print "${xlength}, ${volume}, ${etotal}, ${ecoh}" append lattice_cohesive_energy.txt screen no

next i
jump SELF loop

change_box all x scale 1.0025 y scale 1.0025 z scale 1.0025 remap
Changing box ...
  orthogonal box = (-0.093858056 -0.089608564 -0.21896001) to (3.3142341 3.3099846 8.088002)
  orthogonal box = (-0.093858056 -0.093858056 -0.21896001) to (3.3142341 3.3142341 8.088002)
  orthogonal box = (-0.093858056 -0.093858056 -0.22934371) to (3.3142341 3.3142341 8.0983857)

run 1
WARNING: No fixes with time integration, atoms won't move (src/verlet.cpp:60)
WARNING: Proc sub-domain size < neighbor skin, could lead to lost atoms (src/domain.cpp:966)
Per MPI rank memory allocation (min/avg/max) = 8.516 | 8.516 | 8.516 Mbytes
   Step         PotEng         TotEng           Lx             Ly             Lz           Volume         Press           Pxx            Pyy            Pzz      
       115  -34.298128     -34.298128      3.4080921      3.4080921      8.3277294      96.727342      265535.54      237116.81      237116.81      322373       
       116  -34.298128     -34.298128      3.4080921      3.4080921      8.3277294      96.727342      265535.54      237116.81      237116.81      322373       
Loop time of 0.000104375 on 8 procs for 1 steps with 6 atoms

Performance: 827.784 ns/day, 0.029 hours/ns, 9580.838 timesteps/s, 57.485 katom-step/s
0.0% CPU use with 8 MPI tasks x 1 OpenMP threads

MPI task timing breakdown:
Section |  min time  |  avg time  |  max time  |%varavg| %total
---------------------------------------------------------------
Pair    | 7.6e-05    | 7.675e-05  | 7.7e-05    |   0.0 | 73.53
Neigh   | 0          | 0          | 0          |   0.0 |  0.00
Comm    | 1.2e-05    | 1.3e-05    | 1.4e-05    |   0.0 | 12.46
Output  | 1e-05      | 1.0875e-05 | 1.2e-05    |   0.0 | 10.42
Modify  | 0          | 1.25e-07   | 1e-06      |   0.0 |  0.12
Other   |            | 3.625e-06  |            |       |  3.47

Nlocal:           0.75 ave           1 max           0 min
Histogram: 2 0 0 0 0 0 0 0 0 6
Nghost:         197.25 ave         200 max         195 min
Histogram: 3 0 1 0 0 0 0 0 3 1
Neighs:           22.5 ave          30 max           0 min
Histogram: 2 0 0 0 0 0 0 0 0 6
FullNghs:           45 ave          60 max           0 min
Histogram: 2 0 0 0 0 0 0 0 0 6

Total # of neighbors = 360
Ave neighs/atom = 60
Neighbor list builds = 0
Dangerous builds = 0
variable  natoms equal "count(all)"
variable xlength equal "lx"
variable  volume equal "vol"
variable  etotal equal "etotal"
variable    ecoh equal "pe/v_natoms"
print "${xlength}, ${volume}, ${etotal}, ${ecoh}" append lattice_cohesive_energy.txt screen no

next i
jump SELF loop

change_box all x scale 1.0025 y scale 1.0025 z scale 1.0025 remap
Changing box ...
  orthogonal box = (-0.098118171 -0.093858056 -0.22934371) to (3.3184942 3.3142341 8.0983857)
  orthogonal box = (-0.098118171 -0.098118171 -0.22934371) to (3.3184942 3.3184942 8.0983857)
  orthogonal box = (-0.098118171 -0.098118171 -0.23975337) to (3.3184942 3.3184942 8.1087954)

run 1
WARNING: No fixes with time integration, atoms won't move (src/verlet.cpp:60)
WARNING: Proc sub-domain size < neighbor skin, could lead to lost atoms (src/domain.cpp:966)
Per MPI rank memory allocation (min/avg/max) = 8.516 | 8.516 | 8.516 Mbytes
   Step         PotEng         TotEng           Lx             Ly             Lz           Volume         Press           Pxx            Pyy            Pzz      
       116  -34.412889     -34.412889      3.4166123      3.4166123      8.3485487      97.454612      240273.67      214668.63      214668.63      291483.76    
       117  -34.412889     -34.412889      3.4166123      3.4166123      8.3485487      97.454612      240273.67      214668.63      214668.63      291483.76    
Loop time of 0.000105375 on 8 procs for 1 steps with 6 atoms

Performance: 819.929 ns/day, 0.029 hours/ns, 9489.917 timesteps/s, 56.940 katom-step/s
0.0% CPU use with 8 MPI tasks x 1 OpenMP threads

MPI task timing breakdown:
Section |  min time  |  avg time  |  max time  |%varavg| %total
---------------------------------------------------------------
Pair    | 7.6e-05    | 7.725e-05  | 7.8e-05    |   0.0 | 73.31
Neigh   | 0          | 0          | 0          |   0.0 |  0.00
Comm    | 1.2e-05    | 1.3375e-05 | 1.4e-05    |   0.0 | 12.69
Output  | 1.1e-05    | 1.15e-05   | 1.2e-05    |   0.0 | 10.91
Modify  | 0          | 2.5e-07    | 2e-06      |   0.0 |  0.24
Other   |            | 3e-06      |            |       |  2.85

Nlocal:           0.75 ave           1 max           0 min
Histogram: 2 0 0 0 0 0 0 0 0 6
Nghost:         197.25 ave         200 max         195 min
Histogram: 3 0 1 0 0 0 0 0 3 1
Neighs:           22.5 ave          30 max           0 min
Histogram: 2 0 0 0 0 0 0 0 0 6
FullNghs:           45 ave          60 max           0 min
Histogram: 2 0 0 0 0 0 0 0 0 6

Total # of neighbors = 360
Ave neighs/atom = 60
Neighbor list builds = 0
Dangerous builds = 0
variable  natoms equal "count(all)"
variable xlength equal "lx"
variable  volume equal "vol"
variable  etotal equal "etotal"
variable    ecoh equal "pe/v_natoms"
print "${xlength}, ${volume}, ${etotal}, ${ecoh}" append lattice_cohesive_energy.txt screen no

next i
jump SELF loop

change_box all x scale 1.0025 y scale 1.0025 z scale 1.0025 remap
Changing box ...
  orthogonal box = (-0.10238894 -0.098118171 -0.23975337) to (3.3227649 3.3184942 8.1087954)
  orthogonal box = (-0.10238894 -0.10238894 -0.23975337) to (3.3227649 3.3227649 8.1087954)
  orthogonal box = (-0.10238894 -0.10238894 -0.25018906) to (3.3227649 3.3227649 8.1192311)

run 1
WARNING: No fixes with time integration, atoms won't move (src/verlet.cpp:60)
WARNING: Proc sub-domain size < neighbor skin, could lead to lost atoms (src/domain.cpp:966)
Per MPI rank memory allocation (min/avg/max) = 8.516 | 8.516 | 8.516 Mbytes
   Step         PotEng         TotEng           Lx             Ly             Lz           Volume         Press           Pxx            Pyy            Pzz      
       117  -34.517151     -34.517151      3.4251539      3.4251539      8.3694201      98.187351      215842.7       192959.97      192959.97      261608.15    
       118  -34.517151     -34.517151      3.4251539      3.4251539      8.3694201      98.187351      215842.7       192959.97      192959.97      261608.15    
Loop time of 0.000106 on 8 procs for 1 steps with 6 atoms

Performance: 815.094 ns/day, 0.029 hours/ns, 9433.962 timesteps/s, 56.604 katom-step/s
0.0% CPU use with 8 MPI tasks x 1 OpenMP threads

MPI task timing breakdown:
Section |  min time  |  avg time  |  max time  |%varavg| %total
---------------------------------------------------------------
Pair    | 7.6e-05    | 7.6375e-05 | 7.8e-05    |   0.0 | 72.05
Neigh   | 0          | 0          | 0          |   0.0 |  0.00
Comm    | 1.2e-05    | 1.375e-05  | 1.5e-05    |   0.0 | 12.97
Output  | 1e-05      | 1.0875e-05 | 1.2e-05    |   0.0 | 10.26
Modify  | 0          | 1.25e-07   | 1e-06      |   0.0 |  0.12
Other   |            | 4.875e-06  |            |       |  4.60

Nlocal:           0.75 ave           1 max           0 min
Histogram: 2 0 0 0 0 0 0 0 0 6
Nghost:         197.25 ave         200 max         195 min
Histogram: 3 0 1 0 0 0 0 0 3 1
Neighs:           22.5 ave          30 max           0 min
Histogram: 2 0 0 0 0 0 0 0 0 6
FullNghs:           45 ave          60 max           0 min
Histogram: 2 0 0 0 0 0 0 0 0 6

Total # of neighbors = 360
Ave neighs/atom = 60
Neighbor list builds = 0
Dangerous builds = 0
variable  natoms equal "count(all)"
variable xlength equal "lx"
variable  volume equal "vol"
variable  etotal equal "etotal"
variable    ecoh equal "pe/v_natoms"
print "${xlength}, ${volume}, ${etotal}, ${ecoh}" append lattice_cohesive_energy.txt screen no

next i
jump SELF loop

change_box all x scale 1.0025 y scale 1.0025 z scale 1.0025 remap
Changing box ...
  orthogonal box = (-0.10667038 -0.10238894 -0.25018906) to (3.3270464 3.3227649 8.1192311)
  orthogonal box = (-0.10667038 -0.10667038 -0.25018906) to (3.3270464 3.3270464 8.1192311)
  orthogonal box = (-0.10667038 -0.10667038 -0.26065083) to (3.3270464 3.3270464 8.1296928)

run 1
WARNING: No fixes with time integration, atoms won't move (src/verlet.cpp:60)
WARNING: Proc sub-domain size < neighbor skin, could lead to lost atoms (src/domain.cpp:966)
Per MPI rank memory allocation (min/avg/max) = 8.516 | 8.516 | 8.516 Mbytes
   Step         PotEng         TotEng           Lx             Ly             Lz           Volume         Press           Pxx            Pyy            Pzz      
       118  -34.611127     -34.611127      3.4337168      3.4337168      8.3903437      98.925598      192222.35      171972.68      171972.68      232721.67    
       119  -34.611127     -34.611127      3.4337168      3.4337168      8.3903437      98.925598      192222.35      171972.68      171972.68      232721.67    
Loop time of 0.000107625 on 8 procs for 1 steps with 6 atoms

Performance: 802.787 ns/day, 0.030 hours/ns, 9291.521 timesteps/s, 55.749 katom-step/s
0.0% CPU use with 8 MPI tasks x 1 OpenMP threads

MPI task timing breakdown:
Section |  min time  |  avg time  |  max time  |%varavg| %total
---------------------------------------------------------------
Pair    | 7.6e-05    | 7.725e-05  | 7.9e-05    |   0.0 | 71.78
Neigh   | 0          | 0          | 0          |   0.0 |  0.00
Comm    | 1.2e-05    | 1.375e-05  | 1.5e-05    |   0.0 | 12.78
Output  | 1.1e-05    | 1.1375e-05 | 1.2e-05    |   0.0 | 10.57
Modify  | 0          | 1.25e-07   | 1e-06      |   0.0 |  0.12
Other   |            | 5.125e-06  |            |       |  4.76

Nlocal:           0.75 ave           1 max           0 min
Histogram: 2 0 0 0 0 0 0 0 0 6
Nghost:         197.25 ave         200 max         195 min
Histogram: 3 0 1 0 0 0 0 0 3 1
Neighs:           22.5 ave          30 max           0 min
Histogram: 2 0 0 0 0 0 0 0 0 6
FullNghs:           45 ave          60 max           0 min
Histogram: 2 0 0 0 0 0 0 0 0 6

Total # of neighbors = 360
Ave neighs/atom = 60
Neighbor list builds = 0
Dangerous builds = 0
variable  natoms equal "count(all)"
variable xlength equal "lx"
variable  volume equal "vol"
variable  etotal equal "etotal"
variable    ecoh equal "pe/v_natoms"
print "${xlength}, ${volume}, ${etotal}, ${ecoh}" append lattice_cohesive_energy.txt screen no

next i
jump SELF loop

change_box all x scale 1.0025 y scale 1.0025 z scale 1.0025 remap
Changing box ...
  orthogonal box = (-0.11096252 -0.10667038 -0.26065083) to (3.3313385 3.3270464 8.1296928)
  orthogonal box = (-0.11096252 -0.11096252 -0.26065083) to (3.3313385 3.3313385 8.1296928)
  orthogonal box = (-0.11096252 -0.11096252 -0.27113876) to (3.3313385 3.3313385 8.1401808)

run 1
WARNING: No fixes with time integration, atoms won't move (src/verlet.cpp:60)
WARNING: Proc sub-domain size < neighbor skin, could lead to lost atoms (src/domain.cpp:966)
Per MPI rank memory allocation (min/avg/max) = 8.508 | 8.508 | 8.508 Mbytes
   Step         PotEng         TotEng           Lx             Ly             Lz           Volume         Press           Pxx            Pyy            Pzz      
       119  -34.695028     -34.695028      3.442301       3.442301       8.4113195      99.669397      169392.88      151689.14      151689.14      204800.36    
       120  -34.695028     -34.695028      3.442301       3.442301       8.4113195      99.669397      169392.88      151689.14      151689.14      204800.36    
Loop time of 9.9375e-05 on 8 procs for 1 steps with 6 atoms

Performance: 869.434 ns/day, 0.028 hours/ns, 10062.893 timesteps/s, 60.377 katom-step/s
0.0% CPU use with 8 MPI tasks x 1 OpenMP threads

MPI task timing breakdown:
Section |  min time  |  avg time  |  max time  |%varavg| %total
---------------------------------------------------------------
Pair    | 6.9e-05    | 7.025e-05  | 7.1e-05    |   0.0 | 70.69
Neigh   | 0          | 0          | 0          |   0.0 |  0.00
Comm    | 1.1e-05    | 1.2e-05    | 1.3e-05    |   0.0 | 12.08
Output  | 1e-05      | 1.075e-05  | 1.1e-05    |   0.0 | 10.82
Modify  | 0          | 2.5e-07    | 1e-06      |   0.0 |  0.25
Other   |            | 6.125e-06  |            |       |  6.16

Nlocal:           0.75 ave           1 max           0 min
Histogram: 2 0 0 0 0 0 0 0 0 6
Nghost:         179.25 ave         180 max         179 min
Histogram: 6 0 0 0 0 0 0 0 0 2
Neighs:           22.5 ave          30 max           0 min
Histogram: 2 0 0 0 0 0 0 0 0 6
FullNghs:           45 ave          60 max           0 min
Histogram: 2 0 0 0 0 0 0 0 0 6

Total # of neighbors = 360
Ave neighs/atom = 60
Neighbor list builds = 0
Dangerous builds = 0
variable  natoms equal "count(all)"
variable xlength equal "lx"
variable  volume equal "vol"
variable  etotal equal "etotal"
variable    ecoh equal "pe/v_natoms"
print "${xlength}, ${volume}, ${etotal}, ${ecoh}" append lattice_cohesive_energy.txt screen no

next i
jump SELF loop

change_box all x scale 1.0025 y scale 1.0025 z scale 1.0025 remap
Changing box ...
  orthogonal box = (-0.1152654 -0.11096252 -0.27113876) to (3.3356414 3.3313385 8.1401808)
  orthogonal box = (-0.1152654 -0.1152654 -0.27113876) to (3.3356414 3.3356414 8.1401808)
  orthogonal box = (-0.1152654 -0.1152654 -0.28165291) to (3.3356414 3.3356414 8.1506949)

run 1
WARNING: No fixes with time integration, atoms won't move (src/verlet.cpp:60)
WARNING: Proc sub-domain size < neighbor skin, could lead to lost atoms (src/domain.cpp:966)
Per MPI rank memory allocation (min/avg/max) = 8.508 | 8.508 | 8.508 Mbytes
   Step         PotEng         TotEng           Lx             Ly             Lz           Volume         Press           Pxx            Pyy            Pzz      
       120  -34.769064     -34.769064      3.4509068      3.4509068      8.4323478      100.41879      147334.79      132091.87      132091.87      177820.64    
       121  -34.769064     -34.769064      3.4509068      3.4509068      8.4323478      100.41879      147334.79      132091.87      132091.87      177820.64    
Loop time of 9.675e-05 on 8 procs for 1 steps with 6 atoms

Performance: 893.023 ns/day, 0.027 hours/ns, 10335.917 timesteps/s, 62.016 katom-step/s
0.0% CPU use with 8 MPI tasks x 1 OpenMP threads

MPI task timing breakdown:
Section |  min time  |  avg time  |  max time  |%varavg| %total
---------------------------------------------------------------
Pair    | 6.9e-05    | 6.9875e-05 | 7e-05      |   0.0 | 72.22
Neigh   | 0          | 0          | 0          |   0.0 |  0.00
Comm    | 1.2e-05    | 1.225e-05  | 1.3e-05    |   0.0 | 12.66
Output  | 1.1e-05    | 1.1375e-05 | 1.2e-05    |   0.0 | 11.76
Modify  | 0          | 2.5e-07    | 2e-06      |   0.0 |  0.26
Other   |            | 3e-06      |            |       |  3.10

Nlocal:           0.75 ave           1 max           0 min
Histogram: 2 0 0 0 0 0 0 0 0 6
Nghost:         179.25 ave         180 max         179 min
Histogram: 6 0 0 0 0 0 0 0 0 2
Neighs:           22.5 ave          30 max           0 min
Histogram: 2 0 0 0 0 0 0 0 0 6
FullNghs:           45 ave          60 max           0 min
Histogram: 2 0 0 0 0 0 0 0 0 6

Total # of neighbors = 360
Ave neighs/atom = 60
Neighbor list builds = 0
Dangerous builds = 0
variable  natoms equal "count(all)"
variable xlength equal "lx"
variable  volume equal "vol"
variable  etotal equal "etotal"
variable    ecoh equal "pe/v_natoms"
print "${xlength}, ${volume}, ${etotal}, ${ecoh}" append lattice_cohesive_energy.txt screen no

next i
jump SELF loop

change_box all x scale 1.0025 y scale 1.0025 z scale 1.0025 remap
Changing box ...
  orthogonal box = (-0.11957903 -0.1152654 -0.28165291) to (3.339955 3.3356414 8.1506949)
  orthogonal box = (-0.11957903 -0.11957903 -0.28165291) to (3.339955 3.339955 8.1506949)
  orthogonal box = (-0.11957903 -0.11957903 -0.29219335) to (3.339955 3.339955 8.1612353)

run 1
WARNING: No fixes with time integration, atoms won't move (src/verlet.cpp:60)
WARNING: Proc sub-domain size < neighbor skin, could lead to lost atoms (src/domain.cpp:966)
Per MPI rank memory allocation (min/avg/max) = 8.508 | 8.508 | 8.508 Mbytes
   Step         PotEng         TotEng           Lx             Ly             Lz           Volume         Press           Pxx            Pyy            Pzz      
       121  -34.83344      -34.83344       3.4595341      3.4595341      8.4534287      101.17381      126029.12      113163.93      113163.93      151759.48    
       122  -34.83344      -34.83344       3.4595341      3.4595341      8.4534287      101.17381      126029.12      113163.93      113163.93      151759.48    
Loop time of 9.6e-05 on 8 procs for 1 steps with 6 atoms

Performance: 900.000 ns/day, 0.027 hours/ns, 10416.667 timesteps/s, 62.500 katom-step/s
0.0% CPU use with 8 MPI tasks x 1 OpenMP threads

MPI task timing breakdown:
Section |  min time  |  avg time  |  max time  |%varavg| %total
---------------------------------------------------------------
Pair    | 6.9e-05    | 6.9625e-05 | 7e-05      |   0.0 | 72.53
Neigh   | 0          | 0          | 0          |   0.0 |  0.00
Comm    | 1.1e-05    | 1.1875e-05 | 1.2e-05    |   0.0 | 12.37
Output  | 1.1e-05    | 1.1125e-05 | 1.2e-05    |   0.0 | 11.59
Modify  | 0          | 1.25e-07   | 1e-06      |   0.0 |  0.13
Other   |            | 3.25e-06   |            |       |  3.39

Nlocal:           0.75 ave           1 max           0 min
Histogram: 2 0 0 0 0 0 0 0 0 6
Nghost:         179.25 ave         180 max         179 min
Histogram: 6 0 0 0 0 0 0 0 0 2
Neighs:           22.5 ave          30 max           0 min
Histogram: 2 0 0 0 0 0 0 0 0 6
FullNghs:           45 ave          60 max           0 min
Histogram: 2 0 0 0 0 0 0 0 0 6

Total # of neighbors = 360
Ave neighs/atom = 60
Neighbor list builds = 0
Dangerous builds = 0
variable  natoms equal "count(all)"
variable xlength equal "lx"
variable  volume equal "vol"
variable  etotal equal "etotal"
variable    ecoh equal "pe/v_natoms"
print "${xlength}, ${volume}, ${etotal}, ${ecoh}" append lattice_cohesive_energy.txt screen no

next i
jump SELF loop

change_box all x scale 1.0025 y scale 1.0025 z scale 1.0025 remap
Changing box ...
  orthogonal box = (-0.12390345 -0.11957903 -0.29219335) to (3.3442795 3.339955 8.1612353)
  orthogonal box = (-0.12390345 -0.12390345 -0.29219335) to (3.3442795 3.3442795 8.1612353)
  orthogonal box = (-0.12390345 -0.12390345 -0.30276013) to (3.3442795 3.3442795 8.1718021)

run 1
WARNING: No fixes with time integration, atoms won't move (src/verlet.cpp:60)
WARNING: Proc sub-domain size < neighbor skin, could lead to lost atoms (src/domain.cpp:966)
Per MPI rank memory allocation (min/avg/max) = 8.508 | 8.508 | 8.508 Mbytes
   Step         PotEng         TotEng           Lx             Ly             Lz           Volume         Press           Pxx            Pyy            Pzz      
       122  -34.88836      -34.88836       3.4681829      3.4681829      8.4745623      101.93452      105457.09      94888.528      94888.528      126594.21    
       123  -34.88836      -34.88836       3.4681829      3.4681829      8.4745623      101.93452      105457.09      94888.528      94888.528      126594.21    
Loop time of 0.000172375 on 8 procs for 1 steps with 6 atoms

Performance: 501.233 ns/day, 0.048 hours/ns, 5801.305 timesteps/s, 34.808 katom-step/s
0.0% CPU use with 8 MPI tasks x 1 OpenMP threads

MPI task timing breakdown:
Section |  min time  |  avg time  |  max time  |%varavg| %total
---------------------------------------------------------------
Pair    | 0.000103   | 0.00011187 | 0.000123   |   0.0 | 64.90
Neigh   | 0          | 0          | 0          |   0.0 |  0.00
Comm    | 2.1e-05    | 3.0375e-05 | 4e-05      |   0.0 | 17.62
Output  | 1.8e-05    | 2.025e-05  | 2.3e-05    |   0.0 | 11.75
Modify  | 0          | 6.25e-07   | 2e-06      |   0.0 |  0.36
Other   |            | 9.25e-06   |            |       |  5.37

Nlocal:           0.75 ave           1 max           0 min
Histogram: 2 0 0 0 0 0 0 0 0 6
Nghost:         179.25 ave         180 max         179 min
Histogram: 6 0 0 0 0 0 0 0 0 2
Neighs:           22.5 ave          30 max           0 min
Histogram: 2 0 0 0 0 0 0 0 0 6
FullNghs:           45 ave          60 max           0 min
Histogram: 2 0 0 0 0 0 0 0 0 6

Total # of neighbors = 360
Ave neighs/atom = 60
Neighbor list builds = 0
Dangerous builds = 0
variable  natoms equal "count(all)"
variable xlength equal "lx"
variable  volume equal "vol"
variable  etotal equal "etotal"
variable    ecoh equal "pe/v_natoms"
print "${xlength}, ${volume}, ${etotal}, ${ecoh}" append lattice_cohesive_energy.txt screen no

next i
jump SELF loop

change_box all x scale 1.0025 y scale 1.0025 z scale 1.0025 remap
Changing box ...
  orthogonal box = (-0.12823868 -0.12390345 -0.30276013) to (3.3486147 3.3442795 8.1718021)
  orthogonal box = (-0.12823868 -0.12823868 -0.30276013) to (3.3486147 3.3486147 8.1718021)
  orthogonal box = (-0.12823868 -0.12823868 -0.31335334) to (3.3486147 3.3486147 8.1823953)

run 1
WARNING: No fixes with time integration, atoms won't move (src/verlet.cpp:60)
WARNING: Proc sub-domain size < neighbor skin, could lead to lost atoms (src/domain.cpp:966)
Per MPI rank memory allocation (min/avg/max) = 8.508 | 8.508 | 8.508 Mbytes
   Step         PotEng         TotEng           Lx             Ly             Lz           Volume         Press           Pxx            Pyy            Pzz      
       123  -34.934023     -34.934023      3.4768534      3.4768534      8.4957487      102.70094      85600.469      77249.37       77249.37       102302.67    
       124  -34.934023     -34.934023      3.4768534      3.4768534      8.4957487      102.70094      85600.469      77249.37       77249.37       102302.67    
Loop time of 0.00011725 on 8 procs for 1 steps with 6 atoms

Performance: 736.887 ns/day, 0.033 hours/ns, 8528.785 timesteps/s, 51.173 katom-step/s
0.0% CPU use with 8 MPI tasks x 1 OpenMP threads

MPI task timing breakdown:
Section |  min time  |  avg time  |  max time  |%varavg| %total
---------------------------------------------------------------
Pair    | 7.7e-05    | 7.8625e-05 | 8e-05      |   0.0 | 67.06
Neigh   | 0          | 0          | 0          |   0.0 |  0.00
Comm    | 1.5e-05    | 1.675e-05  | 1.9e-05    |   0.0 | 14.29
Output  | 1.3e-05    | 1.525e-05  | 1.8e-05    |   0.0 | 13.01
Modify  | 0          | 2.5e-07    | 1e-06      |   0.0 |  0.21
Other   |            | 6.375e-06  |            |       |  5.44

Nlocal:           0.75 ave           1 max           0 min
Histogram: 2 0 0 0 0 0 0 0 0 6
Nghost:         179.25 ave         180 max         179 min
Histogram: 6 0 0 0 0 0 0 0 0 2
Neighs:           22.5 ave          30 max           0 min
Histogram: 2 0 0 0 0 0 0 0 0 6
FullNghs:           45 ave          60 max           0 min
Histogram: 2 0 0 0 0 0 0 0 0 6

Total # of neighbors = 360
Ave neighs/atom = 60
Neighbor list builds = 0
Dangerous builds = 0
variable  natoms equal "count(all)"
variable xlength equal "lx"
variable  volume equal "vol"
variable  etotal equal "etotal"
variable    ecoh equal "pe/v_natoms"
print "${xlength}, ${volume}, ${etotal}, ${ecoh}" append lattice_cohesive_energy.txt screen no

next i
jump SELF loop

change_box all x scale 1.0025 y scale 1.0025 z scale 1.0025 remap
Changing box ...
  orthogonal box = (-0.13258475 -0.12823868 -0.31335334) to (3.3529607 3.3486147 8.1823953)
  orthogonal box = (-0.13258475 -0.13258475 -0.31335334) to (3.3529607 3.3529607 8.1823953)
  orthogonal box = (-0.13258475 -0.13258475 -0.32397302) to (3.3529607 3.3529607 8.193015)

run 1
WARNING: No fixes with time integration, atoms won't move (src/verlet.cpp:60)
WARNING: Proc sub-domain size < neighbor skin, could lead to lost atoms (src/domain.cpp:966)
Per MPI rank memory allocation (min/avg/max) = 8.508 | 8.508 | 8.508 Mbytes
   Step         PotEng         TotEng           Lx             Ly             Lz           Volume         Press           Pxx            Pyy            Pzz      
       124  -34.970628     -34.970628      3.4855455      3.4855455      8.516988       103.47312      66441.233      60230.317      60230.317      78863.065    
       125  -34.970628     -34.970628      3.4855455      3.4855455      8.516988       103.47312      66441.233      60230.317      60230.317      78863.065    
Loop time of 0.000117625 on 8 procs for 1 steps with 6 atoms

Performance: 734.538 ns/day, 0.033 hours/ns, 8501.594 timesteps/s, 51.010 katom-step/s
0.0% CPU use with 8 MPI tasks x 1 OpenMP threads

MPI task timing breakdown:
Section |  min time  |  avg time  |  max time  |%varavg| %total
---------------------------------------------------------------
Pair    | 7.8e-05    | 7.9875e-05 | 8.2e-05    |   0.0 | 67.91
Neigh   | 0          | 0          | 0          |   0.0 |  0.00
Comm    | 1.4e-05    | 1.6375e-05 | 1.9e-05    |   0.0 | 13.92
Output  | 1.3e-05    | 1.5375e-05 | 1.8e-05    |   0.0 | 13.07
Modify  | 0          | 2.5e-07    | 1e-06      |   0.0 |  0.21
Other   |            | 5.75e-06   |            |       |  4.89

Nlocal:           0.75 ave           1 max           0 min
Histogram: 2 0 0 0 0 0 0 0 0 6
Nghost:         179.25 ave         180 max         179 min
Histogram: 6 0 0 0 0 0 0 0 0 2
Neighs:           22.5 ave          30 max           0 min
Histogram: 2 0 0 0 0 0 0 0 0 6
FullNghs:           45 ave          60 max           0 min
Histogram: 2 0 0 0 0 0 0 0 0 6

Total # of neighbors = 360
Ave neighs/atom = 60
Neighbor list builds = 0
Dangerous builds = 0
variable  natoms equal "count(all)"
variable xlength equal "lx"
variable  volume equal "vol"
variable  etotal equal "etotal"
variable    ecoh equal "pe/v_natoms"
print "${xlength}, ${volume}, ${etotal}, ${ecoh}" append lattice_cohesive_energy.txt screen no

next i
jump SELF loop

change_box all x scale 1.0025 y scale 1.0025 z scale 1.0025 remap
Changing box ...
  orthogonal box = (-0.13694168 -0.13258475 -0.32397302) to (3.3573177 3.3529607 8.193015)
  orthogonal box = (-0.13694168 -0.13694168 -0.32397302) to (3.3573177 3.3573177 8.193015)
  orthogonal box = (-0.13694168 -0.13694168 -0.33461926) to (3.3573177 3.3573177 8.2036613)

run 1
WARNING: No fixes with time integration, atoms won't move (src/verlet.cpp:60)
WARNING: Proc sub-domain size < neighbor skin, could lead to lost atoms (src/domain.cpp:966)
Per MPI rank memory allocation (min/avg/max) = 8.508 | 8.508 | 8.508 Mbytes
   Step         PotEng         TotEng           Lx             Ly             Lz           Volume         Press           Pxx            Pyy            Pzz      
       125  -34.998372     -34.998372      3.4942594      3.4942594      8.5382805      104.25111      47961.843      43815.713      43815.713      56254.102    
       126  -34.998372     -34.998372      3.4942594      3.4942594      8.5382805      104.25111      47961.843      43815.713      43815.713      56254.102    
Loop time of 0.00011875 on 8 procs for 1 steps with 6 atoms

Performance: 727.579 ns/day, 0.033 hours/ns, 8421.053 timesteps/s, 50.526 katom-step/s
0.0% CPU use with 8 MPI tasks x 1 OpenMP threads

MPI task timing breakdown:
Section |  min time  |  avg time  |  max time  |%varavg| %total
---------------------------------------------------------------
Pair    | 7.9e-05    | 8.0625e-05 | 8.3e-05    |   0.0 | 67.89
Neigh   | 0          | 0          | 0          |   0.0 |  0.00
Comm    | 1.5e-05    | 1.65e-05   | 1.9e-05    |   0.0 | 13.89
Output  | 1.3e-05    | 1.5e-05    | 1.8e-05    |   0.0 | 12.63
Modify  | 0          | 0          | 0          |   0.0 |  0.00
Other   |            | 6.625e-06  |            |       |  5.58

Nlocal:           0.75 ave           1 max           0 min
Histogram: 2 0 0 0 0 0 0 0 0 6
Nghost:         179.25 ave         180 max         179 min
Histogram: 6 0 0 0 0 0 0 0 0 2
Neighs:           22.5 ave          30 max           0 min
Histogram: 2 0 0 0 0 0 0 0 0 6
FullNghs:           45 ave          60 max           0 min
Histogram: 2 0 0 0 0 0 0 0 0 6

Total # of neighbors = 360
Ave neighs/atom = 60
Neighbor list builds = 0
Dangerous builds = 0
variable  natoms equal "count(all)"
variable xlength equal "lx"
variable  volume equal "vol"
variable  etotal equal "etotal"
variable    ecoh equal "pe/v_natoms"
print "${xlength}, ${volume}, ${etotal}, ${ecoh}" append lattice_cohesive_energy.txt screen no

next i
jump SELF loop

change_box all x scale 1.0025 y scale 1.0025 z scale 1.0025 remap
Changing box ...
  orthogonal box = (-0.1413095 -0.13694168 -0.33461926) to (3.3616855 3.3573177 8.2036613)
  orthogonal box = (-0.1413095 -0.1413095 -0.33461926) to (3.3616855 3.3616855 8.2036613)
  orthogonal box = (-0.1413095 -0.1413095 -0.34529211) to (3.3616855 3.3616855 8.2143341)

run 1
WARNING: No fixes with time integration, atoms won't move (src/verlet.cpp:60)
WARNING: Proc sub-domain size < neighbor skin, could lead to lost atoms (src/domain.cpp:966)
Per MPI rank memory allocation (min/avg/max) = 8.508 | 8.508 | 8.508 Mbytes
   Step         PotEng         TotEng           Lx             Ly             Lz           Volume         Press           Pxx            Pyy            Pzz      
       126  -35.017446     -35.017446      3.502995       3.502995       8.5596262      105.03495      30144.978      27990.05       27990.05       34454.834    
       127  -35.017446     -35.017446      3.502995       3.502995       8.5596262      105.03495      30144.978      27990.05       27990.05       34454.834    
Loop time of 0.000117 on 8 procs for 1 steps with 6 atoms

Performance: 738.462 ns/day, 0.033 hours/ns, 8547.009 timesteps/s, 51.282 katom-step/s
0.0% CPU use with 8 MPI tasks x 1 OpenMP threads

MPI task timing breakdown:
Section |  min time  |  avg time  |  max time  |%varavg| %total
---------------------------------------------------------------
Pair    | 7.8e-05    | 7.9375e-05 | 8.1e-05    |   0.0 | 67.84
Neigh   | 0          | 0          | 0          |   0.0 |  0.00
Comm    | 1.4e-05    | 1.6625e-05 | 2e-05      |   0.0 | 14.21
Output  | 1.3e-05    | 1.475e-05  | 1.8e-05    |   0.0 | 12.61
Modify  | 0          | 3.75e-07   | 1e-06      |   0.0 |  0.32
Other   |            | 5.875e-06  |            |       |  5.02

Nlocal:           0.75 ave           1 max           0 min
Histogram: 2 0 0 0 0 0 0 0 0 6
Nghost:         179.25 ave         180 max         179 min
Histogram: 6 0 0 0 0 0 0 0 0 2
Neighs:           22.5 ave          30 max           0 min
Histogram: 2 0 0 0 0 0 0 0 0 6
FullNghs:           45 ave          60 max           0 min
Histogram: 2 0 0 0 0 0 0 0 0 6

Total # of neighbors = 360
Ave neighs/atom = 60
Neighbor list builds = 0
Dangerous builds = 0
variable  natoms equal "count(all)"
variable xlength equal "lx"
variable  volume equal "vol"
variable  etotal equal "etotal"
variable    ecoh equal "pe/v_natoms"
print "${xlength}, ${volume}, ${etotal}, ${ecoh}" append lattice_cohesive_energy.txt screen no

next i
jump SELF loop

change_box all x scale 1.0025 y scale 1.0025 z scale 1.0025 remap
Changing box ...
  orthogonal box = (-0.14568825 -0.1413095 -0.34529211) to (3.3660642 3.3616855 8.2143341)
  orthogonal box = (-0.14568825 -0.14568825 -0.34529211) to (3.3660642 3.3660642 8.2143341)
  orthogonal box = (-0.14568825 -0.14568825 -0.35599164) to (3.3660642 3.3660642 8.2250336)

run 1
WARNING: No fixes with time integration, atoms won't move (src/verlet.cpp:60)
WARNING: Proc sub-domain size < neighbor skin, could lead to lost atoms (src/domain.cpp:966)
Per MPI rank memory allocation (min/avg/max) = 8.508 | 8.508 | 8.508 Mbytes
   Step         PotEng         TotEng           Lx             Ly             Lz           Volume         Press           Pxx            Pyy            Pzz      
       127  -35.028041     -35.028041      3.5117525      3.5117525      8.5810253      105.82468      12973.791      12738.289      12738.289      13444.794    
       128  -35.028041     -35.028041      3.5117525      3.5117525      8.5810253      105.82468      12973.791      12738.289      12738.289      13444.794    
Loop time of 0.000117875 on 8 procs for 1 steps with 6 atoms

Performance: 732.980 ns/day, 0.033 hours/ns, 8483.563 timesteps/s, 50.901 katom-step/s
0.0% CPU use with 8 MPI tasks x 1 OpenMP threads

MPI task timing breakdown:
Section |  min time  |  avg time  |  max time  |%varavg| %total
---------------------------------------------------------------
Pair    | 7.5e-05    | 7.8375e-05 | 8.2e-05    |   0.0 | 66.49
Neigh   | 0          | 0          | 0          |   0.0 |  0.00
Comm    | 1.5e-05    | 1.85e-05   | 2.2e-05    |   0.0 | 15.69
Output  | 1.3e-05    | 1.475e-05  | 1.7e-05    |   0.0 | 12.51
Modify  | 0          | 1.25e-07   | 1e-06      |   0.0 |  0.11
Other   |            | 6.125e-06  |            |       |  5.20

Nlocal:           0.75 ave           1 max           0 min
Histogram: 2 0 0 0 0 0 0 0 0 6
Nghost:         179.25 ave         180 max         179 min
Histogram: 6 0 0 0 0 0 0 0 0 2
Neighs:           22.5 ave          30 max           0 min
Histogram: 2 0 0 0 0 0 0 0 0 6
FullNghs:           45 ave          60 max           0 min
Histogram: 2 0 0 0 0 0 0 0 0 6

Total # of neighbors = 360
Ave neighs/atom = 60
Neighbor list builds = 0
Dangerous builds = 0
variable  natoms equal "count(all)"
variable xlength equal "lx"
variable  volume equal "vol"
variable  etotal equal "etotal"
variable    ecoh equal "pe/v_natoms"
print "${xlength}, ${volume}, ${etotal}, ${ecoh}" append lattice_cohesive_energy.txt screen no

next i
jump SELF loop

change_box all x scale 1.0025 y scale 1.0025 z scale 1.0025 remap
Changing box ...
  orthogonal box = (-0.15007794 -0.14568825 -0.35599164) to (3.3704539 3.3660642 8.2250336)
  orthogonal box = (-0.15007794 -0.15007794 -0.35599164) to (3.3704539 3.3704539 8.2250336)
  orthogonal box = (-0.15007794 -0.15007794 -0.36671792) to (3.3704539 3.3704539 8.2357599)

run 1
WARNING: No fixes with time integration, atoms won't move (src/verlet.cpp:60)
WARNING: Proc sub-domain size < neighbor skin, could lead to lost atoms (src/domain.cpp:966)
Per MPI rank memory allocation (min/avg/max) = 8.508 | 8.508 | 8.508 Mbytes
   Step         PotEng         TotEng           Lx             Ly             Lz           Volume         Press           Pxx            Pyy            Pzz      
       128  -35.030346     -35.030346      3.5205319      3.5205319      8.6024778      106.62036     -3568.363      -1954.471      -1954.471      -6796.1469    
       129  -35.030346     -35.030346      3.5205319      3.5205319      8.6024778      106.62036     -3568.363      -1954.471      -1954.471      -6796.1469    
Loop time of 0.000116625 on 8 procs for 1 steps with 6 atoms

Performance: 740.836 ns/day, 0.032 hours/ns, 8574.491 timesteps/s, 51.447 katom-step/s
0.0% CPU use with 8 MPI tasks x 1 OpenMP threads

MPI task timing breakdown:
Section |  min time  |  avg time  |  max time  |%varavg| %total
---------------------------------------------------------------
Pair    | 7.6e-05    | 7.8875e-05 | 8.2e-05    |   0.0 | 67.63
Neigh   | 0          | 0          | 0          |   0.0 |  0.00
Comm    | 1.4e-05    | 1.6875e-05 | 2e-05      |   0.0 | 14.47
Output  | 1.3e-05    | 1.475e-05  | 1.7e-05    |   0.0 | 12.65
Modify  | 0          | 1.25e-07   | 1e-06      |   0.0 |  0.11
Other   |            | 6e-06      |            |       |  5.14

Nlocal:           0.75 ave           1 max           0 min
Histogram: 2 0 0 0 0 0 0 0 0 6
Nghost:         179.25 ave         180 max         179 min
Histogram: 6 0 0 0 0 0 0 0 0 2
Neighs:           22.5 ave          30 max           0 min
Histogram: 2 0 0 0 0 0 0 0 0 6
FullNghs:           45 ave          60 max           0 min
Histogram: 2 0 0 0 0 0 0 0 0 6

Total # of neighbors = 360
Ave neighs/atom = 60
Neighbor list builds = 0
Dangerous builds = 0
variable  natoms equal "count(all)"
variable xlength equal "lx"
variable  volume equal "vol"
variable  etotal equal "etotal"
variable    ecoh equal "pe/v_natoms"
print "${xlength}, ${volume}, ${etotal}, ${ecoh}" append lattice_cohesive_energy.txt screen no

next i
jump SELF loop

change_box all x scale 1.0025 y scale 1.0025 z scale 1.0025 remap
Changing box ...
  orthogonal box = (-0.1544786 -0.15007794 -0.36671792) to (3.3748546 3.3704539 8.2357599)
  orthogonal box = (-0.1544786 -0.1544786 -0.36671792) to (3.3748546 3.3748546 8.2357599)
  orthogonal box = (-0.1544786 -0.1544786 -0.37747102) to (3.3748546 3.3748546 8.246513)

run 1
WARNING: No fixes with time integration, atoms won't move (src/verlet.cpp:60)
WARNING: Proc sub-domain size < neighbor skin, could lead to lost atoms (src/domain.cpp:966)
Per MPI rank memory allocation (min/avg/max) = 8.508 | 8.508 | 8.508 Mbytes
   Step         PotEng         TotEng           Lx             Ly             Lz           Volume         Press           Pxx            Pyy            Pzz      
       129  -35.024545     -35.024545      3.5293332      3.5293332      8.623984       107.42201     -19497.662     -16102.673     -16102.673     -26287.64     
       130  -35.024545     -35.024545      3.5293332      3.5293332      8.623984       107.42201     -19497.662     -16102.673     -16102.673     -26287.64     
Loop time of 0.000115125 on 8 procs for 1 steps with 6 atoms

Performance: 750.489 ns/day, 0.032 hours/ns, 8686.211 timesteps/s, 52.117 katom-step/s
0.0% CPU use with 8 MPI tasks x 1 OpenMP threads

MPI task timing breakdown:
Section |  min time  |  avg time  |  max time  |%varavg| %total
---------------------------------------------------------------
Pair    | 7.5e-05    | 7.725e-05  | 8e-05      |   0.0 | 67.10
Neigh   | 0          | 0          | 0          |   0.0 |  0.00
Comm    | 1.5e-05    | 1.7e-05    | 2e-05      |   0.0 | 14.77
Output  | 1.3e-05    | 1.525e-05  | 1.8e-05    |   0.0 | 13.25
Modify  | 0          | 2.5e-07    | 1e-06      |   0.0 |  0.22
Other   |            | 5.375e-06  |            |       |  4.67

Nlocal:           0.75 ave           1 max           0 min
Histogram: 2 0 0 0 0 0 0 0 0 6
Nghost:         179.25 ave         180 max         179 min
Histogram: 6 0 0 0 0 0 0 0 0 2
Neighs:           22.5 ave          30 max           0 min
Histogram: 2 0 0 0 0 0 0 0 0 6
FullNghs:           45 ave          60 max           0 min
Histogram: 2 0 0 0 0 0 0 0 0 6

Total # of neighbors = 360
Ave neighs/atom = 60
Neighbor list builds = 0
Dangerous builds = 0
variable  natoms equal "count(all)"
variable xlength equal "lx"
variable  volume equal "vol"
variable  etotal equal "etotal"
variable    ecoh equal "pe/v_natoms"
print "${xlength}, ${volume}, ${etotal}, ${ecoh}" append lattice_cohesive_energy.txt screen no

next i
jump SELF loop

change_box all x scale 1.0025 y scale 1.0025 z scale 1.0025 remap
Changing box ...
  orthogonal box = (-0.15889027 -0.1544786 -0.37747102) to (3.3792663 3.3748546 8.246513)
  orthogonal box = (-0.15889027 -0.15889027 -0.37747102) to (3.3792663 3.3792663 8.246513)
  orthogonal box = (-0.15889027 -0.15889027 -0.388251) to (3.3792663 3.3792663 8.257293)

run 1
WARNING: No fixes with time integration, atoms won't move (src/verlet.cpp:60)
WARNING: Proc sub-domain size < neighbor skin, could lead to lost atoms (src/domain.cpp:966)
Per MPI rank memory allocation (min/avg/max) = 8.508 | 8.508 | 8.508 Mbytes
   Step         PotEng         TotEng           Lx             Ly             Lz           Volume         Press           Pxx            Pyy            Pzz      
       130  -35.010822     -35.010822      3.5381565      3.5381565      8.645544       108.22969     -34830.097     -29720.628     -29720.628     -45049.036    
       131  -35.010822     -35.010822      3.5381565      3.5381565      8.645544       108.22969     -34830.097     -29720.628     -29720.628     -45049.036    
Loop time of 0.000156125 on 8 procs for 1 steps with 6 atoms

Performance: 553.403 ns/day, 0.043 hours/ns, 6405.124 timesteps/s, 38.431 katom-step/s
0.0% CPU use with 8 MPI tasks x 1 OpenMP threads

MPI task timing breakdown:
Section |  min time  |  avg time  |  max time  |%varavg| %total
---------------------------------------------------------------
Pair    | 8.8e-05    | 9.975e-05  | 0.000113   |   0.0 | 63.89
Neigh   | 0          | 0          | 0          |   0.0 |  0.00
Comm    | 1.6e-05    | 3.0125e-05 | 4.2e-05    |   0.0 | 19.30
Output  | 1.6e-05    | 1.6875e-05 | 2e-05      |   0.0 | 10.81
Modify  | 0          | 1.25e-07   | 1e-06      |   0.0 |  0.08
Other   |            | 9.25e-06   |            |       |  5.92

Nlocal:           0.75 ave           1 max           0 min
Histogram: 2 0 0 0 0 0 0 0 0 6
Nghost:         179.25 ave         180 max         179 min
Histogram: 6 0 0 0 0 0 0 0 0 2
Neighs:           22.5 ave          30 max           0 min
Histogram: 2 0 0 0 0 0 0 0 0 6
FullNghs:           45 ave          60 max           0 min
Histogram: 2 0 0 0 0 0 0 0 0 6

Total # of neighbors = 360
Ave neighs/atom = 60
Neighbor list builds = 0
Dangerous builds = 0
variable  natoms equal "count(all)"
variable xlength equal "lx"
variable  volume equal "vol"
variable  etotal equal "etotal"
variable    ecoh equal "pe/v_natoms"
[...]
Histogram: 6 0 0 0 0 0 0 0 0 2
Neighs:           22.5 ave          30 max           0 min
Histogram: 2 0 0 0 0 0 0 0 0 6
FullNghs:           45 ave          60 max           0 min
Histogram: 2 0 0 0 0 0 0 0 0 6

Total # of neighbors = 360
Ave neighs/atom = 60
Neighbor list builds = 0
Dangerous builds = 0
variable  natoms equal "count(all)"
variable xlength equal "lx"
variable  volume equal "vol"
variable  etotal equal "etotal"
variable    ecoh equal "pe/v_natoms"
print "${xlength}, ${volume}, ${etotal}, ${ecoh}" append lattice_cohesive_energy.txt screen no

next i
jump SELF loop

change_box all x scale 1.0025 y scale 1.0025 z scale 1.0025 remap
Changing box ...
  orthogonal box = (-0.23099581 -0.22640433 -0.55322273) to (3.4513718 3.4467803 8.4222647)
  orthogonal box = (-0.23099581 -0.23099581 -0.55322273) to (3.4513718 3.4513718 8.4222647)
  orthogonal box = (-0.23099581 -0.23099581 -0.56444209) to (3.4513718 3.4513718 8.4334841)

run 1
WARNING: No fixes with time integration, atoms won't move (src/verlet.cpp:60)
WARNING: Proc sub-domain size < neighbor skin, could lead to lost atoms (src/domain.cpp:966)
Per MPI rank memory allocation (min/avg/max) = 8.508 | 8.508 | 8.508 Mbytes
   Step         PotEng         TotEng           Lx             Ly             Lz           Volume         Press           Pxx            Pyy            Pzz      
       146  -33.853443     -33.853443      3.6823676      3.6823676      8.9979262      122.01036     -210783.61     -186047.57     -186047.57     -260255.7     
       147  -33.853443     -33.853443      3.6823676      3.6823676      8.9979262      122.01036     -210783.61     -186047.57     -186047.57     -260255.7     
Loop time of 0.0001605 on 8 procs for 1 steps with 6 atoms

Performance: 538.318 ns/day, 0.045 hours/ns, 6230.530 timesteps/s, 37.383 katom-step/s
0.0% CPU use with 8 MPI tasks x 1 OpenMP threads

MPI task timing breakdown:
Section |  min time  |  avg time  |  max time  |%varavg| %total
---------------------------------------------------------------
Pair    | 9.9e-05    | 0.00010725 | 0.000118   |   0.0 | 66.82
Neigh   | 0          | 0          | 0          |   0.0 |  0.00
Comm    | 1.9e-05    | 2.8e-05    | 3.7e-05    |   0.0 | 17.45
Output  | 1.6e-05    | 1.825e-05  | 2.1e-05    |   0.0 | 11.37
Modify  | 0          | 1.25e-07   | 1e-06      |   0.0 |  0.08
Other   |            | 6.875e-06  |            |       |  4.28

Nlocal:           0.75 ave           1 max           0 min
Histogram: 2 0 0 0 0 0 0 0 0 6
Nghost:         179.25 ave         180 max         179 min
Histogram: 6 0 0 0 0 0 0 0 0 2
Neighs:           22.5 ave          30 max           0 min
Histogram: 2 0 0 0 0 0 0 0 0 6
FullNghs:           45 ave          60 max           0 min
Histogram: 2 0 0 0 0 0 0 0 0 6

Total # of neighbors = 360
Ave neighs/atom = 60
Neighbor list builds = 0
Dangerous builds = 0
variable  natoms equal "count(all)"
variable xlength equal "lx"
variable  volume equal "vol"
variable  etotal equal "etotal"
variable    ecoh equal "pe/v_natoms"
print "${xlength}, ${volume}, ${etotal}, ${ecoh}" append lattice_cohesive_energy.txt screen no

next i
jump SELF loop

change_box all x scale 1.0025 y scale 1.0025 z scale 1.0025 remap
Changing box ...
  orthogonal box = (-0.23559877 -0.23099581 -0.56444209) to (3.4559748 3.4513718 8.4334841)
  orthogonal box = (-0.23559877 -0.23559877 -0.56444209) to (3.4559748 3.4559748 8.4334841)
  orthogonal box = (-0.23559877 -0.23559877 -0.5756895) to (3.4559748 3.4559748 8.4447315)

run 1
WARNING: No fixes with time integration, atoms won't move (src/verlet.cpp:60)
WARNING: Proc sub-domain size < neighbor skin, could lead to lost atoms (src/domain.cpp:966)
Per MPI rank memory allocation (min/avg/max) = 8.508 | 8.508 | 8.508 Mbytes
   Step         PotEng         TotEng           Lx             Ly             Lz           Volume         Press           Pxx            Pyy            Pzz      
       147  -33.730635     -33.730635      3.6915735      3.6915735      9.020421       122.92773     -218114.93     -192568.99     -192568.99     -269206.82    
       148  -33.730635     -33.730635      3.6915735      3.6915735      9.020421       122.92773     -218114.93     -192568.99     -192568.99     -269206.82    
Loop time of 0.00016025 on 8 procs for 1 steps with 6 atoms

Performance: 539.158 ns/day, 0.045 hours/ns, 6240.250 timesteps/s, 37.441 katom-step/s
0.0% CPU use with 8 MPI tasks x 1 OpenMP threads

MPI task timing breakdown:
Section |  min time  |  avg time  |  max time  |%varavg| %total
---------------------------------------------------------------
Pair    | 9.7e-05    | 0.00010588 | 0.000117   |   0.0 | 66.07
Neigh   | 0          | 0          | 0          |   0.0 |  0.00
Comm    | 1.9e-05    | 2.85e-05   | 3.7e-05    |   0.0 | 17.78
Output  | 1.6e-05    | 1.85e-05   | 2.1e-05    |   0.0 | 11.54
Modify  | 0          | 2.5e-07    | 1e-06      |   0.0 |  0.16
Other   |            | 7.125e-06  |            |       |  4.45

Nlocal:           0.75 ave           1 max           0 min
Histogram: 2 0 0 0 0 0 0 0 0 6
Nghost:         179.25 ave         180 max         179 min
Histogram: 6 0 0 0 0 0 0 0 0 2
Neighs:           22.5 ave          30 max           0 min
Histogram: 2 0 0 0 0 0 0 0 0 6
FullNghs:           45 ave          60 max           0 min
Histogram: 2 0 0 0 0 0 0 0 0 6

Total # of neighbors = 360
Ave neighs/atom = 60
Neighbor list builds = 0
Dangerous builds = 0
variable  natoms equal "count(all)"
variable xlength equal "lx"
variable  volume equal "vol"
variable  etotal equal "etotal"
variable    ecoh equal "pe/v_natoms"
print "${xlength}, ${volume}, ${etotal}, ${ecoh}" append lattice_cohesive_energy.txt screen no

next i
jump SELF loop

change_box all x scale 1.0025 y scale 1.0025 z scale 1.0025 remap
Changing box ...
  orthogonal box = (-0.24021324 -0.23559877 -0.5756895) to (3.4605892 3.4559748 8.4447315)
  orthogonal box = (-0.24021324 -0.24021324 -0.5756895) to (3.4605892 3.4605892 8.4447315)
  orthogonal box = (-0.24021324 -0.24021324 -0.58696503) to (3.4605892 3.4605892 8.456007)

run 1
WARNING: No fixes with time integration, atoms won't move (src/verlet.cpp:60)
WARNING: Proc sub-domain size < neighbor skin, could lead to lost atoms (src/domain.cpp:966)
Per MPI rank memory allocation (min/avg/max) = 8.508 | 8.508 | 8.508 Mbytes
   Step         PotEng         TotEng           Lx             Ly             Lz           Volume         Press           Pxx            Pyy            Pzz      
       148  -33.602778     -33.602778      3.7008025      3.7008025      9.0429721      123.85199     -225086.24     -198771.88     -198771.88     -277714.97    
       149  -33.602778     -33.602778      3.7008025      3.7008025      9.0429721      123.85199     -225086.24     -198771.88     -198771.88     -277714.97    
Loop time of 0.000166625 on 8 procs for 1 steps with 6 atoms

Performance: 518.530 ns/day, 0.046 hours/ns, 6001.500 timesteps/s, 36.009 katom-step/s
0.0% CPU use with 8 MPI tasks x 1 OpenMP threads

MPI task timing breakdown:
Section |  min time  |  avg time  |  max time  |%varavg| %total
---------------------------------------------------------------
Pair    | 9.9e-05    | 0.00010737 | 0.000118   |   0.0 | 64.44
Neigh   | 0          | 0          | 0          |   0.0 |  0.00
Comm    | 1.8e-05    | 2.8125e-05 | 3.7e-05    |   0.0 | 16.88
Output  | 1.6e-05    | 1.95e-05   | 2.6e-05    |   0.0 | 11.70
Modify  | 0          | 1.25e-07   | 1e-06      |   0.0 |  0.08
Other   |            | 1.15e-05   |            |       |  6.90

Nlocal:           0.75 ave           1 max           0 min
Histogram: 2 0 0 0 0 0 0 0 0 6
Nghost:         179.25 ave         180 max         179 min
Histogram: 6 0 0 0 0 0 0 0 0 2
Neighs:           22.5 ave          30 max           0 min
Histogram: 2 0 0 0 0 0 0 0 0 6
FullNghs:           45 ave          60 max           0 min
Histogram: 2 0 0 0 0 0 0 0 0 6

Total # of neighbors = 360
Ave neighs/atom = 60
Neighbor list builds = 0
Dangerous builds = 0
variable  natoms equal "count(all)"
variable xlength equal "lx"
variable  volume equal "vol"
variable  etotal equal "etotal"
variable    ecoh equal "pe/v_natoms"
print "${xlength}, ${volume}, ${etotal}, ${ecoh}" append lattice_cohesive_energy.txt screen no

next i
jump SELF loop

change_box all x scale 1.0025 y scale 1.0025 z scale 1.0025 remap
Changing box ...
  orthogonal box = (-0.24483924 -0.24021324 -0.58696503) to (3.4652152 3.4605892 8.456007)
  orthogonal box = (-0.24483924 -0.24483924 -0.58696503) to (3.4652152 3.4652152 8.456007)
  orthogonal box = (-0.24483924 -0.24483924 -0.59826874) to (3.4652152 3.4652152 8.4673107)

run 1
WARNING: No fixes with time integration, atoms won't move (src/verlet.cpp:60)
WARNING: Proc sub-domain size < neighbor skin, could lead to lost atoms (src/domain.cpp:966)
Per MPI rank memory allocation (min/avg/max) = 8.508 | 8.508 | 8.508 Mbytes
   Step         PotEng         TotEng           Lx             Ly             Lz           Volume         Press           Pxx            Pyy            Pzz      
       149  -33.470011     -33.470011      3.7100545      3.7100545      9.0655795      124.78321     -231708.21     -204665.78     -204665.78     -285793.06    
       150  -33.470011     -33.470011      3.7100545      3.7100545      9.0655795      124.78321     -231708.21     -204665.78     -204665.78     -285793.06    
Loop time of 0.000189 on 8 procs for 1 steps with 6 atoms

Performance: 457.143 ns/day, 0.053 hours/ns, 5291.005 timesteps/s, 31.746 katom-step/s
0.0% CPU use with 8 MPI tasks x 1 OpenMP threads

MPI task timing breakdown:
Section |  min time  |  avg time  |  max time  |%varavg| %total
---------------------------------------------------------------
Pair    | 0.000128   | 0.00013625 | 0.000147   |   0.0 | 72.09
Neigh   | 0          | 0          | 0          |   0.0 |  0.00
Comm    | 1.8e-05    | 2.75e-05   | 3.7e-05    |   0.0 | 14.55
Output  | 1.5e-05    | 1.7875e-05 | 2e-05      |   0.0 |  9.46
Modify  | 0          | 2.5e-07    | 1e-06      |   0.0 |  0.13
Other   |            | 7.125e-06  |            |       |  3.77

Nlocal:           0.75 ave           1 max           0 min
Histogram: 2 0 0 0 0 0 0 0 0 6
Nghost:         179.25 ave         180 max         179 min
Histogram: 6 0 0 0 0 0 0 0 0 2
Neighs:           22.5 ave          30 max           0 min
Histogram: 2 0 0 0 0 0 0 0 0 6
FullNghs:           45 ave          60 max           0 min
Histogram: 2 0 0 0 0 0 0 0 0 6

Total # of neighbors = 360
Ave neighs/atom = 60
Neighbor list builds = 0
Dangerous builds = 0
variable  natoms equal "count(all)"
variable xlength equal "lx"
variable  volume equal "vol"
variable  etotal equal "etotal"
variable    ecoh equal "pe/v_natoms"
print "${xlength}, ${volume}, ${etotal}, ${ecoh}" append lattice_cohesive_energy.txt screen no

next i
jump SELF loop

change_box all x scale 1.0025 y scale 1.0025 z scale 1.0025 remap
Changing box ...
  orthogonal box = (-0.24947681 -0.24483924 -0.59826874) to (3.4698528 3.4652152 8.4673107)
  orthogonal box = (-0.24947681 -0.24947681 -0.59826874) to (3.4698528 3.4698528 8.4673107)
  orthogonal box = (-0.24947681 -0.24947681 -0.60960072) to (3.4698528 3.4698528 8.4786427)

run 1
WARNING: No fixes with time integration, atoms won't move (src/verlet.cpp:60)
WARNING: Proc sub-domain size < neighbor skin, could lead to lost atoms (src/domain.cpp:966)
Per MPI rank memory allocation (min/avg/max) = 8.508 | 8.508 | 8.508 Mbytes
   Step         PotEng         TotEng           Lx             Ly             Lz           Volume         Press           Pxx            Pyy            Pzz      
       150  -33.332467     -33.332467      3.7193296      3.7193296      9.0882434      125.72142     -237991.35     -210260.1      -210260.1      -293453.84    
       151  -33.332467     -33.332467      3.7193296      3.7193296      9.0882434      125.72142     -237991.35     -210260.1      -210260.1      -293453.84    
Loop time of 0.000113125 on 8 procs for 1 steps with 6 atoms

Performance: 763.757 ns/day, 0.031 hours/ns, 8839.779 timesteps/s, 53.039 katom-step/s
0.0% CPU use with 8 MPI tasks x 1 OpenMP threads

MPI task timing breakdown:
Section |  min time  |  avg time  |  max time  |%varavg| %total
---------------------------------------------------------------
Pair    | 7.7e-05    | 7.8625e-05 | 8e-05      |   0.0 | 69.50
Neigh   | 0          | 0          | 0          |   0.0 |  0.00
Comm    | 1.3e-05    | 1.4375e-05 | 1.6e-05    |   0.0 | 12.71
Output  | 1.3e-05    | 1.4625e-05 | 1.7e-05    |   0.0 | 12.93
Modify  | 0          | 0          | 0          |   0.0 |  0.00
Other   |            | 5.5e-06    |            |       |  4.86

Nlocal:           0.75 ave           1 max           0 min
Histogram: 2 0 0 0 0 0 0 0 0 6
Nghost:         179.25 ave         180 max         179 min
Histogram: 6 0 0 0 0 0 0 0 0 2
Neighs:           22.5 ave          30 max           0 min
Histogram: 2 0 0 0 0 0 0 0 0 6
FullNghs:           45 ave          60 max           0 min
Histogram: 2 0 0 0 0 0 0 0 0 6

Total # of neighbors = 360
Ave neighs/atom = 60
Neighbor list builds = 0
Dangerous builds = 0
variable  natoms equal "count(all)"
variable xlength equal "lx"
variable  volume equal "vol"
variable  etotal equal "etotal"
variable    ecoh equal "pe/v_natoms"
print "${xlength}, ${volume}, ${etotal}, ${ecoh}" append lattice_cohesive_energy.txt screen no

next i
jump SELF loop

change_box all x scale 1.0025 y scale 1.0025 z scale 1.0025 remap
Changing box ...
  orthogonal box = (-0.25412597 -0.24947681 -0.60960072) to (3.474502 3.4698528 8.4786427)
  orthogonal box = (-0.25412597 -0.25412597 -0.60960072) to (3.474502 3.474502 8.4786427)
  orthogonal box = (-0.25412597 -0.25412597 -0.62096102) to (3.474502 3.474502 8.490003)

run 1
WARNING: No fixes with time integration, atoms won't move (src/verlet.cpp:60)
WARNING: Proc sub-domain size < neighbor skin, could lead to lost atoms (src/domain.cpp:966)
Per MPI rank memory allocation (min/avg/max) = 8.508 | 8.508 | 8.508 Mbytes
   Step         PotEng         TotEng           Lx             Ly             Lz           Volume         Press           Pxx            Pyy            Pzz      
       151  -33.190279     -33.190279      3.7286279      3.7286279      9.110964       126.66669     -243945.89     -215563.99     -215563.99     -300709.68    
       152  -33.190279     -33.190279      3.7286279      3.7286279      9.110964       126.66669     -243945.89     -215563.99     -215563.99     -300709.68    
Loop time of 0.00016725 on 8 procs for 1 steps with 6 atoms

Performance: 516.592 ns/day, 0.046 hours/ns, 5979.073 timesteps/s, 35.874 katom-step/s
0.0% CPU use with 8 MPI tasks x 1 OpenMP threads

MPI task timing breakdown:
Section |  min time  |  avg time  |  max time  |%varavg| %total
---------------------------------------------------------------
Pair    | 0.000112   | 0.00011625 | 0.000121   |   0.0 | 69.51
Neigh   | 0          | 0          | 0          |   0.0 |  0.00
Comm    | 2.1e-05    | 2.425e-05  | 2.8e-05    |   0.0 | 14.50
Output  | 1.6e-05    | 1.7875e-05 | 1.9e-05    |   0.0 | 10.69
Modify  | 0          | 2.5e-07    | 1e-06      |   0.0 |  0.15
Other   |            | 8.625e-06  |            |       |  5.16

Nlocal:           0.75 ave           1 max           0 min
Histogram: 2 0 0 0 0 0 0 0 0 6
Nghost:         179.25 ave         180 max         179 min
Histogram: 6 0 0 0 0 0 0 0 0 2
Neighs:           22.5 ave          30 max           0 min
Histogram: 2 0 0 0 0 0 0 0 0 6
FullNghs:           45 ave          60 max           0 min
Histogram: 2 0 0 0 0 0 0 0 0 6

Total # of neighbors = 360
Ave neighs/atom = 60
Neighbor list builds = 0
Dangerous builds = 0
variable  natoms equal "count(all)"
variable xlength equal "lx"
variable  volume equal "vol"
variable  etotal equal "etotal"
variable    ecoh equal "pe/v_natoms"
print "${xlength}, ${volume}, ${etotal}, ${ecoh}" append lattice_cohesive_energy.txt screen no

next i
jump SELF loop

change_box all x scale 1.0025 y scale 1.0025 z scale 1.0025 remap
Changing box ...
  orthogonal box = (-0.25878676 -0.25412597 -0.62096102) to (3.4791628 3.474502 8.490003)
  orthogonal box = (-0.25878676 -0.25878676 -0.62096102) to (3.4791628 3.4791628 8.490003)
  orthogonal box = (-0.25878676 -0.25878676 -0.63234972) to (3.4791628 3.4791628 8.5013917)

run 1
Per MPI rank memory allocation (min/avg/max) = 8.508 | 8.508 | 8.508 Mbytes
   Step         PotEng         TotEng           Lx             Ly             Lz           Volume         Press           Pxx            Pyy            Pzz      
WARNING: Too many warnings: 102 vs 100. All future warnings will be suppressed (src/thermo.cpp:466)
       152  -33.043579     -33.043579      3.7379495      3.7379495      9.1337414      127.61907     -249581.88     -220586.44     -220586.44     -307572.76    
       153  -33.043579     -33.043579      3.7379495      3.7379495      9.1337414      127.61907     -249581.88     -220586.44     -220586.44     -307572.76    
Loop time of 0.000163875 on 8 procs for 1 steps with 6 atoms

Performance: 527.231 ns/day, 0.046 hours/ns, 6102.212 timesteps/s, 36.613 katom-step/s
0.0% CPU use with 8 MPI tasks x 1 OpenMP threads

MPI task timing breakdown:
Section |  min time  |  avg time  |  max time  |%varavg| %total
---------------------------------------------------------------
Pair    | 0.000111   | 0.00011463 | 0.000119   |   0.0 | 69.95
Neigh   | 0          | 0          | 0          |   0.0 |  0.00
Comm    | 2e-05      | 2.3e-05    | 2.7e-05    |   0.0 | 14.04
Output  | 1.5e-05    | 1.75e-05   | 2e-05      |   0.0 | 10.68
Modify  | 0          | 0          | 0          |   0.0 |  0.00
Other   |            | 8.75e-06   |            |       |  5.34

Nlocal:           0.75 ave           1 max           0 min
Histogram: 2 0 0 0 0 0 0 0 0 6
Nghost:         179.25 ave         180 max         179 min
Histogram: 6 0 0 0 0 0 0 0 0 2
Neighs:           22.5 ave          30 max           0 min
Histogram: 2 0 0 0 0 0 0 0 0 6
FullNghs:           45 ave          60 max           0 min
Histogram: 2 0 0 0 0 0 0 0 0 6

Total # of neighbors = 360
Ave neighs/atom = 60
Neighbor list builds = 0
Dangerous builds = 0
variable  natoms equal "count(all)"
variable xlength equal "lx"
variable  volume equal "vol"
variable  etotal equal "etotal"
variable    ecoh equal "pe/v_natoms"
print "${xlength}, ${volume}, ${etotal}, ${ecoh}" append lattice_cohesive_energy.txt screen no

next i
jump SELF loop

print "-------------------------------------------------------------"
-------------------------------------------------------------
print "Show results of 1st step (Running Minimization)"
Show results of 1st step (Running Minimization)
print "The number of atoms = ${natoms};"
The number of atoms = 6;
print "The lattice constant, x (Angstoms) = ${x0};"
The lattice constant, x (Angstoms) = 3.73794951825418;
print "The lattice constant, y (Angstoms) = ${y0};"
The lattice constant, y (Angstoms) = 3.73794951825418;
print "The lattice constant, z (Angstoms) = ${z0};"
The lattice constant, z (Angstoms) = 9.13374144914196;
print "The volume (Angstoms^3) = ${v0};"
The volume (Angstoms^3) = 127.619070592168;
print "The total energy (eV) = ${etot0};"
The total energy (eV) = -33.0435785330699;
print "The cohesive energy (eV/atom) = ${ecoh0};"
The cohesive energy (eV/atom) = -5.50726308884498;
print "-------------------------------------------------------------"
-------------------------------------------------------------
print "Simulations completed !"
Simulations completed !
Total wall time: 0:00:00
