LAMMPS (22 Dec 2022)
  using 1 OpenMP thread(s) per MPI task
Loaded 1 plugins from C:\Program Files\LAMMPS 64-bit 23Jun2022\plugins
Loaded 0 plugins from C:\Program Files\LAMMPS 64-bit 23Jun2022-MPI\plugins
Loaded 1 plugins from C:\Program Files\LAMMPS 64-bit 22Dec2022-MSMPI\plugins
Loaded 1 plugins from C:\Program Files\LAMMPS 64-bit 28Mar2023-MPI\plugins
#------------------------------------------------------------------------------------------
# LAMMPS 64-bit 22Dec2022-MSMPI
#------------------------------------------------------------------------------------------
clear
  using 1 OpenMP thread(s) per MPI task
Loaded 1 plugins from C:\Program Files\LAMMPS 64-bit 23Jun2022\plugins
Loaded 0 plugins from C:\Program Files\LAMMPS 64-bit 23Jun2022-MPI\plugins
Loaded 1 plugins from C:\Program Files\LAMMPS 64-bit 22Dec2022-MSMPI\plugins
Loaded 1 plugins from C:\Program Files\LAMMPS 64-bit 28Mar2023-MPI\plugins
#echo both
# ---------- Initializing Simulation ---------------------------------
units metal
dimension 3
boundary p p p
atom_style atomic
atom_modify map array

read_data ./../../MoSi2.data
Reading data file ...
  orthogonal box = (0 0 0) to (3.220376 3.220376 7.869042)
  1 by 2 by 4 MPI processor grid
  reading atoms ...
  6 atoms
  read_data CPU = 0.001 seconds
#read_data ./../../Mo3Si.data
#read_data ./../../Mo5Si3.data

replicate 1 1 1
Replication is creating a 1x1x1 = 1 times larger system...
  orthogonal box = (0 0 0) to (3.220376 3.220376 7.869042)
  1 by 2 by 4 MPI processor grid
  6 atoms
  replicate CPU = 0.000 seconds

# ---------- Defining the Interatomic Potential ---------------------
pair_style meam
pair_coeff * * ./../../library.meam Mo Si ./../../MoSi.meam Mo Si

# ---------- Running Minimization -------------------------------------
fix 1 all box/relax iso 0.0 vmax 0.001

thermo 10
thermo_style custom step pe etotal lx ly lz vol press pxx pyy pzz

min_style cg
minimize 1e-25 1e-25 5000 10000
Neighbor list info ...
  update: every = 1 steps, delay = 0 steps, check = yes
  max neighbors/atom: 2000, page size: 100000
  master list distance cutoff = 6.3
  ghost atom cutoff = 6.3
  binsize = 3.15, bins = 2 2 3
  2 neighbor lists, perpetual/occasional/extra = 2 0 0
  (1) pair meam, perpetual
      attributes: full, newton on
      pair build: full/bin/atomonly
      stencil: full/bin/3d
      bin: standard
  (2) pair meam, perpetual, half/full from (1)
      attributes: half, newton on
      pair build: halffull/newton
      stencil: none
      bin: none
WARNING: Proc sub-domain size < neighbor skin, could lead to lost atoms (src/domain.cpp:966)
Per MPI rank memory allocation (min/avg/max) = 9.64 | 9.641 | 9.641 Mbytes
   Step         PotEng         TotEng           Lx             Ly             Lz           Volume         Press           Pxx            Pyy            Pzz      
         0  -26.933018     -26.933018      3.220376       3.220376       7.869042       81.608431      1194270.3      1141059.2      1141059.2      1300692.7    
        10  -28.62196      -28.62196       3.2525798      3.2525798      7.9477324      84.081248      994321.08      953913         953913         1075137.3    
        20  -30.048215     -30.048215      3.2847835      3.2847835      8.0264228      86.603519      817529.55      788552.94      788552.94      875482.76    
        30  -31.235599     -31.235599      3.3169873      3.3169873      8.1051133      89.175736      661466.81      642667.44      642667.44      699065.55    
        40  -32.206059     -32.206059      3.349191       3.349191       8.1838037      91.798386      523948.73      514181.63      514181.63      543482.94    
        50  -32.979811     -32.979811      3.3813948      3.3813948      8.2624941      94.471959      403010.6       401232.34      401232.34      406567.11    
        60  -33.575466     -33.575466      3.4135986      3.4135986      8.3411845      97.196947      296884.3       302146.28      302146.28      286360.35    
        70  -34.010165     -34.010165      3.4458023      3.4458023      8.4198749      99.973837      203976.28      215419.09      215419.09      181090.65    
        80  -34.299729     -34.299729      3.4780061      3.4780061      8.4985654      102.80312      122843.02      139694.27      139694.27      89140.536    
        90  -34.459        -34.459         3.5102098      3.5102098      8.5772558      105.68528      52141.512      73727.928      73727.928      8968.6803    
       100  -34.516365     -34.516365      3.5359728      3.5359728      8.6402081      108.02942      371.51747      26042.511      26042.511     -50970.469    
       110  -34.562767     -34.562767      3.5310321      3.5310321      8.6281354      107.57721     -141.45897      28115.712      28115.712     -56655.8      
       116  -34.562767     -34.562767      3.5309578      3.5309578      8.6279537      107.57042      8.8191447e-10  28245.131      28245.131     -56490.263    
Loop time of 0.0254881 on 8 procs for 116 steps with 6 atoms

53.6% CPU use with 8 MPI tasks x 1 OpenMP threads

Minimization stats:
  Stopping criterion = energy tolerance
  Energy initial, next-to-last, final = 
     -26.9330175020231   -34.562767092456   -34.562767092456
  Force two-norm initial, final = 182.68353 9.4512893e-13
  Force max component initial, final = 182.49399 4.7346849e-13
  Final line search alpha, max atom move = 1 4.7346849e-13
  Iterations, force evaluations = 116 124

MPI task timing breakdown:
Section |  min time  |  avg time  |  max time  |%varavg| %total
---------------------------------------------------------------
Pair    | 0.013501   | 0.014057   | 0.014796   |   0.4 | 55.15
Neigh   | 0          | 0          | 0          |   0.0 |  0.00
Comm    | 0.003155   | 0.0039118  | 0.004576   |   0.7 | 15.35
Output  | 0.000172   | 0.00019175 | 0.000243   |   0.0 |  0.75
Modify  | 0          | 0          | 0          |   0.0 |  0.00
Other   |            | 0.007328   |            |       | 28.75

Nlocal:           0.75 ave           1 max           0 min
Histogram: 2 0 0 0 0 0 0 0 0 6
Nghost:         197.25 ave         200 max         195 min
Histogram: 3 0 1 0 0 0 0 0 3 1
Neighs:           25.5 ave          34 max           0 min
Histogram: 2 0 0 0 0 0 0 0 0 6
FullNghs:           51 ave          68 max           0 min
Histogram: 2 0 0 0 0 0 0 0 0 6

Total # of neighbors = 408
Ave neighs/atom = 68
Neighbor list builds = 0
Dangerous builds = 0

variable  natoms equal "count(all)"
variable      x0 equal "lx"
variable      y0 equal "ly"
variable      z0 equal "lz"
variable      v0 equal "vol"
variable   etot0 equal "etotal"
variable   ecoh0 equal "pe/v_natoms"

unfix 1
write_data ./../step2_elastic/data.in
System init for write_data ...
WARNING: Proc sub-domain size < neighbor skin, could lead to lost atoms (src/domain.cpp:966)

# ---------- For Equation of States -------------------------------------
change_box all x scale 0.94 y scale 0.94 z scale 0.94 remap
Changing box ...
  orthogonal box = (-0.049362148 -0.15529088 -0.37945583) to (3.2697381 3.3756669 8.2484978)
  orthogonal box = (-0.049362148 -0.049362148 -0.37945583) to (3.2697381 3.2697381 8.2484978)
  orthogonal box = (-0.049362148 -0.049362148 -0.12061722) to (3.2697381 3.2697381 7.9896592)
run 1
WARNING: No fixes with time integration, atoms won't move (src/verlet.cpp:60)
WARNING: Proc sub-domain size < neighbor skin, could lead to lost atoms (src/domain.cpp:966)
Per MPI rank memory allocation (min/avg/max) = 8.516 | 8.516 | 8.516 Mbytes
   Step         PotEng         TotEng           Lx             Ly             Lz           Volume         Press           Pxx            Pyy            Pzz      
       116  -31.576539     -31.576539      3.3191003      3.3191003      8.1102764      89.346267      629986.64      609530.89      609530.89      670898.14    
       117  -31.576539     -31.576539      3.3191003      3.3191003      8.1102764      89.346267      629986.64      609530.89      609530.89      670898.14    
Loop time of 0.000173125 on 8 procs for 1 steps with 6 atoms

Performance: 499.061 ns/day, 0.048 hours/ns, 5776.173 timesteps/s, 34.657 katom-step/s
0.0% CPU use with 8 MPI tasks x 1 OpenMP threads

MPI task timing breakdown:
Section |  min time  |  avg time  |  max time  |%varavg| %total
---------------------------------------------------------------
Pair    | 9.2e-05    | 9.9e-05    | 0.000135   |   0.0 | 57.18
Neigh   | 0          | 0          | 0          |   0.0 |  0.00
Comm    | 1.6e-05    | 5.15e-05   | 5.8e-05    |   0.0 | 29.75
Output  | 1.5e-05    | 1.6875e-05 | 1.9e-05    |   0.0 |  9.75
Modify  | 0          | 1.25e-07   | 1e-06      |   0.0 |  0.07
Other   |            | 5.625e-06  |            |       |  3.25

Nlocal:           0.75 ave           2 max           0 min
Histogram: 3 0 0 0 0 4 0 0 0 1
Nghost:         197.25 ave         200 max         195 min
Histogram: 3 0 1 0 0 0 1 0 1 2
Neighs:           22.5 ave          60 max           0 min
Histogram: 3 0 0 0 0 4 0 0 0 1
FullNghs:           45 ave         120 max           0 min
Histogram: 3 0 0 0 0 4 0 0 0 1

Total # of neighbors = 360
Ave neighs/atom = 60
Neighbor list builds = 0
Dangerous builds = 0
print "# Lattice constant (Angstroms), Volume (Angstrom), Total energy (eV), Cohesive energy (eV/atom)" file lattice_cohesive_energy.txt screen no


# Loop over lattice constants
variable i loop 49 # Number of steps
label loop

change_box all x scale 1.0025 y scale 1.0025 z scale 1.0025 remap
Changing box ...
  orthogonal box = (-0.053511023 -0.049362148 -0.12061722) to (3.273887 3.2697381 7.9896592)
  orthogonal box = (-0.053511023 -0.053511023 -0.12061722) to (3.273887 3.273887 7.9896592)
  orthogonal box = (-0.053511023 -0.053511023 -0.13075507) to (3.273887 3.273887 7.9997971)

run 1
WARNING: No fixes with time integration, atoms won't move (src/verlet.cpp:60)
WARNING: Proc sub-domain size < neighbor skin, could lead to lost atoms (src/domain.cpp:966)
Per MPI rank memory allocation (min/avg/max) = 8.516 | 8.516 | 8.516 Mbytes
   Step         PotEng         TotEng           Lx             Ly             Lz           Volume         Press           Pxx            Pyy            Pzz      
       117  -31.833018     -31.833018      3.327398       3.327398       8.1305521      90.01804       593644.12      575977.43      575977.43      628977.5     
       118  -31.833018     -31.833018      3.327398       3.327398       8.1305521      90.01804       593644.12      575977.43      575977.43      628977.5     
Loop time of 0.00016675 on 8 procs for 1 steps with 6 atoms

Performance: 518.141 ns/day, 0.046 hours/ns, 5997.001 timesteps/s, 35.982 katom-step/s
0.0% CPU use with 8 MPI tasks x 1 OpenMP threads

MPI task timing breakdown:
Section |  min time  |  avg time  |  max time  |%varavg| %total
---------------------------------------------------------------
Pair    | 0.0001     | 0.0001105  | 0.000122   |   0.0 | 66.27
Neigh   | 0          | 0          | 0          |   0.0 |  0.00
Comm    | 1.7e-05    | 2.875e-05  | 3.9e-05    |   0.0 | 17.24
Output  | 1.5e-05    | 1.775e-05  | 2.1e-05    |   0.0 | 10.64
Modify  | 0          | 2.5e-07    | 1e-06      |   0.0 |  0.15
Other   |            | 9.5e-06    |            |       |  5.70

Nlocal:           0.75 ave           2 max           0 min
Histogram: 3 0 0 0 0 4 0 0 0 1
Nghost:         197.25 ave         200 max         195 min
Histogram: 3 0 1 0 0 0 1 0 1 2
Neighs:           22.5 ave          60 max           0 min
Histogram: 3 0 0 0 0 4 0 0 0 1
FullNghs:           45 ave         120 max           0 min
Histogram: 3 0 0 0 0 4 0 0 0 1

Total # of neighbors = 360
Ave neighs/atom = 60
Neighbor list builds = 0
Dangerous builds = 0
variable  natoms equal "count(all)"
variable xlength equal "lx"
variable  volume equal "vol"
variable  etotal equal "etotal"
variable    ecoh equal "pe/v_natoms"
print "${xlength}, ${volume}, ${etotal}, ${ecoh}" append lattice_cohesive_energy.txt screen no

next i
jump SELF loop

change_box all x scale 1.0025 y scale 1.0025 z scale 1.0025 remap
Changing box ...
  orthogonal box = (-0.057670271 -0.053511023 -0.13075507) to (3.2780463 3.273887 7.9997971)
  orthogonal box = (-0.057670271 -0.057670271 -0.13075507) to (3.2780463 3.2780463 7.9997971)
  orthogonal box = (-0.057670271 -0.057670271 -0.14091826) to (3.2780463 3.2780463 8.0099603)

run 1
WARNING: No fixes with time integration, atoms won't move (src/verlet.cpp:60)
WARNING: Proc sub-domain size < neighbor skin, could lead to lost atoms (src/domain.cpp:966)
Per MPI rank memory allocation (min/avg/max) = 8.516 | 8.516 | 8.516 Mbytes
   Step         PotEng         TotEng           Lx             Ly             Lz           Volume         Press           Pxx            Pyy            Pzz      
       118  -32.076304     -32.076304      3.3357165      3.3357165      8.1508785      90.694865      558393.74      543437         543437         588307.21    
       119  -32.076304     -32.076304      3.3357165      3.3357165      8.1508785      90.694865      558393.74      543437         543437         588307.21    
Loop time of 0.00016275 on 8 procs for 1 steps with 6 atoms

Performance: 530.876 ns/day, 0.045 hours/ns, 6144.393 timesteps/s, 36.866 katom-step/s
0.0% CPU use with 8 MPI tasks x 1 OpenMP threads

MPI task timing breakdown:
Section |  min time  |  avg time  |  max time  |%varavg| %total
---------------------------------------------------------------
Pair    | 9.9e-05    | 0.00010887 | 0.00012    |   0.0 | 66.90
Neigh   | 0          | 0          | 0          |   0.0 |  0.00
Comm    | 1.6e-05    | 2.7625e-05 | 3.8e-05    |   0.0 | 16.97
Output  | 1.5e-05    | 1.775e-05  | 2.1e-05    |   0.0 | 10.91
Modify  | 0          | 1.25e-07   | 1e-06      |   0.0 |  0.08
Other   |            | 8.375e-06  |            |       |  5.15

Nlocal:           0.75 ave           2 max           0 min
Histogram: 3 0 0 0 0 4 0 0 0 1
Nghost:         197.25 ave         200 max         195 min
Histogram: 3 0 1 0 0 0 1 0 1 2
Neighs:           22.5 ave          60 max           0 min
Histogram: 3 0 0 0 0 4 0 0 0 1
FullNghs:           45 ave         120 max           0 min
Histogram: 3 0 0 0 0 4 0 0 0 1

Total # of neighbors = 360
Ave neighs/atom = 60
Neighbor list builds = 0
Dangerous builds = 0
variable  natoms equal "count(all)"
variable xlength equal "lx"
variable  volume equal "vol"
variable  etotal equal "etotal"
variable    ecoh equal "pe/v_natoms"
print "${xlength}, ${volume}, ${etotal}, ${ecoh}" append lattice_cohesive_energy.txt screen no

next i
jump SELF loop

change_box all x scale 1.0025 y scale 1.0025 z scale 1.0025 remap
Changing box ...
  orthogonal box = (-0.061839916 -0.057670271 -0.14091826) to (3.2822159 3.2780463 8.0099603)
  orthogonal box = (-0.061839916 -0.061839916 -0.14091826) to (3.2822159 3.2822159 8.0099603)
  orthogonal box = (-0.061839916 -0.061839916 -0.15110686) to (3.2822159 3.2822159 8.0201489)

run 1
WARNING: No fixes with time integration, atoms won't move (src/verlet.cpp:60)
WARNING: Proc sub-domain size < neighbor skin, could lead to lost atoms (src/domain.cpp:966)
Per MPI rank memory allocation (min/avg/max) = 8.516 | 8.516 | 8.516 Mbytes
   Step         PotEng         TotEng           Lx             Ly             Lz           Volume         Press           Pxx            Pyy            Pzz      
       119  -32.306645     -32.306645      3.3440558      3.3440558      8.1712557      91.376778      524210.18      511885.68      511885.68      548859.19    
       120  -32.306645     -32.306645      3.3440558      3.3440558      8.1712557      91.376778      524210.18      511885.68      511885.68      548859.19    
Loop time of 0.00016275 on 8 procs for 1 steps with 6 atoms

Performance: 530.876 ns/day, 0.045 hours/ns, 6144.393 timesteps/s, 36.866 katom-step/s
0.0% CPU use with 8 MPI tasks x 1 OpenMP threads

MPI task timing breakdown:
Section |  min time  |  avg time  |  max time  |%varavg| %total
---------------------------------------------------------------
Pair    | 9.9e-05    | 0.00010875 | 0.000119   |   0.0 | 66.82
Neigh   | 0          | 0          | 0          |   0.0 |  0.00
Comm    | 1.7e-05    | 2.8125e-05 | 3.8e-05    |   0.0 | 17.28
Output  | 1.5e-05    | 1.75e-05   | 2e-05      |   0.0 | 10.75
Modify  | 0          | 2.5e-07    | 1e-06      |   0.0 |  0.15
Other   |            | 8.125e-06  |            |       |  4.99

Nlocal:           0.75 ave           2 max           0 min
Histogram: 3 0 0 0 0 4 0 0 0 1
Nghost:         197.25 ave         200 max         195 min
Histogram: 3 0 1 0 0 0 1 0 1 2
Neighs:           22.5 ave          60 max           0 min
Histogram: 3 0 0 0 0 4 0 0 0 1
FullNghs:           45 ave         120 max           0 min
Histogram: 3 0 0 0 0 4 0 0 0 1

Total # of neighbors = 360
Ave neighs/atom = 60
Neighbor list builds = 0
Dangerous builds = 0
variable  natoms equal "count(all)"
variable xlength equal "lx"
variable  volume equal "vol"
variable  etotal equal "etotal"
variable    ecoh equal "pe/v_natoms"
print "${xlength}, ${volume}, ${etotal}, ${ecoh}" append lattice_cohesive_energy.txt screen no

next i
jump SELF loop

change_box all x scale 1.0025 y scale 1.0025 z scale 1.0025 remap
Changing box ...
  orthogonal box = (-0.066019986 -0.061839916 -0.15110686) to (3.286396 3.2822159 8.0201489)
  orthogonal box = (-0.066019986 -0.066019986 -0.15110686) to (3.286396 3.286396 8.0201489)
  orthogonal box = (-0.066019986 -0.066019986 -0.16132093) to (3.286396 3.286396 8.0303629)

run 1
WARNING: No fixes with time integration, atoms won't move (src/verlet.cpp:60)
WARNING: Proc sub-domain size < neighbor skin, could lead to lost atoms (src/domain.cpp:966)
Per MPI rank memory allocation (min/avg/max) = 8.516 | 8.516 | 8.516 Mbytes
   Step         PotEng         TotEng           Lx             Ly             Lz           Volume         Press           Pxx            Pyy            Pzz      
       120  -32.524284     -32.524284      3.352416       3.352416       8.1916839      92.063819      491068.65      481299.98      481299.98      510605.98    
       121  -32.524284     -32.524284      3.352416       3.352416       8.1916839      92.063819      491068.65      481299.98      481299.98      510605.98    
Loop time of 0.00017275 on 8 procs for 1 steps with 6 atoms

Performance: 500.145 ns/day, 0.048 hours/ns, 5788.712 timesteps/s, 34.732 katom-step/s
0.0% CPU use with 8 MPI tasks x 1 OpenMP threads

MPI task timing breakdown:
Section |  min time  |  avg time  |  max time  |%varavg| %total
---------------------------------------------------------------
Pair    | 0.000101   | 0.00011275 | 0.000129   |   0.0 | 65.27
Neigh   | 0          | 0          | 0          |   0.0 |  0.00
Comm    | 1.7e-05    | 3.3e-05    | 4.5e-05    |   0.0 | 19.10
Output  | 1.6e-05    | 1.75e-05   | 2e-05      |   0.0 | 10.13
Modify  | 0          | 5e-07      | 2e-06      |   0.0 |  0.29
Other   |            | 9e-06      |            |       |  5.21

Nlocal:           0.75 ave           2 max           0 min
Histogram: 3 0 0 0 0 4 0 0 0 1
Nghost:         197.25 ave         200 max         195 min
Histogram: 3 0 1 0 0 0 1 0 1 2
Neighs:           22.5 ave          60 max           0 min
Histogram: 3 0 0 0 0 4 0 0 0 1
FullNghs:           45 ave         120 max           0 min
Histogram: 3 0 0 0 0 4 0 0 0 1

Total # of neighbors = 360
Ave neighs/atom = 60
Neighbor list builds = 0
Dangerous builds = 0
variable  natoms equal "count(all)"
variable xlength equal "lx"
variable  volume equal "vol"
variable  etotal equal "etotal"
variable    ecoh equal "pe/v_natoms"
print "${xlength}, ${volume}, ${etotal}, ${ecoh}" append lattice_cohesive_energy.txt screen no

next i
jump SELF loop

change_box all x scale 1.0025 y scale 1.0025 z scale 1.0025 remap
Changing box ...
  orthogonal box = (-0.070210506 -0.066019986 -0.16132093) to (3.2905865 3.286396 8.0303629)
  orthogonal box = (-0.070210506 -0.070210506 -0.16132093) to (3.2905865 3.2905865 8.0303629)
  orthogonal box = (-0.070210506 -0.070210506 -0.17156053) to (3.2905865 3.2905865 8.0406025)

run 1
WARNING: No fixes with time integration, atoms won't move (src/verlet.cpp:60)
WARNING: Proc sub-domain size < neighbor skin, could lead to lost atoms (src/domain.cpp:966)
Per MPI rank memory allocation (min/avg/max) = 8.516 | 8.516 | 8.516 Mbytes
   Step         PotEng         TotEng           Lx             Ly             Lz           Volume         Press           Pxx            Pyy            Pzz      
       121  -32.729461     -32.729461      3.360797       3.360797       8.2121631      92.756025      458944.79      451656.95      451656.95      473520.48    
       122  -32.729461     -32.729461      3.360797       3.360797       8.2121631      92.756025      458944.79      451656.95      451656.95      473520.48    
Loop time of 0.000111 on 8 procs for 1 steps with 6 atoms

Performance: 778.378 ns/day, 0.031 hours/ns, 9009.009 timesteps/s, 54.054 katom-step/s
0.0% CPU use with 8 MPI tasks x 1 OpenMP threads

MPI task timing breakdown:
Section |  min time  |  avg time  |  max time  |%varavg| %total
---------------------------------------------------------------
Pair    | 7.7e-05    | 7.8875e-05 | 8.1e-05    |   0.0 | 71.06
Neigh   | 0          | 0          | 0          |   0.0 |  0.00
Comm    | 1.4e-05    | 1.5625e-05 | 1.7e-05    |   0.0 | 14.08
Output  | 1.2e-05    | 1.3e-05    | 1.4e-05    |   0.0 | 11.71
Modify  | 0          | 2.5e-07    | 1e-06      |   0.0 |  0.23
Other   |            | 3.25e-06   |            |       |  2.93

Nlocal:           0.75 ave           2 max           0 min
Histogram: 3 0 0 0 0 4 0 0 0 1
Nghost:         197.25 ave         200 max         195 min
Histogram: 3 0 1 0 0 0 1 0 1 2
Neighs:           22.5 ave          60 max           0 min
Histogram: 3 0 0 0 0 4 0 0 0 1
FullNghs:           45 ave         120 max           0 min
Histogram: 3 0 0 0 0 4 0 0 0 1

Total # of neighbors = 360
Ave neighs/atom = 60
Neighbor list builds = 0
Dangerous builds = 0
variable  natoms equal "count(all)"
variable xlength equal "lx"
variable  volume equal "vol"
variable  etotal equal "etotal"
variable    ecoh equal "pe/v_natoms"
print "${xlength}, ${volume}, ${etotal}, ${ecoh}" append lattice_cohesive_energy.txt screen no

next i
jump SELF loop

change_box all x scale 1.0025 y scale 1.0025 z scale 1.0025 remap
Changing box ...
  orthogonal box = (-0.074411502 -0.070210506 -0.17156053) to (3.2947875 3.2905865 8.0406025)
  orthogonal box = (-0.074411502 -0.074411502 -0.17156053) to (3.2947875 3.2947875 8.0406025)
  orthogonal box = (-0.074411502 -0.074411502 -0.18182574) to (3.2947875 3.2947875 8.0508677)

run 1
WARNING: No fixes with time integration, atoms won't move (src/verlet.cpp:60)
WARNING: Proc sub-domain size < neighbor skin, could lead to lost atoms (src/domain.cpp:966)
Per MPI rank memory allocation (min/avg/max) = 8.516 | 8.516 | 8.516 Mbytes
   Step         PotEng         TotEng           Lx             Ly             Lz           Volume         Press           Pxx            Pyy            Pzz      
       122  -32.922416     -32.922416      3.369199       3.369199       8.2326935      93.453436      427814.7       422933.94      422933.94      437576.2     
       123  -32.922416     -32.922416      3.369199       3.369199       8.2326935      93.453436      427814.7       422933.94      422933.94      437576.2     
Loop time of 0.000131125 on 8 procs for 1 steps with 6 atoms

Performance: 658.913 ns/day, 0.036 hours/ns, 7626.311 timesteps/s, 45.758 katom-step/s
0.0% CPU use with 8 MPI tasks x 1 OpenMP threads

MPI task timing breakdown:
Section |  min time  |  avg time  |  max time  |%varavg| %total
---------------------------------------------------------------
Pair    | 7.9e-05    | 8.1125e-05 | 8.6e-05    |   0.0 | 61.87
Neigh   | 0          | 0          | 0          |   0.0 |  0.00
Comm    | 1.3e-05    | 1.9e-05    | 2.1e-05    |   0.0 | 14.49
Output  | 1.1e-05    | 1.3375e-05 | 2.5e-05    |   0.0 | 10.20
Modify  | 0          | 1.25e-07   | 1e-06      |   0.0 |  0.10
Other   |            | 1.75e-05   |            |       | 13.35

Nlocal:           0.75 ave           2 max           0 min
Histogram: 3 0 0 0 0 4 0 0 0 1
Nghost:         197.25 ave         200 max         195 min
Histogram: 3 0 1 0 0 0 1 0 1 2
Neighs:           22.5 ave          60 max           0 min
Histogram: 3 0 0 0 0 4 0 0 0 1
FullNghs:           45 ave         120 max           0 min
Histogram: 3 0 0 0 0 4 0 0 0 1

Total # of neighbors = 360
Ave neighs/atom = 60
Neighbor list builds = 0
Dangerous builds = 0
variable  natoms equal "count(all)"
variable xlength equal "lx"
variable  volume equal "vol"
variable  etotal equal "etotal"
variable    ecoh equal "pe/v_natoms"
print "${xlength}, ${volume}, ${etotal}, ${ecoh}" append lattice_cohesive_energy.txt screen no

next i
jump SELF loop

change_box all x scale 1.0025 y scale 1.0025 z scale 1.0025 remap
Changing box ...
  orthogonal box = (-0.078623001 -0.074411502 -0.18182574) to (3.298999 3.2947875 8.0508677)
  orthogonal box = (-0.078623001 -0.078623001 -0.18182574) to (3.298999 3.298999 8.0508677)
  orthogonal box = (-0.078623001 -0.078623001 -0.1921166) to (3.298999 3.298999 8.0611586)

run 1
WARNING: No fixes with time integration, atoms won't move (src/verlet.cpp:60)
WARNING: Proc sub-domain size < neighbor skin, could lead to lost atoms (src/domain.cpp:966)
Per MPI rank memory allocation (min/avg/max) = 8.516 | 8.516 | 8.516 Mbytes
   Step         PotEng         TotEng           Lx             Ly             Lz           Volume         Press           Pxx            Pyy            Pzz      
       123  -33.103383     -33.103383      3.377622       3.377622       8.2532752      94.15609       397654.96      395108.92      395108.92      402747.04    
       124  -33.103383     -33.103383      3.377622       3.377622       8.2532752      94.15609       397654.96      395108.92      395108.92      402747.04    
Loop time of 0.000189125 on 8 procs for 1 steps with 6 atoms

Performance: 456.841 ns/day, 0.053 hours/ns, 5287.508 timesteps/s, 31.725 katom-step/s
0.0% CPU use with 8 MPI tasks x 1 OpenMP threads

MPI task timing breakdown:
Section |  min time  |  avg time  |  max time  |%varavg| %total
---------------------------------------------------------------
Pair    | 0.000112   | 0.00012537 | 0.00014    |   0.0 | 66.29
Neigh   | 0          | 0          | 0          |   0.0 |  0.00
Comm    | 2e-05      | 3.475e-05  | 4.9e-05    |   0.0 | 18.37
Output  | 1.6e-05    | 1.9375e-05 | 2.3e-05    |   0.0 | 10.24
Modify  | 0          | 1.25e-07   | 1e-06      |   0.0 |  0.07
Other   |            | 9.5e-06    |            |       |  5.02

Nlocal:           0.75 ave           2 max           0 min
Histogram: 3 0 0 0 0 4 0 0 0 1
Nghost:         197.25 ave         200 max         195 min
Histogram: 3 0 1 0 0 0 1 0 1 2
Neighs:           22.5 ave          60 max           0 min
Histogram: 3 0 0 0 0 4 0 0 0 1
FullNghs:           45 ave         120 max           0 min
Histogram: 3 0 0 0 0 4 0 0 0 1

Total # of neighbors = 360
Ave neighs/atom = 60
Neighbor list builds = 0
Dangerous builds = 0
variable  natoms equal "count(all)"
variable xlength equal "lx"
variable  volume equal "vol"
variable  etotal equal "etotal"
variable    ecoh equal "pe/v_natoms"
print "${xlength}, ${volume}, ${etotal}, ${ecoh}" append lattice_cohesive_energy.txt screen no

next i
jump SELF loop

change_box all x scale 1.0025 y scale 1.0025 z scale 1.0025 remap
Changing box ...
  orthogonal box = (-0.082845029 -0.078623001 -0.1921166) to (3.303221 3.298999 8.0611586)
  orthogonal box = (-0.082845029 -0.082845029 -0.1921166) to (3.303221 3.303221 8.0611586)
  orthogonal box = (-0.082845029 -0.082845029 -0.2024332) to (3.303221 3.303221 8.0714752)

run 1
WARNING: No fixes with time integration, atoms won't move (src/verlet.cpp:60)
WARNING: Proc sub-domain size < neighbor skin, could lead to lost atoms (src/domain.cpp:966)
Per MPI rank memory allocation (min/avg/max) = 8.516 | 8.516 | 8.516 Mbytes
   Step         PotEng         TotEng           Lx             Ly             Lz           Volume         Press           Pxx            Pyy            Pzz      
       124  -33.272594     -33.272594      3.3860661      3.3860661      8.2739084      94.864028      368442.53      368160.1       368160.1       369007.39    
       125  -33.272594     -33.272594      3.3860661      3.3860661      8.2739084      94.864028      368442.53      368160.1       368160.1       369007.39    
Loop time of 0.0001875 on 8 procs for 1 steps with 6 atoms

Performance: 460.800 ns/day, 0.052 hours/ns, 5333.333 timesteps/s, 32.000 katom-step/s
0.0% CPU use with 8 MPI tasks x 1 OpenMP threads

MPI task timing breakdown:
Section |  min time  |  avg time  |  max time  |%varavg| %total
---------------------------------------------------------------
Pair    | 0.000111   | 0.00012437 | 0.000138   |   0.0 | 66.33
Neigh   | 0          | 0          | 0          |   0.0 |  0.00
Comm    | 2.2e-05    | 3.5e-05    | 5e-05      |   0.0 | 18.67
Output  | 1.7e-05    | 1.95e-05   | 2.4e-05    |   0.0 | 10.40
Modify  | 0          | 1.25e-07   | 1e-06      |   0.0 |  0.07
Other   |            | 8.5e-06    |            |       |  4.53

Nlocal:           0.75 ave           2 max           0 min
Histogram: 3 0 0 0 0 4 0 0 0 1
Nghost:         197.25 ave         200 max         195 min
Histogram: 3 0 1 0 0 0 1 0 1 2
Neighs:           22.5 ave          60 max           0 min
Histogram: 3 0 0 0 0 4 0 0 0 1
FullNghs:           45 ave         120 max           0 min
Histogram: 3 0 0 0 0 4 0 0 0 1

Total # of neighbors = 360
Ave neighs/atom = 60
Neighbor list builds = 0
Dangerous builds = 0
variable  natoms equal "count(all)"
variable xlength equal "lx"
variable  volume equal "vol"
variable  etotal equal "etotal"
variable    ecoh equal "pe/v_natoms"
print "${xlength}, ${volume}, ${etotal}, ${ecoh}" append lattice_cohesive_energy.txt screen no

next i
jump SELF loop

change_box all x scale 1.0025 y scale 1.0025 z scale 1.0025 remap
Changing box ...
  orthogonal box = (-0.087077611 -0.082845029 -0.2024332) to (3.3074536 3.303221 8.0714752)
  orthogonal box = (-0.087077611 -0.087077611 -0.2024332) to (3.3074536 3.3074536 8.0714752)
  orthogonal box = (-0.087077611 -0.087077611 -0.21277558) to (3.3074536 3.3074536 8.0818176)

run 1
WARNING: No fixes with time integration, atoms won't move (src/verlet.cpp:60)
WARNING: Proc sub-domain size < neighbor skin, could lead to lost atoms (src/domain.cpp:966)
Per MPI rank memory allocation (min/avg/max) = 8.516 | 8.516 | 8.516 Mbytes
   Step         PotEng         TotEng           Lx             Ly             Lz           Volume         Press           Pxx            Pyy            Pzz      
       125  -33.43028      -33.43028       3.3945312      3.3945312      8.2945932      95.577288      340154.91      342066.28      342066.28      336332.17    
       126  -33.43028      -33.43028       3.3945312      3.3945312      8.2945932      95.577288      340154.91      342066.28      342066.28      336332.17    
Loop time of 0.00018475 on 8 procs for 1 steps with 6 atoms

Performance: 467.659 ns/day, 0.051 hours/ns, 5412.720 timesteps/s, 32.476 katom-step/s
0.0% CPU use with 8 MPI tasks x 1 OpenMP threads

MPI task timing breakdown:
Section |  min time  |  avg time  |  max time  |%varavg| %total
---------------------------------------------------------------
Pair    | 0.00011    | 0.000124   | 0.000139   |   0.0 | 67.12
Neigh   | 0          | 0          | 0          |   0.0 |  0.00
Comm    | 2e-05      | 3.3e-05    | 4.7e-05    |   0.0 | 17.86
Output  | 1.6e-05    | 1.8875e-05 | 2.2e-05    |   0.0 | 10.22
Modify  | 0          | 1.25e-07   | 1e-06      |   0.0 |  0.07
Other   |            | 8.75e-06   |            |       |  4.74

Nlocal:           0.75 ave           2 max           0 min
Histogram: 3 0 0 0 0 4 0 0 0 1
Nghost:         197.25 ave         200 max         195 min
Histogram: 3 0 1 0 0 0 1 0 1 2
Neighs:           22.5 ave          60 max           0 min
Histogram: 3 0 0 0 0 4 0 0 0 1
FullNghs:           45 ave         120 max           0 min
Histogram: 3 0 0 0 0 4 0 0 0 1

Total # of neighbors = 360
Ave neighs/atom = 60
Neighbor list builds = 0
Dangerous builds = 0
variable  natoms equal "count(all)"
variable xlength equal "lx"
variable  volume equal "vol"
variable  etotal equal "etotal"
variable    ecoh equal "pe/v_natoms"
print "${xlength}, ${volume}, ${etotal}, ${ecoh}" append lattice_cohesive_energy.txt screen no

next i
jump SELF loop

change_box all x scale 1.0025 y scale 1.0025 z scale 1.0025 remap
Changing box ...
  orthogonal box = (-0.091320775 -0.087077611 -0.21277558) to (3.3116968 3.3074536 8.0818176)
  orthogonal box = (-0.091320775 -0.091320775 -0.21277558) to (3.3116968 3.3116968 8.0818176)
  orthogonal box = (-0.091320775 -0.091320775 -0.22314382) to (3.3116968 3.3116968 8.0921858)

run 1
WARNING: No fixes with time integration, atoms won't move (src/verlet.cpp:60)
WARNING: Proc sub-domain size < neighbor skin, could lead to lost atoms (src/domain.cpp:966)
Per MPI rank memory allocation (min/avg/max) = 8.516 | 8.516 | 8.516 Mbytes
   Step         PotEng         TotEng           Lx             Ly             Lz           Volume         Press           Pxx            Pyy            Pzz      
       126  -33.576667     -33.576667      3.4030176      3.4030176      8.3153296      96.295912      312769.89      316806.53      316806.53      304696.61    
       127  -33.576667     -33.576667      3.4030176      3.4030176      8.3153296      96.295912      312769.89      316806.53      316806.53      304696.61    
Loop time of 0.000178 on 8 procs for 1 steps with 6 atoms

Performance: 485.393 ns/day, 0.049 hours/ns, 5617.978 timesteps/s, 33.708 katom-step/s
0.0% CPU use with 8 MPI tasks x 1 OpenMP threads

MPI task timing breakdown:
Section |  min time  |  avg time  |  max time  |%varavg| %total
---------------------------------------------------------------
Pair    | 0.000121   | 0.00012587 | 0.000132   |   0.0 | 70.72
Neigh   | 0          | 0          | 0          |   0.0 |  0.00
Comm    | 2e-05      | 2.475e-05  | 2.9e-05    |   0.0 | 13.90
Output  | 1.6e-05    | 1.9125e-05 | 2.2e-05    |   0.0 | 10.74
Modify  | 0          | 3.75e-07   | 1e-06      |   0.0 |  0.21
Other   |            | 7.875e-06  |            |       |  4.42

Nlocal:           0.75 ave           2 max           0 min
Histogram: 3 0 0 0 0 4 0 0 0 1
Nghost:         197.25 ave         200 max         195 min
Histogram: 3 0 1 0 0 0 1 0 1 2
Neighs:           22.5 ave          60 max           0 min
Histogram: 3 0 0 0 0 4 0 0 0 1
FullNghs:           45 ave         120 max           0 min
Histogram: 3 0 0 0 0 4 0 0 0 1

Total # of neighbors = 360
Ave neighs/atom = 60
Neighbor list builds = 0
Dangerous builds = 0
variable  natoms equal "count(all)"
variable xlength equal "lx"
variable  volume equal "vol"
variable  etotal equal "etotal"
variable    ecoh equal "pe/v_natoms"
print "${xlength}, ${volume}, ${etotal}, ${ecoh}" append lattice_cohesive_energy.txt screen no

next i
jump SELF loop

change_box all x scale 1.0025 y scale 1.0025 z scale 1.0025 remap
Changing box ...
  orthogonal box = (-0.095574547 -0.091320775 -0.22314382) to (3.3159505 3.3116968 8.0921858)
  orthogonal box = (-0.095574547 -0.095574547 -0.22314382) to (3.3159505 3.3159505 8.0921858)
  orthogonal box = (-0.095574547 -0.095574547 -0.23353799) to (3.3159505 3.3159505 8.10258)

run 1
WARNING: No fixes with time integration, atoms won't move (src/verlet.cpp:60)
WARNING: Proc sub-domain size < neighbor skin, could lead to lost atoms (src/domain.cpp:966)
Per MPI rank memory allocation (min/avg/max) = 8.516 | 8.516 | 8.516 Mbytes
   Step         PotEng         TotEng           Lx             Ly             Lz           Volume         Press           Pxx            Pyy            Pzz      
       127  -33.711979     -33.711979      3.4115251      3.4115251      8.336118       97.019938      286265.85      292360.47      292360.47      274076.6     
       128  -33.711979     -33.711979      3.4115251      3.4115251      8.336118       97.019938      286265.85      292360.47      292360.47      274076.6     
Loop time of 0.0001785 on 8 procs for 1 steps with 6 atoms

Performance: 484.034 ns/day, 0.050 hours/ns, 5602.241 timesteps/s, 33.613 katom-step/s
0.0% CPU use with 8 MPI tasks x 1 OpenMP threads

MPI task timing breakdown:
Section |  min time  |  avg time  |  max time  |%varavg| %total
---------------------------------------------------------------
Pair    | 0.000126   | 0.000129   | 0.000132   |   0.0 | 72.27
Neigh   | 0          | 0          | 0          |   0.0 |  0.00
Comm    | 2e-05      | 2.225e-05  | 2.4e-05    |   0.0 | 12.46
Output  | 1.6e-05    | 1.8875e-05 | 2.2e-05    |   0.0 | 10.57
Modify  | 0          | 0          | 0          |   0.0 |  0.00
Other   |            | 8.375e-06  |            |       |  4.69

Nlocal:           0.75 ave           2 max           0 min
Histogram: 3 0 0 0 0 4 0 0 0 1
Nghost:         197.25 ave         200 max         195 min
Histogram: 3 0 1 0 0 0 1 0 1 2
Neighs:           22.5 ave          60 max           0 min
Histogram: 3 0 0 0 0 4 0 0 0 1
FullNghs:           45 ave         120 max           0 min
Histogram: 3 0 0 0 0 4 0 0 0 1

Total # of neighbors = 360
Ave neighs/atom = 60
Neighbor list builds = 0
Dangerous builds = 0
variable  natoms equal "count(all)"
variable xlength equal "lx"
variable  volume equal "vol"
variable  etotal equal "etotal"
variable    ecoh equal "pe/v_natoms"
print "${xlength}, ${volume}, ${etotal}, ${ecoh}" append lattice_cohesive_energy.txt screen no

next i
jump SELF loop

change_box all x scale 1.0025 y scale 1.0025 z scale 1.0025 remap
Changing box ...
  orthogonal box = (-0.099838953 -0.095574547 -0.23353799) to (3.320215 3.3159505 8.10258)
  orthogonal box = (-0.099838953 -0.099838953 -0.23353799) to (3.320215 3.320215 8.10258)
  orthogonal box = (-0.099838953 -0.099838953 -0.24395813) to (3.320215 3.320215 8.1130001)

run 1
WARNING: No fixes with time integration, atoms won't move (src/verlet.cpp:60)
WARNING: Proc sub-domain size < neighbor skin, could lead to lost atoms (src/domain.cpp:966)
Per MPI rank memory allocation (min/avg/max) = 8.516 | 8.516 | 8.516 Mbytes
   Step         PotEng         TotEng           Lx             Ly             Lz           Volume         Press           Pxx            Pyy            Pzz      
       128  -33.836438     -33.836438      3.4200539      3.4200539      8.3569583      97.749408      260621.4       268707.98      268707.98      244448.23    
       129  -33.836438     -33.836438      3.4200539      3.4200539      8.3569583      97.749408      260621.4       268707.98      268707.98      244448.23    
Loop time of 0.000185375 on 8 procs for 1 steps with 6 atoms

Performance: 466.082 ns/day, 0.051 hours/ns, 5394.471 timesteps/s, 32.367 katom-step/s
0.0% CPU use with 8 MPI tasks x 1 OpenMP threads

MPI task timing breakdown:
Section |  min time  |  avg time  |  max time  |%varavg| %total
---------------------------------------------------------------
Pair    | 0.00013    | 0.00013375 | 0.000139   |   0.0 | 72.15
Neigh   | 0          | 0          | 0          |   0.0 |  0.00
Comm    | 2.1e-05    | 2.3875e-05 | 2.6e-05    |   0.0 | 12.88
Output  | 1.8e-05    | 1.85e-05   | 1.9e-05    |   0.0 |  9.98
Modify  | 0          | 1.25e-07   | 1e-06      |   0.0 |  0.07
Other   |            | 9.125e-06  |            |       |  4.92

Nlocal:           0.75 ave           2 max           0 min
Histogram: 3 0 0 0 0 4 0 0 0 1
Nghost:         197.25 ave         200 max         195 min
Histogram: 3 0 1 0 0 0 1 0 1 2
Neighs:           22.5 ave          60 max           0 min
Histogram: 3 0 0 0 0 4 0 0 0 1
FullNghs:           45 ave         120 max           0 min
Histogram: 3 0 0 0 0 4 0 0 0 1

Total # of neighbors = 360
Ave neighs/atom = 60
Neighbor list builds = 0
Dangerous builds = 0
variable  natoms equal "count(all)"
variable xlength equal "lx"
variable  volume equal "vol"
variable  etotal equal "etotal"
variable    ecoh equal "pe/v_natoms"
print "${xlength}, ${volume}, ${etotal}, ${ecoh}" append lattice_cohesive_energy.txt screen no

next i
jump SELF loop

change_box all x scale 1.0025 y scale 1.0025 z scale 1.0025 remap
Changing box ...
  orthogonal box = (-0.10411402 -0.099838953 -0.24395813) to (3.32449 3.320215 8.1130001)
  orthogonal box = (-0.10411402 -0.10411402 -0.24395813) to (3.32449 3.32449 8.1130001)
  orthogonal box = (-0.10411402 -0.10411402 -0.25440433) to (3.32449 3.32449 8.1234463)

run 1
WARNING: No fixes with time integration, atoms won't move (src/verlet.cpp:60)
WARNING: Proc sub-domain size < neighbor skin, could lead to lost atoms (src/domain.cpp:966)
Per MPI rank memory allocation (min/avg/max) = 8.516 | 8.516 | 8.516 Mbytes
   Step         PotEng         TotEng           Lx             Ly             Lz           Volume         Press           Pxx            Pyy            Pzz      
       129  -33.950263     -33.950263      3.428604       3.428604       8.3778507      98.484363      235815.74      245829.47      245829.47      215788.29    
       130  -33.950263     -33.950263      3.428604       3.428604       8.3778507      98.484363      235815.74      245829.47      245829.47      215788.29    
Loop time of 0.00023175 on 8 procs for 1 steps with 6 atoms

Performance: 372.816 ns/day, 0.064 hours/ns, 4314.995 timesteps/s, 25.890 katom-step/s
0.0% CPU use with 8 MPI tasks x 1 OpenMP threads

MPI task timing breakdown:
Section |  min time  |  avg time  |  max time  |%varavg| %total
---------------------------------------------------------------
Pair    | 0.00013    | 0.00013325 | 0.000138   |   0.0 | 57.50
Neigh   | 0          | 0          | 0          |   0.0 |  0.00
Comm    | 2.2e-05    | 2.5125e-05 | 2.7e-05    |   0.0 | 10.84
Output  | 1.8e-05    | 2.45e-05   | 6.4e-05    |   0.0 | 10.57
Modify  | 0          | 1.25e-07   | 1e-06      |   0.0 |  0.05
Other   |            | 4.875e-05  |            |       | 21.04

Nlocal:           0.75 ave           2 max           0 min
Histogram: 3 0 0 0 0 4 0 0 0 1
Nghost:         197.25 ave         200 max         195 min
Histogram: 3 0 1 0 0 0 1 0 1 2
Neighs:           22.5 ave          60 max           0 min
Histogram: 3 0 0 0 0 4 0 0 0 1
FullNghs:           45 ave         120 max           0 min
Histogram: 3 0 0 0 0 4 0 0 0 1

Total # of neighbors = 360
Ave neighs/atom = 60
Neighbor list builds = 0
Dangerous builds = 0
variable  natoms equal "count(all)"
variable xlength equal "lx"
variable  volume equal "vol"
variable  etotal equal "etotal"
variable    ecoh equal "pe/v_natoms"
print "${xlength}, ${volume}, ${etotal}, ${ecoh}" append lattice_cohesive_energy.txt screen no

next i
jump SELF loop

change_box all x scale 1.0025 y scale 1.0025 z scale 1.0025 remap
Changing box ...
  orthogonal box = (-0.10839978 -0.10411402 -0.25440433) to (3.3287758 3.32449 8.1234463)
  orthogonal box = (-0.10839978 -0.10839978 -0.25440433) to (3.3287758 3.3287758 8.1234463)
  orthogonal box = (-0.10839978 -0.10839978 -0.26487664) to (3.3287758 3.3287758 8.1339186)

run 1
WARNING: No fixes with time integration, atoms won't move (src/verlet.cpp:60)
WARNING: Proc sub-domain size < neighbor skin, could lead to lost atoms (src/domain.cpp:966)
Per MPI rank memory allocation (min/avg/max) = 8.516 | 8.516 | 8.516 Mbytes
   Step         PotEng         TotEng           Lx             Ly             Lz           Volume         Press           Pxx            Pyy            Pzz      
       130  -34.053669     -34.053669      3.4371756      3.4371756      8.3987953      99.224844      211828.32      223705.61      223705.61      188073.74    
       131  -34.053669     -34.053669      3.4371756      3.4371756      8.3987953      99.224844      211828.32      223705.61      223705.61      188073.74    
Loop time of 0.000189625 on 8 procs for 1 steps with 6 atoms

Performance: 455.636 ns/day, 0.053 hours/ns, 5273.566 timesteps/s, 31.641 katom-step/s
0.0% CPU use with 8 MPI tasks x 1 OpenMP threads

MPI task timing breakdown:
Section |  min time  |  avg time  |  max time  |%varavg| %total
---------------------------------------------------------------
Pair    | 0.00013    | 0.00013313 | 0.000138   |   0.0 | 70.20
Neigh   | 0          | 0          | 0          |   0.0 |  0.00
Comm    | 2.1e-05    | 2.375e-05  | 2.6e-05    |   0.0 | 12.52
Output  | 1.8e-05    | 1.875e-05  | 1.9e-05    |   0.0 |  9.89
Modify  | 0          | 2.5e-07    | 1e-06      |   0.0 |  0.13
Other   |            | 1.375e-05  |            |       |  7.25

Nlocal:           0.75 ave           2 max           0 min
Histogram: 3 0 0 0 0 4 0 0 0 1
Nghost:         197.25 ave         200 max         195 min
Histogram: 3 0 1 0 0 0 1 0 1 2
Neighs:           22.5 ave          60 max           0 min
Histogram: 3 0 0 0 0 4 0 0 0 1
FullNghs:           45 ave         120 max           0 min
Histogram: 3 0 0 0 0 4 0 0 0 1

Total # of neighbors = 360
Ave neighs/atom = 60
Neighbor list builds = 0
Dangerous builds = 0
variable  natoms equal "count(all)"
variable xlength equal "lx"
variable  volume equal "vol"
variable  etotal equal "etotal"
variable    ecoh equal "pe/v_natoms"
print "${xlength}, ${volume}, ${etotal}, ${ecoh}" append lattice_cohesive_energy.txt screen no

next i
jump SELF loop

change_box all x scale 1.0025 y scale 1.0025 z scale 1.0025 remap
Changing box ...
  orthogonal box = (-0.11269625 -0.10839978 -0.26487664) to (3.3330722 3.3287758 8.1339186)
  orthogonal box = (-0.11269625 -0.11269625 -0.26487664) to (3.3330722 3.3330722 8.1339186)
  orthogonal box = (-0.11269625 -0.11269625 -0.27537514) to (3.3330722 3.3330722 8.1444171)

run 1
WARNING: No fixes with time integration, atoms won't move (src/verlet.cpp:60)
WARNING: Proc sub-domain size < neighbor skin, could lead to lost atoms (src/domain.cpp:966)
Per MPI rank memory allocation (min/avg/max) = 8.508 | 8.508 | 8.508 Mbytes
   Step         PotEng         TotEng           Lx             Ly             Lz           Volume         Press           Pxx            Pyy            Pzz      
       131  -34.14687      -34.14687       3.4457685      3.4457685      8.4197923      99.970892      188639.11      202317.57      202317.57      161282.2     
       132  -34.14687      -34.14687       3.4457685      3.4457685      8.4197923      99.970892      188639.11      202317.57      202317.57      161282.2     
Loop time of 0.000173625 on 8 procs for 1 steps with 6 atoms

Performance: 497.624 ns/day, 0.048 hours/ns, 5759.539 timesteps/s, 34.557 katom-step/s
0.0% CPU use with 8 MPI tasks x 1 OpenMP threads

MPI task timing breakdown:
Section |  min time  |  avg time  |  max time  |%varavg| %total
---------------------------------------------------------------
Pair    | 0.000116   | 0.00012038 | 0.000126   |   0.0 | 69.33
Neigh   | 0          | 0          | 0          |   0.0 |  0.00
Comm    | 2e-05      | 2.3875e-05 | 2.8e-05    |   0.0 | 13.75
Output  | 1.6e-05    | 1.8625e-05 | 2e-05      |   0.0 | 10.73
Modify  | 0          | 1.25e-07   | 1e-06      |   0.0 |  0.07
Other   |            | 1.063e-05  |            |       |  6.12

Nlocal:           0.75 ave           1 max           0 min
Histogram: 2 0 0 0 0 0 0 0 0 6
Nghost:         179.25 ave         180 max         179 min
Histogram: 6 0 0 0 0 0 0 0 0 2
Neighs:           22.5 ave          30 max           0 min
Histogram: 2 0 0 0 0 0 0 0 0 6
FullNghs:           45 ave          60 max           0 min
Histogram: 2 0 0 0 0 0 0 0 0 6

Total # of neighbors = 360
Ave neighs/atom = 60
Neighbor list builds = 0
Dangerous builds = 0
variable  natoms equal "count(all)"
variable xlength equal "lx"
variable  volume equal "vol"
variable  etotal equal "etotal"
variable    ecoh equal "pe/v_natoms"
print "${xlength}, ${volume}, ${etotal}, ${ecoh}" append lattice_cohesive_energy.txt screen no

next i
jump SELF loop

change_box all x scale 1.0025 y scale 1.0025 z scale 1.0025 remap
Changing box ...
  orthogonal box = (-0.11700346 -0.11269625 -0.27537514) to (3.3373795 3.3330722 8.1444171)
  orthogonal box = (-0.11700346 -0.11700346 -0.27537514) to (3.3373795 3.3373795 8.1444171)
  orthogonal box = (-0.11700346 -0.11700346 -0.28589988) to (3.3373795 3.3373795 8.1549419)

run 1
WARNING: No fixes with time integration, atoms won't move (src/verlet.cpp:60)
WARNING: Proc sub-domain size < neighbor skin, could lead to lost atoms (src/domain.cpp:966)
Per MPI rank memory allocation (min/avg/max) = 8.508 | 8.508 | 8.508 Mbytes
   Step         PotEng         TotEng           Lx             Ly             Lz           Volume         Press           Pxx            Pyy            Pzz      
       132  -34.230076     -34.230076      3.4543829      3.4543829      8.4408418      100.72255      166228.37      181646.79      181646.79      135391.52    
       133  -34.230076     -34.230076      3.4543829      3.4543829      8.4408418      100.72255      166228.37      181646.79      181646.79      135391.52    
Loop time of 0.00016925 on 8 procs for 1 steps with 6 atoms

Performance: 510.487 ns/day, 0.047 hours/ns, 5908.419 timesteps/s, 35.451 katom-step/s
0.0% CPU use with 8 MPI tasks x 1 OpenMP threads

MPI task timing breakdown:
Section |  min time  |  avg time  |  max time  |%varavg| %total
---------------------------------------------------------------
Pair    | 0.000114   | 0.00011813 | 0.000124   |   0.0 | 69.79
Neigh   | 0          | 0          | 0          |   0.0 |  0.00
Comm    | 2e-05      | 2.4125e-05 | 2.9e-05    |   0.0 | 14.25
Output  | 1.5e-05    | 1.8e-05    | 2e-05      |   0.0 | 10.64
Modify  | 0          | 0          | 0          |   0.0 |  0.00
Other   |            | 9e-06      |            |       |  5.32

Nlocal:           0.75 ave           1 max           0 min
Histogram: 2 0 0 0 0 0 0 0 0 6
Nghost:         179.25 ave         180 max         179 min
Histogram: 6 0 0 0 0 0 0 0 0 2
Neighs:           22.5 ave          30 max           0 min
Histogram: 2 0 0 0 0 0 0 0 0 6
FullNghs:           45 ave          60 max           0 min
Histogram: 2 0 0 0 0 0 0 0 0 6

Total # of neighbors = 360
Ave neighs/atom = 60
Neighbor list builds = 0
Dangerous builds = 0
variable  natoms equal "count(all)"
variable xlength equal "lx"
variable  volume equal "vol"
variable  etotal equal "etotal"
variable    ecoh equal "pe/v_natoms"
print "${xlength}, ${volume}, ${etotal}, ${ecoh}" append lattice_cohesive_energy.txt screen no

next i
jump SELF loop

change_box all x scale 1.0025 y scale 1.0025 z scale 1.0025 remap
Changing box ...
  orthogonal box = (-0.12132143 -0.11700346 -0.28589988) to (3.3416974 3.3373795 8.1549419)
  orthogonal box = (-0.12132143 -0.12132143 -0.28589988) to (3.3416974 3.3416974 8.1549419)
  orthogonal box = (-0.12132143 -0.12132143 -0.29645093) to (3.3416974 3.3416974 8.1654929)

run 1
WARNING: No fixes with time integration, atoms won't move (src/verlet.cpp:60)
WARNING: Proc sub-domain size < neighbor skin, could lead to lost atoms (src/domain.cpp:966)
Per MPI rank memory allocation (min/avg/max) = 8.508 | 8.508 | 8.508 Mbytes
   Step         PotEng         TotEng           Lx             Ly             Lz           Volume         Press           Pxx            Pyy            Pzz      
       133  -34.303495     -34.303495      3.4630189      3.4630189      8.4619439      101.47986      144576.83      161675.18      161675.18      110380.11    
       134  -34.303495     -34.303495      3.4630189      3.4630189      8.4619439      101.47986      144576.83      161675.18      161675.18      110380.11    
Loop time of 0.000160625 on 8 procs for 1 steps with 6 atoms

Performance: 537.899 ns/day, 0.045 hours/ns, 6225.681 timesteps/s, 37.354 katom-step/s
0.0% CPU use with 8 MPI tasks x 1 OpenMP threads

MPI task timing breakdown:
Section |  min time  |  avg time  |  max time  |%varavg| %total
---------------------------------------------------------------
Pair    | 9.5e-05    | 0.00010325 | 0.000115   |   0.0 | 64.28
Neigh   | 0          | 0          | 0          |   0.0 |  0.00
Comm    | 1.9e-05    | 2.9875e-05 | 3.9e-05    |   0.0 | 18.60
Output  | 1.7e-05    | 1.8875e-05 | 2e-05      |   0.0 | 11.75
Modify  | 0          | 2.5e-07    | 2e-06      |   0.0 |  0.16
Other   |            | 8.375e-06  |            |       |  5.21

Nlocal:           0.75 ave           1 max           0 min
Histogram: 2 0 0 0 0 0 0 0 0 6
Nghost:         179.25 ave         180 max         179 min
Histogram: 6 0 0 0 0 0 0 0 0 2
Neighs:           22.5 ave          30 max           0 min
Histogram: 2 0 0 0 0 0 0 0 0 6
FullNghs:           45 ave          60 max           0 min
Histogram: 2 0 0 0 0 0 0 0 0 6

Total # of neighbors = 360
Ave neighs/atom = 60
Neighbor list builds = 0
Dangerous builds = 0
variable  natoms equal "count(all)"
variable xlength equal "lx"
variable  volume equal "vol"
variable  etotal equal "etotal"
variable    ecoh equal "pe/v_natoms"
print "${xlength}, ${volume}, ${etotal}, ${ecoh}" append lattice_cohesive_energy.txt screen no

next i
jump SELF loop

change_box all x scale 1.0025 y scale 1.0025 z scale 1.0025 remap
Changing box ...
  orthogonal box = (-0.12565021 -0.12132143 -0.29645093) to (3.3460262 3.3416974 8.1654929)
  orthogonal box = (-0.12565021 -0.12565021 -0.29645093) to (3.3460262 3.3460262 8.1654929)
  orthogonal box = (-0.12565021 -0.12565021 -0.30702836) to (3.3460262 3.3460262 8.1760704)

run 1
WARNING: No fixes with time integration, atoms won't move (src/verlet.cpp:60)
WARNING: Proc sub-domain size < neighbor skin, could lead to lost atoms (src/domain.cpp:966)
Per MPI rank memory allocation (min/avg/max) = 8.508 | 8.508 | 8.508 Mbytes
   Step         PotEng         TotEng           Lx             Ly             Lz           Volume         Press           Pxx            Pyy            Pzz      
       134  -34.367332     -34.367332      3.4716764      3.4716764      8.4830987      102.24286      123665.51      142384.92      142384.92      86226.677    
       135  -34.367332     -34.367332      3.4716764      3.4716764      8.4830987      102.24286      123665.51      142384.92      142384.92      86226.677    
Loop time of 0.000161875 on 8 procs for 1 steps with 6 atoms

Performance: 533.745 ns/day, 0.045 hours/ns, 6177.606 timesteps/s, 37.066 katom-step/s
0.0% CPU use with 8 MPI tasks x 1 OpenMP threads

MPI task timing breakdown:
Section |  min time  |  avg time  |  max time  |%varavg| %total
---------------------------------------------------------------
Pair    | 9.6e-05    | 0.00010462 | 0.000116   |   0.0 | 64.63
Neigh   | 0          | 0          | 0          |   0.0 |  0.00
Comm    | 2.1e-05    | 3.1125e-05 | 4e-05      |   0.0 | 19.23
Output  | 1.5e-05    | 1.7875e-05 | 1.9e-05    |   0.0 | 11.04
Modify  | 0          | 1.25e-07   | 1e-06      |   0.0 |  0.08
Other   |            | 8.125e-06  |            |       |  5.02

Nlocal:           0.75 ave           1 max           0 min
Histogram: 2 0 0 0 0 0 0 0 0 6
Nghost:         179.25 ave         180 max         179 min
Histogram: 6 0 0 0 0 0 0 0 0 2
Neighs:           22.5 ave          30 max           0 min
Histogram: 2 0 0 0 0 0 0 0 0 6
FullNghs:           45 ave          60 max           0 min
Histogram: 2 0 0 0 0 0 0 0 0 6

Total # of neighbors = 360
Ave neighs/atom = 60
Neighbor list builds = 0
Dangerous builds = 0
variable  natoms equal "count(all)"
variable xlength equal "lx"
variable  volume equal "vol"
variable  etotal equal "etotal"
variable    ecoh equal "pe/v_natoms"
print "${xlength}, ${volume}, ${etotal}, ${ecoh}" append lattice_cohesive_energy.txt screen no

next i
jump SELF loop

change_box all x scale 1.0025 y scale 1.0025 z scale 1.0025 remap
Changing box ...
  orthogonal box = (-0.1299898 -0.12565021 -0.30702836) to (3.3503658 3.3460262 8.1760704)
  orthogonal box = (-0.1299898 -0.1299898 -0.30702836) to (3.3503658 3.3503658 8.1760704)
  orthogonal box = (-0.1299898 -0.1299898 -0.31763223) to (3.3503658 3.3503658 8.1866742)

run 1
WARNING: No fixes with time integration, atoms won't move (src/verlet.cpp:60)
WARNING: Proc sub-domain size < neighbor skin, could lead to lost atoms (src/domain.cpp:966)
Per MPI rank memory allocation (min/avg/max) = 8.508 | 8.508 | 8.508 Mbytes
   Step         PotEng         TotEng           Lx             Ly             Lz           Volume         Press           Pxx            Pyy            Pzz      
       135  -34.42179      -34.42179       3.4803556      3.4803556      8.5043065      103.0116       103475.89      123758.62      123758.62      62910.419    
       136  -34.42179      -34.42179       3.4803556      3.4803556      8.5043065      103.0116       103475.89      123758.62      123758.62      62910.419    
Loop time of 0.000172375 on 8 procs for 1 steps with 6 atoms

Performance: 501.233 ns/day, 0.048 hours/ns, 5801.305 timesteps/s, 34.808 katom-step/s
0.0% CPU use with 8 MPI tasks x 1 OpenMP threads

MPI task timing breakdown:
Section |  min time  |  avg time  |  max time  |%varavg| %total
---------------------------------------------------------------
Pair    | 0.0001     | 0.000112   | 0.000125   |   0.0 | 64.97
Neigh   | 0          | 0          | 0          |   0.0 |  0.00
Comm    | 1.9e-05    | 3.125e-05  | 4.4e-05    |   0.0 | 18.13
Output  | 1.6e-05    | 1.9125e-05 | 2.3e-05    |   0.0 | 11.09
Modify  | 0          | 6.25e-07   | 2e-06      |   0.0 |  0.36
Other   |            | 9.375e-06  |            |       |  5.44

Nlocal:           0.75 ave           1 max           0 min
Histogram: 2 0 0 0 0 0 0 0 0 6
Nghost:         179.25 ave         180 max         179 min
Histogram: 6 0 0 0 0 0 0 0 0 2
Neighs:           22.5 ave          30 max           0 min
Histogram: 2 0 0 0 0 0 0 0 0 6
FullNghs:           45 ave          60 max           0 min
Histogram: 2 0 0 0 0 0 0 0 0 6

Total # of neighbors = 360
Ave neighs/atom = 60
Neighbor list builds = 0
Dangerous builds = 0
variable  natoms equal "count(all)"
variable xlength equal "lx"
variable  volume equal "vol"
variable  etotal equal "etotal"
variable    ecoh equal "pe/v_natoms"
print "${xlength}, ${volume}, ${etotal}, ${ecoh}" append lattice_cohesive_energy.txt screen no

next i
jump SELF loop

change_box all x scale 1.0025 y scale 1.0025 z scale 1.0025 remap
Changing box ...
  orthogonal box = (-0.13434025 -0.1299898 -0.31763223) to (3.3547162 3.3503658 8.1866742)
  orthogonal box = (-0.13434025 -0.13434025 -0.31763223) to (3.3547162 3.3547162 8.1866742)
  orthogonal box = (-0.13434025 -0.13434025 -0.32826262) to (3.3547162 3.3547162 8.1973046)

run 1
WARNING: No fixes with time integration, atoms won't move (src/verlet.cpp:60)
WARNING: Proc sub-domain size < neighbor skin, could lead to lost atoms (src/domain.cpp:966)
Per MPI rank memory allocation (min/avg/max) = 8.508 | 8.508 | 8.508 Mbytes
   Step         PotEng         TotEng           Lx             Ly             Lz           Volume         Press           Pxx            Pyy            Pzz      
       136  -34.467068     -34.467068      3.4890565      3.4890565      8.5255672      103.78612      83989.735      105779.18      105779.18      40410.838    
       137  -34.467068     -34.467068      3.4890565      3.4890565      8.5255672      103.78612      83989.735      105779.18      105779.18      40410.838    
Loop time of 0.000162125 on 8 procs for 1 steps with 6 atoms

Performance: 532.922 ns/day, 0.045 hours/ns, 6168.080 timesteps/s, 37.008 katom-step/s
0.0% CPU use with 8 MPI tasks x 1 OpenMP threads

MPI task timing breakdown:
Section |  min time  |  avg time  |  max time  |%varavg| %total
---------------------------------------------------------------
Pair    | 9.5e-05    | 0.00010638 | 0.000119   |   0.0 | 65.61
Neigh   | 0          | 0          | 0          |   0.0 |  0.00
Comm    | 1.7e-05    | 2.925e-05  | 4.2e-05    |   0.0 | 18.04
Output  | 1.5e-05    | 1.8125e-05 | 2.1e-05    |   0.0 | 11.18
Modify  | 0          | 0          | 0          |   0.0 |  0.00
Other   |            | 8.375e-06  |            |       |  5.17

Nlocal:           0.75 ave           1 max           0 min
Histogram: 2 0 0 0 0 0 0 0 0 6
Nghost:         179.25 ave         180 max         179 min
Histogram: 6 0 0 0 0 0 0 0 0 2
Neighs:           22.5 ave          30 max           0 min
Histogram: 2 0 0 0 0 0 0 0 0 6
FullNghs:           45 ave          60 max           0 min
Histogram: 2 0 0 0 0 0 0 0 0 6

Total # of neighbors = 360
Ave neighs/atom = 60
Neighbor list builds = 0
Dangerous builds = 0
variable  natoms equal "count(all)"
variable xlength equal "lx"
variable  volume equal "vol"
variable  etotal equal "etotal"
variable    ecoh equal "pe/v_natoms"
print "${xlength}, ${volume}, ${etotal}, ${ecoh}" append lattice_cohesive_energy.txt screen no

next i
jump SELF loop

change_box all x scale 1.0025 y scale 1.0025 z scale 1.0025 remap
Changing box ...
  orthogonal box = (-0.13870157 -0.13434025 -0.32826262) to (3.3590776 3.3547162 8.1973046)
  orthogonal box = (-0.13870157 -0.13870157 -0.32826262) to (3.3590776 3.3590776 8.1973046)
  orthogonal box = (-0.13870157 -0.13870157 -0.33891958) to (3.3590776 3.3590776 8.2079616)

run 1
WARNING: No fixes with time integration, atoms won't move (src/verlet.cpp:60)
WARNING: Proc sub-domain size < neighbor skin, could lead to lost atoms (src/domain.cpp:966)
Per MPI rank memory allocation (min/avg/max) = 8.508 | 8.508 | 8.508 Mbytes
   Step         PotEng         TotEng           Lx             Ly             Lz           Volume         Press           Pxx            Pyy            Pzz      
       137  -34.503364     -34.503364      3.4977791      3.4977791      8.5468812      104.56647      65189.249      88429.914      88429.914      18707.918    
       138  -34.503364     -34.503364      3.4977791      3.4977791      8.5468812      104.56647      65189.249      88429.914      88429.914      18707.918    
Loop time of 0.000194125 on 8 procs for 1 steps with 6 atoms

Performance: 445.074 ns/day, 0.054 hours/ns, 5151.320 timesteps/s, 30.908 katom-step/s
0.0% CPU use with 8 MPI tasks x 1 OpenMP threads

MPI task timing breakdown:
Section |  min time  |  avg time  |  max time  |%varavg| %total
---------------------------------------------------------------
Pair    | 0.000129   | 0.00013325 | 0.000139   |   0.0 | 68.64
Neigh   | 0          | 0          | 0          |   0.0 |  0.00
Comm    | 2.3e-05    | 2.7125e-05 | 3.3e-05    |   0.0 | 13.97
Output  | 1.8e-05    | 2.125e-05  | 2.6e-05    |   0.0 | 10.95
Modify  | 0          | 0          | 0          |   0.0 |  0.00
Other   |            | 1.25e-05   |            |       |  6.44

Nlocal:           0.75 ave           1 max           0 min
Histogram: 2 0 0 0 0 0 0 0 0 6
Nghost:         179.25 ave         180 max         179 min
Histogram: 6 0 0 0 0 0 0 0 0 2
Neighs:           22.5 ave          30 max           0 min
Histogram: 2 0 0 0 0 0 0 0 0 6
FullNghs:           45 ave          60 max           0 min
Histogram: 2 0 0 0 0 0 0 0 0 6

Total # of neighbors = 360
Ave neighs/atom = 60
Neighbor list builds = 0
Dangerous builds = 0
variable  natoms equal "count(all)"
variable xlength equal "lx"
variable  volume equal "vol"
variable  etotal equal "etotal"
variable    ecoh equal "pe/v_natoms"
print "${xlength}, ${volume}, ${etotal}, ${ecoh}" append lattice_cohesive_energy.txt screen no

next i
jump SELF loop

change_box all x scale 1.0025 y scale 1.0025 z scale 1.0025 remap
Changing box ...
  orthogonal box = (-0.14307379 -0.13870157 -0.33891958) to (3.3634498 3.3590776 8.2079616)
  orthogonal box = (-0.14307379 -0.14307379 -0.33891958) to (3.3634498 3.3634498 8.2079616)
  orthogonal box = (-0.14307379 -0.14307379 -0.34960318) to (3.3634498 3.3634498 8.2186452)

run 1
WARNING: No fixes with time integration, atoms won't move (src/verlet.cpp:60)
WARNING: Proc sub-domain size < neighbor skin, could lead to lost atoms (src/domain.cpp:966)
Per MPI rank memory allocation (min/avg/max) = 8.508 | 8.508 | 8.508 Mbytes
   Step         PotEng         TotEng           Lx             Ly             Lz           Volume         Press           Pxx            Pyy            Pzz      
       138  -34.530872     -34.530872      3.5065236      3.5065236      8.5682484      105.35268      47056.9        71694.381      71694.381     -2218.062     
       139  -34.530872     -34.530872      3.5065236      3.5065236      8.5682484      105.35268      47056.9        71694.381      71694.381     -2218.062     
Loop time of 0.0001725 on 8 procs for 1 steps with 6 atoms

Performance: 500.870 ns/day, 0.048 hours/ns, 5797.101 timesteps/s, 34.783 katom-step/s
0.0% CPU use with 8 MPI tasks x 1 OpenMP threads

MPI task timing breakdown:
Section |  min time  |  avg time  |  max time  |%varavg| %total
---------------------------------------------------------------
Pair    | 0.000118   | 0.00012125 | 0.000125   |   0.0 | 70.29
Neigh   | 0          | 0          | 0          |   0.0 |  0.00
Comm    | 2e-05      | 2.325e-05  | 2.8e-05    |   0.0 | 13.48
Output  | 1.6e-05    | 1.9125e-05 | 2.3e-05    |   0.0 | 11.09
Modify  | 0          | 1.25e-07   | 1e-06      |   0.0 |  0.07
Other   |            | 8.75e-06   |            |       |  5.07

Nlocal:           0.75 ave           1 max           0 min
Histogram: 2 0 0 0 0 0 0 0 0 6
Nghost:         179.25 ave         180 max         179 min
Histogram: 6 0 0 0 0 0 0 0 0 2
Neighs:           22.5 ave          30 max           0 min
Histogram: 2 0 0 0 0 0 0 0 0 6
FullNghs:           45 ave          60 max           0 min
Histogram: 2 0 0 0 0 0 0 0 0 6

Total # of neighbors = 360
Ave neighs/atom = 60
Neighbor list builds = 0
Dangerous builds = 0
variable  natoms equal "count(all)"
variable xlength equal "lx"
variable  volume equal "vol"
variable  etotal equal "etotal"
variable    ecoh equal "pe/v_natoms"
print "${xlength}, ${volume}, ${etotal}, ${ecoh}" append lattice_cohesive_energy.txt screen no

next i
jump SELF loop

change_box all x scale 1.0025 y scale 1.0025 z scale 1.0025 remap
Changing box ...
  orthogonal box = (-0.14745695 -0.14307379 -0.34960318) to (3.3678329 3.3634498 8.2186452)
  orthogonal box = (-0.14745695 -0.14745695 -0.34960318) to (3.3678329 3.3678329 8.2186452)
  orthogonal box = (-0.14745695 -0.14745695 -0.36031349) to (3.3678329 3.3678329 8.2293555)

run 1
WARNING: No fixes with time integration, atoms won't move (src/verlet.cpp:60)
WARNING: Proc sub-domain size < neighbor skin, could lead to lost atoms (src/domain.cpp:966)
Per MPI rank memory allocation (min/avg/max) = 8.508 | 8.508 | 8.508 Mbytes
   Step         PotEng         TotEng           Lx             Ly             Lz           Volume         Press           Pxx            Pyy            Pzz      
       139  -34.549784     -34.549784      3.5152899      3.5152899      8.589669       106.1448       29575.598      55556.578      55556.578     -22386.36     
       140  -34.549784     -34.549784      3.5152899      3.5152899      8.589669       106.1448       29575.598      55556.578      55556.578     -22386.36     
Loop time of 0.0001685 on 8 procs for 1 steps with 6 atoms

Performance: 512.760 ns/day, 0.047 hours/ns, 5934.718 timesteps/s, 35.608 katom-step/s
0.0% CPU use with 8 MPI tasks x 1 OpenMP threads

MPI task timing breakdown:
Section |  min time  |  avg time  |  max time  |%varavg| %total
---------------------------------------------------------------
Pair    | 0.000114   | 0.00011663 | 0.000122   |   0.0 | 69.21
Neigh   | 0          | 0          | 0          |   0.0 |  0.00
Comm    | 2e-05      | 2.35e-05   | 2.7e-05    |   0.0 | 13.95
Output  | 1.6e-05    | 1.9e-05    | 2.2e-05    |   0.0 | 11.28
Modify  | 0          | 0          | 0          |   0.0 |  0.00
Other   |            | 9.375e-06  |            |       |  5.56

Nlocal:           0.75 ave           1 max           0 min
Histogram: 2 0 0 0 0 0 0 0 0 6
Nghost:         179.25 ave         180 max         179 min
Histogram: 6 0 0 0 0 0 0 0 0 2
Neighs:           22.5 ave          30 max           0 min
Histogram: 2 0 0 0 0 0 0 0 0 6
FullNghs:           45 ave          60 max           0 min
Histogram: 2 0 0 0 0 0 0 0 0 6

Total # of neighbors = 360
Ave neighs/atom = 60
Neighbor list builds = 0
Dangerous builds = 0
variable  natoms equal "count(all)"
variable xlength equal "lx"
variable  volume equal "vol"
variable  etotal equal "etotal"
variable    ecoh equal "pe/v_natoms"
print "${xlength}, ${volume}, ${etotal}, ${ecoh}" append lattice_cohesive_energy.txt screen no

next i
jump SELF loop

change_box all x scale 1.0025 y scale 1.0025 z scale 1.0025 remap
Changing box ...
  orthogonal box = (-0.15185106 -0.14745695 -0.36031349) to (3.3722271 3.3678329 8.2293555)
  orthogonal box = (-0.15185106 -0.15185106 -0.36031349) to (3.3722271 3.3722271 8.2293555)
  orthogonal box = (-0.15185106 -0.15185106 -0.37105057) to (3.3722271 3.3722271 8.2400926)

run 1
WARNING: No fixes with time integration, atoms won't move (src/verlet.cpp:60)
WARNING: Proc sub-domain size < neighbor skin, could lead to lost atoms (src/domain.cpp:966)
Per MPI rank memory allocation (min/avg/max) = 8.508 | 8.508 | 8.508 Mbytes
   Step         PotEng         TotEng           Lx             Ly             Lz           Volume         Press           Pxx            Pyy            Pzz      
       140  -34.560289     -34.560289      3.5240781      3.5240781      8.6111431      106.94288      12728.497      40000.721      40000.721     -41815.95     
       141  -34.560289     -34.560289      3.5240781      3.5240781      8.6111431      106.94288      12728.497      40000.721      40000.721     -41815.95     
Loop time of 0.000168875 on 8 procs for 1 steps with 6 atoms

Performance: 511.621 ns/day, 0.047 hours/ns, 5921.540 timesteps/s, 35.529 katom-step/s
0.0% CPU use with 8 MPI tasks x 1 OpenMP threads

MPI task timing breakdown:
Section |  min time  |  avg time  |  max time  |%varavg| %total
---------------------------------------------------------------
Pair    | 0.000113   | 0.00011575 | 0.000121   |   0.0 | 68.54
Neigh   | 0          | 0          | 0          |   0.0 |  0.00
Comm    | 2e-05      | 2.35e-05   | 2.8e-05    |   0.0 | 13.92
Output  | 1.7e-05    | 2.0625e-05 | 2.4e-05    |   0.0 | 12.21
Modify  | 0          | 0          | 0          |   0.0 |  0.00
Other   |            | 9e-06      |            |       |  5.33

Nlocal:           0.75 ave           1 max           0 min
Histogram: 2 0 0 0 0 0 0 0 0 6
Nghost:         179.25 ave         180 max         179 min
Histogram: 6 0 0 0 0 0 0 0 0 2
Neighs:           22.5 ave          30 max           0 min
Histogram: 2 0 0 0 0 0 0 0 0 6
FullNghs:           45 ave          60 max           0 min
Histogram: 2 0 0 0 0 0 0 0 0 6

Total # of neighbors = 360
Ave neighs/atom = 60
Neighbor list builds = 0
Dangerous builds = 0
variable  natoms equal "count(all)"
variable xlength equal "lx"
variable  volume equal "vol"
variable  etotal equal "etotal"
variable    ecoh equal "pe/v_natoms"
print "${xlength}, ${volume}, ${etotal}, ${ecoh}" append lattice_cohesive_energy.txt screen no

next i
jump SELF loop

change_box all x scale 1.0025 y scale 1.0025 z scale 1.0025 remap
Changing box ...
  orthogonal box = (-0.15625616 -0.15185106 -0.37105057) to (3.3766322 3.3722271 8.2400926)
  orthogonal box = (-0.15625616 -0.15625616 -0.37105057) to (3.3766322 3.3766322 8.2400926)
  orthogonal box = (-0.15625616 -0.15625616 -0.3818145) to (3.3766322 3.3766322 8.2508565)

run 1
WARNING: No fixes with time integration, atoms won't move (src/verlet.cpp:60)
WARNING: Proc sub-domain size < neighbor skin, could lead to lost atoms (src/domain.cpp:966)
Per MPI rank memory allocation (min/avg/max) = 8.508 | 8.508 | 8.508 Mbytes
   Step         PotEng         TotEng           Lx             Ly             Lz           Volume         Press           Pxx            Pyy            Pzz      
       141  -34.562574     -34.562574      3.5328883      3.5328883      8.632671       107.74696     -3500.8086      25011.46       25011.46      -60525.346    
       142  -34.562574     -34.562574      3.5328883      3.5328883      8.632671       107.74696     -3500.8086      25011.46       25011.46      -60525.346    
Loop time of 0.00016775 on 8 procs for 1 steps with 6 atoms

Performance: 515.052 ns/day, 0.047 hours/ns, 5961.252 timesteps/s, 35.768 katom-step/s
0.0% CPU use with 8 MPI tasks x 1 OpenMP threads

MPI task timing breakdown:
Section |  min time  |  avg time  |  max time  |%varavg| %total
---------------------------------------------------------------
Pair    | 0.000114   | 0.00011675 | 0.000121   |   0.0 | 69.60
Neigh   | 0          | 0          | 0          |   0.0 |  0.00
Comm    | 2e-05      | 2.2875e-05 | 2.7e-05    |   0.0 | 13.64
Output  | 1.6e-05    | 1.9e-05    | 2.2e-05    |   0.0 | 11.33
Modify  | 0          | 3.75e-07   | 1e-06      |   0.0 |  0.22
Other   |            | 8.75e-06   |            |       |  5.22

Nlocal:           0.75 ave           1 max           0 min
Histogram: 2 0 0 0 0 0 0 0 0 6
Nghost:         179.25 ave         180 max         179 min
Histogram: 6 0 0 0 0 0 0 0 0 2
Neighs:           22.5 ave          30 max           0 min
Histogram: 2 0 0 0 0 0 0 0 0 6
FullNghs:           45 ave          60 max           0 min
Histogram: 2 0 0 0 0 0 0 0 0 6

Total # of neighbors = 360
Ave neighs/atom = 60
Neighbor list builds = 0
Dangerous builds = 0
variable  natoms equal "count(all)"
variable xlength equal "lx"
variable  volume equal "vol"
variable  etotal equal "etotal"
variable    ecoh equal "pe/v_natoms"
print "${xlength}, ${volume}, ${etotal}, ${ecoh}" append lattice_cohesive_energy.txt screen no

next i
jump SELF loop

change_box all x scale 1.0025 y scale 1.0025 z scale 1.0025 remap
Changing box ...
  orthogonal box = (-0.16067227 -0.15625616 -0.3818145) to (3.3810483 3.3766322 8.2508565)
  orthogonal box = (-0.16067227 -0.16067227 -0.3818145) to (3.3810483 3.3810483 8.2508565)
  orthogonal box = (-0.16067227 -0.16067227 -0.39260534) to (3.3810483 3.3810483 8.2616473)

run 1
WARNING: No fixes with time integration, atoms won't move (src/verlet.cpp:60)
WARNING: Proc sub-domain size < neighbor skin, could lead to lost atoms (src/domain.cpp:966)
Per MPI rank memory allocation (min/avg/max) = 8.508 | 8.508 | 8.508 Mbytes
   Step         PotEng         TotEng           Lx             Ly             Lz           Volume         Press           Pxx            Pyy            Pzz      
       142  -34.556823     -34.556823      3.5417205      3.5417205      8.6542527      108.55708     -19128.51       10573.638      10573.638     -78532.805    
       143  -34.556823     -34.556823      3.5417205      3.5417205      8.6542527      108.55708     -19128.51       10573.638      10573.638     -78532.805    
Loop time of 0.00017725 on 8 procs for 1 steps with 6 atoms

Performance: 487.447 ns/day, 0.049 hours/ns, 5641.749 timesteps/s, 33.850 katom-step/s
0.0% CPU use with 8 MPI tasks x 1 OpenMP threads

MPI task timing breakdown:
Section |  min time  |  avg time  |  max time  |%varavg| %total
---------------------------------------------------------------
Pair    | 0.000118   | 0.00012462 | 0.00013    |   0.0 | 70.31
Neigh   | 0          | 0          | 0          |   0.0 |  0.00
Comm    | 1.9e-05    | 2.325e-05  | 3e-05      |   0.0 | 13.12
Output  | 1.9e-05    | 2.0375e-05 | 2.3e-05    |   0.0 | 11.50
Modify  | 0          | 3.75e-07   | 1e-06      |   0.0 |  0.21
Other   |            | 8.625e-06  |            |       |  4.87

Nlocal:           0.75 ave           1 max           0 min
Histogram: 2 0 0 0 0 0 0 0 0 6
Nghost:         179.25 ave         180 max         179 min
Histogram: 6 0 0 0 0 0 0 0 0 2
Neighs:           22.5 ave          30 max           0 min
Histogram: 2 0 0 0 0 0 0 0 0 6
FullNghs:           45 ave          60 max           0 min
Histogram: 2 0 0 0 0 0 0 0 0 6

Total # of neighbors = 360
Ave neighs/atom = 60
Neighbor list builds = 0
Dangerous builds = 0
variable  natoms equal "count(all)"
variable xlength equal "lx"
variable  volume equal "vol"
variable  etotal equal "etotal"
variable    ecoh equal "pe/v_natoms"
print "${xlength}, ${volume}, ${etotal}, ${ecoh}" append lattice_cohesive_energy.txt screen no

next i
jump SELF loop

change_box all x scale 1.0025 y scale 1.0025 z scale 1.0025 remap
Changing box ...
  orthogonal box = (-0.16509942 -0.16067227 -0.39260534) to (3.3854754 3.3810483 8.2616473)
  orthogonal box = (-0.16509942 -0.16509942 -0.39260534) to (3.3854754 3.3854754 8.2616473)
  orthogonal box = (-0.16509942 -0.16509942 -0.40342316) to (3.3854754 3.3854754 8.2724652)

run 1
WARNING: No fixes with time integration, atoms won't move (src/verlet.cpp:60)
WARNING: Proc sub-domain size < neighbor skin, could lead to lost atoms (src/domain.cpp:966)
Per MPI rank memory allocation (min/avg/max) = 8.508 | 8.508 | 8.508 Mbytes
   Step         PotEng         TotEng           Lx             Ly             Lz           Volume         Press           Pxx            Pyy            Pzz      
       143  -34.543217     -34.543217      3.5505748      3.5505748      8.6758883      109.37329     -34170.347     -3327.463      -3327.463      -95856.116    
       144  -34.543217     -34.543217      3.5505748      3.5505748      8.6758883      109.37329     -34170.347     -3327.463      -3327.463      -95856.116    
Loop time of 0.00017575 on 8 procs for 1 steps with 6 atoms

Performance: 491.607 ns/day, 0.049 hours/ns, 5689.900 timesteps/s, 34.139 katom-step/s
0.0% CPU use with 8 MPI tasks x 1 OpenMP threads

MPI task timing breakdown:
Section |  min time  |  avg time  |  max time  |%varavg| %total
---------------------------------------------------------------
Pair    | 0.000118   | 0.00012412 | 0.000129   |   0.0 | 70.63
Neigh   | 0          | 0          | 0          |   0.0 |  0.00
Comm    | 2e-05      | 2.3375e-05 | 2.9e-05    |   0.0 | 13.30
Output  | 1.8e-05    | 1.95e-05   | 2.3e-05    |   0.0 | 11.10
Modify  | 0          | 0          | 0          |   0.0 |  0.00
Other   |            | 8.75e-06   |            |       |  4.98

Nlocal:           0.75 ave           1 max           0 min
Histogram: 2 0 0 0 0 0 0 0 0 6
Nghost:         179.25 ave         180 max         179 min
Histogram: 6 0 0 0 0 0 0 0 0 2
Neighs:           22.5 ave          30 max           0 min
Histogram: 2 0 0 0 0 0 0 0 0 6
FullNghs:           45 ave          60 max           0 min
Histogram: 2 0 0 0 0 0 0 0 0 6

Total # of neighbors = 360
Ave neighs/atom = 60
Neighbor list builds = 0
[...]
Histogram: 6 0 0 0 0 0 0 0 0 2
Neighs:           22.5 ave          30 max           0 min
Histogram: 2 0 0 0 0 0 0 0 0 6
FullNghs:           45 ave          60 max           0 min
Histogram: 2 0 0 0 0 0 0 0 0 6

Total # of neighbors = 360
Ave neighs/atom = 60
Neighbor list builds = 0
Dangerous builds = 0
variable  natoms equal "count(all)"
variable xlength equal "lx"
variable  volume equal "vol"
variable  etotal equal "etotal"
variable    ecoh equal "pe/v_natoms"
print "${xlength}, ${volume}, ${etotal}, ${ecoh}" append lattice_cohesive_energy.txt screen no

next i
jump SELF loop

change_box all x scale 1.0025 y scale 1.0025 z scale 1.0025 remap
Changing box ...
  orthogonal box = (-0.23745804 -0.23285045 -0.56897391) to (3.457834 3.4532264 8.4380159)
  orthogonal box = (-0.23745804 -0.23745804 -0.56897391) to (3.457834 3.457834 8.4380159)
  orthogonal box = (-0.23745804 -0.23745804 -0.58023265) to (3.457834 3.457834 8.4492746)

run 1
WARNING: No fixes with time integration, atoms won't move (src/verlet.cpp:60)
WARNING: Proc sub-domain size < neighbor skin, could lead to lost atoms (src/domain.cpp:966)
Per MPI rank memory allocation (min/avg/max) = 8.508 | 8.508 | 8.508 Mbytes
   Step         PotEng         TotEng           Lx             Ly             Lz           Volume         Press           Pxx            Pyy            Pzz      
       159  -33.395546     -33.395546      3.6952921      3.6952921      9.0295073      123.29958     -206891.13     -163705.82     -163705.82     -293261.74    
       160  -33.395546     -33.395546      3.6952921      3.6952921      9.0295073      123.29958     -206891.13     -163705.82     -163705.82     -293261.74    
Loop time of 0.000146875 on 8 procs for 1 steps with 6 atoms

Performance: 588.255 ns/day, 0.041 hours/ns, 6808.511 timesteps/s, 40.851 katom-step/s
0.0% CPU use with 8 MPI tasks x 1 OpenMP threads

MPI task timing breakdown:
Section |  min time  |  avg time  |  max time  |%varavg| %total
---------------------------------------------------------------
Pair    | 9e-05      | 9.8e-05    | 0.000107   |   0.0 | 66.72
Neigh   | 0          | 0          | 0          |   0.0 |  0.00
Comm    | 1.5e-05    | 2.4625e-05 | 3.3e-05    |   0.0 | 16.77
Output  | 1.6e-05    | 1.7375e-05 | 2e-05      |   0.0 | 11.83
Modify  | 0          | 0          | 0          |   0.0 |  0.00
Other   |            | 6.875e-06  |            |       |  4.68

Nlocal:           0.75 ave           1 max           0 min
Histogram: 2 0 0 0 0 0 0 0 0 6
Nghost:         179.25 ave         180 max         179 min
Histogram: 6 0 0 0 0 0 0 0 0 2
Neighs:           22.5 ave          30 max           0 min
Histogram: 2 0 0 0 0 0 0 0 0 6
FullNghs:           45 ave          60 max           0 min
Histogram: 2 0 0 0 0 0 0 0 0 6

Total # of neighbors = 360
Ave neighs/atom = 60
Neighbor list builds = 0
Dangerous builds = 0
variable  natoms equal "count(all)"
variable xlength equal "lx"
variable  volume equal "vol"
variable  etotal equal "etotal"
variable    ecoh equal "pe/v_natoms"
print "${xlength}, ${volume}, ${etotal}, ${ecoh}" append lattice_cohesive_energy.txt screen no

next i
jump SELF loop

change_box all x scale 1.0025 y scale 1.0025 z scale 1.0025 remap
Changing box ...
  orthogonal box = (-0.24207716 -0.23745804 -0.58023265) to (3.4624532 3.457834 8.4492746)
  orthogonal box = (-0.24207716 -0.24207716 -0.58023265) to (3.4624532 3.4624532 8.4492746)
  orthogonal box = (-0.24207716 -0.24207716 -0.59151953) to (3.4624532 3.4624532 8.4605615)

run 1
WARNING: No fixes with time integration, atoms won't move (src/verlet.cpp:60)
WARNING: Proc sub-domain size < neighbor skin, could lead to lost atoms (src/domain.cpp:966)
Per MPI rank memory allocation (min/avg/max) = 8.508 | 8.508 | 8.508 Mbytes
   Step         PotEng         TotEng           Lx             Ly             Lz           Volume         Press           Pxx            Pyy            Pzz      
       160  -33.273727     -33.273727      3.7045303      3.7045303      9.0520811      124.22664     -214103.86     -170471.82     -170471.82     -301367.95    
       161  -33.273727     -33.273727      3.7045303      3.7045303      9.0520811      124.22664     -214103.86     -170471.82     -170471.82     -301367.95    
Loop time of 0.000145125 on 8 procs for 1 steps with 6 atoms

Performance: 595.349 ns/day, 0.040 hours/ns, 6890.612 timesteps/s, 41.344 katom-step/s
0.0% CPU use with 8 MPI tasks x 1 OpenMP threads

MPI task timing breakdown:
Section |  min time  |  avg time  |  max time  |%varavg| %total
---------------------------------------------------------------
Pair    | 9e-05      | 9.8e-05    | 0.000106   |   0.0 | 67.53
Neigh   | 0          | 0          | 0          |   0.0 |  0.00
Comm    | 1.5e-05    | 2.375e-05  | 3.2e-05    |   0.0 | 16.37
Output  | 1.4e-05    | 1.6e-05    | 1.8e-05    |   0.0 | 11.02
Modify  | 0          | 2.5e-07    | 1e-06      |   0.0 |  0.17
Other   |            | 7.125e-06  |            |       |  4.91

Nlocal:           0.75 ave           1 max           0 min
Histogram: 2 0 0 0 0 0 0 0 0 6
Nghost:         179.25 ave         180 max         179 min
Histogram: 6 0 0 0 0 0 0 0 0 2
Neighs:           22.5 ave          30 max           0 min
Histogram: 2 0 0 0 0 0 0 0 0 6
FullNghs:           45 ave          60 max           0 min
Histogram: 2 0 0 0 0 0 0 0 0 6

Total # of neighbors = 360
Ave neighs/atom = 60
Neighbor list builds = 0
Dangerous builds = 0
variable  natoms equal "count(all)"
variable xlength equal "lx"
variable  volume equal "vol"
variable  etotal equal "etotal"
variable    ecoh equal "pe/v_natoms"
print "${xlength}, ${volume}, ${etotal}, ${ecoh}" append lattice_cohesive_energy.txt screen no

next i
jump SELF loop

change_box all x scale 1.0025 y scale 1.0025 z scale 1.0025 remap
Changing box ...
  orthogonal box = (-0.24670782 -0.24207716 -0.59151953) to (3.4670838 3.4624532 8.4605615)
  orthogonal box = (-0.24670782 -0.24670782 -0.59151953) to (3.4670838 3.4670838 8.4605615)
  orthogonal box = (-0.24670782 -0.24670782 -0.60283464) to (3.4670838 3.4670838 8.4718766)

run 1
WARNING: No fixes with time integration, atoms won't move (src/verlet.cpp:60)
WARNING: Proc sub-domain size < neighbor skin, could lead to lost atoms (src/domain.cpp:966)
Per MPI rank memory allocation (min/avg/max) = 8.508 | 8.508 | 8.508 Mbytes
   Step         PotEng         TotEng           Lx             Ly             Lz           Volume         Press           Pxx            Pyy            Pzz      
       161  -33.14689      -33.14689       3.7137916      3.7137916      9.0747113      125.16067     -220965.86     -176920.45     -176920.45     -309056.67    
       162  -33.14689      -33.14689       3.7137916      3.7137916      9.0747113      125.16067     -220965.86     -176920.45     -176920.45     -309056.67    
Loop time of 0.000145125 on 8 procs for 1 steps with 6 atoms

Performance: 595.349 ns/day, 0.040 hours/ns, 6890.612 timesteps/s, 41.344 katom-step/s
0.0% CPU use with 8 MPI tasks x 1 OpenMP threads

MPI task timing breakdown:
Section |  min time  |  avg time  |  max time  |%varavg| %total
---------------------------------------------------------------
Pair    | 8.9e-05    | 9.75e-05   | 0.000106   |   0.0 | 67.18
Neigh   | 0          | 0          | 0          |   0.0 |  0.00
Comm    | 1.6e-05    | 2.475e-05  | 3.3e-05    |   0.0 | 17.05
Output  | 1.4e-05    | 1.55e-05   | 1.8e-05    |   0.0 | 10.68
Modify  | 0          | 3.75e-07   | 1e-06      |   0.0 |  0.26
Other   |            | 7e-06      |            |       |  4.82

Nlocal:           0.75 ave           1 max           0 min
Histogram: 2 0 0 0 0 0 0 0 0 6
Nghost:         179.25 ave         180 max         179 min
Histogram: 6 0 0 0 0 0 0 0 0 2
Neighs:           22.5 ave          30 max           0 min
Histogram: 2 0 0 0 0 0 0 0 0 6
FullNghs:           45 ave          60 max           0 min
Histogram: 2 0 0 0 0 0 0 0 0 6

Total # of neighbors = 360
Ave neighs/atom = 60
Neighbor list builds = 0
Dangerous builds = 0
variable  natoms equal "count(all)"
variable xlength equal "lx"
variable  volume equal "vol"
variable  etotal equal "etotal"
variable    ecoh equal "pe/v_natoms"
print "${xlength}, ${volume}, ${etotal}, ${ecoh}" append lattice_cohesive_energy.txt screen no

next i
jump SELF loop

change_box all x scale 1.0025 y scale 1.0025 z scale 1.0025 remap
Changing box ...
  orthogonal box = (-0.25135006 -0.24670782 -0.60283464) to (3.4717261 3.4670838 8.4718766)
  orthogonal box = (-0.25135006 -0.25135006 -0.60283464) to (3.4717261 3.4717261 8.4718766)
  orthogonal box = (-0.25135006 -0.25135006 -0.61417802) to (3.4717261 3.4717261 8.48322)

run 1
WARNING: No fixes with time integration, atoms won't move (src/verlet.cpp:60)
WARNING: Proc sub-domain size < neighbor skin, could lead to lost atoms (src/domain.cpp:966)
Per MPI rank memory allocation (min/avg/max) = 8.508 | 8.508 | 8.508 Mbytes
   Step         PotEng         TotEng           Lx             Ly             Lz           Volume         Press           Pxx            Pyy            Pzz      
       162  -33.01517      -33.01517       3.7230761      3.7230761      9.097398       126.10173     -227487.77     -183061.65     -183061.65     -316340       
       163  -33.01517      -33.01517       3.7230761      3.7230761      9.097398       126.10173     -227487.77     -183061.65     -183061.65     -316340       
Loop time of 0.00014525 on 8 procs for 1 steps with 6 atoms

Performance: 594.836 ns/day, 0.040 hours/ns, 6884.682 timesteps/s, 41.308 katom-step/s
0.0% CPU use with 8 MPI tasks x 1 OpenMP threads

MPI task timing breakdown:
Section |  min time  |  avg time  |  max time  |%varavg| %total
---------------------------------------------------------------
Pair    | 9e-05      | 9.75e-05   | 0.000106   |   0.0 | 67.13
Neigh   | 0          | 0          | 0          |   0.0 |  0.00
Comm    | 1.6e-05    | 2.425e-05  | 3.2e-05    |   0.0 | 16.70
Output  | 1.4e-05    | 1.625e-05  | 1.8e-05    |   0.0 | 11.19
Modify  | 0          | 1.25e-07   | 1e-06      |   0.0 |  0.09
Other   |            | 7.125e-06  |            |       |  4.91

Nlocal:           0.75 ave           1 max           0 min
Histogram: 2 0 0 0 0 0 0 0 0 6
Nghost:         179.25 ave         180 max         179 min
Histogram: 6 0 0 0 0 0 0 0 0 2
Neighs:           22.5 ave          30 max           0 min
Histogram: 2 0 0 0 0 0 0 0 0 6
FullNghs:           45 ave          60 max           0 min
Histogram: 2 0 0 0 0 0 0 0 0 6

Total # of neighbors = 360
Ave neighs/atom = 60
Neighbor list builds = 0
Dangerous builds = 0
variable  natoms equal "count(all)"
variable xlength equal "lx"
variable  volume equal "vol"
variable  etotal equal "etotal"
variable    ecoh equal "pe/v_natoms"
print "${xlength}, ${volume}, ${etotal}, ${ecoh}" append lattice_cohesive_energy.txt screen no

next i
jump SELF loop

change_box all x scale 1.0025 y scale 1.0025 z scale 1.0025 remap
Changing box ...
  orthogonal box = (-0.2560039 -0.25135006 -0.61417802) to (3.4763799 3.4717261 8.48322)
  orthogonal box = (-0.2560039 -0.2560039 -0.61417802) to (3.4763799 3.4763799 8.48322)
  orthogonal box = (-0.2560039 -0.2560039 -0.62554977) to (3.4763799 3.4763799 8.4945918)

run 1
WARNING: No fixes with time integration, atoms won't move (src/verlet.cpp:60)
WARNING: Proc sub-domain size < neighbor skin, could lead to lost atoms (src/domain.cpp:966)
Per MPI rank memory allocation (min/avg/max) = 8.508 | 8.508 | 8.508 Mbytes
   Step         PotEng         TotEng           Lx             Ly             Lz           Volume         Press           Pxx            Pyy            Pzz      
       163  -32.878697     -32.878697      3.7323838      3.7323838      9.1201415      127.04985     -233680.01     -188905.11     -188905.11     -323229.79    
       164  -32.878697     -32.878697      3.7323838      3.7323838      9.1201415      127.04985     -233680.01     -188905.11     -188905.11     -323229.79    
Loop time of 0.000147 on 8 procs for 1 steps with 6 atoms

Performance: 587.755 ns/day, 0.041 hours/ns, 6802.721 timesteps/s, 40.816 katom-step/s
0.0% CPU use with 8 MPI tasks x 1 OpenMP threads

MPI task timing breakdown:
Section |  min time  |  avg time  |  max time  |%varavg| %total
---------------------------------------------------------------
Pair    | 9.1e-05    | 9.9e-05    | 0.000108   |   0.0 | 67.35
Neigh   | 0          | 0          | 0          |   0.0 |  0.00
Comm    | 1.6e-05    | 2.475e-05  | 3.3e-05    |   0.0 | 16.84
Output  | 1.5e-05    | 1.625e-05  | 1.8e-05    |   0.0 | 11.05
Modify  | 0          | 0          | 0          |   0.0 |  0.00
Other   |            | 7e-06      |            |       |  4.76

Nlocal:           0.75 ave           1 max           0 min
Histogram: 2 0 0 0 0 0 0 0 0 6
Nghost:         179.25 ave         180 max         179 min
Histogram: 6 0 0 0 0 0 0 0 0 2
Neighs:           22.5 ave          30 max           0 min
Histogram: 2 0 0 0 0 0 0 0 0 6
FullNghs:           45 ave          60 max           0 min
Histogram: 2 0 0 0 0 0 0 0 0 6

Total # of neighbors = 360
Ave neighs/atom = 60
Neighbor list builds = 0
Dangerous builds = 0
variable  natoms equal "count(all)"
variable xlength equal "lx"
variable  volume equal "vol"
variable  etotal equal "etotal"
variable    ecoh equal "pe/v_natoms"
print "${xlength}, ${volume}, ${etotal}, ${ecoh}" append lattice_cohesive_energy.txt screen no

next i
jump SELF loop

change_box all x scale 1.0025 y scale 1.0025 z scale 1.0025 remap
Changing box ...
  orthogonal box = (-0.26066938 -0.2560039 -0.62554977) to (3.4810454 3.4763799 8.4945918)
  orthogonal box = (-0.26066938 -0.26066938 -0.62554977) to (3.4810454 3.4810454 8.4945918)
  orthogonal box = (-0.26066938 -0.26066938 -0.63694995) to (3.4810454 3.4810454 8.5059919)

run 1
WARNING: No fixes with time integration, atoms won't move (src/verlet.cpp:60)
WARNING: Proc sub-domain size < neighbor skin, could lead to lost atoms (src/domain.cpp:966)
Per MPI rank memory allocation (min/avg/max) = 8.508 | 8.508 | 8.508 Mbytes
   Step         PotEng         TotEng           Lx             Ly             Lz           Volume         Press           Pxx            Pyy            Pzz      
       164  -32.737603     -32.737603      3.7417148      3.7417148      9.1429419      128.00511     -239552.76     -194460.33     -194460.33     -329737.62    
       165  -32.737603     -32.737603      3.7417148      3.7417148      9.1429419      128.00511     -239552.76     -194460.33     -194460.33     -329737.62    
Loop time of 0.000147125 on 8 procs for 1 steps with 6 atoms

Performance: 587.256 ns/day, 0.041 hours/ns, 6796.941 timesteps/s, 40.782 katom-step/s
0.0% CPU use with 8 MPI tasks x 1 OpenMP threads

MPI task timing breakdown:
Section |  min time  |  avg time  |  max time  |%varavg| %total
---------------------------------------------------------------
Pair    | 9e-05      | 9.925e-05  | 0.000108   |   0.0 | 67.46
Neigh   | 0          | 0          | 0          |   0.0 |  0.00
Comm    | 1.5e-05    | 2.4125e-05 | 3.4e-05    |   0.0 | 16.40
Output  | 1.4e-05    | 1.6125e-05 | 1.8e-05    |   0.0 | 10.96
Modify  | 0          | 3.75e-07   | 1e-06      |   0.0 |  0.25
Other   |            | 7.25e-06   |            |       |  4.93

Nlocal:           0.75 ave           1 max           0 min
Histogram: 2 0 0 0 0 0 0 0 0 6
Nghost:         179.25 ave         180 max         179 min
Histogram: 6 0 0 0 0 0 0 0 0 2
Neighs:           22.5 ave          30 max           0 min
Histogram: 2 0 0 0 0 0 0 0 0 6
FullNghs:           45 ave          60 max           0 min
Histogram: 2 0 0 0 0 0 0 0 0 6

Total # of neighbors = 360
Ave neighs/atom = 60
Neighbor list builds = 0
Dangerous builds = 0
variable  natoms equal "count(all)"
variable xlength equal "lx"
variable  volume equal "vol"
variable  etotal equal "etotal"
variable    ecoh equal "pe/v_natoms"
print "${xlength}, ${volume}, ${etotal}, ${ecoh}" append lattice_cohesive_energy.txt screen no

next i
jump SELF loop

change_box all x scale 1.0025 y scale 1.0025 z scale 1.0025 remap
Changing box ...
  orthogonal box = (-0.26534653 -0.26066938 -0.63694995) to (3.4857225 3.4810454 8.5059919)
  orthogonal box = (-0.26534653 -0.26534653 -0.63694995) to (3.4857225 3.4857225 8.5059919)
  orthogonal box = (-0.26534653 -0.26534653 -0.64837863) to (3.4857225 3.4857225 8.5174206)

run 1
Per MPI rank memory allocation (min/avg/max) = 8.508 | 8.508 | 8.508 Mbytes
   Step         PotEng         TotEng           Lx             Ly             Lz           Volume         Press           Pxx            Pyy            Pzz      
WARNING: Too many warnings: 102 vs 100. All future warnings will be suppressed (src/thermo.cpp:466)
       165  -32.592013     -32.592013      3.7510691      3.7510691      9.1657993      128.96755     -245116.03     -199736.62     -199736.62     -335874.85    
       166  -32.592013     -32.592013      3.7510691      3.7510691      9.1657993      128.96755     -245116.03     -199736.62     -199736.62     -335874.85    
Loop time of 0.00015125 on 8 procs for 1 steps with 6 atoms

Performance: 571.240 ns/day, 0.042 hours/ns, 6611.570 timesteps/s, 39.669 katom-step/s
0.0% CPU use with 8 MPI tasks x 1 OpenMP threads

MPI task timing breakdown:
Section |  min time  |  avg time  |  max time  |%varavg| %total
---------------------------------------------------------------
Pair    | 9.2e-05    | 0.0001005  | 0.00011    |   0.0 | 66.45
Neigh   | 0          | 0          | 0          |   0.0 |  0.00
Comm    | 1.7e-05    | 2.6625e-05 | 3.5e-05    |   0.0 | 17.60
Output  | 1.5e-05    | 1.65e-05   | 1.9e-05    |   0.0 | 10.91
Modify  | 0          | 1.25e-07   | 1e-06      |   0.0 |  0.08
Other   |            | 7.5e-06    |            |       |  4.96

Nlocal:           0.75 ave           1 max           0 min
Histogram: 2 0 0 0 0 0 0 0 0 6
Nghost:         179.25 ave         180 max         179 min
Histogram: 6 0 0 0 0 0 0 0 0 2
Neighs:           22.5 ave          30 max           0 min
Histogram: 2 0 0 0 0 0 0 0 0 6
FullNghs:           45 ave          60 max           0 min
Histogram: 2 0 0 0 0 0 0 0 0 6

Total # of neighbors = 360
Ave neighs/atom = 60
Neighbor list builds = 0
Dangerous builds = 0
variable  natoms equal "count(all)"
variable xlength equal "lx"
variable  volume equal "vol"
variable  etotal equal "etotal"
variable    ecoh equal "pe/v_natoms"
print "${xlength}, ${volume}, ${etotal}, ${ecoh}" append lattice_cohesive_energy.txt screen no

next i
jump SELF loop

print "-------------------------------------------------------------"
-------------------------------------------------------------
print "Show results of 1st step (Running Minimization)"
Show results of 1st step (Running Minimization)
print "The number of atoms = ${natoms};"
The number of atoms = 6;
print "The lattice constant, x (Angstoms) = ${x0};"
The lattice constant, x (Angstoms) = 3.75106905441817;
print "The lattice constant, y (Angstoms) = ${y0};"
The lattice constant, y (Angstoms) = 3.75106905441817;
print "The lattice constant, z (Angstoms) = ${z0};"
The lattice constant, z (Angstoms) = 9.16579925267014;
print "The volume (Angstoms^3) = ${v0};"
The volume (Angstoms^3) = 128.967553002462;
print "The total energy (eV) = ${etot0};"
The total energy (eV) = -32.5920132904254;
print "The cohesive energy (eV/atom) = ${ecoh0};"
The cohesive energy (eV/atom) = -5.43200221507091;
print "-------------------------------------------------------------"
-------------------------------------------------------------
print "Simulations completed !"
Simulations completed !
Total wall time: 0:00:00
