LAMMPS (22 Dec 2022)
  using 1 OpenMP thread(s) per MPI task
Loaded 1 plugins from C:\Program Files\LAMMPS 64-bit 23Jun2022\plugins
Loaded 0 plugins from C:\Program Files\LAMMPS 64-bit 23Jun2022-MPI\plugins
Loaded 1 plugins from C:\Program Files\LAMMPS 64-bit 22Dec2022-MSMPI\plugins
Loaded 1 plugins from C:\Program Files\LAMMPS 64-bit 28Mar2023-MPI\plugins
#------------------------------------------------------------------------------------------
# LAMMPS 64-bit 22Dec2022-MSMPI
#------------------------------------------------------------------------------------------
clear
  using 1 OpenMP thread(s) per MPI task
Loaded 1 plugins from C:\Program Files\LAMMPS 64-bit 23Jun2022\plugins
Loaded 0 plugins from C:\Program Files\LAMMPS 64-bit 23Jun2022-MPI\plugins
Loaded 1 plugins from C:\Program Files\LAMMPS 64-bit 22Dec2022-MSMPI\plugins
Loaded 1 plugins from C:\Program Files\LAMMPS 64-bit 28Mar2023-MPI\plugins
#echo both
# ---------- Initializing Simulation ---------------------------------
units metal
dimension 3
boundary p p p
atom_style atomic
atom_modify map array

#read_data ./../../MoSi2.data
#read_data ./../../Mo3Si.data
read_data ./../../Mo5Si3.data
Reading data file ...
  orthogonal box = (0 0 0) to (9.691808 9.691808 4.935618)
  2 by 2 by 2 MPI processor grid
  reading atoms ...
  32 atoms
  read_data CPU = 0.001 seconds

replicate 1 1 1
Replication is creating a 1x1x1 = 1 times larger system...
  orthogonal box = (0 0 0) to (9.691808 9.691808 4.935618)
  2 by 2 by 2 MPI processor grid
  32 atoms
  replicate CPU = 0.001 seconds

# ---------- Defining the Interatomic Potential ---------------------
pair_style meam
pair_coeff * * ./../../library.meam Mo Si ./../../MoSi.meam Mo Si

# ---------- Running Minimization -------------------------------------
fix 1 all box/relax iso 0.0 vmax 0.001

thermo 10
thermo_style custom step pe etotal lx ly lz vol press pxx pyy pzz

min_style cg
minimize 1e-25 1e-25 5000 10000
Neighbor list info ...
  update: every = 1 steps, delay = 0 steps, check = yes
  max neighbors/atom: 2000, page size: 100000
  master list distance cutoff = 6.3
  ghost atom cutoff = 6.3
  binsize = 3.15, bins = 4 4 2
  2 neighbor lists, perpetual/occasional/extra = 2 0 0
  (1) pair meam, perpetual
      attributes: full, newton on
      pair build: full/bin/atomonly
      stencil: full/bin/3d
      bin: standard
  (2) pair meam, perpetual, half/full from (1)
      attributes: half, newton on
      pair build: halffull/newton
      stencil: none
      bin: none
Per MPI rank memory allocation (min/avg/max) = 9.632 | 9.632 | 9.632 Mbytes
   Step         PotEng         TotEng           Lx             Ly             Lz           Volume         Press           Pxx            Pyy            Pzz      
         0  -173.97862     -173.97862      9.691808       9.691808       4.935618       463.60824      700828.85      803865.24      803865.24      494756.08    
        10  -179.45348     -179.45348      9.7887261      9.7887261      4.9849742      477.65603      550582.09      654435.41      654435.41      342875.44    
        20  -183.78049     -183.78049      9.8856442      9.8856442      5.0343304      491.98477      419017.99      522378.4       522378.4       212297.18    
        30  -187.07241     -187.07241      9.9825622      9.9825622      5.0836865      506.59724      304130.85      405917.05      405917.05      100558.44    
        40  -189.43346     -189.43346      10.07948       10.07948       5.1330427      521.49622      204117.19      303432.2       303432.2       5487.1735    
        50  -190.96077     -190.96077      10.176398      10.176398      5.1823989      536.68449      117352.6       213423.07      213423.07     -74788.349    
        60  -191.74972     -191.74972      10.273316      10.273316      5.2317551      552.16483      42355.855      134350.78      134350.78     -141634       
        70  -192.19582     -192.19582      10.331467      10.331467      5.2613688      561.59439      1397.9021      82635.543      82635.543     -161077.38    
        80  -193.61883     -193.61883      10.331467      10.331467      5.2613688      561.59439     -5271.5486      33958.239      33958.239     -83731.125    
        90  -195.01806     -195.01806      10.312084      10.312084      5.2514976      558.43937      3157.2573      53923.535      53923.535     -98375.298    
       100  -199.51245     -199.51245      10.312084      10.312084      5.2514976      558.43937      5708.2324      53304.204      53304.204     -89483.711    
       110  -202.2046      -202.2046       10.331467      10.331467      5.2613688      561.59439      14192.132      47339.474      47339.474     -52102.551    
       120  -203.13966     -203.13966      10.370235      10.370235      5.2811113      567.94003      6283.6901      28416.95       28416.95      -37982.83     
       130  -203.23955     -203.23955      10.38513       10.38513       5.2886966      570.39077      48.802167      21534.891      21534.891     -42923.375    
       140  -203.23992     -203.23992      10.384556      10.384556      5.2884044      570.29624     -16.035183      21415.086      21415.086     -42878.277    
       150  -203.23993     -203.23993      10.384413      10.384413      5.2883316      570.27268     -0.134203       21429.863      21429.863     -42860.128    
       160  -203.23993     -203.23993      10.384416      10.384416      5.2883332      570.27319     -0.09144814     21429.981      21429.981     -42860.236    
       170  -203.23993     -203.23993      10.384415      10.384415      5.2883328      570.27306     -0.038500853    21430.002      21430.002     -42860.12     
       180  -203.23993     -203.23993      10.384415      10.384415      5.2883327      570.27304     -0.0088754605   21430.055      21430.055     -42860.137    
       190  -203.23993     -203.23993      10.384415      10.384415      5.2883329      570.27308     -0.0066336887   21430.053      21430.053     -42860.125    
       193  -203.23993     -203.23993      10.384415      10.384415      5.2883328      570.27308      0.021757848    21430.08       21430.08      -42860.094    
Loop time of 0.0579455 on 8 procs for 193 steps with 32 atoms

43.8% CPU use with 8 MPI tasks x 1 OpenMP threads

Minimization stats:
  Stopping criterion = energy tolerance
  Energy initial, next-to-last, final = 
     -173.978620545108  -203.239930976345  -203.239930976345
  Force two-norm initial, final = 608.62563 2.5043431e-05
  Force max component initial, final = 608.37872 2.1683654e-05
  Final line search alpha, max atom move = 1 2.1683654e-05
  Iterations, force evaluations = 193 264

MPI task timing breakdown:
Section |  min time  |  avg time  |  max time  |%varavg| %total
---------------------------------------------------------------
Pair    | 0.032809   | 0.034266   | 0.035988   |   0.6 | 59.14
Neigh   | 1e-05      | 1.1625e-05 | 1.5e-05    |   0.0 |  0.02
Comm    | 0.008036   | 0.0096386  | 0.011044   |   1.0 | 16.63
Output  | 0.000306   | 0.00033175 | 0.000437   |   0.0 |  0.57
Modify  | 0          | 0          | 0          |   0.0 |  0.00
Other   |            | 0.0137     |            |       | 23.64

Nlocal:              4 ave           4 max           4 min
Histogram: 8 0 0 0 0 0 0 0 0 0
Nghost:            274 ave         274 max         274 min
Histogram: 8 0 0 0 0 0 0 0 0 0
Neighs:          116.5 ave         122 max         112 min
Histogram: 1 0 2 0 1 0 3 0 0 1
FullNghs:          233 ave         233 max         233 min
Histogram: 8 0 0 0 0 0 0 0 0 0

Total # of neighbors = 1864
Ave neighs/atom = 58.25
Neighbor list builds = 1
Dangerous builds = 0

variable  natoms equal "count(all)"
variable      x0 equal "lx"
variable      y0 equal "ly"
variable      z0 equal "lz"
variable      v0 equal "vol"
variable   etot0 equal "etotal"
variable   ecoh0 equal "pe/v_natoms"

unfix 1
write_data ./../step2_elastic/data.in
System init for write_data ...

# ---------- For Equation of States -------------------------------------
change_box all x scale 0.94 y scale 0.94 z scale 0.94 remap
Changing box ...
  orthogonal box = (-0.034771143 -0.3463036 -0.17635742) to (9.7265791 10.038112 5.1119754)
  orthogonal box = (-0.034771143 -0.034771143 -0.17635742) to (9.7265791 9.7265791 5.1119754)
  orthogonal box = (-0.034771143 -0.034771143 -0.017707437) to (9.7265791 9.7265791 4.9533254)
run 1
WARNING: No fixes with time integration, atoms won't move (src/verlet.cpp:60)
Per MPI rank memory allocation (min/avg/max) = 8.507 | 8.507 | 8.509 Mbytes
   Step         PotEng         TotEng           Lx             Ly             Lz           Volume         Press           Pxx            Pyy            Pzz      
       193  -184.46245     -184.46245      9.7613503      9.7613503      4.9710329      473.65969      748308.05      784890.21      784890.21      675143.74    
       194  -184.46245     -184.46245      9.7613503      9.7613503      4.9710329      473.65969      748308.05      784890.21      784890.21      675143.74    
Loop time of 0.000168125 on 8 procs for 1 steps with 32 atoms

Performance: 513.903 ns/day, 0.047 hours/ns, 5947.955 timesteps/s, 190.335 katom-step/s
0.0% CPU use with 8 MPI tasks x 1 OpenMP threads

MPI task timing breakdown:
Section |  min time  |  avg time  |  max time  |%varavg| %total
---------------------------------------------------------------
Pair    | 0.000118   | 0.0001245  | 0.000137   |   0.0 | 74.05
Neigh   | 0          | 0          | 0          |   0.0 |  0.00
Comm    | 1.6e-05    | 2.8125e-05 | 3.5e-05    |   0.0 | 16.73
Output  | 1.1e-05    | 1.1375e-05 | 1.2e-05    |   0.0 |  6.77
Modify  | 0          | 3.75e-07   | 1e-06      |   0.0 |  0.22
Other   |            | 3.75e-06   |            |       |  2.23

Nlocal:              4 ave           7 max           3 min
Histogram: 5 0 1 0 0 0 0 1 0 1
Nghost:            306 ave         307 max         303 min
Histogram: 1 0 1 0 0 0 0 1 0 5
Neighs:          138.5 ave         245 max          96 min
Histogram: 5 0 1 0 0 0 0 1 0 1
FullNghs:          277 ave         493 max         205 min
Histogram: 5 0 1 0 0 0 0 1 0 1

Total # of neighbors = 2216
Ave neighs/atom = 69.25
Neighbor list builds = 0
Dangerous builds = 0
print "# Lattice constant (Angstroms), Volume (Angstrom), Total energy (eV), Cohesive energy (eV/atom)" file lattice_cohesive_energy.txt screen no


# Loop over lattice constants
variable i loop 49 # Number of steps
label loop

change_box all x scale 1.0025 y scale 1.0025 z scale 1.0025 remap
Changing box ...
  orthogonal box = (-0.046972831 -0.034771143 -0.017707437) to (9.7387808 9.7265791 4.9533254)
  orthogonal box = (-0.046972831 -0.046972831 -0.017707437) to (9.7387808 9.7387808 4.9533254)
  orthogonal box = (-0.046972831 -0.046972831 -0.023921228) to (9.7387808 9.7387808 4.9595392)

run 1
WARNING: No fixes with time integration, atoms won't move (src/verlet.cpp:60)
Per MPI rank memory allocation (min/avg/max) = 8.507 | 8.507 | 8.509 Mbytes
   Step         PotEng         TotEng           Lx             Ly             Lz           Volume         Press           Pxx            Pyy            Pzz      
       194  -186.07741     -186.07741      9.7857537      9.7857537      4.9834605      477.22103      705046.54      741035.29      741035.29      633069.05    
       195  -186.07741     -186.07741      9.7857537      9.7857537      4.9834605      477.22103      705046.54      741035.29      741035.29      633069.05    
Loop time of 0.000229625 on 8 procs for 1 steps with 32 atoms

Performance: 376.266 ns/day, 0.064 hours/ns, 4354.927 timesteps/s, 139.358 katom-step/s
0.0% CPU use with 8 MPI tasks x 1 OpenMP threads

MPI task timing breakdown:
Section |  min time  |  avg time  |  max time  |%varavg| %total
---------------------------------------------------------------
Pair    | 0.000129   | 0.00014075 | 0.000162   |   0.0 | 61.30
Neigh   | 0          | 0          | 0          |   0.0 |  0.00
Comm    | 2.3e-05    | 4.3e-05    | 5.4e-05    |   0.0 | 18.73
Output  | 3.1e-05    | 3.3e-05    | 3.7e-05    |   0.0 | 14.37
Modify  | 0          | 1.25e-07   | 1e-06      |   0.0 |  0.05
Other   |            | 1.275e-05  |            |       |  5.55

Nlocal:              4 ave           6 max           3 min
Histogram: 4 0 0 2 0 0 0 0 0 2
Nghost:            306 ave         307 max         304 min
Histogram: 2 0 0 0 0 0 2 0 0 4
Neighs:          138.5 ave         215 max          96 min
Histogram: 3 1 0 2 0 0 0 0 0 2
FullNghs:          277 ave         421 max         205 min
Histogram: 4 0 0 2 0 0 0 0 0 2

Total # of neighbors = 2216
Ave neighs/atom = 69.25
Neighbor list builds = 0
Dangerous builds = 0
variable  natoms equal "count(all)"
variable xlength equal "lx"
variable  volume equal "vol"
variable  etotal equal "etotal"
variable    ecoh equal "pe/v_natoms"
print "${xlength}, ${volume}, ${etotal}, ${ecoh}" append lattice_cohesive_energy.txt screen no

next i
jump SELF loop

change_box all x scale 1.0025 y scale 1.0025 z scale 1.0025 remap
Changing box ...
  orthogonal box = (-0.059205023 -0.046972831 -0.023921228) to (9.751013 9.7387808 4.9595392)
  orthogonal box = (-0.059205023 -0.059205023 -0.023921228) to (9.751013 9.751013 4.9595392)
  orthogonal box = (-0.059205023 -0.059205023 -0.030150554) to (9.751013 9.751013 4.9657686)

run 1
WARNING: No fixes with time integration, atoms won't move (src/verlet.cpp:60)
Per MPI rank memory allocation (min/avg/max) = 8.507 | 8.507 | 8.509 Mbytes
   Step         PotEng         TotEng           Lx             Ly             Lz           Volume         Press           Pxx            Pyy            Pzz      
       195  -187.6091      -187.6091       9.810218       9.810218       4.9959191      480.80914      663087.95      698477.97      698477.97      592307.92    
       196  -187.6091      -187.6091       9.810218       9.810218       4.9959191      480.80914      663087.95      698477.97      698477.97      592307.92    
Loop time of 0.000259125 on 8 procs for 1 steps with 32 atoms

Performance: 333.430 ns/day, 0.072 hours/ns, 3859.141 timesteps/s, 123.493 katom-step/s
0.0% CPU use with 8 MPI tasks x 1 OpenMP threads

MPI task timing breakdown:
Section |  min time  |  avg time  |  max time  |%varavg| %total
---------------------------------------------------------------
Pair    | 0.000151   | 0.00017288 | 0.000207   |   0.0 | 66.71
Neigh   | 0          | 0          | 0          |   0.0 |  0.00
Comm    | 2e-05      | 5.475e-05  | 7.7e-05    |   0.0 | 21.13
Output  | 1.5e-05    | 1.775e-05  | 2.6e-05    |   0.0 |  6.85
Modify  | 0          | 2.5e-07    | 1e-06      |   0.0 |  0.10
Other   |            | 1.35e-05   |            |       |  5.21

Nlocal:              4 ave           6 max           3 min
Histogram: 4 0 0 2 0 0 0 0 0 2
Nghost:            306 ave         307 max         304 min
Histogram: 2 0 0 0 0 0 2 0 0 4
Neighs:          138.5 ave         215 max          96 min
Histogram: 3 1 0 2 0 0 0 0 0 2
FullNghs:          277 ave         421 max         205 min
Histogram: 4 0 0 2 0 0 0 0 0 2

Total # of neighbors = 2216
Ave neighs/atom = 69.25
Neighbor list builds = 0
Dangerous builds = 0
variable  natoms equal "count(all)"
variable xlength equal "lx"
variable  volume equal "vol"
variable  etotal equal "etotal"
variable    ecoh equal "pe/v_natoms"
print "${xlength}, ${volume}, ${etotal}, ${ecoh}" append lattice_cohesive_energy.txt screen no

next i
jump SELF loop

change_box all x scale 1.0025 y scale 1.0025 z scale 1.0025 remap
Changing box ...
  orthogonal box = (-0.071467796 -0.059205023 -0.030150554) to (9.7632758 9.751013 4.9657686)
  orthogonal box = (-0.071467796 -0.071467796 -0.030150554) to (9.7632758 9.7632758 4.9657686)
  orthogonal box = (-0.071467796 -0.071467796 -0.036395453) to (9.7632758 9.7632758 4.9720135)

run 1
WARNING: No fixes with time integration, atoms won't move (src/verlet.cpp:60)
Per MPI rank memory allocation (min/avg/max) = 8.507 | 8.507 | 8.509 Mbytes
   Step         PotEng         TotEng           Lx             Ly             Lz           Volume         Press           Pxx            Pyy            Pzz      
       196  -189.05907     -189.05907      9.8347436      9.8347436      5.0084089      484.42424      622402.7       657189.3       657189.3       552829.49    
       197  -189.05907     -189.05907      9.8347436      9.8347436      5.0084089      484.42424      622402.7       657189.3       657189.3       552829.49    
Loop time of 0.000283125 on 8 procs for 1 steps with 32 atoms

Performance: 305.166 ns/day, 0.079 hours/ns, 3532.009 timesteps/s, 113.024 katom-step/s
0.0% CPU use with 8 MPI tasks x 1 OpenMP threads

MPI task timing breakdown:
Section |  min time  |  avg time  |  max time  |%varavg| %total
---------------------------------------------------------------
Pair    | 0.000165   | 0.00018813 | 0.000221   |   0.0 | 66.45
Neigh   | 0          | 0          | 0          |   0.0 |  0.00
Comm    | 3.2e-05    | 6.5875e-05 | 9.1e-05    |   0.0 | 23.27
Output  | 1.7e-05    | 1.9375e-05 | 2.2e-05    |   0.0 |  6.84
Modify  | 0          | 0          | 0          |   0.0 |  0.00
Other   |            | 9.75e-06   |            |       |  3.44

Nlocal:              4 ave           6 max           3 min
Histogram: 4 0 0 2 0 0 0 0 0 2
Nghost:            306 ave         307 max         304 min
Histogram: 2 0 0 0 0 0 2 0 0 4
Neighs:          138.5 ave         215 max          96 min
Histogram: 3 1 0 2 0 0 0 0 0 2
FullNghs:          277 ave         421 max         205 min
Histogram: 4 0 0 2 0 0 0 0 0 2

Total # of neighbors = 2216
Ave neighs/atom = 69.25
Neighbor list builds = 0
Dangerous builds = 0
variable  natoms equal "count(all)"
variable xlength equal "lx"
variable  volume equal "vol"
variable  etotal equal "etotal"
variable    ecoh equal "pe/v_natoms"
print "${xlength}, ${volume}, ${etotal}, ${ecoh}" append lattice_cohesive_energy.txt screen no

next i
jump SELF loop

change_box all x scale 1.0025 y scale 1.0025 z scale 1.0025 remap
Changing box ...
  orthogonal box = (-0.083761225 -0.071467796 -0.036395453) to (9.7755692 9.7632758 4.9720135)
  orthogonal box = (-0.083761225 -0.083761225 -0.036395453) to (9.7755692 9.7755692 4.9720135)
  orthogonal box = (-0.083761225 -0.083761225 -0.042655964) to (9.7755692 9.7755692 4.978274)

run 1
WARNING: No fixes with time integration, atoms won't move (src/verlet.cpp:60)
Per MPI rank memory allocation (min/avg/max) = 8.507 | 8.507 | 8.509 Mbytes
   Step         PotEng         TotEng           Lx             Ly             Lz           Volume         Press           Pxx            Pyy            Pzz      
       197  -190.42888     -190.42888      9.8593305      9.8593305      5.0209299      488.06651      582961.57      617140.65      617140.65      514603.42    
       198  -190.42888     -190.42888      9.8593305      9.8593305      5.0209299      488.06651      582961.57      617140.65      617140.65      514603.42    
Loop time of 0.000295125 on 8 procs for 1 steps with 32 atoms

Performance: 292.757 ns/day, 0.082 hours/ns, 3388.395 timesteps/s, 108.429 katom-step/s
0.0% CPU use with 8 MPI tasks x 1 OpenMP threads

MPI task timing breakdown:
Section |  min time  |  avg time  |  max time  |%varavg| %total
---------------------------------------------------------------
Pair    | 0.000218   | 0.00023025 | 0.000244   |   0.0 | 78.02
Neigh   | 0          | 0          | 0          |   0.0 |  0.00
Comm    | 2.3e-05    | 3.725e-05  | 4.9e-05    |   0.0 | 12.62
Output  | 1.7e-05    | 1.8875e-05 | 2.1e-05    |   0.0 |  6.40
Modify  | 0          | 0          | 0          |   0.0 |  0.00
Other   |            | 8.75e-06   |            |       |  2.96

Nlocal:              4 ave           6 max           3 min
Histogram: 4 0 0 2 0 0 0 0 0 2
Nghost:            306 ave         307 max         304 min
Histogram: 2 0 0 0 0 0 2 0 0 4
Neighs:          134.5 ave         205 max          94 min
Histogram: 3 1 0 2 0 0 0 0 0 2
FullNghs:          269 ave         409 max         201 min
Histogram: 4 0 0 2 0 0 0 0 0 2

Total # of neighbors = 2152
Ave neighs/atom = 67.25
Neighbor list builds = 0
Dangerous builds = 0
variable  natoms equal "count(all)"
variable xlength equal "lx"
variable  volume equal "vol"
variable  etotal equal "etotal"
variable    ecoh equal "pe/v_natoms"
print "${xlength}, ${volume}, ${etotal}, ${ecoh}" append lattice_cohesive_energy.txt screen no

next i
jump SELF loop

change_box all x scale 1.0025 y scale 1.0025 z scale 1.0025 remap
Changing box ...
  orthogonal box = (-0.096085388 -0.083761225 -0.042655964) to (9.7878934 9.7755692 4.978274)
  orthogonal box = (-0.096085388 -0.096085388 -0.042655964) to (9.7878934 9.7878934 4.978274)
  orthogonal box = (-0.096085388 -0.096085388 -0.048932126) to (9.7878934 9.7878934 4.9845501)

run 1
WARNING: No fixes with time integration, atoms won't move (src/verlet.cpp:60)
Per MPI rank memory allocation (min/avg/max) = 8.507 | 8.507 | 8.509 Mbytes
   Step         PotEng         TotEng           Lx             Ly             Lz           Volume         Press           Pxx            Pyy            Pzz      
       198  -191.72004     -191.72004      9.8839788      9.8839788      5.0334823      491.73617      544736         578303.98      578303.98      477600.04    
       199  -191.72004     -191.72004      9.8839788      9.8839788      5.0334823      491.73617      544736         578303.98      578303.98      477600.04    
Loop time of 0.00027575 on 8 procs for 1 steps with 32 atoms

Performance: 313.327 ns/day, 0.077 hours/ns, 3626.473 timesteps/s, 116.047 katom-step/s
0.0% CPU use with 8 MPI tasks x 1 OpenMP threads

MPI task timing breakdown:
Section |  min time  |  avg time  |  max time  |%varavg| %total
---------------------------------------------------------------
Pair    | 0.000174   | 0.000202   | 0.000226   |   0.0 | 73.25
Neigh   | 0          | 0          | 0          |   0.0 |  0.00
Comm    | 2.3e-05    | 4.7375e-05 | 7.6e-05    |   0.0 | 17.18
Output  | 1.6e-05    | 1.775e-05  | 2e-05      |   0.0 |  6.44
Modify  | 0          | 1.25e-07   | 1e-06      |   0.0 |  0.05
Other   |            | 8.5e-06    |            |       |  3.08

Nlocal:              4 ave           6 max           3 min
Histogram: 4 0 0 2 0 0 0 0 0 2
Nghost:            306 ave         307 max         304 min
Histogram: 2 0 0 0 0 0 2 0 0 4
Neighs:          134.5 ave         205 max          94 min
Histogram: 3 1 0 2 0 0 0 0 0 2
FullNghs:          269 ave         409 max         201 min
Histogram: 4 0 0 2 0 0 0 0 0 2

Total # of neighbors = 2152
Ave neighs/atom = 67.25
Neighbor list builds = 0
Dangerous builds = 0
variable  natoms equal "count(all)"
variable xlength equal "lx"
variable  volume equal "vol"
variable  etotal equal "etotal"
variable    ecoh equal "pe/v_natoms"
print "${xlength}, ${volume}, ${etotal}, ${ecoh}" append lattice_cohesive_energy.txt screen no

next i
jump SELF loop

change_box all x scale 1.0025 y scale 1.0025 z scale 1.0025 remap
Changing box ...
  orthogonal box = (-0.10844036 -0.096085388 -0.048932126) to (9.8002484 9.7878934 4.9845501)
  orthogonal box = (-0.10844036 -0.10844036 -0.048932126) to (9.8002484 9.8002484 4.9845501)
  orthogonal box = (-0.10844036 -0.10844036 -0.055223979) to (9.8002484 9.8002484 4.990842)

run 1
WARNING: No fixes with time integration, atoms won't move (src/verlet.cpp:60)
Per MPI rank memory allocation (min/avg/max) = 8.507 | 8.507 | 8.509 Mbytes
   Step         PotEng         TotEng           Lx             Ly             Lz           Volume         Press           Pxx            Pyy            Pzz      
       199  -192.93409     -192.93409      9.9086887      9.9086887      5.046066       495.43341      507697.93      540651.82      540651.82      441790.15    
       200  -192.93409     -192.93409      9.9086887      9.9086887      5.046066       495.43341      507697.93      540651.82      540651.82      441790.15    
Loop time of 0.00024825 on 8 procs for 1 steps with 32 atoms

Performance: 348.036 ns/day, 0.069 hours/ns, 4028.197 timesteps/s, 128.902 katom-step/s
0.0% CPU use with 8 MPI tasks x 1 OpenMP threads

MPI task timing breakdown:
Section |  min time  |  avg time  |  max time  |%varavg| %total
---------------------------------------------------------------
Pair    | 0.000152   | 0.00017875 | 0.000201   |   0.0 | 72.00
Neigh   | 0          | 0          | 0          |   0.0 |  0.00
Comm    | 2.1e-05    | 4.2875e-05 | 6.8e-05    |   0.0 | 17.27
Output  | 1.6e-05    | 1.8e-05    | 2e-05      |   0.0 |  7.25
Modify  | 0          | 3.75e-07   | 1e-06      |   0.0 |  0.15
Other   |            | 8.25e-06   |            |       |  3.32

Nlocal:              4 ave           6 max           3 min
Histogram: 3 0 0 3 0 0 1 0 0 1
Nghost:            274 ave         275 max         272 min
Histogram: 1 0 0 1 0 0 3 0 0 3
Neighs:          134.5 ave         205 max          94 min
Histogram: 3 0 0 2 1 0 1 0 0 1
FullNghs:          269 ave         401 max         201 min
Histogram: 3 0 0 3 0 0 1 0 0 1

Total # of neighbors = 2152
Ave neighs/atom = 67.25
Neighbor list builds = 0
Dangerous builds = 0
variable  natoms equal "count(all)"
variable xlength equal "lx"
variable  volume equal "vol"
variable  etotal equal "etotal"
variable    ecoh equal "pe/v_natoms"
print "${xlength}, ${volume}, ${etotal}, ${ecoh}" append lattice_cohesive_energy.txt screen no

next i
jump SELF loop

change_box all x scale 1.0025 y scale 1.0025 z scale 1.0025 remap
Changing box ...
  orthogonal box = (-0.12082622 -0.10844036 -0.055223979) to (9.8126342 9.8002484 4.990842)
  orthogonal box = (-0.12082622 -0.12082622 -0.055223979) to (9.8126342 9.8126342 4.990842)
  orthogonal box = (-0.12082622 -0.12082622 -0.061531561) to (9.8126342 9.8126342 4.9971496)

run 1
WARNING: No fixes with time integration, atoms won't move (src/verlet.cpp:60)
Per MPI rank memory allocation (min/avg/max) = 8.507 | 8.507 | 8.509 Mbytes
   Step         PotEng         TotEng           Lx             Ly             Lz           Volume         Press           Pxx            Pyy            Pzz      
       200  -194.0725      -194.0725       9.9334604      9.9334604      5.0586811      499.15846      471819.78      504157.08      504157.08      407145.19    
       201  -194.0725      -194.0725       9.9334604      9.9334604      5.0586811      499.15846      471819.78      504157.08      504157.08      407145.19    
Loop time of 0.000255625 on 8 procs for 1 steps with 32 atoms

Performance: 337.995 ns/day, 0.071 hours/ns, 3911.980 timesteps/s, 125.183 katom-step/s
0.0% CPU use with 8 MPI tasks x 1 OpenMP threads

MPI task timing breakdown:
Section |  min time  |  avg time  |  max time  |%varavg| %total
---------------------------------------------------------------
Pair    | 0.000157   | 0.00018138 | 0.000201   |   0.0 | 70.95
Neigh   | 0          | 0          | 0          |   0.0 |  0.00
Comm    | 2e-05      | 3.9875e-05 | 6.3e-05    |   0.0 | 15.60
Output  | 1.6e-05    | 1.825e-05  | 2e-05      |   0.0 |  7.14
Modify  | 0          | 2.5e-07    | 1e-06      |   0.0 |  0.10
Other   |            | 1.588e-05  |            |       |  6.21

Nlocal:              4 ave           6 max           3 min
Histogram: 3 0 0 3 0 0 1 0 0 1
Nghost:            274 ave         275 max         272 min
Histogram: 1 0 0 1 0 0 3 0 0 3
Neighs:          134.5 ave         205 max          94 min
Histogram: 3 0 0 2 1 0 1 0 0 1
FullNghs:          269 ave         401 max         201 min
Histogram: 3 0 0 3 0 0 1 0 0 1

Total # of neighbors = 2152
Ave neighs/atom = 67.25
Neighbor list builds = 0
Dangerous builds = 0
variable  natoms equal "count(all)"
variable xlength equal "lx"
variable  volume equal "vol"
variable  etotal equal "etotal"
variable    ecoh equal "pe/v_natoms"
print "${xlength}, ${volume}, ${etotal}, ${ecoh}" append lattice_cohesive_energy.txt screen no

next i
jump SELF loop

change_box all x scale 1.0025 y scale 1.0025 z scale 1.0025 remap
Changing box ...
  orthogonal box = (-0.13324305 -0.12082622 -0.061531561) to (9.825051 9.8126342 4.9971496)
  orthogonal box = (-0.13324305 -0.13324305 -0.061531561) to (9.825051 9.825051 4.9971496)
  orthogonal box = (-0.13324305 -0.13324305 -0.067854913) to (9.825051 9.825051 5.0034729)

run 1
WARNING: No fixes with time integration, atoms won't move (src/verlet.cpp:60)
Per MPI rank memory allocation (min/avg/max) = 8.507 | 8.507 | 8.509 Mbytes
   Step         PotEng         TotEng           Lx             Ly             Lz           Volume         Press           Pxx            Pyy            Pzz      
       201  -195.13676     -195.13676      9.9582941      9.9582941      5.0713278      502.91152      437074.53      468793.24      468793.24      373637.1     
       202  -195.13676     -195.13676      9.9582941      9.9582941      5.0713278      502.91152      437074.53      468793.24      468793.24      373637.1     
Loop time of 0.0002485 on 8 procs for 1 steps with 32 atoms

Performance: 347.686 ns/day, 0.069 hours/ns, 4024.145 timesteps/s, 128.773 katom-step/s
0.0% CPU use with 8 MPI tasks x 1 OpenMP threads

MPI task timing breakdown:
Section |  min time  |  avg time  |  max time  |%varavg| %total
---------------------------------------------------------------
Pair    | 0.000154   | 0.00018113 | 0.000202   |   0.0 | 72.89
Neigh   | 0          | 0          | 0          |   0.0 |  0.00
Comm    | 2e-05      | 4.1125e-05 | 6.7e-05    |   0.0 | 16.55
Output  | 1.6e-05    | 1.75e-05   | 1.9e-05    |   0.0 |  7.04
Modify  | 0          | 1.25e-07   | 1e-06      |   0.0 |  0.05
Other   |            | 8.625e-06  |            |       |  3.47

Nlocal:              4 ave           6 max           3 min
Histogram: 3 0 0 3 0 0 1 0 0 1
Nghost:            274 ave         275 max         272 min
Histogram: 1 0 0 1 0 0 3 0 0 3
Neighs:          134.5 ave         205 max          94 min
Histogram: 3 0 0 2 1 0 1 0 0 1
FullNghs:          269 ave         401 max         201 min
Histogram: 3 0 0 3 0 0 1 0 0 1

Total # of neighbors = 2152
Ave neighs/atom = 67.25
Neighbor list builds = 0
Dangerous builds = 0
variable  natoms equal "count(all)"
variable xlength equal "lx"
variable  volume equal "vol"
variable  etotal equal "etotal"
variable    ecoh equal "pe/v_natoms"
print "${xlength}, ${volume}, ${etotal}, ${ecoh}" append lattice_cohesive_energy.txt screen no

next i
jump SELF loop

change_box all x scale 1.0025 y scale 1.0025 z scale 1.0025 remap
Changing box ...
  orthogonal box = (-0.14569092 -0.13324305 -0.067854913) to (9.8374989 9.825051 5.0034729)
  orthogonal box = (-0.14569092 -0.14569092 -0.067854913) to (9.8374989 9.8374989 5.0034729)
  orthogonal box = (-0.14569092 -0.14569092 -0.074194073) to (9.8374989 9.8374989 5.0098121)

run 1
WARNING: No fixes with time integration, atoms won't move (src/verlet.cpp:60)
Per MPI rank memory allocation (min/avg/max) = 8.507 | 8.507 | 8.509 Mbytes
   Step         PotEng         TotEng           Lx             Ly             Lz           Volume         Press           Pxx            Pyy            Pzz      
       202  -196.12833     -196.12833      9.9831898      9.9831898      5.0840061      506.69279      403435.66      434534.29      434534.29      341238.39    
       203  -196.12833     -196.12833      9.9831898      9.9831898      5.0840061      506.69279      403435.66      434534.29      434534.29      341238.39    
Loop time of 0.000246375 on 8 procs for 1 steps with 32 atoms

Performance: 350.685 ns/day, 0.068 hours/ns, 4058.853 timesteps/s, 129.883 katom-step/s
0.0% CPU use with 8 MPI tasks x 1 OpenMP threads

MPI task timing breakdown:
Section |  min time  |  avg time  |  max time  |%varavg| %total
---------------------------------------------------------------
Pair    | 0.000157   | 0.00018212 | 0.0002     |   0.0 | 73.92
Neigh   | 0          | 0          | 0          |   0.0 |  0.00
Comm    | 2.1e-05    | 3.8875e-05 | 6.4e-05    |   0.0 | 15.78
Output  | 1.5e-05    | 1.7e-05    | 1.9e-05    |   0.0 |  6.90
Modify  | 0          | 0          | 0          |   0.0 |  0.00
Other   |            | 8.375e-06  |            |       |  3.40

Nlocal:              4 ave           6 max           3 min
Histogram: 3 0 0 3 0 0 1 0 0 1
Nghost:            274 ave         275 max         272 min
Histogram: 1 0 0 1 0 0 3 0 0 3
Neighs:          130.5 ave         195 max          92 min
Histogram: 3 0 0 2 0 1 1 0 0 1
FullNghs:          261 ave         381 max         197 min
Histogram: 3 0 0 3 0 0 1 0 0 1

Total # of neighbors = 2088
Ave neighs/atom = 65.25
Neighbor list builds = 0
Dangerous builds = 0
variable  natoms equal "count(all)"
variable xlength equal "lx"
variable  volume equal "vol"
variable  etotal equal "etotal"
variable    ecoh equal "pe/v_natoms"
print "${xlength}, ${volume}, ${etotal}, ${ecoh}" append lattice_cohesive_energy.txt screen no

next i
jump SELF loop

change_box all x scale 1.0025 y scale 1.0025 z scale 1.0025 remap
Changing box ...
  orthogonal box = (-0.1581699 -0.14569092 -0.074194073) to (9.8499779 9.8374989 5.0098121)
  orthogonal box = (-0.1581699 -0.1581699 -0.074194073) to (9.8499779 9.8499779 5.0098121)
  orthogonal box = (-0.1581699 -0.1581699 -0.08054908) to (9.8499779 9.8499779 5.0161671)

run 1
WARNING: No fixes with time integration, atoms won't move (src/verlet.cpp:60)
Per MPI rank memory allocation (min/avg/max) = 8.507 | 8.507 | 8.509 Mbytes
   Step         PotEng         TotEng           Lx             Ly             Lz           Volume         Press           Pxx            Pyy            Pzz      
       203  -197.04866     -197.04866      10.008148      10.008148      5.0967162      510.5025       370877.08      401354.58      401354.58      309922.07    
       204  -197.04866     -197.04866      10.008148      10.008148      5.0967162      510.5025       370877.08      401354.58      401354.58      309922.07    
Loop time of 0.000249375 on 8 procs for 1 steps with 32 atoms

Performance: 346.466 ns/day, 0.069 hours/ns, 4010.025 timesteps/s, 128.321 katom-step/s
0.0% CPU use with 8 MPI tasks x 1 OpenMP threads

MPI task timing breakdown:
Section |  min time  |  avg time  |  max time  |%varavg| %total
---------------------------------------------------------------
Pair    | 0.000153   | 0.00018    | 0.000201   |   0.0 | 72.18
Neigh   | 0          | 0          | 0          |   0.0 |  0.00
Comm    | 2e-05      | 4.225e-05  | 6.9e-05    |   0.0 | 16.94
Output  | 1.6e-05    | 1.7875e-05 | 2e-05      |   0.0 |  7.17
Modify  | 0          | 3.75e-07   | 1e-06      |   0.0 |  0.15
Other   |            | 8.875e-06  |            |       |  3.56

Nlocal:              4 ave           6 max           3 min
Histogram: 3 0 0 3 0 0 1 0 0 1
Nghost:            274 ave         275 max         272 min
Histogram: 1 0 0 1 0 0 3 0 0 3
Neighs:          126.5 ave         189 max          90 min
Histogram: 3 0 0 2 1 0 1 0 0 1
FullNghs:          253 ave         369 max         193 min
Histogram: 3 0 0 3 0 0 1 0 0 1

Total # of neighbors = 2024
Ave neighs/atom = 63.25
Neighbor list builds = 0
Dangerous builds = 0
variable  natoms equal "count(all)"
variable xlength equal "lx"
variable  volume equal "vol"
variable  etotal equal "etotal"
variable    ecoh equal "pe/v_natoms"
print "${xlength}, ${volume}, ${etotal}, ${ecoh}" append lattice_cohesive_energy.txt screen no

next i
jump SELF loop

change_box all x scale 1.0025 y scale 1.0025 z scale 1.0025 remap
Changing box ...
  orthogonal box = (-0.17068009 -0.1581699 -0.08054908) to (9.8624881 9.8499779 5.0161671)
  orthogonal box = (-0.17068009 -0.17068009 -0.08054908) to (9.8624881 9.8624881 5.0161671)
  orthogonal box = (-0.17068009 -0.17068009 -0.086919975) to (9.8624881 9.8624881 5.022538)

run 1
WARNING: No fixes with time integration, atoms won't move (src/verlet.cpp:60)
Per MPI rank memory allocation (min/avg/max) = 8.507 | 8.507 | 8.509 Mbytes
   Step         PotEng         TotEng           Lx             Ly             Lz           Volume         Press           Pxx            Pyy            Pzz      
       204  -197.89919     -197.89919      10.033168      10.033168      5.109458       514.34084      339373.3       369229.08      369229.08      279661.73    
       205  -197.89919     -197.89919      10.033168      10.033168      5.109458       514.34084      339373.3       369229.08      369229.08      279661.73    
Loop time of 0.000244 on 8 procs for 1 steps with 32 atoms

Performance: 354.098 ns/day, 0.068 hours/ns, 4098.361 timesteps/s, 131.148 katom-step/s
0.0% CPU use with 8 MPI tasks x 1 OpenMP threads

MPI task timing breakdown:
Section |  min time  |  avg time  |  max time  |%varavg| %total
---------------------------------------------------------------
Pair    | 0.000149   | 0.00017675 | 0.000197   |   0.0 | 72.44
Neigh   | 0          | 0          | 0          |   0.0 |  0.00
Comm    | 2.2e-05    | 4.1e-05    | 6.8e-05    |   0.0 | 16.80
Output  | 1.6e-05    | 1.775e-05  | 2e-05      |   0.0 |  7.27
Modify  | 0          | 2.5e-07    | 1e-06      |   0.0 |  0.10
Other   |            | 8.25e-06   |            |       |  3.38

Nlocal:              4 ave           6 max           3 min
Histogram: 3 0 0 3 0 0 1 0 0 1
Nghost:            274 ave         275 max         272 min
Histogram: 1 0 0 1 0 0 3 0 0 3
Neighs:          126.5 ave         189 max          90 min
Histogram: 3 0 0 2 1 0 1 0 0 1
FullNghs:          253 ave         369 max         193 min
Histogram: 3 0 0 3 0 0 1 0 0 1

Total # of neighbors = 2024
Ave neighs/atom = 63.25
Neighbor list builds = 0
Dangerous builds = 0
variable  natoms equal "count(all)"
variable xlength equal "lx"
variable  volume equal "vol"
variable  etotal equal "etotal"
variable    ecoh equal "pe/v_natoms"
print "${xlength}, ${volume}, ${etotal}, ${ecoh}" append lattice_cohesive_energy.txt screen no

next i
jump SELF loop

change_box all x scale 1.0025 y scale 1.0025 z scale 1.0025 remap
Changing box ...
  orthogonal box = (-0.18322155 -0.17068009 -0.086919975) to (9.8750295 9.8624881 5.022538)
  orthogonal box = (-0.18322155 -0.18322155 -0.086919975) to (9.8750295 9.8750295 5.022538)
  orthogonal box = (-0.18322155 -0.18322155 -0.093306798) to (9.8750295 9.8750295 5.0289248)

run 1
WARNING: No fixes with time integration, atoms won't move (src/verlet.cpp:60)
Per MPI rank memory allocation (min/avg/max) = 8.507 | 8.507 | 8.509 Mbytes
   Step         PotEng         TotEng           Lx             Ly             Lz           Volume         Press           Pxx            Pyy            Pzz      
       205  -198.68131     -198.68131      10.058251      10.058251      5.1222316      518.20805      308899.22      338133.13      338133.13      250431.41    
       206  -198.68131     -198.68131      10.058251      10.058251      5.1222316      518.20805      308899.22      338133.13      338133.13      250431.41    
Loop time of 0.000249375 on 8 procs for 1 steps with 32 atoms

Performance: 346.466 ns/day, 0.069 hours/ns, 4010.025 timesteps/s, 128.321 katom-step/s
0.0% CPU use with 8 MPI tasks x 1 OpenMP threads

MPI task timing breakdown:
Section |  min time  |  avg time  |  max time  |%varavg| %total
---------------------------------------------------------------
Pair    | 0.000158   | 0.00018275 | 0.000202   |   0.0 | 73.28
Neigh   | 0          | 0          | 0          |   0.0 |  0.00
Comm    | 2.1e-05    | 4e-05      | 6.5e-05    |   0.0 | 16.04
Output  | 1.7e-05    | 1.825e-05  | 2e-05      |   0.0 |  7.32
Modify  | 0          | 1.25e-07   | 1e-06      |   0.0 |  0.05
Other   |            | 8.25e-06   |            |       |  3.31

Nlocal:              4 ave           6 max           3 min
Histogram: 3 0 0 3 0 0 1 0 0 1
Nghost:            274 ave         275 max         272 min
Histogram: 1 0 0 1 0 0 3 0 0 3
Neighs:          126.5 ave         189 max          90 min
Histogram: 3 0 0 2 1 0 1 0 0 1
FullNghs:          253 ave         369 max         193 min
Histogram: 3 0 0 3 0 0 1 0 0 1

Total # of neighbors = 2024
Ave neighs/atom = 63.25
Neighbor list builds = 0
Dangerous builds = 0
variable  natoms equal "count(all)"
variable xlength equal "lx"
variable  volume equal "vol"
variable  etotal equal "etotal"
variable    ecoh equal "pe/v_natoms"
print "${xlength}, ${volume}, ${etotal}, ${ecoh}" append lattice_cohesive_energy.txt screen no

next i
jump SELF loop

change_box all x scale 1.0025 y scale 1.0025 z scale 1.0025 remap
Changing box ...
  orthogonal box = (-0.19579436 -0.18322155 -0.093306798) to (9.8876024 9.8750295 5.0289248)
  orthogonal box = (-0.19579436 -0.19579436 -0.093306798) to (9.8876024 9.8876024 5.0289248)
  orthogonal box = (-0.19579436 -0.19579436 -0.099709587) to (9.8876024 9.8876024 5.0353276)

run 1
WARNING: No fixes with time integration, atoms won't move (src/verlet.cpp:60)
Per MPI rank memory allocation (min/avg/max) = 8.507 | 8.507 | 8.509 Mbytes
   Step         PotEng         TotEng           Lx             Ly             Lz           Volume         Press           Pxx            Pyy            Pzz      
       206  -199.39643     -199.39643      10.083397      10.083397      5.1350372      522.10434      279430.25      308042.52      308042.52      222205.72    
       207  -199.39643     -199.39643      10.083397      10.083397      5.1350372      522.10434      279430.25      308042.52      308042.52      222205.72    
Loop time of 0.000251375 on 8 procs for 1 steps with 32 atoms

Performance: 343.710 ns/day, 0.070 hours/ns, 3978.120 timesteps/s, 127.300 katom-step/s
0.0% CPU use with 8 MPI tasks x 1 OpenMP threads

MPI task timing breakdown:
Section |  min time  |  avg time  |  max time  |%varavg| %total
---------------------------------------------------------------
Pair    | 0.00015    | 0.00017763 | 0.000199   |   0.0 | 70.66
Neigh   | 0          | 0          | 0          |   0.0 |  0.00
Comm    | 2.1e-05    | 4.175e-05  | 6.9e-05    |   0.0 | 16.61
Output  | 1.6e-05    | 1.875e-05  | 2.5e-05    |   0.0 |  7.46
Modify  | 0          | 2.5e-07    | 1e-06      |   0.0 |  0.10
Other   |            | 1.3e-05    |            |       |  5.17

Nlocal:              4 ave           6 max           3 min
Histogram: 3 0 0 3 0 0 1 0 0 1
Nghost:            274 ave         275 max         272 min
Histogram: 1 0 0 1 0 0 3 0 0 3
Neighs:          126.5 ave         189 max          90 min
Histogram: 3 0 0 2 1 0 1 0 0 1
FullNghs:          253 ave         369 max         193 min
Histogram: 3 0 0 3 0 0 1 0 0 1

Total # of neighbors = 2024
Ave neighs/atom = 63.25
Neighbor list builds = 0
Dangerous builds = 0
variable  natoms equal "count(all)"
variable xlength equal "lx"
variable  volume equal "vol"
variable  etotal equal "etotal"
variable    ecoh equal "pe/v_natoms"
print "${xlength}, ${volume}, ${etotal}, ${ecoh}" append lattice_cohesive_energy.txt screen no

next i
jump SELF loop

change_box all x scale 1.0025 y scale 1.0025 z scale 1.0025 remap
Changing box ...
  orthogonal box = (-0.20839861 -0.19579436 -0.099709587) to (9.9002066 9.8876024 5.0353276)
  orthogonal box = (-0.20839861 -0.20839861 -0.099709587) to (9.9002066 9.9002066 5.0353276)
  orthogonal box = (-0.20839861 -0.20839861 -0.10612838) to (9.9002066 9.9002066 5.0417464)

run 1
WARNING: No fixes with time integration, atoms won't move (src/verlet.cpp:60)
Per MPI rank memory allocation (min/avg/max) = 8.507 | 8.507 | 8.509 Mbytes
   Step         PotEng         TotEng           Lx             Ly             Lz           Volume         Press           Pxx            Pyy            Pzz      
       207  -200.04594     -200.04594      10.108605      10.108605      5.1478748      526.02992      250942.3       278933.59      278933.59      194959.73    
       208  -200.04594     -200.04594      10.108605      10.108605      5.1478748      526.02992      250942.3       278933.59      278933.59      194959.73    
Loop time of 0.000254375 on 8 procs for 1 steps with 32 atoms

Performance: 339.656 ns/day, 0.071 hours/ns, 3931.204 timesteps/s, 125.799 katom-step/s
0.0% CPU use with 8 MPI tasks x 1 OpenMP threads

MPI task timing breakdown:
Section |  min time  |  avg time  |  max time  |%varavg| %total
---------------------------------------------------------------
Pair    | 0.000157   | 0.00018487 | 0.000206   |   0.0 | 72.68
Neigh   | 0          | 0          | 0          |   0.0 |  0.00
Comm    | 2.1e-05    | 4.2e-05    | 6.9e-05    |   0.0 | 16.51
Output  | 1.7e-05    | 1.8625e-05 | 2.1e-05    |   0.0 |  7.32
Modify  | 0          | 1.25e-07   | 1e-06      |   0.0 |  0.05
Other   |            | 8.75e-06   |            |       |  3.44

Nlocal:              4 ave           6 max           3 min
Histogram: 3 0 0 3 0 0 1 0 0 1
Nghost:            274 ave         275 max         272 min
Histogram: 1 0 0 1 0 0 3 0 0 3
Neighs:          122.5 ave         183 max          88 min
Histogram: 3 0 0 2 1 0 1 0 0 1
FullNghs:          245 ave         357 max         189 min
Histogram: 3 0 0 3 0 0 1 0 0 1

Total # of neighbors = 1960
Ave neighs/atom = 61.25
Neighbor list builds = 0
Dangerous builds = 0
variable  natoms equal "count(all)"
variable xlength equal "lx"
variable  volume equal "vol"
variable  etotal equal "etotal"
variable    ecoh equal "pe/v_natoms"
print "${xlength}, ${volume}, ${etotal}, ${ecoh}" append lattice_cohesive_energy.txt screen no

next i
jump SELF loop

change_box all x scale 1.0025 y scale 1.0025 z scale 1.0025 remap
Changing box ...
  orthogonal box = (-0.22103436 -0.20839861 -0.10612838) to (9.9128424 9.9002066 5.0417464)
  orthogonal box = (-0.22103436 -0.22103436 -0.10612838) to (9.9128424 9.9128424 5.0417464)
  orthogonal box = (-0.22103436 -0.22103436 -0.11256323) to (9.9128424 9.9128424 5.0481812)

run 1
WARNING: No fixes with time integration, atoms won't move (src/verlet.cpp:60)
Per MPI rank memory allocation (min/avg/max) = 8.507 | 8.507 | 8.509 Mbytes
   Step         PotEng         TotEng           Lx             Ly             Lz           Volume         Press           Pxx            Pyy            Pzz      
       208  -200.63119     -200.63119      10.133877      10.133877      5.1607445      529.98501      223411.66      250782.98      250782.98      168669.03    
       209  -200.63119     -200.63119      10.133877      10.133877      5.1607445      529.98501      223411.66      250782.98      250782.98      168669.03    
Loop time of 0.000264625 on 8 procs for 1 steps with 32 atoms

Performance: 326.500 ns/day, 0.074 hours/ns, 3778.932 timesteps/s, 120.926 katom-step/s
738.1% CPU use with 8 MPI tasks x 1 OpenMP threads

MPI task timing breakdown:
Section |  min time  |  avg time  |  max time  |%varavg| %total
---------------------------------------------------------------
Pair    | 0.000187   | 0.000203   | 0.000218   |   0.0 | 76.71
Neigh   | 0          | 0          | 0          |   0.0 |  0.00
Comm    | 2.1e-05    | 3.4625e-05 | 5e-05      |   0.0 | 13.08
Output  | 1.6e-05    | 1.7875e-05 | 2.1e-05    |   0.0 |  6.75
Modify  | 0          | 2.5e-07    | 1e-06      |   0.0 |  0.09
Other   |            | 8.875e-06  |            |       |  3.35

Nlocal:              4 ave           6 max           3 min
Histogram: 3 0 0 3 0 0 1 0 0 1
Nghost:            274 ave         275 max         272 min
Histogram: 1 0 0 1 0 0 3 0 0 3
Neighs:          122.5 ave         183 max          88 min
Histogram: 3 0 0 2 1 0 1 0 0 1
FullNghs:          245 ave         357 max         189 min
Histogram: 3 0 0 3 0 0 1 0 0 1

Total # of neighbors = 1960
Ave neighs/atom = 61.25
Neighbor list builds = 0
Dangerous builds = 0
variable  natoms equal "count(all)"
variable xlength equal "lx"
variable  volume equal "vol"
variable  etotal equal "etotal"
variable    ecoh equal "pe/v_natoms"
print "${xlength}, ${volume}, ${etotal}, ${ecoh}" append lattice_cohesive_energy.txt screen no

next i
jump SELF loop

change_box all x scale 1.0025 y scale 1.0025 z scale 1.0025 remap
Changing box ...
  orthogonal box = (-0.23370171 -0.22103436 -0.11256323) to (9.9255097 9.9128424 5.0481812)
  orthogonal box = (-0.23370171 -0.23370171 -0.11256323) to (9.9255097 9.9255097 5.0481812)
  orthogonal box = (-0.23370171 -0.23370171 -0.11901416) to (9.9255097 9.9255097 5.0546322)

run 1
WARNING: No fixes with time integration, atoms won't move (src/verlet.cpp:60)
Per MPI rank memory allocation (min/avg/max) = 8.507 | 8.507 | 8.509 Mbytes
   Step         PotEng         TotEng           Lx             Ly             Lz           Volume         Press           Pxx            Pyy            Pzz      
       209  -201.15354     -201.15354      10.159211      10.159211      5.1736463      533.96985      196815.15      223567.89      223567.89      143309.66    
       210  -201.15354     -201.15354      10.159211      10.159211      5.1736463      533.96985      196815.15      223567.89      223567.89      143309.66    
Loop time of 0.000211 on 8 procs for 1 steps with 32 atoms

Performance: 409.479 ns/day, 0.059 hours/ns, 4739.336 timesteps/s, 151.659 katom-step/s
0.0% CPU use with 8 MPI tasks x 1 OpenMP threads

MPI task timing breakdown:
Section |  min time  |  avg time  |  max time  |%varavg| %total
---------------------------------------------------------------
Pair    | 0.000134   | 0.0001505  | 0.000167   |   0.0 | 71.33
Neigh   | 0          | 0          | 0          |   0.0 |  0.00
Comm    | 2e-05      | 3.4875e-05 | 5.1e-05    |   0.0 | 16.53
Output  | 1.6e-05    | 1.7375e-05 | 2e-05      |   0.0 |  8.23
Modify  | 0          | 2.5e-07    | 1e-06      |   0.0 |  0.12
Other   |            | 8e-06      |            |       |  3.79

Nlocal:              4 ave           6 max           3 min
Histogram: 3 0 0 3 0 0 1 0 0 1
Nghost:            274 ave         275 max         272 min
Histogram: 1 0 0 1 0 0 3 0 0 3
Neighs:          122.5 ave         183 max          88 min
Histogram: 3 0 0 2 1 0 1 0 0 1
FullNghs:          245 ave         357 max         189 min
Histogram: 3 0 0 3 0 0 1 0 0 1

Total # of neighbors = 1960
Ave neighs/atom = 61.25
Neighbor list builds = 0
Dangerous builds = 0
variable  natoms equal "count(all)"
variable xlength equal "lx"
variable  volume equal "vol"
variable  etotal equal "etotal"
variable    ecoh equal "pe/v_natoms"
print "${xlength}, ${volume}, ${etotal}, ${ecoh}" append lattice_cohesive_energy.txt screen no

next i
jump SELF loop

change_box all x scale 1.0025 y scale 1.0025 z scale 1.0025 remap
Changing box ...
  orthogonal box = (-0.24640072 -0.23370171 -0.11901416) to (9.9382087 9.9255097 5.0546322)
  orthogonal box = (-0.24640072 -0.24640072 -0.11901416) to (9.9382087 9.9382087 5.0546322)
  orthogonal box = (-0.24640072 -0.24640072 -0.12548122) to (9.9382087 9.9382087 5.0610992)

run 1
WARNING: No fixes with time integration, atoms won't move (src/verlet.cpp:60)
Per MPI rank memory allocation (min/avg/max) = 8.507 | 8.507 | 8.509 Mbytes
   Step         PotEng         TotEng           Lx             Ly             Lz           Volume         Press           Pxx            Pyy            Pzz      
       210  -201.61432     -201.61432      10.184609      10.184609      5.1865804      537.98464      171129.99      197265.9       197265.9       118858.18    
       211  -201.61432     -201.61432      10.184609      10.184609      5.1865804      537.98464      171129.99      197265.9       197265.9       118858.18    
Loop time of 0.0002205 on 8 procs for 1 steps with 32 atoms

Performance: 391.837 ns/day, 0.061 hours/ns, 4535.147 timesteps/s, 145.125 katom-step/s
0.0% CPU use with 8 MPI tasks x 1 OpenMP threads

MPI task timing breakdown:
Section |  min time  |  avg time  |  max time  |%varavg| %total
---------------------------------------------------------------
Pair    | 0.000141   | 0.000158   | 0.000175   |   0.0 | 71.66
Neigh   | 0          | 0          | 0          |   0.0 |  0.00
Comm    | 1.9e-05    | 3.6125e-05 | 5.3e-05    |   0.0 | 16.38
Output  | 1.7e-05    | 1.775e-05  | 2e-05      |   0.0 |  8.05
Modify  | 0          | 0          | 0          |   0.0 |  0.00
Other   |            | 8.625e-06  |            |       |  3.91

Nlocal:              4 ave           6 max           3 min
Histogram: 3 0 0 3 0 0 1 0 0 1
Nghost:            274 ave         275 max         272 min
Histogram: 1 0 0 1 0 0 3 0 0 3
Neighs:          118.5 ave         179 max          84 min
Histogram: 3 0 0 2 1 0 1 0 0 1
FullNghs:          237 ave         349 max         181 min
Histogram: 3 0 0 3 0 0 1 0 0 1

Total # of neighbors = 1896
Ave neighs/atom = 59.25
Neighbor list builds = 0
Dangerous builds = 0
variable  natoms equal "count(all)"
variable xlength equal "lx"
variable  volume equal "vol"
variable  etotal equal "etotal"
variable    ecoh equal "pe/v_natoms"
print "${xlength}, ${volume}, ${etotal}, ${ecoh}" append lattice_cohesive_energy.txt screen no

next i
jump SELF loop

change_box all x scale 1.0025 y scale 1.0025 z scale 1.0025 remap
Changing box ...
  orthogonal box = (-0.25913149 -0.24640072 -0.12548122) to (9.9509395 9.9382087 5.0610992)
  orthogonal box = (-0.25913149 -0.25913149 -0.12548122) to (9.9509395 9.9509395 5.0610992)
  orthogonal box = (-0.25913149 -0.25913149 -0.13196444) to (9.9509395 9.9509395 5.0675824)

run 1
WARNING: No fixes with time integration, atoms won't move (src/verlet.cpp:60)
Per MPI rank memory allocation (min/avg/max) = 8.507 | 8.507 | 8.509 Mbytes
   Step         PotEng         TotEng           Lx             Ly             Lz           Volume         Press           Pxx            Pyy            Pzz      
       211  -202.01484     -202.01484      10.210071      10.210071      5.1995469      542.02962      146333.86      171855         171855         95291.584    
       212  -202.01484     -202.01484      10.210071      10.210071      5.1995469      542.02962      146333.86      171855         171855         95291.584    
Loop time of 0.000256 on 8 procs for 1 steps with 32 atoms

Performance: 337.500 ns/day, 0.071 hours/ns, 3906.250 timesteps/s, 125.000 katom-step/s
0.0% CPU use with 8 MPI tasks x 1 OpenMP threads

MPI task timing breakdown:
Section |  min time  |  avg time  |  max time  |%varavg| %total
---------------------------------------------------------------
Pair    | 0.000128   | 0.00013837 | 0.000162   |   0.0 | 54.05
Neigh   | 0          | 0          | 0          |   0.0 |  0.00
Comm    | 1.8e-05    | 4.4375e-05 | 5.7e-05    |   0.0 | 17.33
Output  | 1.5e-05    | 1.725e-05  | 2.1e-05    |   0.0 |  6.74
Modify  | 0          | 1.25e-07   | 1e-06      |   0.0 |  0.05
Other   |            | 5.588e-05  |            |       | 21.83

Nlocal:              4 ave           6 max           3 min
Histogram: 3 0 0 3 0 0 1 0 0 1
Nghost:            274 ave         275 max         272 min
Histogram: 1 0 0 1 0 0 3 0 0 3
Neighs:          118.5 ave         179 max          84 min
Histogram: 3 0 0 2 1 0 1 0 0 1
FullNghs:          237 ave         349 max         181 min
Histogram: 3 0 0 3 0 0 1 0 0 1

Total # of neighbors = 1896
Ave neighs/atom = 59.25
Neighbor list builds = 0
Dangerous builds = 0
variable  natoms equal "count(all)"
variable xlength equal "lx"
variable  volume equal "vol"
variable  etotal equal "etotal"
variable    ecoh equal "pe/v_natoms"
print "${xlength}, ${volume}, ${etotal}, ${ecoh}" append lattice_cohesive_energy.txt screen no

next i
jump SELF loop

change_box all x scale 1.0025 y scale 1.0025 z scale 1.0025 remap
Changing box ...
  orthogonal box = (-0.27189407 -0.25913149 -0.13196444) to (9.9637021 9.9509395 5.0675824)
  orthogonal box = (-0.27189407 -0.27189407 -0.13196444) to (9.9637021 9.9637021 5.0675824)
  orthogonal box = (-0.27189407 -0.27189407 -0.13846387) to (9.9637021 9.9637021 5.0740819)

run 1
WARNING: No fixes with time integration, atoms won't move (src/verlet.cpp:60)
Per MPI rank memory allocation (min/avg/max) = 8.507 | 8.507 | 8.509 Mbytes
   Step         PotEng         TotEng           Lx             Ly             Lz           Volume         Press           Pxx            Pyy            Pzz      
       212  -202.35641     -202.35641      10.235596      10.235596      5.2125457      546.10501      122404.88      147313.65      147313.65      72587.347    
       213  -202.35641     -202.35641      10.235596      10.235596      5.2125457      546.10501      122404.88      147313.65      147313.65      72587.347    
Loop time of 0.000209375 on 8 procs for 1 steps with 32 atoms

Performance: 412.657 ns/day, 0.058 hours/ns, 4776.119 timesteps/s, 152.836 katom-step/s
0.0% CPU use with 8 MPI tasks x 1 OpenMP threads

MPI task timing breakdown:
Section |  min time  |  avg time  |  max time  |%varavg| %total
---------------------------------------------------------------
Pair    | 0.000123   | 0.00014063 | 0.000164   |   0.0 | 67.16
Neigh   | 0          | 0          | 0          |   0.0 |  0.00
Comm    | 1.9e-05    | 4.1875e-05 | 6e-05      |   0.0 | 20.00
Output  | 1.7e-05    | 1.8375e-05 | 2.1e-05    |   0.0 |  8.78
Modify  | 0          | 2.5e-07    | 1e-06      |   0.0 |  0.12
Other   |            | 8.25e-06   |            |       |  3.94

Nlocal:              4 ave           6 max           3 min
Histogram: 3 0 0 3 0 0 1 0 0 1
Nghost:            274 ave         275 max         272 min
Histogram: 1 0 0 1 0 0 3 0 0 3
Neighs:          116.5 ave         175 max          84 min
Histogram: 3 0 0 2 1 0 1 0 0 1
FullNghs:          233 ave         345 max         177 min
Histogram: 3 0 0 3 0 0 1 0 0 1

Total # of neighbors = 1864
Ave neighs/atom = 58.25
Neighbor list builds = 0
Dangerous builds = 0
variable  natoms equal "count(all)"
variable xlength equal "lx"
variable  volume equal "vol"
variable  etotal equal "etotal"
variable    ecoh equal "pe/v_natoms"
print "${xlength}, ${volume}, ${etotal}, ${ecoh}" append lattice_cohesive_energy.txt screen no

next i
jump SELF loop

change_box all x scale 1.0025 y scale 1.0025 z scale 1.0025 remap
Changing box ...
  orthogonal box = (-0.28468857 -0.27189407 -0.13846387) to (9.9764966 9.9637021 5.0740819)
  orthogonal box = (-0.28468857 -0.28468857 -0.13846387) to (9.9764966 9.9764966 5.0740819)
  orthogonal box = (-0.28468857 -0.28468857 -0.14497956) to (9.9764966 9.9764966 5.0805976)

run 1
WARNING: No fixes with time integration, atoms won't move (src/verlet.cpp:60)
Per MPI rank memory allocation (min/avg/max) = 8.507 | 8.507 | 8.509 Mbytes
   Step         PotEng         TotEng           Lx             Ly             Lz           Volume         Press           Pxx            Pyy            Pzz      
       213  -202.64032     -202.64032      10.261185      10.261185      5.2255771      550.21105      99321.572      123620.65      123620.65      50723.406    
       214  -202.64032     -202.64032      10.261185      10.261185      5.2255771      550.21105      99321.572      123620.65      123620.65      50723.406    
Loop time of 0.00021875 on 8 procs for 1 steps with 32 atoms

Performance: 394.971 ns/day, 0.061 hours/ns, 4571.429 timesteps/s, 146.286 katom-step/s
0.0% CPU use with 8 MPI tasks x 1 OpenMP threads

MPI task timing breakdown:
Section |  min time  |  avg time  |  max time  |%varavg| %total
---------------------------------------------------------------
Pair    | 0.000136   | 0.00014925 | 0.000171   |   0.0 | 68.23
Neigh   | 0          | 0          | 0          |   0.0 |  0.00
Comm    | 2e-05      | 4.25e-05   | 5.6e-05    |   0.0 | 19.43
Output  | 1.5e-05    | 1.6875e-05 | 1.9e-05    |   0.0 |  7.71
Modify  | 0          | 3.75e-07   | 1e-06      |   0.0 |  0.17
Other   |            | 9.75e-06   |            |       |  4.46

Nlocal:              4 ave           6 max           3 min
Histogram: 3 0 0 3 0 0 1 0 0 1
Nghost:            274 ave         275 max         272 min
Histogram: 1 0 0 1 0 0 3 0 0 3
Neighs:          116.5 ave         175 max          84 min
Histogram: 3 0 0 2 1 0 1 0 0 1
FullNghs:          233 ave         345 max         177 min
Histogram: 3 0 0 3 0 0 1 0 0 1

Total # of neighbors = 1864
Ave neighs/atom = 58.25
Neighbor list builds = 0
Dangerous builds = 0
variable  natoms equal "count(all)"
variable xlength equal "lx"
variable  volume equal "vol"
variable  etotal equal "etotal"
variable    ecoh equal "pe/v_natoms"
print "${xlength}, ${volume}, ${etotal}, ${ecoh}" append lattice_cohesive_energy.txt screen no

next i
jump SELF loop

change_box all x scale 1.0025 y scale 1.0025 z scale 1.0025 remap
Changing box ...
  orthogonal box = (-0.29751505 -0.28468857 -0.14497956) to (9.9893231 9.9764966 5.0805976)
  orthogonal box = (-0.29751505 -0.29751505 -0.14497956) to (9.9893231 9.9893231 5.0805976)
  orthogonal box = (-0.29751505 -0.29751505 -0.15151153) to (9.9893231 9.9893231 5.0871295)

run 1
WARNING: No fixes with time integration, atoms won't move (src/verlet.cpp:60)
Per MPI rank memory allocation (min/avg/max) = 8.507 | 8.507 | 8.509 Mbytes
   Step         PotEng         TotEng           Lx             Ly             Lz           Volume         Press           Pxx            Pyy            Pzz      
       214  -202.86782     -202.86782      10.286838      10.286838      5.2386411      554.34796      77062.878      100755.27      100755.27      29678.101    
       215  -202.86782     -202.86782      10.286838      10.286838      5.2386411      554.34796      77062.878      100755.27      100755.27      29678.101    
Loop time of 0.00021 on 8 procs for 1 steps with 32 atoms

Performance: 411.429 ns/day, 0.058 hours/ns, 4761.905 timesteps/s, 152.381 katom-step/s
0.0% CPU use with 8 MPI tasks x 1 OpenMP threads

MPI task timing breakdown:
Section |  min time  |  avg time  |  max time  |%varavg| %total
---------------------------------------------------------------
Pair    | 0.000129   | 0.00014412 | 0.000166   |   0.0 | 68.63
Neigh   | 0          | 0          | 0          |   0.0 |  0.00
Comm    | 2e-05      | 4.15e-05   | 5.7e-05    |   0.0 | 19.76
Output  | 1.5e-05    | 1.6875e-05 | 1.9e-05    |   0.0 |  8.04
Modify  | 0          | 2.5e-07    | 1e-06      |   0.0 |  0.12
Other   |            | 7.25e-06   |            |       |  3.45

Nlocal:              4 ave           6 max           3 min
Histogram: 3 0 0 3 0 0 1 0 0 1
Nghost:            274 ave         275 max         272 min
Histogram: 1 0 0 1 0 0 3 0 0 3
Neighs:          116.5 ave         175 max          84 min
Histogram: 3 0 0 2 1 0 1 0 0 1
FullNghs:          233 ave         345 max         177 min
Histogram: 3 0 0 3 0 0 1 0 0 1

Total # of neighbors = 1864
Ave neighs/atom = 58.25
Neighbor list builds = 0
Dangerous builds = 0
variable  natoms equal "count(all)"
variable xlength equal "lx"
variable  volume equal "vol"
variable  etotal equal "etotal"
variable    ecoh equal "pe/v_natoms"
print "${xlength}, ${volume}, ${etotal}, ${ecoh}" append lattice_cohesive_energy.txt screen no

next i
jump SELF loop

change_box all x scale 1.0025 y scale 1.0025 z scale 1.0025 remap
Changing box ...
  orthogonal box = (-0.3103736 -0.29751505 -0.15151153) to (10.002182 9.9893231 5.0871295)
  orthogonal box = (-0.3103736 -0.3103736 -0.15151153) to (10.002182 10.002182 5.0871295)
  orthogonal box = (-0.3103736 -0.3103736 -0.15805983) to (10.002182 10.002182 5.0936778)

run 1
WARNING: No fixes with time integration, atoms won't move (src/verlet.cpp:60)
Per MPI rank memory allocation (min/avg/max) = 8.507 | 8.507 | 8.509 Mbytes
   Step         PotEng         TotEng           Lx             Ly             Lz           Volume         Press           Pxx            Pyy            Pzz      
       215  -203.04018     -203.04018      10.312555      10.312555      5.2517377      558.51597      55608.196      78697.148      78697.148      9430.2917    
       216  -203.04018     -203.04018      10.312555      10.312555      5.2517377      558.51597      55608.196      78697.148      78697.148      9430.2917    
Loop time of 0.000205875 on 8 procs for 1 steps with 32 atoms

Performance: 419.672 ns/day, 0.057 hours/ns, 4857.316 timesteps/s, 155.434 katom-step/s
0.0% CPU use with 8 MPI tasks x 1 OpenMP threads

MPI task timing breakdown:
Section |  min time  |  avg time  |  max time  |%varavg| %total
---------------------------------------------------------------
Pair    | 0.000127   | 0.00014075 | 0.000161   |   0.0 | 68.37
Neigh   | 0          | 0          | 0          |   0.0 |  0.00
Comm    | 2e-05      | 4.025e-05  | 5.5e-05    |   0.0 | 19.55
Output  | 1.5e-05    | 1.7e-05    | 2e-05      |   0.0 |  8.26
Modify  | 0          | 1.25e-07   | 1e-06      |   0.0 |  0.06
Other   |            | 7.75e-06   |            |       |  3.76

Nlocal:              4 ave           6 max           3 min
Histogram: 3 0 0 3 0 0 1 0 0 1
Nghost:            274 ave         275 max         272 min
Histogram: 1 0 0 1 0 0 3 0 0 3
Neighs:          116.5 ave         175 max          84 min
Histogram: 3 0 0 2 1 0 1 0 0 1
FullNghs:          233 ave         345 max         177 min
Histogram: 3 0 0 3 0 0 1 0 0 1

Total # of neighbors = 1864
Ave neighs/atom = 58.25
Neighbor list builds = 0
Dangerous builds = 0
variable  natoms equal "count(all)"
variable xlength equal "lx"
variable  volume equal "vol"
variable  etotal equal "etotal"
variable    ecoh equal "pe/v_natoms"
print "${xlength}, ${volume}, ${etotal}, ${ecoh}" append lattice_cohesive_energy.txt screen no

next i
jump SELF loop

change_box all x scale 1.0025 y scale 1.0025 z scale 1.0025 remap
Changing box ...
  orthogonal box = (-0.32326429 -0.3103736 -0.15805983) to (10.015072 10.002182 5.0936778)
  orthogonal box = (-0.32326429 -0.32326429 -0.15805983) to (10.015072 10.015072 5.0936778)
  orthogonal box = (-0.32326429 -0.32326429 -0.1646245) to (10.015072 10.015072 5.1002425)

run 1
WARNING: No fixes with time integration, atoms won't move (src/verlet.cpp:60)
Per MPI rank memory allocation (min/avg/max) = 8.507 | 8.507 | 8.509 Mbytes
   Step         PotEng         TotEng           Lx             Ly             Lz           Volume         Press           Pxx            Pyy            Pzz      
       216  -203.15864     -203.15864      10.338337      10.338337      5.264867       562.71532      34937.253      57426.294      57426.294     -10040.83     
       217  -203.15864     -203.15864      10.338337      10.338337      5.264867       562.71532      34937.253      57426.294      57426.294     -10040.83     
Loop time of 0.00023775 on 8 procs for 1 steps with 32 atoms

Performance: 363.407 ns/day, 0.066 hours/ns, 4206.099 timesteps/s, 134.595 katom-step/s
0.0% CPU use with 8 MPI tasks x 1 OpenMP threads

MPI task timing breakdown:
Section |  min time  |  avg time  |  max time  |%varavg| %total
---------------------------------------------------------------
Pair    | 0.00014    | 0.0001685  | 0.000198   |   0.0 | 70.87
Neigh   | 0          | 0          | 0          |   0.0 |  0.00
Comm    | 1.6e-05    | 4.5125e-05 | 7.4e-05    |   0.0 | 18.98
Output  | 1.5e-05    | 1.6375e-05 | 1.9e-05    |   0.0 |  6.89
Modify  | 0          | 1.25e-07   | 1e-06      |   0.0 |  0.05
Other   |            | 7.625e-06  |            |       |  3.21

Nlocal:              4 ave           6 max           3 min
Histogram: 3 0 0 3 0 0 1 0 0 1
Nghost:            274 ave         275 max         272 min
Histogram: 1 0 0 1 0 0 3 0 0 3
Neighs:          116.5 ave         175 max          84 min
Histogram: 3 0 0 2 1 0 1 0 0 1
FullNghs:          233 ave         345 max         177 min
Histogram: 3 0 0 3 0 0 1 0 0 1

Total # of neighbors = 1864
Ave neighs/atom = 58.25
Neighbor list builds = 0
Dangerous builds = 0
variable  natoms equal "count(all)"
variable xlength equal "lx"
variable  volume equal "vol"
variable  etotal equal "etotal"
variable    ecoh equal "pe/v_natoms"
print "${xlength}, ${volume}, ${etotal}, ${ecoh}" append lattice_cohesive_energy.txt screen no

next i
jump SELF loop

change_box all x scale 1.0025 y scale 1.0025 z scale 1.0025 remap
Changing box ...
  orthogonal box = (-0.33618721 -0.32326429 -0.1646245) to (10.027995 10.015072 5.1002425)
  orthogonal box = (-0.33618721 -0.33618721 -0.1646245) to (10.027995 10.027995 5.1002425)
  orthogonal box = (-0.33618721 -0.33618721 -0.17120559) to (10.027995 10.027995 5.1068236)

run 1
WARNING: No fixes with time integration, atoms won't move (src/verlet.cpp:60)
Per MPI rank memory allocation (min/avg/max) = 8.507 | 8.507 | 8.509 Mbytes
   Step         PotEng         TotEng           Lx             Ly             Lz           Volume         Press           Pxx            Pyy            Pzz      
       217  -203.22442     -203.22442      10.364182      10.364182      5.2780292      566.94625      15030.268      36923.178      36923.178     -28755.552    
       218  -203.22442     -203.22442      10.364182      10.364182      5.2780292      566.94625      15030.268      36923.178      36923.178     -28755.552    
Loop time of 0.0002065 on 8 procs for 1 steps with 32 atoms

Performance: 418.402 ns/day, 0.057 hours/ns, 4842.615 timesteps/s, 154.964 katom-step/s
0.0% CPU use with 8 MPI tasks x 1 OpenMP threads

MPI task timing breakdown:
Section |  min time  |  avg time  |  max time  |%varavg| %total
---------------------------------------------------------------
Pair    | 0.000126   | 0.00013925 | 0.00016    |   0.0 | 67.43
Neigh   | 0          | 0          | 0          |   0.0 |  0.00
Comm    | 1.9e-05    | 3.9125e-05 | 5.3e-05    |   0.0 | 18.95
Output  | 1.5e-05    | 1.7e-05    | 2e-05      |   0.0 |  8.23
Modify  | 0          | 2.5e-07    | 2e-06      |   0.0 |  0.12
Other   |            | 1.088e-05  |            |       |  5.27

Nlocal:              4 ave           6 max           3 min
Histogram: 3 0 0 3 0 0 1 0 0 1
Nghost:            274 ave         275 max         272 min
Histogram: 1 0 0 1 0 0 3 0 0 3
Neighs:          116.5 ave         175 max          84 min
Histogram: 3 0 0 2 1 0 1 0 0 1
FullNghs:          233 ave         345 max         177 min
Histogram: 3 0 0 3 0 0 1 0 0 1

Total # of neighbors = 1864
Ave neighs/atom = 58.25
Neighbor list builds = 0
Dangerous builds = 0
variable  natoms equal "count(all)"
variable xlength equal "lx"
variable  volume equal "vol"
variable  etotal equal "etotal"
variable    ecoh equal "pe/v_natoms"
print "${xlength}, ${volume}, ${etotal}, ${ecoh}" append lattice_cohesive_energy.txt screen no

next i
jump SELF loop

change_box all x scale 1.0025 y scale 1.0025 z scale 1.0025 remap
Changing box ...
  orthogonal box = (-0.34914244 -0.33618721 -0.17120559) to (10.04095 10.027995 5.1068236)
  orthogonal box = (-0.34914244 -0.34914244 -0.17120559) to (10.04095 10.04095 5.1068236)
  orthogonal box = (-0.34914244 -0.34914244 -0.17780312) to (10.04095 10.04095 5.1134211)

run 1
WARNING: No fixes with time integration, atoms won't move (src/verlet.cpp:60)
Per MPI rank memory allocation (min/avg/max) = 8.507 | 8.507 | 8.509 Mbytes
   Step         PotEng         TotEng           Lx             Ly             Lz           Volume         Press           Pxx            Pyy            Pzz      
       218  -203.23872     -203.23872      10.390093      10.390093      5.2912242      571.20898     -4132.2373      17168.547      17168.547     -46733.807    
       219  -203.23872     -203.23872      10.390093      10.390093      5.2912242      571.20898     -4132.2373      17168.547      17168.547     -46733.807    
Loop time of 0.000206375 on 8 procs for 1 steps with 32 atoms

Performance: 418.655 ns/day, 0.057 hours/ns, 4845.548 timesteps/s, 155.058 katom-step/s
0.0% CPU use with 8 MPI tasks x 1 OpenMP threads

MPI task timing breakdown:
Section |  min time  |  avg time  |  max time  |%varavg| %total
---------------------------------------------------------------
Pair    | 0.000125   | 0.00014163 | 0.000163   |   0.0 | 68.63
Neigh   | 0          | 0          | 0          |   0.0 |  0.00
Comm    | 2.1e-05    | 4.1e-05    | 5.9e-05    |   0.0 | 19.87
Output  | 1.4e-05    | 1.675e-05  | 1.9e-05    |   0.0 |  8.12
Modify  | 0          | 0          | 0          |   0.0 |  0.00
Other   |            | 7e-06      |            |       |  3.39

Nlocal:              4 ave           6 max           3 min
Histogram: 3 0 0 3 0 0 1 0 0 1
Nghost:            274 ave         275 max         272 min
Histogram: 1 0 0 1 0 0 3 0 0 3
Neighs:          116.5 ave         175 max          84 min
Histogram: 3 0 0 2 1 0 1 0 0 1
FullNghs:          233 ave         345 max         177 min
Histogram: 3 0 0 3 0 0 1 0 0 1

Total # of neighbors = 1864
Ave neighs/atom = 58.25
Neighbor list builds = 0
Dangerous builds = 0
variable  natoms equal "count(all)"
variable xlength equal "lx"
variable  volume equal "vol"
variable  etotal equal "etotal"
variable    ecoh equal "pe/v_natoms"
print "${xlength}, ${volume}, ${etotal}, ${ecoh}" append lattice_cohesive_energy.txt screen no

next i
jump SELF loop

change_box all x scale 1.0025 y scale 1.0025 z scale 1.0025 remap
Changing box ...
  orthogonal box = (-0.36213006 -0.34914244 -0.17780312) to (10.053938 10.04095 5.1134211)
  orthogonal box = (-0.36213006 -0.36213006 -0.17780312) to (10.053938 10.053938 5.1134211)
  orthogonal box = (-0.36213006 -0.36213006 -0.18441715) to (10.053938 10.053938 5.1200352)

run 1
WARNING: No fixes with time integration, atoms won't move (src/verlet.cpp:60)
Per MPI rank memory allocation (min/avg/max) = 8.507 | 8.507 | 8.509 Mbytes
   Step         PotEng         TotEng           Lx             Ly             Lz           Volume         Press           Pxx            Pyy            Pzz      
       219  -203.20274     -203.20274      10.416068      10.416068      5.3044523      575.50377     -22569.283     -1856.3755     -1856.3755     -63995.098    
       220  -203.20274     -203.20274      10.416068      10.416068      5.3044523      575.50377     -22569.283     -1856.3755     -1856.3755     -63995.098    
Loop time of 0.000205 on 8 procs for 1 steps with 32 atoms

Performance: 421.463 ns/day, 0.057 hours/ns, 4878.049 timesteps/s, 156.098 katom-step/s
0.0% CPU use with 8 MPI tasks x 1 OpenMP threads

MPI task timing breakdown:
Section |  min time  |  avg time  |  max time  |%varavg| %total
---------------------------------------------------------------
Pair    | 0.000124   | 0.00014075 | 0.000163   |   0.0 | 68.66
Neigh   | 0          | 0          | 0          |   0.0 |  0.00
Comm    | 1.8e-05    | 4.05e-05   | 5.9e-05    |   0.0 | 19.76
Output  | 1.4e-05    | 1.625e-05  | 1.9e-05    |   0.0 |  7.93
Modify  | 0          | 2.5e-07    | 2e-06      |   0.0 |  0.12
Other   |            | 7.25e-06   |            |       |  3.54

Nlocal:              4 ave           6 max           3 min
Histogram: 3 0 0 3 0 0 1 0 0 1
Nghost:            274 ave         275 max         272 min
Histogram: 1 0 0 1 0 0 3 0 0 3
Neighs:          116.5 ave         175 max          84 min
Histogram: 3 0 0 2 1 0 1 0 0 1
FullNghs:          233 ave         345 max         177 min
Histogram: 3 0 0 3 0 0 1 0 0 1

Total # of neighbors = 1864
Ave neighs/atom = 58.25
Neighbor list builds = 0
Dangerous builds = 0
variable  natoms equal "count(all)"
variable xlength equal "lx"
variable  volume equal "vol"
variable  etotal equal "etotal"
variable    ecoh equal "pe/v_natoms"
print "${xlength}, ${volume}, ${etotal}, ${ecoh}" append lattice_cohesive_energy.txt screen no

next i
jump SELF loop

change_box all x scale 1.0025 y scale 1.0025 z scale 1.0025 remap
Changing box ...
  orthogonal box = (-0.37515014 -0.36213006 -0.18441715) to (10.066958 10.053938 5.1200352)
  orthogonal box = (-0.37515014 -0.37515014 -0.18441715) to (10.066958 10.066958 5.1200352)
  orthogonal box = (-0.37515014 -0.37515014 -0.19104772) to (10.066958 10.066958 5.1266657)

run 1
WARNING: No fixes with time integration, atoms won't move (src/verlet.cpp:60)
Per MPI rank memory allocation (min/avg/max) = 8.507 | 8.507 | 8.509 Mbytes
   Step         PotEng         TotEng           Lx             Ly             Lz           Volume         Press           Pxx            Pyy            Pzz      
       220  -203.11766     -203.11766      10.442108      10.442108      5.3177134      579.83085     -40299.547     -20170.072     -20170.072     -80558.497    
       221  -203.11766     -203.11766      10.442108      10.442108      5.3177134      579.83085     -40299.547     -20170.072     -20170.072     -80558.497    
Loop time of 0.00020575 on 8 procs for 1 steps with 32 atoms

Performance: 419.927 ns/day, 0.057 hours/ns, 4860.267 timesteps/s, 155.529 katom-step/s
0.0% CPU use with 8 MPI tasks x 1 OpenMP threads

MPI task timing breakdown:
Section |  min time  |  avg time  |  max time  |%varavg| %total
---------------------------------------------------------------
Pair    | 0.000125   | 0.00014175 | 0.000164   |   0.0 | 68.89
Neigh   | 0          | 0          | 0          |   0.0 |  0.00
Comm    | 1.9e-05    | 4.0875e-05 | 5.8e-05    |   0.0 | 19.87
Output  | 1.4e-05    | 1.6e-05    | 1.8e-05    |   0.0 |  7.78
Modify  | 0          | 2.5e-07    | 1e-06      |   0.0 |  0.12
Other   |            | 6.875e-06  |            |       |  3.34

Nlocal:              4 ave           6 max           3 min
Histogram: 3 0 0 3 0 0 1 0 0 1
Nghost:            274 ave         275 max         272 min
Histogram: 1 0 0 1 0 0 3 0 0 3
Neighs:          116.5 ave         175 max          84 min
Histogram: 3 0 0 2 1 0 1 0 0 1
FullNghs:          233 ave         345 max         177 min
Histogram: 3 0 0 3 0 0 1 0 0 1

Total # of neighbors = 1864
Ave neighs/atom = 58.25
Neighbor list builds = 0
Dangerous builds = 0
variable  natoms equal "count(all)"
variable xlength equal "lx"
variable  volume equal "vol"
variable  etotal equal "etotal"
variable    ecoh equal "pe/v_natoms"
print "${xlength}, ${volume}, ${etotal}, ${ecoh}" append lattice_cohesive_energy.txt screen no

next i
jump SELF loop

change_box all x scale 1.0025 y scale 1.0025 z scale 1.0025 remap
Changing box ...
  orthogonal box = (-0.38820278 -0.37515014 -0.19104772) to (10.080011 10.066958 5.1266657)
  orthogonal box = (-0.38820278 -0.38820278 -0.19104772) to (10.080011 10.080011 5.1266657)
  orthogonal box = (-0.38820278 -0.38820278 -0.19769486) to (10.080011 10.080011 5.1333129)

run 1
WARNING: No fixes with time integration, atoms won't move (src/verlet.cpp:60)
Per MPI rank memory allocation (min/avg/max) = 8.507 | 8.507 | 8.509 Mbytes
   Step         PotEng         TotEng           Lx             Ly             Lz           Volume         Press           Pxx            Pyy            Pzz      
       221  -202.98463     -202.98463      10.468214      10.468214      5.3310077      584.19046     -57341.33      -37790.627     -37790.627     -96442.736    
       222  -202.98463     -202.98463      10.468214      10.468214      5.3310077      584.19046     -57341.33      -37790.627     -37790.627     -96442.736    
[...]
Pair    | 0.000125   | 0.00013462 | 0.00016    |   0.0 | 65.00
Neigh   | 0          | 0          | 0          |   0.0 |  0.00
Comm    | 2.1e-05    | 4.5875e-05 | 5.5e-05    |   0.0 | 22.15
Output  | 1.6e-05    | 1.725e-05  | 1.9e-05    |   0.0 |  8.33
Modify  | 0          | 2.5e-07    | 2e-06      |   0.0 |  0.12
Other   |            | 9.125e-06  |            |       |  4.41

Nlocal:              4 ave           6 max           3 min
Histogram: 3 0 0 3 0 0 1 0 0 1
Nghost:            274 ave         275 max         272 min
Histogram: 1 0 0 1 0 0 3 0 0 3
Neighs:          114.5 ave         172 max          83 min
Histogram: 3 0 0 2 1 0 1 0 0 1
FullNghs:          229 ave         339 max         175 min
Histogram: 3 0 0 3 0 0 1 0 0 1

Total # of neighbors = 1832
Ave neighs/atom = 57.25
Neighbor list builds = 0
Dangerous builds = 0
variable  natoms equal "count(all)"
variable xlength equal "lx"
variable  volume equal "vol"
variable  etotal equal "etotal"
variable    ecoh equal "pe/v_natoms"
print "${xlength}, ${volume}, ${etotal}, ${ecoh}" append lattice_cohesive_energy.txt screen no

next i
jump SELF loop

change_box all x scale 1.0025 y scale 1.0025 z scale 1.0025 remap
Changing box ...
  orthogonal box = (-0.58795416 -0.57440339 -0.29251876) to (10.279762 10.266211 5.2281368)
  orthogonal box = (-0.58795416 -0.58795416 -0.29251876) to (10.279762 10.279762 5.2281368)
  orthogonal box = (-0.58795416 -0.58795416 -0.29941958) to (10.279762 10.279762 5.2350376)

run 1
WARNING: No fixes with time integration, atoms won't move (src/verlet.cpp:60)
Per MPI rank memory allocation (min/avg/max) = 8.507 | 8.507 | 8.509 Mbytes
   Step         PotEng         TotEng           Lx             Ly             Lz           Volume         Press           Pxx            Pyy            Pzz      
       236  -195.98055     -195.98055      10.867716      10.867716      5.5344572      653.65956     -241698.23     -230162.14     -230162.14     -264770.41    
       237  -195.98055     -195.98055      10.867716      10.867716      5.5344572      653.65956     -241698.23     -230162.14     -230162.14     -264770.41    
Loop time of 0.000225375 on 8 procs for 1 steps with 32 atoms

Performance: 383.361 ns/day, 0.063 hours/ns, 4437.049 timesteps/s, 141.986 katom-step/s
0.0% CPU use with 8 MPI tasks x 1 OpenMP threads

MPI task timing breakdown:
Section |  min time  |  avg time  |  max time  |%varavg| %total
---------------------------------------------------------------
Pair    | 0.000141   | 0.00015225 | 0.000178   |   0.0 | 67.55
Neigh   | 0          | 0          | 0          |   0.0 |  0.00
Comm    | 2e-05      | 4.5625e-05 | 5.7e-05    |   0.0 | 20.24
Output  | 1.7e-05    | 1.825e-05  | 2.1e-05    |   0.0 |  8.10
Modify  | 0          | 3.75e-07   | 1e-06      |   0.0 |  0.17
Other   |            | 8.875e-06  |            |       |  3.94

Nlocal:              4 ave           6 max           3 min
Histogram: 3 0 0 3 0 0 1 0 0 1
Nghost:            274 ave         275 max         272 min
Histogram: 1 0 0 1 0 0 3 0 0 3
Neighs:          112.5 ave         170 max          81 min
Histogram: 3 0 0 2 1 0 1 0 0 1
FullNghs:          225 ave         335 max         171 min
Histogram: 3 0 0 3 0 0 1 0 0 1

Total # of neighbors = 1800
Ave neighs/atom = 56.25
Neighbor list builds = 0
Dangerous builds = 0
variable  natoms equal "count(all)"
variable xlength equal "lx"
variable  volume equal "vol"
variable  etotal equal "etotal"
variable    ecoh equal "pe/v_natoms"
print "${xlength}, ${volume}, ${etotal}, ${ecoh}" append lattice_cohesive_energy.txt screen no

next i
jump SELF loop

change_box all x scale 1.0025 y scale 1.0025 z scale 1.0025 remap
Changing box ...
  orthogonal box = (-0.6015388 -0.58795416 -0.29941958) to (10.293347 10.279762 5.2350376)
  orthogonal box = (-0.6015388 -0.6015388 -0.29941958) to (10.293347 10.293347 5.2350376)
  orthogonal box = (-0.6015388 -0.6015388 -0.30633766) to (10.293347 10.293347 5.2419557)

run 1
WARNING: No fixes with time integration, atoms won't move (src/verlet.cpp:60)
Per MPI rank memory allocation (min/avg/max) = 8.507 | 8.507 | 8.509 Mbytes
   Step         PotEng         TotEng           Lx             Ly             Lz           Volume         Press           Pxx            Pyy            Pzz      
       237  -195.22641     -195.22641      10.894886      10.894886      5.5482933      658.57427     -249910.37     -238853.92     -238853.92     -272023.26    
       238  -195.22641     -195.22641      10.894886      10.894886      5.5482933      658.57427     -249910.37     -238853.92     -238853.92     -272023.26    
Loop time of 0.00020575 on 8 procs for 1 steps with 32 atoms

Performance: 419.927 ns/day, 0.057 hours/ns, 4860.267 timesteps/s, 155.529 katom-step/s
0.0% CPU use with 8 MPI tasks x 1 OpenMP threads

MPI task timing breakdown:
Section |  min time  |  avg time  |  max time  |%varavg| %total
---------------------------------------------------------------
Pair    | 0.000122   | 0.000133   | 0.000159   |   0.0 | 64.64
Neigh   | 0          | 0          | 0          |   0.0 |  0.00
Comm    | 2e-05      | 4.5125e-05 | 5.6e-05    |   0.0 | 21.93
Output  | 1.6e-05    | 1.775e-05  | 2e-05      |   0.0 |  8.63
Modify  | 0          | 1.25e-07   | 1e-06      |   0.0 |  0.06
Other   |            | 9.75e-06   |            |       |  4.74

Nlocal:              4 ave           6 max           3 min
Histogram: 3 0 0 3 0 0 1 0 0 1
Nghost:            274 ave         275 max         272 min
Histogram: 1 0 0 1 0 0 3 0 0 3
Neighs:          112.5 ave         170 max          81 min
Histogram: 3 0 0 2 1 0 1 0 0 1
FullNghs:          225 ave         335 max         171 min
Histogram: 3 0 0 3 0 0 1 0 0 1

Total # of neighbors = 1800
Ave neighs/atom = 56.25
Neighbor list builds = 0
Dangerous builds = 0
variable  natoms equal "count(all)"
variable xlength equal "lx"
variable  volume equal "vol"
variable  etotal equal "etotal"
variable    ecoh equal "pe/v_natoms"
print "${xlength}, ${volume}, ${etotal}, ${ecoh}" append lattice_cohesive_energy.txt screen no

next i
jump SELF loop

change_box all x scale 1.0025 y scale 1.0025 z scale 1.0025 remap
Changing box ...
  orthogonal box = (-0.61515741 -0.6015388 -0.30633766) to (10.306965 10.293347 5.2419557)
  orthogonal box = (-0.61515741 -0.61515741 -0.30633766) to (10.306965 10.306965 5.2419557)
  orthogonal box = (-0.61515741 -0.61515741 -0.31327302) to (10.306965 10.306965 5.248891)

run 1
WARNING: No fixes with time integration, atoms won't move (src/verlet.cpp:60)
Per MPI rank memory allocation (min/avg/max) = 8.507 | 8.507 | 8.509 Mbytes
   Step         PotEng         TotEng           Lx             Ly             Lz           Volume         Press           Pxx            Pyy            Pzz      
       238  -194.44191     -194.44191      10.922123      10.922123      5.562164       663.52594     -257683.1      -247096.92     -247096.92     -278855.46    
       239  -194.44191     -194.44191      10.922123      10.922123      5.562164       663.52594     -257683.1      -247096.92     -247096.92     -278855.46    
Loop time of 0.000235625 on 8 procs for 1 steps with 32 atoms

Performance: 366.684 ns/day, 0.065 hours/ns, 4244.032 timesteps/s, 135.809 katom-step/s
0.0% CPU use with 8 MPI tasks x 1 OpenMP threads

MPI task timing breakdown:
Section |  min time  |  avg time  |  max time  |%varavg| %total
---------------------------------------------------------------
Pair    | 0.000126   | 0.00013912 | 0.000163   |   0.0 | 59.05
Neigh   | 0          | 0          | 0          |   0.0 |  0.00
Comm    | 2.1e-05    | 4.6125e-05 | 6.1e-05    |   0.0 | 19.58
Output  | 3.2e-05    | 4.025e-05  | 4.4e-05    |   0.0 | 17.08
Modify  | 0          | 2.5e-07    | 1e-06      |   0.0 |  0.11
Other   |            | 9.875e-06  |            |       |  4.19

Nlocal:              4 ave           6 max           3 min
Histogram: 3 0 0 3 0 0 1 0 0 1
Nghost:            274 ave         275 max         272 min
Histogram: 1 0 0 1 0 0 3 0 0 3
Neighs:          110.5 ave         168 max          79 min
Histogram: 3 0 0 2 1 0 1 0 0 1
FullNghs:          221 ave         331 max         167 min
Histogram: 3 0 0 3 0 0 1 0 0 1

Total # of neighbors = 1768
Ave neighs/atom = 55.25
Neighbor list builds = 0
Dangerous builds = 0
variable  natoms equal "count(all)"
variable xlength equal "lx"
variable  volume equal "vol"
variable  etotal equal "etotal"
variable    ecoh equal "pe/v_natoms"
print "${xlength}, ${volume}, ${etotal}, ${ecoh}" append lattice_cohesive_energy.txt screen no

next i
jump SELF loop

change_box all x scale 1.0025 y scale 1.0025 z scale 1.0025 remap
Changing box ...
  orthogonal box = (-0.62881006 -0.61515741 -0.31327302) to (10.320618 10.306965 5.248891)
  orthogonal box = (-0.62881006 -0.62881006 -0.31327302) to (10.320618 10.320618 5.248891)
  orthogonal box = (-0.62881006 -0.62881006 -0.32022573) to (10.320618 10.320618 5.2558437)

run 1
WARNING: No fixes with time integration, atoms won't move (src/verlet.cpp:60)
Per MPI rank memory allocation (min/avg/max) = 8.507 | 8.507 | 8.509 Mbytes
   Step         PotEng         TotEng           Lx             Ly             Lz           Volume         Press           Pxx            Pyy            Pzz      
       239  -193.62796     -193.62796      10.949428      10.949428      5.5760695      668.51483     -265031.67     -254907.51     -254907.51     -285279.98    
       240  -193.62796     -193.62796      10.949428      10.949428      5.5760695      668.51483     -265031.67     -254907.51     -254907.51     -285279.98    
Loop time of 0.000204875 on 8 procs for 1 steps with 32 atoms

Performance: 421.721 ns/day, 0.057 hours/ns, 4881.025 timesteps/s, 156.193 katom-step/s
0.0% CPU use with 8 MPI tasks x 1 OpenMP threads

MPI task timing breakdown:
Section |  min time  |  avg time  |  max time  |%varavg| %total
---------------------------------------------------------------
Pair    | 0.000123   | 0.00013363 | 0.000158   |   0.0 | 65.22
Neigh   | 0          | 0          | 0          |   0.0 |  0.00
Comm    | 2.1e-05    | 4.475e-05  | 5.6e-05    |   0.0 | 21.84
Output  | 1.6e-05    | 1.775e-05  | 2e-05      |   0.0 |  8.66
Modify  | 0          | 0          | 0          |   0.0 |  0.00
Other   |            | 8.75e-06   |            |       |  4.27

Nlocal:              4 ave           6 max           3 min
Histogram: 3 0 0 3 0 0 1 0 0 1
Nghost:            274 ave         275 max         272 min
Histogram: 1 0 0 1 0 0 3 0 0 3
Neighs:          110.5 ave         168 max          79 min
Histogram: 3 0 0 2 1 0 1 0 0 1
FullNghs:          221 ave         331 max         167 min
Histogram: 3 0 0 3 0 0 1 0 0 1

Total # of neighbors = 1768
Ave neighs/atom = 55.25
Neighbor list builds = 0
Dangerous builds = 0
variable  natoms equal "count(all)"
variable xlength equal "lx"
variable  volume equal "vol"
variable  etotal equal "etotal"
variable    ecoh equal "pe/v_natoms"
print "${xlength}, ${volume}, ${etotal}, ${ecoh}" append lattice_cohesive_energy.txt screen no

next i
jump SELF loop

change_box all x scale 1.0025 y scale 1.0025 z scale 1.0025 remap
Changing box ...
  orthogonal box = (-0.64249685 -0.62881006 -0.32022573) to (10.334305 10.320618 5.2558437)
  orthogonal box = (-0.64249685 -0.64249685 -0.32022573) to (10.334305 10.334305 5.2558437)
  orthogonal box = (-0.64249685 -0.64249685 -0.32719581) to (10.334305 10.334305 5.2628138)

run 1
WARNING: No fixes with time integration, atoms won't move (src/verlet.cpp:60)
Per MPI rank memory allocation (min/avg/max) = 8.507 | 8.507 | 8.509 Mbytes
   Step         PotEng         TotEng           Lx             Ly             Lz           Volume         Press           Pxx            Pyy            Pzz      
       240  -192.78549     -192.78549      10.976802      10.976802      5.5900096      673.54124     -271977.77     -262310.65     -262310.65     -291312.01    
       241  -192.78549     -192.78549      10.976802      10.976802      5.5900096      673.54124     -271977.77     -262310.65     -262310.65     -291312.01    
Loop time of 0.000206125 on 8 procs for 1 steps with 32 atoms

Performance: 419.163 ns/day, 0.057 hours/ns, 4851.425 timesteps/s, 155.246 katom-step/s
0.0% CPU use with 8 MPI tasks x 1 OpenMP threads

MPI task timing breakdown:
Section |  min time  |  avg time  |  max time  |%varavg| %total
---------------------------------------------------------------
Pair    | 0.000122   | 0.0001335  | 0.00016    |   0.0 | 64.77
Neigh   | 0          | 0          | 0          |   0.0 |  0.00
Comm    | 2e-05      | 4.575e-05  | 5.7e-05    |   0.0 | 22.20
Output  | 1.7e-05    | 1.8125e-05 | 2.1e-05    |   0.0 |  8.79
Modify  | 0          | 2.5e-07    | 1e-06      |   0.0 |  0.12
Other   |            | 8.5e-06    |            |       |  4.12

Nlocal:              4 ave           6 max           3 min
Histogram: 3 0 0 3 0 0 1 0 0 1
Nghost:            274 ave         275 max         272 min
Histogram: 1 0 0 1 0 0 3 0 0 3
Neighs:          110.5 ave         168 max          79 min
Histogram: 3 0 0 2 1 0 1 0 0 1
FullNghs:          221 ave         331 max         167 min
Histogram: 3 0 0 3 0 0 1 0 0 1

Total # of neighbors = 1768
Ave neighs/atom = 55.25
Neighbor list builds = 0
Dangerous builds = 0
variable  natoms equal "count(all)"
variable xlength equal "lx"
variable  volume equal "vol"
variable  etotal equal "etotal"
variable    ecoh equal "pe/v_natoms"
print "${xlength}, ${volume}, ${etotal}, ${ecoh}" append lattice_cohesive_energy.txt screen no

next i
jump SELF loop

change_box all x scale 1.0025 y scale 1.0025 z scale 1.0025 remap
Changing box ...
  orthogonal box = (-0.65621785 -0.64249685 -0.32719581) to (10.348026 10.334305 5.2628138)
  orthogonal box = (-0.65621785 -0.65621785 -0.32719581) to (10.348026 10.348026 5.2628138)
  orthogonal box = (-0.65621785 -0.65621785 -0.33418333) to (10.348026 10.348026 5.2698013)

run 1
WARNING: No fixes with time integration, atoms won't move (src/verlet.cpp:60)
Per MPI rank memory allocation (min/avg/max) = 8.507 | 8.507 | 8.509 Mbytes
   Step         PotEng         TotEng           Lx             Ly             Lz           Volume         Press           Pxx            Pyy            Pzz      
       241  -191.91531     -191.91531      11.004244      11.004244      5.6039847      678.60544     -278554.08     -269345.73     -269345.73     -296970.79    
       242  -191.91531     -191.91531      11.004244      11.004244      5.6039847      678.60544     -278554.08     -269345.73     -269345.73     -296970.79    
Loop time of 0.000205 on 8 procs for 1 steps with 32 atoms

Performance: 421.463 ns/day, 0.057 hours/ns, 4878.049 timesteps/s, 156.098 katom-step/s
0.0% CPU use with 8 MPI tasks x 1 OpenMP threads

MPI task timing breakdown:
Section |  min time  |  avg time  |  max time  |%varavg| %total
---------------------------------------------------------------
Pair    | 0.000123   | 0.00013363 | 0.000159   |   0.0 | 65.18
Neigh   | 0          | 0          | 0          |   0.0 |  0.00
Comm    | 2e-05      | 4.425e-05  | 5.5e-05    |   0.0 | 21.59
Output  | 1.6e-05    | 1.7625e-05 | 2e-05      |   0.0 |  8.60
Modify  | 0          | 2.5e-07    | 1e-06      |   0.0 |  0.12
Other   |            | 9.25e-06   |            |       |  4.51

Nlocal:              4 ave           6 max           3 min
Histogram: 3 0 0 3 0 0 1 0 0 1
Nghost:            274 ave         275 max         272 min
Histogram: 1 0 0 1 0 0 3 0 0 3
Neighs:          110.5 ave         168 max          79 min
Histogram: 3 0 0 2 1 0 1 0 0 1
FullNghs:          221 ave         331 max         167 min
Histogram: 3 0 0 3 0 0 1 0 0 1

Total # of neighbors = 1768
Ave neighs/atom = 55.25
Neighbor list builds = 0
Dangerous builds = 0
variable  natoms equal "count(all)"
variable xlength equal "lx"
variable  volume equal "vol"
variable  etotal equal "etotal"
variable    ecoh equal "pe/v_natoms"
print "${xlength}, ${volume}, ${etotal}, ${ecoh}" append lattice_cohesive_energy.txt screen no

next i
jump SELF loop

change_box all x scale 1.0025 y scale 1.0025 z scale 1.0025 remap
Changing box ...
  orthogonal box = (-0.66997316 -0.65621785 -0.33418333) to (10.361781 10.348026 5.2698013)
  orthogonal box = (-0.66997316 -0.66997316 -0.33418333) to (10.361781 10.361781 5.2698013)
  orthogonal box = (-0.66997316 -0.66997316 -0.34118831) to (10.361781 10.361781 5.2768063)

run 1
WARNING: No fixes with time integration, atoms won't move (src/verlet.cpp:60)
Per MPI rank memory allocation (min/avg/max) = 8.507 | 8.507 | 8.509 Mbytes
   Step         PotEng         TotEng           Lx             Ly             Lz           Volume         Press           Pxx            Pyy            Pzz      
       242  -191.01818     -191.01818      11.031754      11.031754      5.6179946      683.70772     -284810.27     -276074.22     -276074.22     -302282.36    
       243  -191.01818     -191.01818      11.031754      11.031754      5.6179946      683.70772     -284810.27     -276074.22     -276074.22     -302282.36    
Loop time of 0.00014425 on 8 procs for 1 steps with 32 atoms

Performance: 598.960 ns/day, 0.040 hours/ns, 6932.409 timesteps/s, 221.837 katom-step/s
0.0% CPU use with 8 MPI tasks x 1 OpenMP threads

MPI task timing breakdown:
Section |  min time  |  avg time  |  max time  |%varavg| %total
---------------------------------------------------------------
Pair    | 0.000103   | 0.00010687 | 0.000114   |   0.0 | 74.09
Neigh   | 0          | 0          | 0          |   0.0 |  0.00
Comm    | 1.4e-05    | 2.1125e-05 | 2.5e-05    |   0.0 | 14.64
Output  | 1.1e-05    | 1.1375e-05 | 1.2e-05    |   0.0 |  7.89
Modify  | 0          | 3.75e-07   | 1e-06      |   0.0 |  0.26
Other   |            | 4.5e-06    |            |       |  3.12

Nlocal:              4 ave           6 max           3 min
Histogram: 3 0 0 3 0 0 1 0 0 1
Nghost:            274 ave         275 max         272 min
Histogram: 1 0 0 1 0 0 3 0 0 3
Neighs:          100.5 ave         158 max          69 min
Histogram: 3 0 0 2 1 0 1 0 0 1
FullNghs:          201 ave         311 max         147 min
Histogram: 3 0 0 3 0 0 1 0 0 1

Total # of neighbors = 1608
Ave neighs/atom = 50.25
Neighbor list builds = 0
Dangerous builds = 0
variable  natoms equal "count(all)"
variable xlength equal "lx"
variable  volume equal "vol"
variable  etotal equal "etotal"
variable    ecoh equal "pe/v_natoms"
print "${xlength}, ${volume}, ${etotal}, ${ecoh}" append lattice_cohesive_energy.txt screen no

next i
jump SELF loop

print "-------------------------------------------------------------"
-------------------------------------------------------------
print "Show results of 1st step (Running Minimization)"
Show results of 1st step (Running Minimization)
print "The number of atoms = ${natoms};"
The number of atoms = 32;
print "The lattice constant, x (Angstoms) = ${x0};"
The lattice constant, x (Angstoms) = 11.0317543101226;
print "The lattice constant, y (Angstoms) = ${y0};"
The lattice constant, y (Angstoms) = 11.0317543101226;
print "The lattice constant, z (Angstoms) = ${z0};"
The lattice constant, z (Angstoms) = 5.61799461407182;
print "The volume (Angstoms^3) = ${v0};"
The volume (Angstoms^3) = 683.707715081421;
print "The total energy (eV) = ${etot0};"
The total energy (eV) = -191.01818218773;
print "The cohesive energy (eV/atom) = ${ecoh0};"
The cohesive energy (eV/atom) = -5.96931819336657;
print "-------------------------------------------------------------"
-------------------------------------------------------------
print "Simulations completed !"
Simulations completed !
Total wall time: 0:00:00
