LAMMPS (22 Dec 2022)
  using 1 OpenMP thread(s) per MPI task
Loaded 1 plugins from C:\Program Files\LAMMPS 64-bit 23Jun2022\plugins
Loaded 0 plugins from C:\Program Files\LAMMPS 64-bit 23Jun2022-MPI\plugins
Loaded 1 plugins from C:\Program Files\LAMMPS 64-bit 22Dec2022-MSMPI\plugins
Loaded 1 plugins from C:\Program Files\LAMMPS 64-bit 28Mar2023-MPI\plugins
#------------------------------------------------------------------------------------------
# LAMMPS 64-bit 22Dec2022-MSMPI
#------------------------------------------------------------------------------------------
clear
  using 1 OpenMP thread(s) per MPI task
Loaded 1 plugins from C:\Program Files\LAMMPS 64-bit 23Jun2022\plugins
Loaded 0 plugins from C:\Program Files\LAMMPS 64-bit 23Jun2022-MPI\plugins
Loaded 1 plugins from C:\Program Files\LAMMPS 64-bit 22Dec2022-MSMPI\plugins
Loaded 1 plugins from C:\Program Files\LAMMPS 64-bit 28Mar2023-MPI\plugins
#echo both
# ---------- Initializing Simulation ---------------------------------
units metal
dimension 3
boundary p p p
atom_style atomic
atom_modify map array

#read_data ./../../MoSi2.data
read_data ./../../Mo3Si.data
Reading data file ...
  orthogonal box = (0 0 0) to (4.91941 4.91941 4.91941)
  2 by 2 by 2 MPI processor grid
  reading atoms ...
  8 atoms
  read_data CPU = 0.001 seconds
#read_data ./../../Mo5Si3.data

replicate 1 1 1
Replication is creating a 1x1x1 = 1 times larger system...
  orthogonal box = (0 0 0) to (4.91941 4.91941 4.91941)
  2 by 2 by 2 MPI processor grid
  8 atoms
  replicate CPU = 0.000 seconds

# ---------- Defining the Interatomic Potential ---------------------
pair_style meam
pair_coeff * * ./../../library.meam Mo Si ./../../MoSi.meam Mo Si

# ---------- Running Minimization -------------------------------------
fix 1 all box/relax iso 0.0 vmax 0.001

thermo 10
thermo_style custom step pe etotal lx ly lz vol press pxx pyy pzz

min_style cg
minimize 1e-25 1e-25 5000 10000
Neighbor list info ...
  update: every = 1 steps, delay = 0 steps, check = yes
  max neighbors/atom: 2000, page size: 100000
  master list distance cutoff = 6.3
  ghost atom cutoff = 6.3
  binsize = 3.15, bins = 2 2 2
  2 neighbor lists, perpetual/occasional/extra = 2 0 0
  (1) pair meam, perpetual
      attributes: full, newton on
      pair build: full/bin/atomonly
      stencil: full/bin/3d
      bin: standard
  (2) pair meam, perpetual, half/full from (1)
      attributes: half, newton on
      pair build: halffull/newton
      stencil: none
      bin: none
Per MPI rank memory allocation (min/avg/max) = 9.635 | 9.635 | 9.635 Mbytes
   Step         PotEng         TotEng           Lx             Ly             Lz           Volume         Press           Pxx            Pyy            Pzz      
         0  -48.072488     -48.072488      4.91941        4.91941        4.91941        119.05265      491369.49      491369.49      491369.49      491369.49    
        10  -49.025309     -49.025309      4.9686041      4.9686041      4.9686041      122.66006      358534.36      358534.36      358534.36      358534.36    
        20  -49.712757     -49.712757      5.0177982      5.0177982      5.0177982      126.33962      243268.59      243268.59      243268.59      243268.59    
        30  -50.162572     -50.162572      5.0669923      5.0669923      5.0669923      130.09204      143624.35      143624.35      143624.35      143624.35    
        40  -50.400211     -50.400211      5.1161864      5.1161864      5.1161864      133.91804      57857.408      57857.408      57857.408      57857.408    
        50  -50.453367     -50.453367      5.1542653      5.1542653      5.1542653      136.93053     -3.6152903e-06 -3.6161061e-06 -3.6156047e-06 -3.6141601e-06
        57  -50.453367     -50.453367      5.1542653      5.1542653      5.1542653      136.93053      2.8881841e-09  3.6554798e-09  2.2862987e-09  2.7227739e-09
Loop time of 0.00948988 on 8 procs for 57 steps with 8 atoms

20.6% CPU use with 8 MPI tasks x 1 OpenMP threads

Minimization stats:
  Stopping criterion = energy tolerance
  Energy initial, next-to-last, final = 
     -48.0724877935331  -50.4533674967424  -50.4533674967424
  Force two-norm initial, final = 109.53632 7.3684203e-13
  Force max component initial, final = 109.53632 7.0677685e-13
  Final line search alpha, max atom move = 1 7.0677685e-13
  Iterations, force evaluations = 57 67

MPI task timing breakdown:
Section |  min time  |  avg time  |  max time  |%varavg| %total
---------------------------------------------------------------
Pair    | 0.004841   | 0.0050781  | 0.00532    |   0.3 | 53.51
Neigh   | 0          | 0          | 0          |   0.0 |  0.00
Comm    | 0.001341   | 0.0015968  | 0.001842   |   0.5 | 16.83
Output  | 5.5e-05    | 5.6125e-05 | 5.8e-05    |   0.0 |  0.59
Modify  | 0          | 0          | 0          |   0.0 |  0.00
Other   |            | 0.002759   |            |       | 29.07

Nlocal:              1 ave           1 max           1 min
Histogram: 8 0 0 0 0 0 0 0 0 0
Nghost:            242 ave         242 max         242 min
Histogram: 8 0 0 0 0 0 0 0 0 0
Neighs:          31.75 ave          32 max          31 min
Histogram: 2 0 0 0 0 0 0 0 0 6
FullNghs:         63.5 ave          64 max          62 min
Histogram: 2 0 0 0 0 0 0 0 0 6

Total # of neighbors = 508
Ave neighs/atom = 63.5
Neighbor list builds = 0
Dangerous builds = 0

variable  natoms equal "count(all)"
variable      x0 equal "lx"
variable      y0 equal "ly"
variable      z0 equal "lz"
variable      v0 equal "vol"
variable   etot0 equal "etotal"
variable   ecoh0 equal "pe/v_natoms"

unfix 1
write_data ./../step2_elastic/data.in
System init for write_data ...

# ---------- For Equation of States -------------------------------------
change_box all x scale 0.94 y scale 0.94 z scale 0.94 remap
Changing box ...
  orthogonal box = (0.037200332 -0.11742763 -0.11742763) to (4.8822097 5.0368376 5.0368376)
  orthogonal box = (0.037200332 0.037200332 -0.11742763) to (4.8822097 4.8822097 5.0368376)
  orthogonal box = (0.037200332 0.037200332 0.037200332) to (4.8822097 4.8822097 4.8822097)
run 1
WARNING: No fixes with time integration, atoms won't move (src/verlet.cpp:60)
Per MPI rank memory allocation (min/avg/max) = 8.51 | 8.51 | 8.51 Mbytes
   Step         PotEng         TotEng           Lx             Ly             Lz           Volume         Press           Pxx            Pyy            Pzz      
        57  -46.059321     -46.059321      4.8450093      4.8450093      4.8450093      113.73231      730556.55      730556.55      730556.55      730556.55    
        58  -46.059321     -46.059321      4.8450093      4.8450093      4.8450093      113.73231      730556.55      730556.55      730556.55      730556.55    
Loop time of 9.9e-05 on 8 procs for 1 steps with 8 atoms

Performance: 872.727 ns/day, 0.027 hours/ns, 10101.010 timesteps/s, 80.808 katom-step/s
0.0% CPU use with 8 MPI tasks x 1 OpenMP threads

MPI task timing breakdown:
Section |  min time  |  avg time  |  max time  |%varavg| %total
---------------------------------------------------------------
Pair    | 6.7e-05    | 6.8625e-05 | 7e-05      |   0.0 | 69.32
Neigh   | 0          | 0          | 0          |   0.0 |  0.00
Comm    | 1.4e-05    | 1.5375e-05 | 1.7e-05    |   0.0 | 15.53
Output  | 1e-05      | 1.0125e-05 | 1.1e-05    |   0.0 | 10.23
Modify  | 0          | 7.5e-07    | 1e-06      |   0.0 |  0.76
Other   |            | 4.125e-06  |            |       |  4.17

Nlocal:              1 ave           1 max           1 min
Histogram: 8 0 0 0 0 0 0 0 0 0
Nghost:            242 ave         242 max         242 min
Histogram: 8 0 0 0 0 0 0 0 0 0
Neighs:          31.75 ave          37 max          27 min
Histogram: 1 0 2 0 1 2 0 0 0 2
FullNghs:         63.5 ave          64 max          62 min
Histogram: 2 0 0 0 0 0 0 0 0 6

Total # of neighbors = 508
Ave neighs/atom = 63.5
Neighbor list builds = 0
Dangerous builds = 0
print "# Lattice constant (Angstroms), Volume (Angstrom), Total energy (eV), Cohesive energy (eV/atom)" file lattice_cohesive_energy.txt screen no


# Loop over lattice constants
variable i loop 49 # Number of steps
label loop

change_box all x scale 1.0025 y scale 1.0025 z scale 1.0025 remap
Changing box ...
  orthogonal box = (0.03114407 0.037200332 0.037200332) to (4.8882659 4.8822097 4.8822097)
  orthogonal box = (0.03114407 0.03114407 0.037200332) to (4.8882659 4.8882659 4.8822097)
  orthogonal box = (0.03114407 0.03114407 0.03114407) to (4.8882659 4.8882659 4.8882659)

run 1
WARNING: No fixes with time integration, atoms won't move (src/verlet.cpp:60)
Per MPI rank memory allocation (min/avg/max) = 8.51 | 8.51 | 8.51 Mbytes
   Step         PotEng         TotEng           Lx             Ly             Lz           Volume         Press           Pxx            Pyy            Pzz      
        58  -46.437862     -46.437862      4.8571219      4.8571219      4.8571219      114.58744      688191.04      688191.04      688191.04      688191.04    
        59  -46.437862     -46.437862      4.8571219      4.8571219      4.8571219      114.58744      688191.04      688191.04      688191.04      688191.04    
Loop time of 0.000113375 on 8 procs for 1 steps with 8 atoms

Performance: 762.073 ns/day, 0.031 hours/ns, 8820.287 timesteps/s, 70.562 katom-step/s
0.0% CPU use with 8 MPI tasks x 1 OpenMP threads

MPI task timing breakdown:
Section |  min time  |  avg time  |  max time  |%varavg| %total
---------------------------------------------------------------
Pair    | 7.5e-05    | 7.7625e-05 | 8e-05      |   0.0 | 68.47
Neigh   | 0          | 0          | 0          |   0.0 |  0.00
Comm    | 1.7e-05    | 1.8625e-05 | 2.1e-05    |   0.0 | 16.43
Output  | 1.2e-05    | 1.25e-05   | 1.3e-05    |   0.0 | 11.03
Modify  | 0          | 3.75e-07   | 2e-06      |   0.0 |  0.33
Other   |            | 4.25e-06   |            |       |  3.75

Nlocal:              1 ave           1 max           1 min
Histogram: 8 0 0 0 0 0 0 0 0 0
Nghost:            242 ave         242 max         242 min
Histogram: 8 0 0 0 0 0 0 0 0 0
Neighs:          31.75 ave          37 max          27 min
Histogram: 1 0 2 0 1 2 0 0 0 2
FullNghs:         63.5 ave          64 max          62 min
Histogram: 2 0 0 0 0 0 0 0 0 6

Total # of neighbors = 508
Ave neighs/atom = 63.5
Neighbor list builds = 0
Dangerous builds = 0
variable  natoms equal "count(all)"
variable xlength equal "lx"
variable  volume equal "vol"
variable  etotal equal "etotal"
variable    ecoh equal "pe/v_natoms"
print "${xlength}, ${volume}, ${etotal}, ${ecoh}" append lattice_cohesive_energy.txt screen no

next i
jump SELF loop

change_box all x scale 1.0025 y scale 1.0025 z scale 1.0025 remap
Changing box ...
  orthogonal box = (0.025072668 0.03114407 0.03114407) to (4.8943373 4.8882659 4.8882659)
  orthogonal box = (0.025072668 0.025072668 0.03114407) to (4.8943373 4.8943373 4.8882659)
  orthogonal box = (0.025072668 0.025072668 0.025072668) to (4.8943373 4.8943373 4.8943373)

run 1
WARNING: No fixes with time integration, atoms won't move (src/verlet.cpp:60)
Per MPI rank memory allocation (min/avg/max) = 8.51 | 8.51 | 8.51 Mbytes
   Step         PotEng         TotEng           Lx             Ly             Lz           Volume         Press           Pxx            Pyy            Pzz      
        59  -46.796814     -46.796814      4.8692647      4.8692647      4.8692647      115.44899      647109.56      647109.56      647109.56      647109.56    
        60  -46.796814     -46.796814      4.8692647      4.8692647      4.8692647      115.44899      647109.56      647109.56      647109.56      647109.56    
Loop time of 9.9125e-05 on 8 procs for 1 steps with 8 atoms

Performance: 871.627 ns/day, 0.028 hours/ns, 10088.272 timesteps/s, 80.706 katom-step/s
0.0% CPU use with 8 MPI tasks x 1 OpenMP threads

MPI task timing breakdown:
Section |  min time  |  avg time  |  max time  |%varavg| %total
---------------------------------------------------------------
Pair    | 6.6e-05    | 6.6875e-05 | 6.9e-05    |   0.0 | 67.47
Neigh   | 0          | 0          | 0          |   0.0 |  0.00
Comm    | 1.4e-05    | 1.6625e-05 | 1.8e-05    |   0.0 | 16.77
Output  | 1.1e-05    | 1.125e-05  | 1.2e-05    |   0.0 | 11.35
Modify  | 0          | 3.75e-07   | 1e-06      |   0.0 |  0.38
Other   |            | 4e-06      |            |       |  4.04

Nlocal:              1 ave           1 max           1 min
Histogram: 8 0 0 0 0 0 0 0 0 0
Nghost:            242 ave         242 max         242 min
Histogram: 8 0 0 0 0 0 0 0 0 0
Neighs:          31.75 ave          37 max          27 min
Histogram: 1 0 0 0 3 2 1 0 0 1
FullNghs:         63.5 ave          64 max          62 min
Histogram: 2 0 0 0 0 0 0 0 0 6

Total # of neighbors = 508
Ave neighs/atom = 63.5
Neighbor list builds = 0
Dangerous builds = 0
variable  natoms equal "count(all)"
variable xlength equal "lx"
variable  volume equal "vol"
variable  etotal equal "etotal"
variable    ecoh equal "pe/v_natoms"
print "${xlength}, ${volume}, ${etotal}, ${ecoh}" append lattice_cohesive_energy.txt screen no

next i
jump SELF loop

change_box all x scale 1.0025 y scale 1.0025 z scale 1.0025 remap
Changing box ...
  orthogonal box = (0.018986087 0.025072668 0.025072668) to (4.9004239 4.8943373 4.8943373)
  orthogonal box = (0.018986087 0.018986087 0.025072668) to (4.9004239 4.9004239 4.8943373)
  orthogonal box = (0.018986087 0.018986087 0.018986087) to (4.9004239 4.9004239 4.9004239)

run 1
WARNING: No fixes with time integration, atoms won't move (src/verlet.cpp:60)
Per MPI rank memory allocation (min/avg/max) = 8.51 | 8.51 | 8.51 Mbytes
   Step         PotEng         TotEng           Lx             Ly             Lz           Volume         Press           Pxx            Pyy            Pzz      
        60  -47.13655      -47.13655       4.8814378      4.8814378      4.8814378      116.31703      607283.01      607283.01      607283.01      607283.01    
        61  -47.13655      -47.13655       4.8814378      4.8814378      4.8814378      116.31703      607283.01      607283.01      607283.01      607283.01    
Loop time of 0.000115 on 8 procs for 1 steps with 8 atoms

Performance: 751.304 ns/day, 0.032 hours/ns, 8695.652 timesteps/s, 69.565 katom-step/s
0.0% CPU use with 8 MPI tasks x 1 OpenMP threads

MPI task timing breakdown:
Section |  min time  |  avg time  |  max time  |%varavg| %total
---------------------------------------------------------------
Pair    | 7e-05      | 7.2875e-05 | 7.6e-05    |   0.0 | 63.37
Neigh   | 0          | 0          | 0          |   0.0 |  0.00
Comm    | 1.5e-05    | 1.825e-05  | 2.1e-05    |   0.0 | 15.87
Output  | 1.1e-05    | 1.225e-05  | 2e-05      |   0.0 | 10.65
Modify  | 0          | 1.25e-07   | 1e-06      |   0.0 |  0.11
Other   |            | 1.15e-05   |            |       | 10.00

Nlocal:              1 ave           1 max           1 min
Histogram: 8 0 0 0 0 0 0 0 0 0
Nghost:            242 ave         242 max         242 min
Histogram: 8 0 0 0 0 0 0 0 0 0
Neighs:          31.75 ave          37 max          27 min
Histogram: 1 0 0 0 3 2 1 0 0 1
FullNghs:         63.5 ave          64 max          62 min
Histogram: 2 0 0 0 0 0 0 0 0 6

Total # of neighbors = 508
Ave neighs/atom = 63.5
Neighbor list builds = 0
Dangerous builds = 0
variable  natoms equal "count(all)"
variable xlength equal "lx"
variable  volume equal "vol"
variable  etotal equal "etotal"
variable    ecoh equal "pe/v_natoms"
print "${xlength}, ${volume}, ${etotal}, ${ecoh}" append lattice_cohesive_energy.txt screen no

next i
jump SELF loop

change_box all x scale 1.0025 y scale 1.0025 z scale 1.0025 remap
Changing box ...
  orthogonal box = (0.012884289 0.018986087 0.018986087) to (4.9065257 4.9004239 4.9004239)
  orthogonal box = (0.012884289 0.012884289 0.018986087) to (4.9065257 4.9065257 4.9004239)
  orthogonal box = (0.012884289 0.012884289 0.012884289) to (4.9065257 4.9065257 4.9065257)

run 1
WARNING: No fixes with time integration, atoms won't move (src/verlet.cpp:60)
Per MPI rank memory allocation (min/avg/max) = 8.51 | 8.51 | 8.51 Mbytes
   Step         PotEng         TotEng           Lx             Ly             Lz           Volume         Press           Pxx            Pyy            Pzz      
        61  -47.457437     -47.457437      4.8936414      4.8936414      4.8936414      117.19159      568682.83      568682.83      568682.83      568682.83    
        62  -47.457437     -47.457437      4.8936414      4.8936414      4.8936414      117.19159      568682.83      568682.83      568682.83      568682.83    
Loop time of 0.000105 on 8 procs for 1 steps with 8 atoms

Performance: 822.857 ns/day, 0.029 hours/ns, 9523.810 timesteps/s, 76.190 katom-step/s
0.0% CPU use with 8 MPI tasks x 1 OpenMP threads

MPI task timing breakdown:
Section |  min time  |  avg time  |  max time  |%varavg| %total
---------------------------------------------------------------
Pair    | 7e-05      | 7.2375e-05 | 7.4e-05    |   0.0 | 68.93
Neigh   | 0          | 0          | 0          |   0.0 |  0.00
Comm    | 1.6e-05    | 1.7625e-05 | 2e-05      |   0.0 | 16.79
Output  | 1.1e-05    | 1.1e-05    | 1.1e-05    |   0.0 | 10.48
Modify  | 0          | 0          | 0          |   0.0 |  0.00
Other   |            | 4e-06      |            |       |  3.81

Nlocal:              1 ave           1 max           1 min
Histogram: 8 0 0 0 0 0 0 0 0 0
Nghost:            242 ave         242 max         242 min
Histogram: 8 0 0 0 0 0 0 0 0 0
Neighs:          31.75 ave          37 max          27 min
Histogram: 1 0 0 0 3 2 1 0 0 1
FullNghs:         63.5 ave          64 max          62 min
Histogram: 2 0 0 0 0 0 0 0 0 6

Total # of neighbors = 508
Ave neighs/atom = 63.5
Neighbor list builds = 0
Dangerous builds = 0
variable  natoms equal "count(all)"
variable xlength equal "lx"
variable  volume equal "vol"
variable  etotal equal "etotal"
variable    ecoh equal "pe/v_natoms"
print "${xlength}, ${volume}, ${etotal}, ${ecoh}" append lattice_cohesive_energy.txt screen no

next i
jump SELF loop

change_box all x scale 1.0025 y scale 1.0025 z scale 1.0025 remap
Changing box ...
  orthogonal box = (0.0067672377 0.012884289 0.012884289) to (4.9126428 4.9065257 4.9065257)
  orthogonal box = (0.0067672377 0.0067672377 0.012884289) to (4.9126428 4.9126428 4.9065257)
  orthogonal box = (0.0067672377 0.0067672377 0.0067672377) to (4.9126428 4.9126428 4.9126428)

run 1
WARNING: No fixes with time integration, atoms won't move (src/verlet.cpp:60)
Per MPI rank memory allocation (min/avg/max) = 8.51 | 8.51 | 8.51 Mbytes
   Step         PotEng         TotEng           Lx             Ly             Lz           Volume         Press           Pxx            Pyy            Pzz      
        62  -47.759839     -47.759839      4.9058755      4.9058755      4.9058755      118.07272      531280.88      531280.88      531280.88      531280.88    
        63  -47.759839     -47.759839      4.9058755      4.9058755      4.9058755      118.07272      531280.88      531280.88      531280.88      531280.88    
Loop time of 9.875e-05 on 8 procs for 1 steps with 8 atoms

Performance: 874.937 ns/day, 0.027 hours/ns, 10126.582 timesteps/s, 81.013 katom-step/s
0.0% CPU use with 8 MPI tasks x 1 OpenMP threads

MPI task timing breakdown:
Section |  min time  |  avg time  |  max time  |%varavg| %total
---------------------------------------------------------------
Pair    | 6.5e-05    | 6.775e-05  | 6.9e-05    |   0.0 | 68.61
Neigh   | 0          | 0          | 0          |   0.0 |  0.00
Comm    | 1.4e-05    | 1.625e-05  | 1.9e-05    |   0.0 | 16.46
Output  | 1e-05      | 1.0375e-05 | 1.1e-05    |   0.0 | 10.51
Modify  | 0          | 2.5e-07    | 1e-06      |   0.0 |  0.25
Other   |            | 4.125e-06  |            |       |  4.18

Nlocal:              1 ave           1 max           1 min
Histogram: 8 0 0 0 0 0 0 0 0 0
Nghost:            242 ave         242 max         242 min
Histogram: 8 0 0 0 0 0 0 0 0 0
Neighs:          31.75 ave          37 max          27 min
Histogram: 1 0 0 0 3 2 1 0 0 1
FullNghs:         63.5 ave          64 max          62 min
Histogram: 2 0 0 0 0 0 0 0 0 6

Total # of neighbors = 508
Ave neighs/atom = 63.5
Neighbor list builds = 0
Dangerous builds = 0
variable  natoms equal "count(all)"
variable xlength equal "lx"
variable  volume equal "vol"
variable  etotal equal "etotal"
variable    ecoh equal "pe/v_natoms"
print "${xlength}, ${volume}, ${etotal}, ${ecoh}" append lattice_cohesive_energy.txt screen no

next i
jump SELF loop

change_box all x scale 1.0025 y scale 1.0025 z scale 1.0025 remap
Changing box ...
  orthogonal box = (0.00063489327 0.0067672377 0.0067672377) to (4.9187751 4.9126428 4.9126428)
  orthogonal box = (0.00063489327 0.00063489327 0.0067672377) to (4.9187751 4.9187751 4.9126428)
  orthogonal box = (0.00063489327 0.00063489327 0.00063489327) to (4.9187751 4.9187751 4.9187751)

run 1
WARNING: No fixes with time integration, atoms won't move (src/verlet.cpp:60)
Per MPI rank memory allocation (min/avg/max) = 8.51 | 8.51 | 8.51 Mbytes
   Step         PotEng         TotEng           Lx             Ly             Lz           Volume         Press           Pxx            Pyy            Pzz      
        63  -48.044116     -48.044116      4.9181402      4.9181402      4.9181402      118.96048      495049.72      495049.72      495049.72      495049.72    
        64  -48.044116     -48.044116      4.9181402      4.9181402      4.9181402      118.96048      495049.72      495049.72      495049.72      495049.72    
Loop time of 0.000191875 on 8 procs for 1 steps with 8 atoms

Performance: 450.293 ns/day, 0.053 hours/ns, 5211.726 timesteps/s, 41.694 katom-step/s
0.0% CPU use with 8 MPI tasks x 1 OpenMP threads

MPI task timing breakdown:
Section |  min time  |  avg time  |  max time  |%varavg| %total
---------------------------------------------------------------
Pair    | 0.000113   | 0.00011988 | 0.000139   |   0.0 | 62.48
Neigh   | 0          | 0          | 0          |   0.0 |  0.00
Comm    | 2.5e-05    | 4.35e-05   | 5e-05      |   0.0 | 22.67
Output  | 1.6e-05    | 1.8375e-05 | 2e-05      |   0.0 |  9.58
Modify  | 0          | 1.25e-07   | 1e-06      |   0.0 |  0.07
Other   |            | 1e-05      |            |       |  5.21

Nlocal:              1 ave           1 max           1 min
Histogram: 8 0 0 0 0 0 0 0 0 0
Nghost:            242 ave         242 max         242 min
Histogram: 8 0 0 0 0 0 0 0 0 0
Neighs:          31.75 ave          37 max          27 min
Histogram: 1 0 0 0 3 2 1 0 0 1
FullNghs:         63.5 ave          64 max          62 min
Histogram: 2 0 0 0 0 0 0 0 0 6

Total # of neighbors = 508
Ave neighs/atom = 63.5
Neighbor list builds = 0
Dangerous builds = 0
variable  natoms equal "count(all)"
variable xlength equal "lx"
variable  volume equal "vol"
variable  etotal equal "etotal"
variable    ecoh equal "pe/v_natoms"
print "${xlength}, ${volume}, ${etotal}, ${ecoh}" append lattice_cohesive_energy.txt screen no

next i
jump SELF loop

change_box all x scale 1.0025 y scale 1.0025 z scale 1.0025 remap
Changing box ...
  orthogonal box = (-0.005512782 0.00063489327 0.00063489327) to (4.9249228 4.9187751 4.9187751)
  orthogonal box = (-0.005512782 -0.005512782 0.00063489327) to (4.9249228 4.9249228 4.9187751)
  orthogonal box = (-0.005512782 -0.005512782 -0.005512782) to (4.9249228 4.9249228 4.9249228)

run 1
WARNING: No fixes with time integration, atoms won't move (src/verlet.cpp:60)
Per MPI rank memory allocation (min/avg/max) = 8.51 | 8.51 | 8.51 Mbytes
   Step         PotEng         TotEng           Lx             Ly             Lz           Volume         Press           Pxx            Pyy            Pzz      
        64  -48.310625     -48.310625      4.9304356      4.9304356      4.9304356      119.85492      459962.24      459962.24      459962.24      459962.24    
        65  -48.310625     -48.310625      4.9304356      4.9304356      4.9304356      119.85492      459962.24      459962.24      459962.24      459962.24    
Loop time of 0.0001875 on 8 procs for 1 steps with 8 atoms

Performance: 460.800 ns/day, 0.052 hours/ns, 5333.333 timesteps/s, 42.667 katom-step/s
0.0% CPU use with 8 MPI tasks x 1 OpenMP threads

MPI task timing breakdown:
Section |  min time  |  avg time  |  max time  |%varavg| %total
---------------------------------------------------------------
Pair    | 0.000111   | 0.000118   | 0.000137   |   0.0 | 62.93
Neigh   | 0          | 0          | 0          |   0.0 |  0.00
Comm    | 2.5e-05    | 4.2625e-05 | 5e-05      |   0.0 | 22.73
Output  | 1.6e-05    | 1.775e-05  | 1.9e-05    |   0.0 |  9.47
Modify  | 0          | 0          | 0          |   0.0 |  0.00
Other   |            | 9.125e-06  |            |       |  4.87

Nlocal:              1 ave           1 max           1 min
Histogram: 8 0 0 0 0 0 0 0 0 0
Nghost:            242 ave         242 max         242 min
Histogram: 8 0 0 0 0 0 0 0 0 0
Neighs:          31.75 ave          37 max          27 min
Histogram: 1 0 0 0 3 2 1 0 0 1
FullNghs:         63.5 ave          64 max          62 min
Histogram: 2 0 0 0 0 0 0 0 0 6

Total # of neighbors = 508
Ave neighs/atom = 63.5
Neighbor list builds = 0
Dangerous builds = 0
variable  natoms equal "count(all)"
variable xlength equal "lx"
variable  volume equal "vol"
variable  etotal equal "etotal"
variable    ecoh equal "pe/v_natoms"
print "${xlength}, ${volume}, ${etotal}, ${ecoh}" append lattice_cohesive_energy.txt screen no

next i
jump SELF loop

change_box all x scale 1.0025 y scale 1.0025 z scale 1.0025 remap
Changing box ...
  orthogonal box = (-0.011675826 -0.005512782 -0.005512782) to (4.9310858 4.9249228 4.9249228)
  orthogonal box = (-0.011675826 -0.011675826 -0.005512782) to (4.9310858 4.9310858 4.9249228)
  orthogonal box = (-0.011675826 -0.011675826 -0.011675826) to (4.9310858 4.9310858 4.9310858)

run 1
WARNING: No fixes with time integration, atoms won't move (src/verlet.cpp:60)
Per MPI rank memory allocation (min/avg/max) = 8.51 | 8.51 | 8.51 Mbytes
   Step         PotEng         TotEng           Lx             Ly             Lz           Volume         Press           Pxx            Pyy            Pzz      
        65  -48.559719     -48.559719      4.9427617      4.9427617      4.9427617      120.75608      425991.96      425991.96      425991.96      425991.96    
        66  -48.559719     -48.559719      4.9427617      4.9427617      4.9427617      120.75608      425991.96      425991.96      425991.96      425991.96    
Loop time of 0.000193375 on 8 procs for 1 steps with 8 atoms

Performance: 446.800 ns/day, 0.054 hours/ns, 5171.299 timesteps/s, 41.370 katom-step/s
0.0% CPU use with 8 MPI tasks x 1 OpenMP threads

MPI task timing breakdown:
Section |  min time  |  avg time  |  max time  |%varavg| %total
---------------------------------------------------------------
Pair    | 0.000114   | 0.0001235  | 0.000142   |   0.0 | 63.87
Neigh   | 0          | 0          | 0          |   0.0 |  0.00
Comm    | 2.6e-05    | 4.25e-05   | 5e-05      |   0.0 | 21.98
Output  | 1.7e-05    | 1.85e-05   | 2e-05      |   0.0 |  9.57
Modify  | 0          | 0          | 0          |   0.0 |  0.00
Other   |            | 8.875e-06  |            |       |  4.59

Nlocal:              1 ave           1 max           1 min
Histogram: 8 0 0 0 0 0 0 0 0 0
Nghost:            242 ave         242 max         242 min
Histogram: 8 0 0 0 0 0 0 0 0 0
Neighs:          31.75 ave          37 max          27 min
Histogram: 1 0 0 0 3 2 1 0 0 1
FullNghs:         63.5 ave          64 max          62 min
Histogram: 2 0 0 0 0 0 0 0 0 6

Total # of neighbors = 508
Ave neighs/atom = 63.5
Neighbor list builds = 0
Dangerous builds = 0
variable  natoms equal "count(all)"
variable xlength equal "lx"
variable  volume equal "vol"
variable  etotal equal "etotal"
variable    ecoh equal "pe/v_natoms"
print "${xlength}, ${volume}, ${etotal}, ${ecoh}" append lattice_cohesive_energy.txt screen no

next i
jump SELF loop

change_box all x scale 1.0025 y scale 1.0025 z scale 1.0025 remap
Changing box ...
  orthogonal box = (-0.017854279 -0.011675826 -0.011675826) to (4.9372643 4.9310858 4.9310858)
  orthogonal box = (-0.017854279 -0.017854279 -0.011675826) to (4.9372643 4.9372643 4.9310858)
  orthogonal box = (-0.017854279 -0.017854279 -0.017854279) to (4.9372643 4.9372643 4.9372643)

run 1
WARNING: No fixes with time integration, atoms won't move (src/verlet.cpp:60)
Per MPI rank memory allocation (min/avg/max) = 8.51 | 8.51 | 8.51 Mbytes
   Step         PotEng         TotEng           Lx             Ly             Lz           Volume         Press           Pxx            Pyy            Pzz      
        66  -48.791745     -48.791745      4.9551186      4.9551186      4.9551186      121.66402      393112.77      393112.77      393112.77      393112.77    
        67  -48.791745     -48.791745      4.9551186      4.9551186      4.9551186      121.66402      393112.77      393112.77      393112.77      393112.77    
Loop time of 0.000187125 on 8 procs for 1 steps with 8 atoms

Performance: 461.723 ns/day, 0.052 hours/ns, 5344.021 timesteps/s, 42.752 katom-step/s
0.0% CPU use with 8 MPI tasks x 1 OpenMP threads

MPI task timing breakdown:
Section |  min time  |  avg time  |  max time  |%varavg| %total
---------------------------------------------------------------
Pair    | 0.000112   | 0.00011838 | 0.000137   |   0.0 | 63.26
Neigh   | 0          | 0          | 0          |   0.0 |  0.00
Comm    | 2.5e-05    | 4.1875e-05 | 4.9e-05    |   0.0 | 22.38
Output  | 1.6e-05    | 1.825e-05  | 2e-05      |   0.0 |  9.75
Modify  | 0          | 0          | 0          |   0.0 |  0.00
Other   |            | 8.625e-06  |            |       |  4.61

Nlocal:              1 ave           1 max           1 min
Histogram: 8 0 0 0 0 0 0 0 0 0
Nghost:            242 ave         242 max         242 min
Histogram: 8 0 0 0 0 0 0 0 0 0
Neighs:          31.75 ave          37 max          27 min
Histogram: 1 0 0 0 3 2 1 0 0 1
FullNghs:         63.5 ave          64 max          62 min
Histogram: 2 0 0 0 0 0 0 0 0 6

Total # of neighbors = 508
Ave neighs/atom = 63.5
Neighbor list builds = 0
Dangerous builds = 0
variable  natoms equal "count(all)"
variable xlength equal "lx"
variable  volume equal "vol"
variable  etotal equal "etotal"
variable    ecoh equal "pe/v_natoms"
print "${xlength}, ${volume}, ${etotal}, ${ecoh}" append lattice_cohesive_energy.txt screen no

next i
jump SELF loop

change_box all x scale 1.0025 y scale 1.0025 z scale 1.0025 remap
Changing box ...
  orthogonal box = (-0.024048177 -0.017854279 -0.017854279) to (4.9434582 4.9372643 4.9372643)
  orthogonal box = (-0.024048177 -0.024048177 -0.017854279) to (4.9434582 4.9434582 4.9372643)
  orthogonal box = (-0.024048177 -0.024048177 -0.024048177) to (4.9434582 4.9434582 4.9434582)

run 1
WARNING: No fixes with time integration, atoms won't move (src/verlet.cpp:60)
Per MPI rank memory allocation (min/avg/max) = 8.51 | 8.51 | 8.51 Mbytes
   Step         PotEng         TotEng           Lx             Ly             Lz           Volume         Press           Pxx            Pyy            Pzz      
        67  -49.00705      -49.00705       4.9675064      4.9675064      4.9675064      122.57878      361299.21      361299.21      361299.21      361299.21    
        68  -49.00705      -49.00705       4.9675064      4.9675064      4.9675064      122.57878      361299.21      361299.21      361299.21      361299.21    
Loop time of 0.000194375 on 8 procs for 1 steps with 8 atoms

Performance: 444.502 ns/day, 0.054 hours/ns, 5144.695 timesteps/s, 41.158 katom-step/s
0.0% CPU use with 8 MPI tasks x 1 OpenMP threads

MPI task timing breakdown:
Section |  min time  |  avg time  |  max time  |%varavg| %total
---------------------------------------------------------------
Pair    | 0.000114   | 0.00012275 | 0.000137   |   0.0 | 63.15
Neigh   | 0          | 0          | 0          |   0.0 |  0.00
Comm    | 2.7e-05    | 3.975e-05  | 4.8e-05    |   0.0 | 20.45
Output  | 1.6e-05    | 1.825e-05  | 2e-05      |   0.0 |  9.39
Modify  | 0          | 2.5e-07    | 1e-06      |   0.0 |  0.13
Other   |            | 1.338e-05  |            |       |  6.88

Nlocal:              1 ave           1 max           1 min
Histogram: 8 0 0 0 0 0 0 0 0 0
Nghost:            242 ave         242 max         242 min
Histogram: 8 0 0 0 0 0 0 0 0 0
Neighs:          31.75 ave          37 max          27 min
Histogram: 1 0 0 0 3 2 1 0 0 1
FullNghs:         63.5 ave          64 max          62 min
Histogram: 2 0 0 0 0 0 0 0 0 6

Total # of neighbors = 508
Ave neighs/atom = 63.5
Neighbor list builds = 0
Dangerous builds = 0
variable  natoms equal "count(all)"
variable xlength equal "lx"
variable  volume equal "vol"
variable  etotal equal "etotal"
variable    ecoh equal "pe/v_natoms"
print "${xlength}, ${volume}, ${etotal}, ${ecoh}" append lattice_cohesive_energy.txt screen no

next i
jump SELF loop

change_box all x scale 1.0025 y scale 1.0025 z scale 1.0025 remap
Changing box ...
  orthogonal box = (-0.03025756 -0.024048177 -0.024048177) to (4.9496676 4.9434582 4.9434582)
  orthogonal box = (-0.03025756 -0.03025756 -0.024048177) to (4.9496676 4.9496676 4.9434582)
  orthogonal box = (-0.03025756 -0.03025756 -0.03025756) to (4.9496676 4.9496676 4.9496676)

run 1
WARNING: No fixes with time integration, atoms won't move (src/verlet.cpp:60)
Per MPI rank memory allocation (min/avg/max) = 8.51 | 8.51 | 8.51 Mbytes
   Step         PotEng         TotEng           Lx             Ly             Lz           Volume         Press           Pxx            Pyy            Pzz      
        68  -49.205973     -49.205973      4.9799251      4.9799251      4.9799251      123.50042      330526.11      330526.11      330526.11      330526.11    
        69  -49.205973     -49.205973      4.9799251      4.9799251      4.9799251      123.50042      330526.11      330526.11      330526.11      330526.11    
Loop time of 0.0001845 on 8 procs for 1 steps with 8 atoms

Performance: 468.293 ns/day, 0.051 hours/ns, 5420.054 timesteps/s, 43.360 katom-step/s
0.0% CPU use with 8 MPI tasks x 1 OpenMP threads

MPI task timing breakdown:
Section |  min time  |  avg time  |  max time  |%varavg| %total
---------------------------------------------------------------
Pair    | 0.00011    | 0.0001165  | 0.000134   |   0.0 | 63.14
Neigh   | 0          | 0          | 0          |   0.0 |  0.00
Comm    | 2.6e-05    | 4.1625e-05 | 4.8e-05    |   0.0 | 22.56
Output  | 1.6e-05    | 1.7625e-05 | 1.9e-05    |   0.0 |  9.55
Modify  | 0          | 0          | 0          |   0.0 |  0.00
Other   |            | 8.75e-06   |            |       |  4.74

Nlocal:              1 ave           1 max           1 min
Histogram: 8 0 0 0 0 0 0 0 0 0
Nghost:            242 ave         242 max         242 min
Histogram: 8 0 0 0 0 0 0 0 0 0
Neighs:          31.75 ave          37 max          27 min
Histogram: 1 0 0 0 3 2 1 0 0 1
FullNghs:         63.5 ave          64 max          62 min
Histogram: 2 0 0 0 0 0 0 0 0 6

Total # of neighbors = 508
Ave neighs/atom = 63.5
Neighbor list builds = 0
Dangerous builds = 0
variable  natoms equal "count(all)"
variable xlength equal "lx"
variable  volume equal "vol"
variable  etotal equal "etotal"
variable    ecoh equal "pe/v_natoms"
print "${xlength}, ${volume}, ${etotal}, ${ecoh}" append lattice_cohesive_energy.txt screen no

next i
jump SELF loop

change_box all x scale 1.0025 y scale 1.0025 z scale 1.0025 remap
Changing box ...
  orthogonal box = (-0.036482466 -0.03025756 -0.03025756) to (4.9558925 4.9496676 4.9496676)
  orthogonal box = (-0.036482466 -0.036482466 -0.03025756) to (4.9558925 4.9558925 4.9496676)
  orthogonal box = (-0.036482466 -0.036482466 -0.036482466) to (4.9558925 4.9558925 4.9558925)

run 1
WARNING: No fixes with time integration, atoms won't move (src/verlet.cpp:60)
Per MPI rank memory allocation (min/avg/max) = 8.51 | 8.51 | 8.51 Mbytes
   Step         PotEng         TotEng           Lx             Ly             Lz           Volume         Press           Pxx            Pyy            Pzz      
        69  -49.388853     -49.388853      4.9923749      4.9923749      4.9923749      124.42899      300768.93      300768.93      300768.93      300768.93    
        70  -49.388853     -49.388853      4.9923749      4.9923749      4.9923749      124.42899      300768.93      300768.93      300768.93      300768.93    
Loop time of 0.000184875 on 8 procs for 1 steps with 8 atoms

Performance: 467.343 ns/day, 0.051 hours/ns, 5409.060 timesteps/s, 43.272 katom-step/s
0.0% CPU use with 8 MPI tasks x 1 OpenMP threads

MPI task timing breakdown:
Section |  min time  |  avg time  |  max time  |%varavg| %total
---------------------------------------------------------------
Pair    | 0.00011    | 0.00011662 | 0.000136   |   0.0 | 63.08
Neigh   | 0          | 0          | 0          |   0.0 |  0.00
Comm    | 2.4e-05    | 4.2e-05    | 4.8e-05    |   0.0 | 22.72
Output  | 1.6e-05    | 1.75e-05   | 1.9e-05    |   0.0 |  9.47
Modify  | 0          | 2.5e-07    | 1e-06      |   0.0 |  0.14
Other   |            | 8.5e-06    |            |       |  4.60

Nlocal:              1 ave           1 max           1 min
Histogram: 8 0 0 0 0 0 0 0 0 0
Nghost:            242 ave         242 max         242 min
Histogram: 8 0 0 0 0 0 0 0 0 0
Neighs:          31.75 ave          37 max          27 min
Histogram: 1 0 0 0 3 2 1 0 0 1
FullNghs:         63.5 ave          64 max          62 min
Histogram: 2 0 0 0 0 0 0 0 0 6

Total # of neighbors = 508
Ave neighs/atom = 63.5
Neighbor list builds = 0
Dangerous builds = 0
variable  natoms equal "count(all)"
variable xlength equal "lx"
variable  volume equal "vol"
variable  etotal equal "etotal"
variable    ecoh equal "pe/v_natoms"
print "${xlength}, ${volume}, ${etotal}, ${ecoh}" append lattice_cohesive_energy.txt screen no

next i
jump SELF loop

change_box all x scale 1.0025 y scale 1.0025 z scale 1.0025 remap
Changing box ...
  orthogonal box = (-0.042722935 -0.036482466 -0.036482466) to (4.9621329 4.9558925 4.9558925)
  orthogonal box = (-0.042722935 -0.042722935 -0.036482466) to (4.9621329 4.9621329 4.9558925)
  orthogonal box = (-0.042722935 -0.042722935 -0.042722935) to (4.9621329 4.9621329 4.9621329)

run 1
WARNING: No fixes with time integration, atoms won't move (src/verlet.cpp:60)
Per MPI rank memory allocation (min/avg/max) = 8.51 | 8.51 | 8.51 Mbytes
   Step         PotEng         TotEng           Lx             Ly             Lz           Volume         Press           Pxx            Pyy            Pzz      
        70  -49.556023     -49.556023      5.0048559      5.0048559      5.0048559      125.36454      272003.51      272003.51      272003.51      272003.51    
        71  -49.556023     -49.556023      5.0048559      5.0048559      5.0048559      125.36454      272003.51      272003.51      272003.51      272003.51    
Loop time of 0.000186 on 8 procs for 1 steps with 8 atoms

Performance: 464.516 ns/day, 0.052 hours/ns, 5376.344 timesteps/s, 43.011 katom-step/s
0.0% CPU use with 8 MPI tasks x 1 OpenMP threads

MPI task timing breakdown:
Section |  min time  |  avg time  |  max time  |%varavg| %total
---------------------------------------------------------------
Pair    | 0.00011    | 0.00011675 | 0.000136   |   0.0 | 62.77
Neigh   | 0          | 0          | 0          |   0.0 |  0.00
Comm    | 2.5e-05    | 4.2625e-05 | 4.9e-05    |   0.0 | 22.92
Output  | 1.7e-05    | 1.7875e-05 | 1.9e-05    |   0.0 |  9.61
Modify  | 0          | 1.25e-07   | 1e-06      |   0.0 |  0.07
Other   |            | 8.625e-06  |            |       |  4.64

Nlocal:              1 ave           1 max           1 min
Histogram: 8 0 0 0 0 0 0 0 0 0
Nghost:            242 ave         242 max         242 min
Histogram: 8 0 0 0 0 0 0 0 0 0
Neighs:          31.75 ave          37 max          27 min
Histogram: 1 0 0 0 3 2 1 0 0 1
FullNghs:         63.5 ave          64 max          62 min
Histogram: 2 0 0 0 0 0 0 0 0 6

Total # of neighbors = 508
Ave neighs/atom = 63.5
Neighbor list builds = 0
Dangerous builds = 0
variable  natoms equal "count(all)"
variable xlength equal "lx"
variable  volume equal "vol"
variable  etotal equal "etotal"
variable    ecoh equal "pe/v_natoms"
print "${xlength}, ${volume}, ${etotal}, ${ecoh}" append lattice_cohesive_energy.txt screen no

next i
jump SELF loop

change_box all x scale 1.0025 y scale 1.0025 z scale 1.0025 remap
Changing box ...
  orthogonal box = (-0.048979005 -0.042722935 -0.042722935) to (4.968389 4.9621329 4.9621329)
  orthogonal box = (-0.048979005 -0.048979005 -0.042722935) to (4.968389 4.968389 4.9621329)
  orthogonal box = (-0.048979005 -0.048979005 -0.048979005) to (4.968389 4.968389 4.968389)

run 1
WARNING: No fixes with time integration, atoms won't move (src/verlet.cpp:60)
Per MPI rank memory allocation (min/avg/max) = 8.51 | 8.51 | 8.51 Mbytes
   Step         PotEng         TotEng           Lx             Ly             Lz           Volume         Press           Pxx            Pyy            Pzz      
        71  -49.707814     -49.707814      5.017368       5.017368       5.017368       126.30713      244206.17      244206.17      244206.17      244206.17    
        72  -49.707814     -49.707814      5.017368       5.017368       5.017368       126.30713      244206.17      244206.17      244206.17      244206.17    
Loop time of 0.00018975 on 8 procs for 1 steps with 8 atoms

Performance: 455.336 ns/day, 0.053 hours/ns, 5270.092 timesteps/s, 42.161 katom-step/s
0.0% CPU use with 8 MPI tasks x 1 OpenMP threads

MPI task timing breakdown:
Section |  min time  |  avg time  |  max time  |%varavg| %total
---------------------------------------------------------------
Pair    | 0.000109   | 0.00011612 | 0.000135   |   0.0 | 61.20
Neigh   | 0          | 0          | 0          |   0.0 |  0.00
Comm    | 2.5e-05    | 4.1625e-05 | 4.9e-05    |   0.0 | 21.94
Output  | 1.6e-05    | 1.8e-05    | 1.9e-05    |   0.0 |  9.49
Modify  | 0          | 1.25e-07   | 1e-06      |   0.0 |  0.07
Other   |            | 1.388e-05  |            |       |  7.31

Nlocal:              1 ave           1 max           1 min
Histogram: 8 0 0 0 0 0 0 0 0 0
Nghost:            242 ave         242 max         242 min
Histogram: 8 0 0 0 0 0 0 0 0 0
Neighs:          31.75 ave          37 max          27 min
Histogram: 1 0 0 0 3 2 1 0 0 1
FullNghs:         63.5 ave          64 max          62 min
Histogram: 2 0 0 0 0 0 0 0 0 6

Total # of neighbors = 508
Ave neighs/atom = 63.5
Neighbor list builds = 0
Dangerous builds = 0
variable  natoms equal "count(all)"
variable xlength equal "lx"
variable  volume equal "vol"
variable  etotal equal "etotal"
variable    ecoh equal "pe/v_natoms"
print "${xlength}, ${volume}, ${etotal}, ${ecoh}" append lattice_cohesive_energy.txt screen no

next i
jump SELF loop

change_box all x scale 1.0025 y scale 1.0025 z scale 1.0025 remap
Changing box ...
  orthogonal box = (-0.055250715 -0.048979005 -0.048979005) to (4.9746607 4.968389 4.968389)
  orthogonal box = (-0.055250715 -0.055250715 -0.048979005) to (4.9746607 4.9746607 4.968389)
  orthogonal box = (-0.055250715 -0.055250715 -0.055250715) to (4.9746607 4.9746607 4.9746607)

run 1
WARNING: No fixes with time integration, atoms won't move (src/verlet.cpp:60)
Per MPI rank memory allocation (min/avg/max) = 8.51 | 8.51 | 8.51 Mbytes
   Step         PotEng         TotEng           Lx             Ly             Lz           Volume         Press           Pxx            Pyy            Pzz      
        72  -49.84455      -49.84455       5.0299114      5.0299114      5.0299114      127.2568       217353.67      217353.67      217353.67      217353.67    
        73  -49.84455      -49.84455       5.0299114      5.0299114      5.0299114      127.2568       217353.67      217353.67      217353.67      217353.67    
Loop time of 0.000186375 on 8 procs for 1 steps with 8 atoms

Performance: 463.581 ns/day, 0.052 hours/ns, 5365.526 timesteps/s, 42.924 katom-step/s
0.0% CPU use with 8 MPI tasks x 1 OpenMP threads

MPI task timing breakdown:
Section |  min time  |  avg time  |  max time  |%varavg| %total
---------------------------------------------------------------
Pair    | 0.000108   | 0.00011538 | 0.000135   |   0.0 | 61.90
Neigh   | 0          | 0          | 0          |   0.0 |  0.00
Comm    | 2.5e-05    | 4.2375e-05 | 4.9e-05    |   0.0 | 22.74
Output  | 1.5e-05    | 1.7875e-05 | 1.9e-05    |   0.0 |  9.59
Modify  | 0          | 3.75e-07   | 1e-06      |   0.0 |  0.20
Other   |            | 1.037e-05  |            |       |  5.57

Nlocal:              1 ave           1 max           1 min
Histogram: 8 0 0 0 0 0 0 0 0 0
Nghost:            242 ave         242 max         242 min
Histogram: 8 0 0 0 0 0 0 0 0 0
Neighs:          31.75 ave          37 max          27 min
Histogram: 1 0 0 0 3 2 1 0 0 1
FullNghs:         63.5 ave          64 max          62 min
Histogram: 2 0 0 0 0 0 0 0 0 6

Total # of neighbors = 508
Ave neighs/atom = 63.5
Neighbor list builds = 0
Dangerous builds = 0
variable  natoms equal "count(all)"
variable xlength equal "lx"
variable  volume equal "vol"
variable  etotal equal "etotal"
variable    ecoh equal "pe/v_natoms"
print "${xlength}, ${volume}, ${etotal}, ${ecoh}" append lattice_cohesive_energy.txt screen no

next i
jump SELF loop

change_box all x scale 1.0025 y scale 1.0025 z scale 1.0025 remap
Changing box ...
  orthogonal box = (-0.061538104 -0.055250715 -0.055250715) to (4.9809481 4.9746607 4.9746607)
  orthogonal box = (-0.061538104 -0.061538104 -0.055250715) to (4.9809481 4.9809481 4.9746607)
  orthogonal box = (-0.061538104 -0.061538104 -0.061538104) to (4.9809481 4.9809481 4.9809481)

run 1
WARNING: No fixes with time integration, atoms won't move (src/verlet.cpp:60)
Per MPI rank memory allocation (min/avg/max) = 8.51 | 8.51 | 8.51 Mbytes
   Step         PotEng         TotEng           Lx             Ly             Lz           Volume         Press           Pxx            Pyy            Pzz      
        73  -49.966555     -49.966555      5.0424862      5.0424862      5.0424862      128.21362      191423.23      191423.23      191423.23      191423.23    
        74  -49.966555     -49.966555      5.0424862      5.0424862      5.0424862      128.21362      191423.23      191423.23      191423.23      191423.23    
Loop time of 0.0002605 on 8 procs for 1 steps with 8 atoms

Performance: 331.670 ns/day, 0.072 hours/ns, 3838.772 timesteps/s, 30.710 katom-step/s
0.0% CPU use with 8 MPI tasks x 1 OpenMP threads

MPI task timing breakdown:
Section |  min time  |  avg time  |  max time  |%varavg| %total
---------------------------------------------------------------
Pair    | 0.000184   | 0.00019262 | 0.000212   |   0.0 | 73.94
Neigh   | 0          | 0          | 0          |   0.0 |  0.00
Comm    | 2.1e-05    | 3.9125e-05 | 4.8e-05    |   0.0 | 15.02
Output  | 1.8e-05    | 1.9125e-05 | 2.2e-05    |   0.0 |  7.34
Modify  | 0          | 2.5e-07    | 1e-06      |   0.0 |  0.10
Other   |            | 9.375e-06  |            |       |  3.60

Nlocal:              1 ave           1 max           1 min
Histogram: 8 0 0 0 0 0 0 0 0 0
Nghost:            188 ave         188 max         188 min
Histogram: 8 0 0 0 0 0 0 0 0 0
Neighs:          31.75 ave          37 max          27 min
Histogram: 1 0 0 0 3 2 1 0 0 1
FullNghs:         63.5 ave          64 max          62 min
Histogram: 2 0 0 0 0 0 0 0 0 6

Total # of neighbors = 508
Ave neighs/atom = 63.5
Neighbor list builds = 0
Dangerous builds = 0
variable  natoms equal "count(all)"
variable xlength equal "lx"
variable  volume equal "vol"
variable  etotal equal "etotal"
variable    ecoh equal "pe/v_natoms"
print "${xlength}, ${volume}, ${etotal}, ${ecoh}" append lattice_cohesive_energy.txt screen no

next i
jump SELF loop

change_box all x scale 1.0025 y scale 1.0025 z scale 1.0025 remap
Changing box ...
  orthogonal box = (-0.067841212 -0.061538104 -0.061538104) to (4.9872512 4.9809481 4.9809481)
  orthogonal box = (-0.067841212 -0.067841212 -0.061538104) to (4.9872512 4.9872512 4.9809481)
  orthogonal box = (-0.067841212 -0.067841212 -0.067841212) to (4.9872512 4.9872512 4.9872512)

run 1
WARNING: No fixes with time integration, atoms won't move (src/verlet.cpp:60)
Per MPI rank memory allocation (min/avg/max) = 8.51 | 8.51 | 8.51 Mbytes
   Step         PotEng         TotEng           Lx             Ly             Lz           Volume         Press           Pxx            Pyy            Pzz      
        74  -50.074148     -50.074148      5.0550924      5.0550924      5.0550924      129.17763      166392.52      166392.52      166392.52      166392.52    
        75  -50.074148     -50.074148      5.0550924      5.0550924      5.0550924      129.17763      166392.52      166392.52      166392.52      166392.52    
Loop time of 0.000175125 on 8 procs for 1 steps with 8 atoms

Performance: 493.362 ns/day, 0.049 hours/ns, 5710.207 timesteps/s, 45.682 katom-step/s
1115.3% CPU use with 8 MPI tasks x 1 OpenMP threads

MPI task timing breakdown:
Section |  min time  |  avg time  |  max time  |%varavg| %total
---------------------------------------------------------------
Pair    | 9.7e-05    | 0.00010637 | 0.000127   |   0.0 | 60.74
Neigh   | 0          | 0          | 0          |   0.0 |  0.00
Comm    | 2.1e-05    | 4e-05      | 4.9e-05    |   0.0 | 22.84
Output  | 1.6e-05    | 1.825e-05  | 2e-05      |   0.0 | 10.42
Modify  | 0          | 2.5e-07    | 1e-06      |   0.0 |  0.14
Other   |            | 1.025e-05  |            |       |  5.85

Nlocal:              1 ave           1 max           1 min
Histogram: 8 0 0 0 0 0 0 0 0 0
Nghost:            188 ave         188 max         188 min
Histogram: 8 0 0 0 0 0 0 0 0 0
Neighs:          31.75 ave          37 max          27 min
Histogram: 1 0 0 0 3 2 1 0 0 1
FullNghs:         63.5 ave          64 max          62 min
Histogram: 2 0 0 0 0 0 0 0 0 6

Total # of neighbors = 508
Ave neighs/atom = 63.5
Neighbor list builds = 0
Dangerous builds = 0
variable  natoms equal "count(all)"
variable xlength equal "lx"
variable  volume equal "vol"
variable  etotal equal "etotal"
variable    ecoh equal "pe/v_natoms"
print "${xlength}, ${volume}, ${etotal}, ${ecoh}" append lattice_cohesive_energy.txt screen no

next i
jump SELF loop

change_box all x scale 1.0025 y scale 1.0025 z scale 1.0025 remap
Changing box ...
  orthogonal box = (-0.074160077 -0.067841212 -0.067841212) to (4.9935701 4.9872512 4.9872512)
  orthogonal box = (-0.074160077 -0.074160077 -0.067841212) to (4.9935701 4.9935701 4.9872512)
  orthogonal box = (-0.074160077 -0.074160077 -0.074160077) to (4.9935701 4.9935701 4.9935701)

run 1
WARNING: No fixes with time integration, atoms won't move (src/verlet.cpp:60)
Per MPI rank memory allocation (min/avg/max) = 8.51 | 8.51 | 8.51 Mbytes
   Step         PotEng         TotEng           Lx             Ly             Lz           Volume         Press           Pxx            Pyy            Pzz      
        75  -50.167643     -50.167643      5.0677302      5.0677302      5.0677302      130.14888      142239.56      142239.56      142239.56      142239.56    
        76  -50.167643     -50.167643      5.0677302      5.0677302      5.0677302      130.14888      142239.56      142239.56      142239.56      142239.56    
Loop time of 0.000176 on 8 procs for 1 steps with 8 atoms

Performance: 490.909 ns/day, 0.049 hours/ns, 5681.818 timesteps/s, 45.455 katom-step/s
0.0% CPU use with 8 MPI tasks x 1 OpenMP threads

MPI task timing breakdown:
Section |  min time  |  avg time  |  max time  |%varavg| %total
---------------------------------------------------------------
Pair    | 0.000101   | 0.0001085  | 0.000126   |   0.0 | 61.65
Neigh   | 0          | 0          | 0          |   0.0 |  0.00
Comm    | 2.4e-05    | 3.975e-05  | 4.7e-05    |   0.0 | 22.59
Output  | 1.6e-05    | 1.7375e-05 | 1.9e-05    |   0.0 |  9.87
Modify  | 0          | 1.25e-07   | 1e-06      |   0.0 |  0.07
Other   |            | 1.025e-05  |            |       |  5.82

Nlocal:              1 ave           1 max           1 min
Histogram: 8 0 0 0 0 0 0 0 0 0
Nghost:            188 ave         188 max         188 min
Histogram: 8 0 0 0 0 0 0 0 0 0
Neighs:          31.75 ave          37 max          27 min
Histogram: 1 0 0 0 3 2 1 0 0 1
FullNghs:         63.5 ave          64 max          62 min
Histogram: 2 0 0 0 0 0 0 0 0 6

Total # of neighbors = 508
Ave neighs/atom = 63.5
Neighbor list builds = 0
Dangerous builds = 0
variable  natoms equal "count(all)"
variable xlength equal "lx"
variable  volume equal "vol"
variable  etotal equal "etotal"
variable    ecoh equal "pe/v_natoms"
print "${xlength}, ${volume}, ${etotal}, ${ecoh}" append lattice_cohesive_energy.txt screen no

next i
jump SELF loop

change_box all x scale 1.0025 y scale 1.0025 z scale 1.0025 remap
Changing box ...
  orthogonal box = (-0.08049474 -0.074160077 -0.074160077) to (4.9999047 4.9935701 4.9935701)
  orthogonal box = (-0.08049474 -0.08049474 -0.074160077) to (4.9999047 4.9999047 4.9935701)
  orthogonal box = (-0.08049474 -0.08049474 -0.08049474) to (4.9999047 4.9999047 4.9999047)

run 1
WARNING: No fixes with time integration, atoms won't move (src/verlet.cpp:60)
Per MPI rank memory allocation (min/avg/max) = 8.51 | 8.51 | 8.51 Mbytes
   Step         PotEng         TotEng           Lx             Ly             Lz           Volume         Press           Pxx            Pyy            Pzz      
        76  -50.247352     -50.247352      5.0803995      5.0803995      5.0803995      131.12744      118942.92      118942.92      118942.92      118942.92    
        77  -50.247352     -50.247352      5.0803995      5.0803995      5.0803995      131.12744      118942.92      118942.92      118942.92      118942.92    
Loop time of 0.0001755 on 8 procs for 1 steps with 8 atoms

Performance: 492.308 ns/day, 0.049 hours/ns, 5698.006 timesteps/s, 45.584 katom-step/s
1112.9% CPU use with 8 MPI tasks x 1 OpenMP threads

MPI task timing breakdown:
Section |  min time  |  avg time  |  max time  |%varavg| %total
---------------------------------------------------------------
Pair    | 0.000101   | 0.00010813 | 0.000128   |   0.0 | 61.61
Neigh   | 0          | 0          | 0          |   0.0 |  0.00
Comm    | 2.2e-05    | 4.15e-05   | 4.9e-05    |   0.0 | 23.65
Output  | 1.6e-05    | 1.7e-05    | 1.9e-05    |   0.0 |  9.69
Modify  | 0          | 1.25e-07   | 1e-06      |   0.0 |  0.07
Other   |            | 8.75e-06   |            |       |  4.99

Nlocal:              1 ave           1 max           1 min
Histogram: 8 0 0 0 0 0 0 0 0 0
Nghost:            188 ave         188 max         188 min
Histogram: 8 0 0 0 0 0 0 0 0 0
Neighs:          31.75 ave          37 max          27 min
Histogram: 1 0 0 0 3 2 1 0 0 1
FullNghs:         63.5 ave          64 max          62 min
Histogram: 2 0 0 0 0 0 0 0 0 6

Total # of neighbors = 508
Ave neighs/atom = 63.5
Neighbor list builds = 0
Dangerous builds = 0
variable  natoms equal "count(all)"
variable xlength equal "lx"
variable  volume equal "vol"
variable  etotal equal "etotal"
variable    ecoh equal "pe/v_natoms"
print "${xlength}, ${volume}, ${etotal}, ${ecoh}" append lattice_cohesive_energy.txt screen no

next i
jump SELF loop

change_box all x scale 1.0025 y scale 1.0025 z scale 1.0025 remap
Changing box ...
  orthogonal box = (-0.086845239 -0.08049474 -0.08049474) to (5.0062552 4.9999047 4.9999047)
  orthogonal box = (-0.086845239 -0.086845239 -0.08049474) to (5.0062552 5.0062552 4.9999047)
  orthogonal box = (-0.086845239 -0.086845239 -0.086845239) to (5.0062552 5.0062552 5.0062552)

run 1
WARNING: No fixes with time integration, atoms won't move (src/verlet.cpp:60)
Per MPI rank memory allocation (min/avg/max) = 8.51 | 8.51 | 8.51 Mbytes
   Step         PotEng         TotEng           Lx             Ly             Lz           Volume         Press           Pxx            Pyy            Pzz      
        77  -50.313583     -50.313583      5.0931005      5.0931005      5.0931005      132.11336      96481.467      96481.467      96481.467      96481.467    
        78  -50.313583     -50.313583      5.0931005      5.0931005      5.0931005      132.11336      96481.467      96481.467      96481.467      96481.467    
Loop time of 0.000170375 on 8 procs for 1 steps with 8 atoms

Performance: 507.117 ns/day, 0.047 hours/ns, 5869.406 timesteps/s, 46.955 katom-step/s
0.0% CPU use with 8 MPI tasks x 1 OpenMP threads

MPI task timing breakdown:
Section |  min time  |  avg time  |  max time  |%varavg| %total
---------------------------------------------------------------
Pair    | 0.000101   | 0.00010812 | 0.000123   |   0.0 | 63.46
Neigh   | 0          | 0          | 0          |   0.0 |  0.00
Comm    | 2.2e-05    | 3.6e-05    | 4.4e-05    |   0.0 | 21.13
Output  | 1.6e-05    | 1.7375e-05 | 1.9e-05    |   0.0 | 10.20
Modify  | 0          | 0          | 0          |   0.0 |  0.00
Other   |            | 8.875e-06  |            |       |  5.21

Nlocal:              1 ave           1 max           1 min
Histogram: 8 0 0 0 0 0 0 0 0 0
Nghost:            188 ave         188 max         188 min
Histogram: 8 0 0 0 0 0 0 0 0 0
Neighs:          31.75 ave          37 max          27 min
Histogram: 1 0 0 0 3 2 1 0 0 1
FullNghs:         63.5 ave          64 max          62 min
Histogram: 2 0 0 0 0 0 0 0 0 6

Total # of neighbors = 508
Ave neighs/atom = 63.5
Neighbor list builds = 0
Dangerous builds = 0
variable  natoms equal "count(all)"
variable xlength equal "lx"
variable  volume equal "vol"
variable  etotal equal "etotal"
variable    ecoh equal "pe/v_natoms"
print "${xlength}, ${volume}, ${etotal}, ${ecoh}" append lattice_cohesive_energy.txt screen no

next i
jump SELF loop

change_box all x scale 1.0025 y scale 1.0025 z scale 1.0025 remap
Changing box ...
  orthogonal box = (-0.093211615 -0.086845239 -0.086845239) to (5.0126216 5.0062552 5.0062552)
  orthogonal box = (-0.093211615 -0.093211615 -0.086845239) to (5.0126216 5.0126216 5.0062552)
  orthogonal box = (-0.093211615 -0.093211615 -0.093211615) to (5.0126216 5.0126216 5.0126216)

run 1
WARNING: No fixes with time integration, atoms won't move (src/verlet.cpp:60)
Per MPI rank memory allocation (min/avg/max) = 8.51 | 8.51 | 8.51 Mbytes
   Step         PotEng         TotEng           Lx             Ly             Lz           Volume         Press           Pxx            Pyy            Pzz      
        78  -50.36664      -50.36664       5.1058332      5.1058332      5.1058332      133.10669      74834.561      74834.561      74834.561      74834.561    
        79  -50.36664      -50.36664       5.1058332      5.1058332      5.1058332      133.10669      74834.561      74834.561      74834.561      74834.561    
Loop time of 0.00016975 on 8 procs for 1 steps with 8 atoms

Performance: 508.984 ns/day, 0.047 hours/ns, 5891.016 timesteps/s, 47.128 katom-step/s
0.0% CPU use with 8 MPI tasks x 1 OpenMP threads

MPI task timing breakdown:
Section |  min time  |  avg time  |  max time  |%varavg| %total
---------------------------------------------------------------
Pair    | 0.0001     | 0.00010637 | 0.000123   |   0.0 | 62.67
Neigh   | 0          | 0          | 0          |   0.0 |  0.00
Comm    | 2.2e-05    | 3.75e-05   | 4.5e-05    |   0.0 | 22.09
Output  | 1.6e-05    | 1.7375e-05 | 1.9e-05    |   0.0 | 10.24
Modify  | 0          | 0          | 0          |   0.0 |  0.00
Other   |            | 8.5e-06    |            |       |  5.01

Nlocal:              1 ave           1 max           1 min
Histogram: 8 0 0 0 0 0 0 0 0 0
Nghost:            188 ave         188 max         188 min
Histogram: 8 0 0 0 0 0 0 0 0 0
Neighs:          31.75 ave          37 max          27 min
Histogram: 1 0 0 0 3 2 1 0 0 1
FullNghs:         63.5 ave          64 max          62 min
Histogram: 2 0 0 0 0 0 0 0 0 6

Total # of neighbors = 508
Ave neighs/atom = 63.5
Neighbor list builds = 0
Dangerous builds = 0
variable  natoms equal "count(all)"
variable xlength equal "lx"
variable  volume equal "vol"
variable  etotal equal "etotal"
variable    ecoh equal "pe/v_natoms"
print "${xlength}, ${volume}, ${etotal}, ${ecoh}" append lattice_cohesive_energy.txt screen no

next i
jump SELF loop

change_box all x scale 1.0025 y scale 1.0025 z scale 1.0025 remap
Changing box ...
  orthogonal box = (-0.099593906 -0.093211615 -0.093211615) to (5.0190039 5.0126216 5.0126216)
  orthogonal box = (-0.099593906 -0.099593906 -0.093211615) to (5.0190039 5.0190039 5.0126216)
  orthogonal box = (-0.099593906 -0.099593906 -0.099593906) to (5.0190039 5.0190039 5.0190039)

run 1
WARNING: No fixes with time integration, atoms won't move (src/verlet.cpp:60)
Per MPI rank memory allocation (min/avg/max) = 8.51 | 8.51 | 8.51 Mbytes
   Step         PotEng         TotEng           Lx             Ly             Lz           Volume         Press           Pxx            Pyy            Pzz      
        79  -50.406823     -50.406823      5.1185978      5.1185978      5.1185978      134.10749      53981.922      53981.922      53981.922      53981.922    
        80  -50.406823     -50.406823      5.1185978      5.1185978      5.1185978      134.10749      53981.922      53981.922      53981.922      53981.922    
Loop time of 0.00016925 on 8 procs for 1 steps with 8 atoms

Performance: 510.487 ns/day, 0.047 hours/ns, 5908.419 timesteps/s, 47.267 katom-step/s
0.0% CPU use with 8 MPI tasks x 1 OpenMP threads

MPI task timing breakdown:
Section |  min time  |  avg time  |  max time  |%varavg| %total
---------------------------------------------------------------
Pair    | 9.9e-05    | 0.00010612 | 0.000123   |   0.0 | 62.70
Neigh   | 0          | 0          | 0          |   0.0 |  0.00
Comm    | 2.2e-05    | 3.7375e-05 | 4.5e-05    |   0.0 | 22.08
Output  | 1.6e-05    | 1.6875e-05 | 1.8e-05    |   0.0 |  9.97
Modify  | 0          | 3.75e-07   | 1e-06      |   0.0 |  0.22
Other   |            | 8.5e-06    |            |       |  5.02

Nlocal:              1 ave           1 max           1 min
Histogram: 8 0 0 0 0 0 0 0 0 0
Nghost:            188 ave         188 max         188 min
Histogram: 8 0 0 0 0 0 0 0 0 0
Neighs:          31.75 ave          37 max          27 min
Histogram: 1 0 0 0 3 2 1 0 0 1
FullNghs:         63.5 ave          64 max          62 min
Histogram: 2 0 0 0 0 0 0 0 0 6

Total # of neighbors = 508
Ave neighs/atom = 63.5
Neighbor list builds = 0
Dangerous builds = 0
variable  natoms equal "count(all)"
variable xlength equal "lx"
variable  volume equal "vol"
variable  etotal equal "etotal"
variable    ecoh equal "pe/v_natoms"
print "${xlength}, ${volume}, ${etotal}, ${ecoh}" append lattice_cohesive_energy.txt screen no

next i
jump SELF loop

change_box all x scale 1.0025 y scale 1.0025 z scale 1.0025 remap
Changing box ...
  orthogonal box = (-0.10599215 -0.099593906 -0.099593906) to (5.0254022 5.0190039 5.0190039)
  orthogonal box = (-0.10599215 -0.10599215 -0.099593906) to (5.0254022 5.0254022 5.0190039)
  orthogonal box = (-0.10599215 -0.10599215 -0.10599215) to (5.0254022 5.0254022 5.0254022)

run 1
WARNING: No fixes with time integration, atoms won't move (src/verlet.cpp:60)
Per MPI rank memory allocation (min/avg/max) = 8.51 | 8.51 | 8.51 Mbytes
   Step         PotEng         TotEng           Lx             Ly             Lz           Volume         Press           Pxx            Pyy            Pzz      
        80  -50.43443      -50.43443       5.1313943      5.1313943      5.1313943      135.11581      33903.695      33903.695      33903.695      33903.695    
        81  -50.43443      -50.43443       5.1313943      5.1313943      5.1313943      135.11581      33903.695      33903.695      33903.695      33903.695    
Loop time of 0.000169 on 8 procs for 1 steps with 8 atoms

Performance: 511.243 ns/day, 0.047 hours/ns, 5917.160 timesteps/s, 47.337 katom-step/s
0.0% CPU use with 8 MPI tasks x 1 OpenMP threads

MPI task timing breakdown:
Section |  min time  |  avg time  |  max time  |%varavg| %total
---------------------------------------------------------------
Pair    | 9.8e-05    | 0.000105   | 0.000122   |   0.0 | 62.13
Neigh   | 0          | 0          | 0          |   0.0 |  0.00
Comm    | 2.2e-05    | 3.8e-05    | 4.4e-05    |   0.0 | 22.49
Output  | 1.6e-05    | 1.7375e-05 | 1.9e-05    |   0.0 | 10.28
Modify  | 0          | 1.25e-07   | 1e-06      |   0.0 |  0.07
Other   |            | 8.5e-06    |            |       |  5.03

Nlocal:              1 ave           1 max           1 min
Histogram: 8 0 0 0 0 0 0 0 0 0
Nghost:            188 ave         188 max         188 min
Histogram: 8 0 0 0 0 0 0 0 0 0
Neighs:          31.75 ave          37 max          27 min
Histogram: 1 0 0 0 3 2 1 0 0 1
FullNghs:         63.5 ave          64 max          62 min
Histogram: 2 0 0 0 0 0 0 0 0 6

Total # of neighbors = 508
Ave neighs/atom = 63.5
Neighbor list builds = 0
Dangerous builds = 0
variable  natoms equal "count(all)"
variable xlength equal "lx"
variable  volume equal "vol"
variable  etotal equal "etotal"
variable    ecoh equal "pe/v_natoms"
print "${xlength}, ${volume}, ${etotal}, ${ecoh}" append lattice_cohesive_energy.txt screen no

next i
jump SELF loop

change_box all x scale 1.0025 y scale 1.0025 z scale 1.0025 remap
Changing box ...
  orthogonal box = (-0.1124064 -0.10599215 -0.10599215) to (5.0318164 5.0254022 5.0254022)
  orthogonal box = (-0.1124064 -0.1124064 -0.10599215) to (5.0318164 5.0318164 5.0254022)
  orthogonal box = (-0.1124064 -0.1124064 -0.1124064) to (5.0318164 5.0318164 5.0318164)

run 1
WARNING: No fixes with time integration, atoms won't move (src/verlet.cpp:60)
Per MPI rank memory allocation (min/avg/max) = 8.51 | 8.51 | 8.51 Mbytes
   Step         PotEng         TotEng           Lx             Ly             Lz           Volume         Press           Pxx            Pyy            Pzz      
        81  -50.449755     -50.449755      5.1442228      5.1442228      5.1442228      136.13171      14580.369      14580.369      14580.369      14580.369    
        82  -50.449755     -50.449755      5.1442228      5.1442228      5.1442228      136.13171      14580.369      14580.369      14580.369      14580.369    
Loop time of 0.000168875 on 8 procs for 1 steps with 8 atoms

Performance: 511.621 ns/day, 0.047 hours/ns, 5921.540 timesteps/s, 47.372 katom-step/s
0.0% CPU use with 8 MPI tasks x 1 OpenMP threads

MPI task timing breakdown:
Section |  min time  |  avg time  |  max time  |%varavg| %total
---------------------------------------------------------------
Pair    | 0.0001     | 0.00010563 | 0.000121   |   0.0 | 62.55
Neigh   | 0          | 0          | 0          |   0.0 |  0.00
Comm    | 2.2e-05    | 3.625e-05  | 4.3e-05    |   0.0 | 21.47
Output  | 1.6e-05    | 1.75e-05   | 1.9e-05    |   0.0 | 10.36
Modify  | 0          | 3.75e-07   | 2e-06      |   0.0 |  0.22
Other   |            | 9.125e-06  |            |       |  5.40

Nlocal:              1 ave           1 max           1 min
Histogram: 8 0 0 0 0 0 0 0 0 0
Nghost:            188 ave         188 max         188 min
Histogram: 8 0 0 0 0 0 0 0 0 0
Neighs:          31.75 ave          37 max          27 min
Histogram: 1 0 0 0 3 2 1 0 0 1
FullNghs:         63.5 ave          64 max          62 min
Histogram: 2 0 0 0 0 0 0 0 0 6

Total # of neighbors = 508
Ave neighs/atom = 63.5
Neighbor list builds = 0
Dangerous builds = 0
variable  natoms equal "count(all)"
variable xlength equal "lx"
variable  volume equal "vol"
variable  etotal equal "etotal"
variable    ecoh equal "pe/v_natoms"
print "${xlength}, ${volume}, ${etotal}, ${ecoh}" append lattice_cohesive_energy.txt screen no

next i
jump SELF loop

change_box all x scale 1.0025 y scale 1.0025 z scale 1.0025 remap
Changing box ...
  orthogonal box = (-0.11883667 -0.1124064 -0.1124064) to (5.0382467 5.0318164 5.0318164)
  orthogonal box = (-0.11883667 -0.11883667 -0.1124064) to (5.0382467 5.0382467 5.0318164)
  orthogonal box = (-0.11883667 -0.11883667 -0.11883667) to (5.0382467 5.0382467 5.0382467)

run 1
WARNING: No fixes with time integration, atoms won't move (src/verlet.cpp:60)
Per MPI rank memory allocation (min/avg/max) = 8.51 | 8.51 | 8.51 Mbytes
   Step         PotEng         TotEng           Lx             Ly             Lz           Volume         Press           Pxx            Pyy            Pzz      
        82  -50.453086     -50.453086      5.1570833      5.1570833      5.1570833      137.15525     -4007.1009     -4007.1009     -4007.1009     -4007.1009    
        83  -50.453086     -50.453086      5.1570833      5.1570833      5.1570833      137.15525     -4007.1009     -4007.1009     -4007.1009     -4007.1009    
Loop time of 0.000168375 on 8 procs for 1 steps with 8 atoms

Performance: 513.140 ns/day, 0.047 hours/ns, 5939.124 timesteps/s, 47.513 katom-step/s
0.0% CPU use with 8 MPI tasks x 1 OpenMP threads

MPI task timing breakdown:
Section |  min time  |  avg time  |  max time  |%varavg| %total
---------------------------------------------------------------
Pair    | 0.0001     | 0.00010662 | 0.000122   |   0.0 | 63.33
Neigh   | 0          | 0          | 0          |   0.0 |  0.00
Comm    | 2.2e-05    | 3.6625e-05 | 4.4e-05    |   0.0 | 21.75
Output  | 1.6e-05    | 1.6875e-05 | 1.8e-05    |   0.0 | 10.02
Modify  | 0          | 1.25e-07   | 1e-06      |   0.0 |  0.07
Other   |            | 8.125e-06  |            |       |  4.83

Nlocal:              1 ave           1 max           1 min
Histogram: 8 0 0 0 0 0 0 0 0 0
Nghost:            188 ave         188 max         188 min
Histogram: 8 0 0 0 0 0 0 0 0 0
Neighs:          31.75 ave          37 max          27 min
Histogram: 1 0 0 0 3 2 1 0 0 1
FullNghs:         63.5 ave          64 max          62 min
Histogram: 2 0 0 0 0 0 0 0 0 6

Total # of neighbors = 508
Ave neighs/atom = 63.5
Neighbor list builds = 0
Dangerous builds = 0
variable  natoms equal "count(all)"
variable xlength equal "lx"
variable  volume equal "vol"
variable  etotal equal "etotal"
variable    ecoh equal "pe/v_natoms"
print "${xlength}, ${volume}, ${etotal}, ${ecoh}" append lattice_cohesive_energy.txt screen no

next i
jump SELF loop

change_box all x scale 1.0025 y scale 1.0025 z scale 1.0025 remap
Changing box ...
  orthogonal box = (-0.12528303 -0.11883667 -0.11883667) to (5.044693 5.0382467 5.0382467)
  orthogonal box = (-0.12528303 -0.12528303 -0.11883667) to (5.044693 5.044693 5.0382467)
  orthogonal box = (-0.12528303 -0.12528303 -0.12528303) to (5.044693 5.044693 5.044693)

run 1
WARNING: No fixes with time integration, atoms won't move (src/verlet.cpp:60)
Per MPI rank memory allocation (min/avg/max) = 8.51 | 8.51 | 8.51 Mbytes
   Step         PotEng         TotEng           Lx             Ly             Lz           Volume         Press           Pxx            Pyy            Pzz      
        83  -50.444711     -50.444711      5.1699761      5.1699761      5.1699761      138.18649     -21877.469     -21877.469     -21877.469     -21877.469    
        84  -50.444711     -50.444711      5.1699761      5.1699761      5.1699761      138.18649     -21877.469     -21877.469     -21877.469     -21877.469    
Loop time of 0.000169 on 8 procs for 1 steps with 8 atoms

Performance: 511.243 ns/day, 0.047 hours/ns, 5917.160 timesteps/s, 47.337 katom-step/s
0.0% CPU use with 8 MPI tasks x 1 OpenMP threads

MPI task timing breakdown:
Section |  min time  |  avg time  |  max time  |%varavg| %total
---------------------------------------------------------------
Pair    | 0.0001     | 0.00010625 | 0.000122   |   0.0 | 62.87
Neigh   | 0          | 0          | 0          |   0.0 |  0.00
Comm    | 2.3e-05    | 3.7125e-05 | 4.4e-05    |   0.0 | 21.97
Output  | 1.6e-05    | 1.7125e-05 | 1.8e-05    |   0.0 | 10.13
Modify  | 0          | 2.5e-07    | 1e-06      |   0.0 |  0.15
Other   |            | 8.25e-06   |            |       |  4.88

Nlocal:              1 ave           1 max           1 min
Histogram: 8 0 0 0 0 0 0 0 0 0
Nghost:            188 ave         188 max         188 min
Histogram: 8 0 0 0 0 0 0 0 0 0
Neighs:          31.75 ave          37 max          29 min
Histogram: 2 0 2 2 0 1 0 0 0 1
FullNghs:         63.5 ave          64 max          62 min
Histogram: 2 0 0 0 0 0 0 0 0 6

Total # of neighbors = 508
Ave neighs/atom = 63.5
Neighbor list builds = 0
Dangerous builds = 0
variable  natoms equal "count(all)"
variable xlength equal "lx"
variable  volume equal "vol"
variable  etotal equal "etotal"
variable    ecoh equal "pe/v_natoms"
print "${xlength}, ${volume}, ${etotal}, ${ecoh}" append lattice_cohesive_energy.txt screen no

next i
jump SELF loop

change_box all x scale 1.0025 y scale 1.0025 z scale 1.0025 remap
Changing box ...
  orthogonal box = (-0.1317455 -0.12528303 -0.12528303) to (5.0511555 5.044693 5.044693)
  orthogonal box = (-0.1317455 -0.1317455 -0.12528303) to (5.0511555 5.0511555 5.044693)
  orthogonal box = (-0.1317455 -0.1317455 -0.1317455) to (5.0511555 5.0511555 5.0511555)

run 1
WARNING: No fixes with time integration, atoms won't move (src/verlet.cpp:60)
Per MPI rank memory allocation (min/avg/max) = 8.51 | 8.51 | 8.51 Mbytes
   Step         PotEng         TotEng           Lx             Ly             Lz           Volume         Press           Pxx            Pyy            Pzz      
        84  -50.424911     -50.424911      5.182901       5.182901       5.182901       139.22549     -39049.069     -39049.069     -39049.069     -39049.069    
        85  -50.424911     -50.424911      5.182901       5.182901       5.182901       139.22549     -39049.069     -39049.069     -39049.069     -39049.069    
Loop time of 0.000170625 on 8 procs for 1 steps with 8 atoms

Performance: 506.374 ns/day, 0.047 hours/ns, 5860.806 timesteps/s, 46.886 katom-step/s
0.0% CPU use with 8 MPI tasks x 1 OpenMP threads

MPI task timing breakdown:
Section |  min time  |  avg time  |  max time  |%varavg| %total
---------------------------------------------------------------
Pair    | 9.8e-05    | 0.00010425 | 0.000121   |   0.0 | 61.10
Neigh   | 0          | 0          | 0          |   0.0 |  0.00
Comm    | 2.2e-05    | 3.7125e-05 | 4.4e-05    |   0.0 | 21.76
Output  | 1.5e-05    | 1.75e-05   | 2.3e-05    |   0.0 | 10.26
Modify  | 0          | 1.25e-07   | 1e-06      |   0.0 |  0.07
Other   |            | 1.162e-05  |            |       |  6.81

Nlocal:              1 ave           1 max           1 min
Histogram: 8 0 0 0 0 0 0 0 0 0
Nghost:            188 ave         188 max         188 min
Histogram: 8 0 0 0 0 0 0 0 0 0
Neighs:          31.75 ave          37 max          29 min
Histogram: 2 0 2 2 0 1 0 0 0 1
FullNghs:         63.5 ave          64 max          62 min
Histogram: 2 0 0 0 0 0 0 0 0 6

Total # of neighbors = 508
Ave neighs/atom = 63.5
Neighbor list builds = 0
Dangerous builds = 0
variable  natoms equal "count(all)"
variable xlength equal "lx"
variable  volume equal "vol"
variable  etotal equal "etotal"
variable    ecoh equal "pe/v_natoms"
print "${xlength}, ${volume}, ${etotal}, ${ecoh}" append lattice_cohesive_energy.txt screen no

next i
jump SELF loop

change_box all x scale 1.0025 y scale 1.0025 z scale 1.0025 remap
Changing box ...
  orthogonal box = (-0.13822413 -0.1317455 -0.1317455) to (5.0576341 5.0511555 5.0511555)
  orthogonal box = (-0.13822413 -0.13822413 -0.1317455) to (5.0576341 5.0576341 5.0511555)
  orthogonal box = (-0.13822413 -0.13822413 -0.13822413) to (5.0576341 5.0576341 5.0576341)

run 1
WARNING: No fixes with time integration, atoms won't move (src/verlet.cpp:60)
Per MPI rank memory allocation (min/avg/max) = 8.51 | 8.51 | 8.51 Mbytes
   Step         PotEng         TotEng           Lx             Ly             Lz           Volume         Press           Pxx            Pyy            Pzz      
        85  -50.393967     -50.393967      5.1958583      5.1958583      5.1958583      140.27229     -55539.847     -55539.847     -55539.847     -55539.847    
        86  -50.393967     -50.393967      5.1958583      5.1958583      5.1958583      140.27229     -55539.847     -55539.847     -55539.847     -55539.847    
Loop time of 0.000168 on 8 procs for 1 steps with 8 atoms

Performance: 514.286 ns/day, 0.047 hours/ns, 5952.381 timesteps/s, 47.619 katom-step/s
0.0% CPU use with 8 MPI tasks x 1 OpenMP threads

MPI task timing breakdown:
Section |  min time  |  avg time  |  max time  |%varavg| %total
---------------------------------------------------------------
Pair    | 9.8e-05    | 0.00010438 | 0.000122   |   0.0 | 62.13
Neigh   | 0          | 0          | 0          |   0.0 |  0.00
Comm    | 2.2e-05    | 3.7125e-05 | 4.4e-05    |   0.0 | 22.10
Output  | 1.5e-05    | 1.675e-05  | 1.8e-05    |   0.0 |  9.97
Modify  | 0          | 6.25e-07   | 1e-06      |   0.0 |  0.37
Other   |            | 9.125e-06  |            |       |  5.43

Nlocal:              1 ave           1 max           1 min
Histogram: 8 0 0 0 0 0 0 0 0 0
Nghost:            188 ave         188 max         188 min
Histogram: 8 0 0 0 0 0 0 0 0 0
Neighs:          31.75 ave          37 max          29 min
Histogram: 2 0 2 2 0 1 0 0 0 1
FullNghs:         63.5 ave          64 max          62 min
Histogram: 2 0 0 0 0 0 0 0 0 6

Total # of neighbors = 508
Ave neighs/atom = 63.5
Neighbor list builds = 0
Dangerous builds = 0
variable  natoms equal "count(all)"
variable xlength equal "lx"
variable  volume equal "vol"
variable  etotal equal "etotal"
variable    ecoh equal "pe/v_natoms"
print "${xlength}, ${volume}, ${etotal}, ${ecoh}" append lattice_cohesive_energy.txt screen no

next i
jump SELF loop

change_box all x scale 1.0025 y scale 1.0025 z scale 1.0025 remap
Changing box ...
  orthogonal box = (-0.14471895 -0.13822413 -0.13822413) to (5.0641289 5.0576341 5.0576341)
  orthogonal box = (-0.14471895 -0.14471895 -0.13822413) to (5.0641289 5.0641289 5.0576341)
  orthogonal box = (-0.14471895 -0.14471895 -0.14471895) to (5.0641289 5.0641289 5.0641289)

run 1
WARNING: No fixes with time integration, atoms won't move (src/verlet.cpp:60)
Per MPI rank memory allocation (min/avg/max) = 8.51 | 8.51 | 8.51 Mbytes
   Step         PotEng         TotEng           Lx             Ly             Lz           Volume         Press           Pxx            Pyy            Pzz      
        86  -50.352155     -50.352155      5.2088479      5.2088479      5.2088479      141.32696     -71367.466     -71367.466     -71367.466     -71367.466    
[...]
---------------------------------------------------------------
Pair    | 9.1e-05    | 9.2625e-05 | 9.8e-05    |   0.0 | 71.80
Neigh   | 0          | 0          | 0          |   0.0 |  0.00
Comm    | 1.4e-05    | 1.8875e-05 | 2.2e-05    |   0.0 | 14.63
Output  | 1.1e-05    | 1.35e-05   | 2e-05      |   0.0 | 10.47
Modify  | 0          | 2.5e-07    | 1e-06      |   0.0 |  0.19
Other   |            | 3.75e-06   |            |       |  2.91

Nlocal:              1 ave           5 max           0 min
Histogram: 4 0 3 0 0 0 0 0 0 1
Nghost:            188 ave         189 max         184 min
Histogram: 1 0 0 0 0 0 0 0 3 4
Neighs:          28.75 ave         148 max           0 min
Histogram: 4 3 0 0 0 0 0 0 0 1
FullNghs:         57.5 ave         292 max           0 min
Histogram: 4 3 0 0 0 0 0 0 0 1

Total # of neighbors = 460
Ave neighs/atom = 57.5
Neighbor list builds = 0
Dangerous builds = 0
variable  natoms equal "count(all)"
variable xlength equal "lx"
variable  volume equal "vol"
variable  etotal equal "etotal"
variable    ecoh equal "pe/v_natoms"
print "${xlength}, ${volume}, ${etotal}, ${ecoh}" append lattice_cohesive_energy.txt screen no

next i
jump SELF loop

change_box all x scale 1.0025 y scale 1.0025 z scale 1.0025 remap
Changing box ...
  orthogonal box = (-0.23736997 -0.23064409 -0.23064409) to (5.15678 5.1500541 5.1500541)
  orthogonal box = (-0.23736997 -0.23736997 -0.23064409) to (5.15678 5.15678 5.1500541)
  orthogonal box = (-0.23736997 -0.23736997 -0.23736997) to (5.15678 5.15678 5.15678)

run 1
WARNING: No fixes with time integration, atoms won't move (src/verlet.cpp:60)
Per MPI rank memory allocation (min/avg/max) = 8.51 | 8.511 | 8.513 Mbytes
   Step         PotEng         TotEng           Lx             Ly             Lz           Volume         Press           Pxx            Pyy            Pzz      
       100  -48.771942     -48.771942      5.3941499      5.3941499      5.3941499      156.95279     -232372.76     -232372.76     -232372.76     -232372.76    
       101  -48.771942     -48.771942      5.3941499      5.3941499      5.3941499      156.95279     -232372.76     -232372.76     -232372.76     -232372.76    
Loop time of 0.00017825 on 8 procs for 1 steps with 8 atoms

Performance: 484.712 ns/day, 0.050 hours/ns, 5610.098 timesteps/s, 44.881 katom-step/s
0.0% CPU use with 8 MPI tasks x 1 OpenMP threads

MPI task timing breakdown:
Section |  min time  |  avg time  |  max time  |%varavg| %total
---------------------------------------------------------------
Pair    | 0.000108   | 0.0001165  | 0.000132   |   0.0 | 65.36
Neigh   | 0          | 0          | 0          |   0.0 |  0.00
Comm    | 1.4e-05    | 3.0625e-05 | 4.3e-05    |   0.0 | 17.18
Output  | 1.5e-05    | 2.125e-05  | 4.6e-05    |   0.0 | 11.92
Modify  | 0          | 1.25e-07   | 1e-06      |   0.0 |  0.07
Other   |            | 9.75e-06   |            |       |  5.47

Nlocal:              1 ave           5 max           0 min
Histogram: 4 0 3 0 0 0 0 0 0 1
Nghost:            188 ave         189 max         184 min
Histogram: 1 0 0 0 0 0 0 0 3 4
Neighs:          28.75 ave         148 max           0 min
Histogram: 4 3 0 0 0 0 0 0 0 1
FullNghs:         57.5 ave         292 max           0 min
Histogram: 4 3 0 0 0 0 0 0 0 1

Total # of neighbors = 460
Ave neighs/atom = 57.5
Neighbor list builds = 0
Dangerous builds = 0
variable  natoms equal "count(all)"
variable xlength equal "lx"
variable  volume equal "vol"
variable  etotal equal "etotal"
variable    ecoh equal "pe/v_natoms"
print "${xlength}, ${volume}, ${etotal}, ${ecoh}" append lattice_cohesive_energy.txt screen no

next i
jump SELF loop

change_box all x scale 1.0025 y scale 1.0025 z scale 1.0025 remap
Changing box ...
  orthogonal box = (-0.24411266 -0.23736997 -0.23736997) to (5.1635227 5.15678 5.15678)
  orthogonal box = (-0.24411266 -0.24411266 -0.23736997) to (5.1635227 5.1635227 5.15678)
  orthogonal box = (-0.24411266 -0.24411266 -0.24411266) to (5.1635227 5.1635227 5.1635227)

run 1
WARNING: No fixes with time integration, atoms won't move (src/verlet.cpp:60)
Per MPI rank memory allocation (min/avg/max) = 8.51 | 8.511 | 8.513 Mbytes
   Step         PotEng         TotEng           Lx             Ly             Lz           Volume         Press           Pxx            Pyy            Pzz      
       101  -48.597897     -48.597897      5.4076353      5.4076353      5.4076353      158.13288     -240138.08     -240138.08     -240138.08     -240138.08    
       102  -48.597897     -48.597897      5.4076353      5.4076353      5.4076353      158.13288     -240138.08     -240138.08     -240138.08     -240138.08    
Loop time of 0.00017475 on 8 procs for 1 steps with 8 atoms

Performance: 494.421 ns/day, 0.049 hours/ns, 5722.461 timesteps/s, 45.780 katom-step/s
0.0% CPU use with 8 MPI tasks x 1 OpenMP threads

MPI task timing breakdown:
Section |  min time  |  avg time  |  max time  |%varavg| %total
---------------------------------------------------------------
Pair    | 0.000109   | 0.00011638 | 0.00013    |   0.0 | 66.60
Neigh   | 0          | 0          | 0          |   0.0 |  0.00
Comm    | 1.4e-05    | 2.9e-05    | 4e-05      |   0.0 | 16.60
Output  | 1.5e-05    | 2.05e-05   | 4.3e-05    |   0.0 | 11.73
Modify  | 0          | 2.5e-07    | 1e-06      |   0.0 |  0.14
Other   |            | 8.625e-06  |            |       |  4.94

Nlocal:              1 ave           5 max           0 min
Histogram: 4 0 3 0 0 0 0 0 0 1
Nghost:            188 ave         189 max         184 min
Histogram: 1 0 0 0 0 0 0 0 3 4
Neighs:          28.75 ave         148 max           0 min
Histogram: 4 3 0 0 0 0 0 0 0 1
FullNghs:         57.5 ave         292 max           0 min
Histogram: 4 3 0 0 0 0 0 0 0 1

Total # of neighbors = 460
Ave neighs/atom = 57.5
Neighbor list builds = 0
Dangerous builds = 0
variable  natoms equal "count(all)"
variable xlength equal "lx"
variable  volume equal "vol"
variable  etotal equal "etotal"
variable    ecoh equal "pe/v_natoms"
print "${xlength}, ${volume}, ${etotal}, ${ecoh}" append lattice_cohesive_energy.txt screen no

next i
jump SELF loop

change_box all x scale 1.0025 y scale 1.0025 z scale 1.0025 remap
Changing box ...
  orthogonal box = (-0.2508722 -0.24411266 -0.24411266) to (5.1702822 5.1635227 5.1635227)
  orthogonal box = (-0.2508722 -0.2508722 -0.24411266) to (5.1702822 5.1702822 5.1635227)
  orthogonal box = (-0.2508722 -0.2508722 -0.2508722) to (5.1702822 5.1702822 5.1702822)

run 1
WARNING: No fixes with time integration, atoms won't move (src/verlet.cpp:60)
Per MPI rank memory allocation (min/avg/max) = 8.51 | 8.511 | 8.513 Mbytes
   Step         PotEng         TotEng           Lx             Ly             Lz           Volume         Press           Pxx            Pyy            Pzz      
       102  -48.416939     -48.416939      5.4211544      5.4211544      5.4211544      159.32185     -247477.51     -247477.51     -247477.51     -247477.51    
       103  -48.416939     -48.416939      5.4211544      5.4211544      5.4211544      159.32185     -247477.51     -247477.51     -247477.51     -247477.51    
Loop time of 0.0001705 on 8 procs for 1 steps with 8 atoms

Performance: 506.745 ns/day, 0.047 hours/ns, 5865.103 timesteps/s, 46.921 katom-step/s
0.0% CPU use with 8 MPI tasks x 1 OpenMP threads

MPI task timing breakdown:
Section |  min time  |  avg time  |  max time  |%varavg| %total
---------------------------------------------------------------
Pair    | 0.000105   | 0.00011312 | 0.000127   |   0.0 | 66.35
Neigh   | 0          | 0          | 0          |   0.0 |  0.00
Comm    | 1.5e-05    | 2.85e-05   | 4.1e-05    |   0.0 | 16.72
Output  | 1.4e-05    | 2e-05      | 4.2e-05    |   0.0 | 11.73
Modify  | 0          | 2.5e-07    | 1e-06      |   0.0 |  0.15
Other   |            | 8.625e-06  |            |       |  5.06

Nlocal:              1 ave           5 max           0 min
Histogram: 4 0 3 0 0 0 0 0 0 1
Nghost:            188 ave         189 max         184 min
Histogram: 1 0 0 0 0 0 0 0 3 4
Neighs:          28.75 ave         148 max           0 min
Histogram: 4 3 0 0 0 0 0 0 0 1
FullNghs:         57.5 ave         292 max           0 min
Histogram: 4 3 0 0 0 0 0 0 0 1

Total # of neighbors = 460
Ave neighs/atom = 57.5
Neighbor list builds = 0
Dangerous builds = 0
variable  natoms equal "count(all)"
variable xlength equal "lx"
variable  volume equal "vol"
variable  etotal equal "etotal"
variable    ecoh equal "pe/v_natoms"
print "${xlength}, ${volume}, ${etotal}, ${ecoh}" append lattice_cohesive_energy.txt screen no

next i
jump SELF loop

change_box all x scale 1.0025 y scale 1.0025 z scale 1.0025 remap
Changing box ...
  orthogonal box = (-0.25764864 -0.2508722 -0.2508722) to (5.1770586 5.1702822 5.1702822)
  orthogonal box = (-0.25764864 -0.25764864 -0.2508722) to (5.1770586 5.1770586 5.1702822)
  orthogonal box = (-0.25764864 -0.25764864 -0.25764864) to (5.1770586 5.1770586 5.1770586)

run 1
WARNING: No fixes with time integration, atoms won't move (src/verlet.cpp:60)
Per MPI rank memory allocation (min/avg/max) = 8.51 | 8.511 | 8.513 Mbytes
   Step         PotEng         TotEng           Lx             Ly             Lz           Volume         Press           Pxx            Pyy            Pzz      
       103  -48.229289     -48.229289      5.4347073      5.4347073      5.4347073      160.51975     -254403.35     -254403.35     -254403.35     -254403.35    
       104  -48.229289     -48.229289      5.4347073      5.4347073      5.4347073      160.51975     -254403.35     -254403.35     -254403.35     -254403.35    
Loop time of 0.00017075 on 8 procs for 1 steps with 8 atoms

Performance: 506.003 ns/day, 0.047 hours/ns, 5856.515 timesteps/s, 46.852 katom-step/s
0.0% CPU use with 8 MPI tasks x 1 OpenMP threads

MPI task timing breakdown:
Section |  min time  |  avg time  |  max time  |%varavg| %total
---------------------------------------------------------------
Pair    | 0.000105   | 0.000113   | 0.000127   |   0.0 | 66.18
Neigh   | 0          | 0          | 0          |   0.0 |  0.00
Comm    | 1.4e-05    | 2.9e-05    | 4.1e-05    |   0.0 | 16.98
Output  | 1.5e-05    | 2.0125e-05 | 4.3e-05    |   0.0 | 11.79
Modify  | 0          | 1.25e-07   | 1e-06      |   0.0 |  0.07
Other   |            | 8.5e-06    |            |       |  4.98

Nlocal:              1 ave           5 max           0 min
Histogram: 4 0 3 0 0 0 0 0 0 1
Nghost:            188 ave         189 max         184 min
Histogram: 1 0 0 0 0 0 0 0 3 4
Neighs:          28.75 ave         148 max           0 min
Histogram: 4 3 0 0 0 0 0 0 0 1
FullNghs:         57.5 ave         292 max           0 min
Histogram: 4 3 0 0 0 0 0 0 0 1

Total # of neighbors = 460
Ave neighs/atom = 57.5
Neighbor list builds = 0
Dangerous builds = 0
variable  natoms equal "count(all)"
variable xlength equal "lx"
variable  volume equal "vol"
variable  etotal equal "etotal"
variable    ecoh equal "pe/v_natoms"
print "${xlength}, ${volume}, ${etotal}, ${ecoh}" append lattice_cohesive_energy.txt screen no

next i
jump SELF loop

change_box all x scale 1.0025 y scale 1.0025 z scale 1.0025 remap
Changing box ...
  orthogonal box = (-0.26444203 -0.25764864 -0.25764864) to (5.183852 5.1770586 5.1770586)
  orthogonal box = (-0.26444203 -0.26444203 -0.25764864) to (5.183852 5.183852 5.1770586)
  orthogonal box = (-0.26444203 -0.26444203 -0.26444203) to (5.183852 5.183852 5.183852)

run 1
WARNING: No fixes with time integration, atoms won't move (src/verlet.cpp:60)
Per MPI rank memory allocation (min/avg/max) = 8.51 | 8.511 | 8.513 Mbytes
   Step         PotEng         TotEng           Lx             Ly             Lz           Volume         Press           Pxx            Pyy            Pzz      
       104  -48.035163     -48.035163      5.4482941      5.4482941      5.4482941      161.72666     -260927.69     -260927.69     -260927.69     -260927.69    
       105  -48.035163     -48.035163      5.4482941      5.4482941      5.4482941      161.72666     -260927.69     -260927.69     -260927.69     -260927.69    
Loop time of 0.000174625 on 8 procs for 1 steps with 8 atoms

Performance: 494.775 ns/day, 0.049 hours/ns, 5726.557 timesteps/s, 45.812 katom-step/s
0.0% CPU use with 8 MPI tasks x 1 OpenMP threads

MPI task timing breakdown:
Section |  min time  |  avg time  |  max time  |%varavg| %total
---------------------------------------------------------------
Pair    | 0.000109   | 0.00012175 | 0.000131   |   0.0 | 69.72
Neigh   | 0          | 0          | 0          |   0.0 |  0.00
Comm    | 1.2e-05    | 2.625e-05  | 4e-05      |   0.0 | 15.03
Output  | 1.5e-05    | 1.825e-05  | 2.7e-05    |   0.0 | 10.45
Modify  | 0          | 0          | 0          |   0.0 |  0.00
Other   |            | 8.375e-06  |            |       |  4.80

Nlocal:              1 ave           5 max           0 min
Histogram: 4 0 3 0 0 0 0 0 0 1
Nghost:            188 ave         189 max         184 min
Histogram: 1 0 0 0 0 0 0 0 3 4
Neighs:          28.75 ave         148 max           0 min
Histogram: 4 3 0 0 0 0 0 0 0 1
FullNghs:         57.5 ave         292 max           0 min
Histogram: 4 3 0 0 0 0 0 0 0 1

Total # of neighbors = 460
Ave neighs/atom = 57.5
Neighbor list builds = 0
Dangerous builds = 0
variable  natoms equal "count(all)"
variable xlength equal "lx"
variable  volume equal "vol"
variable  etotal equal "etotal"
variable    ecoh equal "pe/v_natoms"
print "${xlength}, ${volume}, ${etotal}, ${ecoh}" append lattice_cohesive_energy.txt screen no

next i
jump SELF loop

change_box all x scale 1.0025 y scale 1.0025 z scale 1.0025 remap
Changing box ...
  orthogonal box = (-0.27125239 -0.26444203 -0.26444203) to (5.1906624 5.183852 5.183852)
  orthogonal box = (-0.27125239 -0.27125239 -0.26444203) to (5.1906624 5.1906624 5.183852)
  orthogonal box = (-0.27125239 -0.27125239 -0.27125239) to (5.1906624 5.1906624 5.1906624)

run 1
WARNING: No fixes with time integration, atoms won't move (src/verlet.cpp:60)
Per MPI rank memory allocation (min/avg/max) = 8.51 | 8.511 | 8.513 Mbytes
   Step         PotEng         TotEng           Lx             Ly             Lz           Volume         Press           Pxx            Pyy            Pzz      
       105  -47.834775     -47.834775      5.4619148      5.4619148      5.4619148      162.94264     -267062.28     -267062.28     -267062.28     -267062.28    
       106  -47.834775     -47.834775      5.4619148      5.4619148      5.4619148      162.94264     -267062.28     -267062.28     -267062.28     -267062.28    
Loop time of 0.00016875 on 8 procs for 1 steps with 8 atoms

Performance: 512.000 ns/day, 0.047 hours/ns, 5925.926 timesteps/s, 47.407 katom-step/s
0.0% CPU use with 8 MPI tasks x 1 OpenMP threads

MPI task timing breakdown:
Section |  min time  |  avg time  |  max time  |%varavg| %total
---------------------------------------------------------------
Pair    | 0.000104   | 0.00011238 | 0.000126   |   0.0 | 66.59
Neigh   | 0          | 0          | 0          |   0.0 |  0.00
Comm    | 1.2e-05    | 2.8e-05    | 4e-05      |   0.0 | 16.59
Output  | 1.4e-05    | 2e-05      | 4.3e-05    |   0.0 | 11.85
Modify  | 0          | 2.5e-07    | 2e-06      |   0.0 |  0.15
Other   |            | 8.125e-06  |            |       |  4.81

Nlocal:              1 ave           5 max           0 min
Histogram: 4 0 3 0 0 0 0 0 0 1
Nghost:            188 ave         189 max         184 min
Histogram: 1 0 0 0 0 0 0 0 3 4
Neighs:          28.75 ave         148 max           0 min
Histogram: 4 3 0 0 0 0 0 0 0 1
FullNghs:         57.5 ave         292 max           0 min
Histogram: 4 3 0 0 0 0 0 0 0 1

Total # of neighbors = 460
Ave neighs/atom = 57.5
Neighbor list builds = 0
Dangerous builds = 0
variable  natoms equal "count(all)"
variable xlength equal "lx"
variable  volume equal "vol"
variable  etotal equal "etotal"
variable    ecoh equal "pe/v_natoms"
print "${xlength}, ${volume}, ${etotal}, ${ecoh}" append lattice_cohesive_energy.txt screen no

next i
jump SELF loop

change_box all x scale 1.0025 y scale 1.0025 z scale 1.0025 remap
Changing box ...
  orthogonal box = (-0.27807979 -0.27125239 -0.27125239) to (5.1974898 5.1906624 5.1906624)
  orthogonal box = (-0.27807979 -0.27807979 -0.27125239) to (5.1974898 5.1974898 5.1906624)
  orthogonal box = (-0.27807979 -0.27807979 -0.27807979) to (5.1974898 5.1974898 5.1974898)

run 1
WARNING: No fixes with time integration, atoms won't move (src/verlet.cpp:60)
Per MPI rank memory allocation (min/avg/max) = 8.51 | 8.511 | 8.513 Mbytes
   Step         PotEng         TotEng           Lx             Ly             Lz           Volume         Press           Pxx            Pyy            Pzz      
       106  -47.628335     -47.628335      5.4755696      5.4755696      5.4755696      164.16777     -272818.68     -272818.68     -272818.68     -272818.68    
       107  -47.628335     -47.628335      5.4755696      5.4755696      5.4755696      164.16777     -272818.68     -272818.68     -272818.68     -272818.68    
Loop time of 0.00016875 on 8 procs for 1 steps with 8 atoms

Performance: 512.000 ns/day, 0.047 hours/ns, 5925.926 timesteps/s, 47.407 katom-step/s
0.0% CPU use with 8 MPI tasks x 1 OpenMP threads

MPI task timing breakdown:
Section |  min time  |  avg time  |  max time  |%varavg| %total
---------------------------------------------------------------
Pair    | 0.000104   | 0.000112   | 0.000126   |   0.0 | 66.37
Neigh   | 0          | 0          | 0          |   0.0 |  0.00
Comm    | 1.2e-05    | 2.7875e-05 | 4e-05      |   0.0 | 16.52
Output  | 1.5e-05    | 2.025e-05  | 4.3e-05    |   0.0 | 12.00
Modify  | 0          | 2.5e-07    | 1e-06      |   0.0 |  0.15
Other   |            | 8.375e-06  |            |       |  4.96

Nlocal:              1 ave           5 max           0 min
Histogram: 4 0 3 0 0 0 0 0 0 1
Nghost:            188 ave         189 max         184 min
Histogram: 1 0 0 0 0 0 0 0 3 4
Neighs:          28.75 ave         148 max           0 min
Histogram: 4 3 0 0 0 0 0 0 0 1
FullNghs:         57.5 ave         292 max           0 min
Histogram: 4 3 0 0 0 0 0 0 0 1

Total # of neighbors = 460
Ave neighs/atom = 57.5
Neighbor list builds = 0
Dangerous builds = 0
variable  natoms equal "count(all)"
variable xlength equal "lx"
variable  volume equal "vol"
variable  etotal equal "etotal"
variable    ecoh equal "pe/v_natoms"
print "${xlength}, ${volume}, ${etotal}, ${ecoh}" append lattice_cohesive_energy.txt screen no

next i
jump SELF loop

print "-------------------------------------------------------------"
-------------------------------------------------------------
print "Show results of 1st step (Running Minimization)"
Show results of 1st step (Running Minimization)
print "The number of atoms = ${natoms};"
The number of atoms = 8;
print "The lattice constant, x (Angstoms) = ${x0};"
The lattice constant, x (Angstoms) = 5.47556957463796;
print "The lattice constant, y (Angstoms) = ${y0};"
The lattice constant, y (Angstoms) = 5.47556957463796;
print "The lattice constant, z (Angstoms) = ${z0};"
The lattice constant, z (Angstoms) = 5.47556957463796;
print "The volume (Angstoms^3) = ${v0};"
The volume (Angstoms^3) = 164.167772270977;
print "The total energy (eV) = ${etot0};"
The total energy (eV) = -47.628334655274;
print "The cohesive energy (eV/atom) = ${ecoh0};"
The cohesive energy (eV/atom) = -5.95354183190925;
print "-------------------------------------------------------------"
-------------------------------------------------------------
print "Simulations completed !"
Simulations completed !
Total wall time: 0:00:00
