ITEM: TIMESTEP
0
ITEM: NUMBER OF ATOMS
10800
ITEM: BOX BOUNDS xy xz yz pp pp pp
-4.5999232566806825e-01 2.1636399232567126e+02 0.0000000000000000e+00
-3.9111124029183486e-02 2.1629511124029456e+01 0.0000000000000000e+00
-1.5470734628432936e-01 2.5914707346284167e+01 0.0000000000000000e+00
ITEM: ATOMS id type x y z c_peratom fx fy fz 
6 1 0.569855 0.83706 2.29974 -7.76726 -1.17612 -0.205865 -0.0586236 
2166 1 0.400336 0.866731 7.5337 -7.85121 0.726029 0.664444 -0.865618 
4326 1 0.419454 0.821376 12.7362 -7.81482 0.286123 -0.532518 -0.662025 
366 1 0.243921 4.44967 2.19768 -7.86473 0.310485 0.114432 0.351589 
2526 1 0.579866 4.4141 7.39515 -7.58688 -0.136253 -0.79374 0.386917 
4686 1 0.301146 4.47505 12.7092 -7.94198 0.134384 0.215802 -0.836009 
726 1 0.565808 8.03046 2.19462 -7.68051 -0.637434 0.516103 1.67455 
2886 1 0.489215 7.9592 7.51858 -8.3412 -0.9876 1.18368 0.0735457 
5046 1 0.376292 8.0096 12.8103 -8.35721 0.368126 -0.0753906 -0.709466 
1086 1 0.288559 11.554 2.14994 -7.91111 -0.55901 1.58063 0.424513 
3246 1 0.514021 11.5991 7.46785 -8.21203 -1.10179 0.965719 -1.00779 
5406 1 0.383489 11.5879 12.6397 -8.14611 0.361648 0.847412 0.850521 
1446 1 0.315694 15.1748 2.13554 -7.67744 -0.709847 0.194086 0.77872 
3606 1 0.285963 15.315 7.38953 -8.24454 0.157138 -0.250677 0.825584 
5766 1 0.589881 15.4127 12.6637 -7.67766 -0.373505 -0.925785 -0.275924 
1806 1 0.22193 18.892 2.26394 -7.77334 0.940663 0.74938 -0.106063 
3966 1 0.40849 18.9474 7.46666 -7.71948 0.737049 -1.28905 -0.444149 
6126 1 0.4951 18.8974 12.7281 -7.65295 0.795506 -0.497272 -0.62759 
12 1 3.81639 0.906011 2.2219 -8.0981 0.875764 -0.590168 -0.00453061 
2172 1 4.07946 0.777144 7.46798 -7.91345 0.671415 -0.135996 0.21589 
4332 1 4.07434 0.802617 12.7683 -8.09415 -1.15507 0.104533 -0.819555 
372 1 4.02592 4.33428 2.21979 -8.15253 0.443192 1.3789 0.631825 
2532 1 4.07162 4.40198 7.53995 -8.04642 0.329997 0.264947 0.658173 
4692 1 4.0239 4.38583 12.7028 -7.82573 0.820815 0.136024 0.202585 
732 1 3.96092 8.05466 2.34511 -7.86293 0.0617749 -0.60053 -0.339579 
2892 1 3.98685 7.9974 7.52115 -8.03082 0.179824 1.05772 0.364244 
5052 1 4.12264 8.01041 12.806 -7.83438 -0.593649 -0.802457 -0.814435 
1092 1 3.93171 11.7858 2.4144 -8.14989 0.951118 -0.294065 -0.855211 
3252 1 3.90144 11.6 7.43837 -7.80162 -0.364764 0.89351 0.781132 
5412 1 4.07212 11.6098 12.6976 -8.22232 -0.804862 0.717028 -0.379559 
1452 1 3.91226 15.3591 2.2999 -8.45631 -0.130649 -0.560787 -0.17525 
3612 1 4.06159 15.2486 7.49637 -7.64937 -0.468451 0.288804 -0.475803 
5772 1 3.96921 15.2346 12.6494 -7.58394 0.106454 0.19396 0.219552 
1812 1 4.00843 18.7074 2.25837 -8.16715 -0.518951 1.12839 0.50714 
3972 1 3.95691 18.8705 7.49352 -8.02013 0.0188366 -0.132024 -0.184368 
6132 1 4.13198 18.9716 12.6812 -7.98857 0.736749 0.126059 -0.702189 
18 1 7.5846 0.787998 2.14345 -8.15978 0.465344 -0.734519 1.01151 
2178 1 7.75079 0.747662 7.37626 -8.17308 -0.493245 0.0717878 -0.100015 
4338 1 7.8602 0.846589 12.6847 -7.76523 -0.245 0.924704 -0.810707 
378 1 7.72005 4.39638 2.17437 -8.2372 -0.953039 0.365221 0.367099 
2538 1 7.74568 4.43417 7.40809 -8.07047 -0.0218749 0.387771 0.096103 
4698 1 7.66235 4.33507 12.6271 -7.7475 0.167217 0.348327 -0.0126574 
738 1 7.57605 8.09567 2.31552 -8.00513 0.593277 -0.769572 -0.633558 
2898 1 7.72345 8.16648 7.51364 -8.08416 -0.712064 -0.9801 0.255166 
5058 1 7.65588 8.21923 12.7366 -8.15041 0.0230703 -1.17818 -0.070383 
1098 1 7.48276 11.5673 2.16956 -7.72137 1.19185 1.08423 0.566059 
3258 1 7.71438 11.7002 7.44163 -7.97823 -0.960485 -0.83122 0.548272 
5418 1 7.52781 11.7282 12.8367 -7.8466 0.214 -0.626387 -0.989955 
1458 1 7.82245 15.2463 2.16525 -7.8659 -0.738305 1.01034 -0.102464 
3618 1 7.56997 15.1602 7.28372 -7.80679 0.259392 0.915676 1.30788 
5778 1 7.82714 15.2258 12.609 -7.92445 -0.534154 0.338762 0.250106 
1818 1 7.50543 18.9589 2.27182 -8.06348 0.565994 0.0372302 -0.958959 
3978 1 7.70129 18.7608 7.39155 -7.58253 -0.662454 0.292206 0.364928 
6138 1 7.68231 18.8191 12.6808 -7.48399 0.184842 0.635086 -0.0410903 
24 1 11.2631 0.77291 2.13141 -7.81968 0.218108 0.828762 1.56224 
2184 1 11.2256 0.835304 7.29376 -8.12283 -0.413943 0.0856972 1.14008 
4344 1 11.2976 0.901851 12.6096 -7.70573 -0.358879 -0.0978588 0.0343046 
384 1 11.2634 4.54262 2.06605 -7.88687 -0.0591779 -0.991785 0.930293 
2544 1 11.2253 4.46314 7.29853 -8.18123 -0.208425 -0.741434 0.730357 
4704 1 11.5099 4.55661 12.6177 -8.29839 -0.457646 -0.810835 -0.172167 
744 1 11.3184 7.9715 2.37773 -8.16504 -0.15729 0.730314 -1.48161 
2904 1 11.3105 8.01226 7.51785 -8.08628 -0.00101866 0.637575 0.362384 
5064 1 11.1701 8.09195 12.7591 -8.0903 0.717885 0.0373862 -0.461682 
1104 1 11.1895 11.7122 2.28564 -7.99463 0.382115 -0.798282 -0.771096 
3264 1 11.2818 11.6541 7.38801 -8.43041 0.538582 0.381288 0.93337 
5424 1 11.4392 11.6626 12.6348 -7.78406 -0.509976 -0.191088 -0.644571 
1464 1 11.1522 15.3062 2.11386 -7.85707 -0.543757 0.112514 0.799786 
3624 1 11.0999 15.223 7.2699 -7.86945 0.550242 0.0969253 1.19159 
5784 1 11.2551 15.2594 12.6472 -8.25674 0.24674 0.435124 -0.0214671 
1824 1 11.2462 18.946 2.2434 -7.6392 0.926529 0.672785 -0.546484 
3984 1 11.1439 18.8881 7.45771 -7.64796 0.66426 -0.94265 -0.648058 
6144 1 11.3808 18.9467 12.7304 -8.04157 -0.0132463 -0.929366 -1.12445 
30 1 14.9738 0.83279 2.23968 -7.64573 -0.0356969 0.455216 -0.0889707 
2190 1 14.9296 0.698846 7.35128 -7.97611 0.00592078 -0.408314 0.123652 
4350 1 15.0588 0.838317 12.5523 -8.01475 -0.275307 -1.14657 0.358126 
390 1 14.8616 4.39236 2.21707 -8.27137 0.663707 0.187644 0.0511673 
2550 1 14.8985 4.30864 7.45122 -7.46462 0.020054 -0.121583 0.122772 
4710 1 14.7823 4.46129 12.7859 -7.94401 -0.362629 -0.400614 -1.47508 
750 1 14.9971 8.20533 2.31381 -7.79566 -0.385537 -0.0277209 -0.299126 
2910 1 14.8473 8.00259 7.44193 -7.79603 -0.156306 0.666768 0.0265138 
5070 1 14.8841 8.12806 12.6547 -7.40692 0.180985 -0.0509139 -0.558825 
1110 1 14.7267 11.7436 2.34585 -8.16397 1.13762 -0.0292629 -1.24449 
3270 1 14.9426 11.7534 7.43114 -7.865 -1.72016 -0.957411 0.0834535 
5430 1 14.9428 11.6687 12.6322 -7.69116 -1.19495 0.131798 -0.127205 
1470 1 14.6624 15.2901 2.06098 -7.44173 0.368667 0.475825 -0.323707 
3630 1 14.8251 15.4481 7.37623 -8.14483 -0.355539 -0.909114 0.211983 
5790 1 15.0138 15.2603 12.5607 -7.95027 -0.474293 -0.36323 -0.953739 
1830 1 14.8746 18.822 2.22034 -8.33218 0.472905 -0.637485 1.20198 
3990 1 14.8709 18.9223 7.51675 -8.35644 -0.978948 -0.213013 0.265625 
6150 1 14.8811 18.9363 12.7166 -8.03502 0.317394 -0.0651094 -0.0831409 
5 1 0.278675 0.94086 4.89992 -8.12195 1.2862 -0.841005 0.312757 
2165 1 0.421214 0.834422 10.112 -7.6335 -0.473601 -0.149088 0.058665 
365 1 0.339796 4.44649 4.86172 -8.04856 -0.20761 0.287024 -0.640269 
2525 1 0.456301 4.3106 10.0109 -7.77386 -0.0791787 0.768146 0.404827 
725 1 0.428558 7.95642 4.91508 -8.41724 1.24845 0.64931 -0.471653 
2885 1 0.350858 8.05077 10.1777 -8.58933 0.483927 -0.923197 -0.0125779 
1085 1 0.301776 11.7214 4.76225 -8.46617 0.930195 0.250716 1.45178 
3245 1 0.461372 11.722 10.0641 -7.73663 0.293925 0.19444 0.0171724 
1445 1 0.342692 15.3139 4.80598 -7.70334 0.827643 0.389196 -0.340908 
3605 1 0.211153 15.3411 10.0495 -7.9321 -0.162301 -0.983248 -0.490539 
1805 1 0.365875 18.7613 4.8795 -8.2055 0.85842 1.0985 0.0344404 
3965 1 0.413212 18.8831 10.0455 -7.76102 0.840536 -0.132011 0.207456 
11 1 4.03535 0.94227 4.93572 -7.84595 -0.129926 -0.892763 -1.30485 
2171 1 4.05319 0.64746 10.0084 -8.07586 0.921691 0.964213 1.03215 
371 1 4.05469 4.35276 4.96328 -7.66994 0.48285 0.791914 -1.28961 
2531 1 4.14734 4.34795 10.2044 -7.63907 0.0144099 0.236938 -1.7425 
731 1 3.99138 8.11019 4.90314 -8.16469 -0.574525 -0.238582 0.220735 
2891 1 3.97851 8.02377 10.1981 -8.03111 -0.0394515 0.0565044 -0.484735 
1091 1 4.05322 11.6308 4.91287 -7.67318 -0.801204 -0.0867836 -0.261322 
3251 1 3.84851 11.7489 10.0956 -8.17658 -0.129222 -0.00128836 -0.354466 
1451 1 4.04371 15.2081 4.84246 -7.59995 -0.156707 0.0252853 -0.178411 
3611 1 4.01517 15.2815 10.0776 -7.65627 -0.111982 0.191613 -0.317731 
1811 1 4.04063 18.8945 4.88444 -7.92357 -1.41184 -0.575332 -0.412853 
3971 1 3.98682 18.7813 10.0708 -8.34137 -0.450739 0.32709 0.572221 
17 1 7.6511 0.874044 4.74971 -8.0209 0.0432034 -0.614944 0.13126 
2177 1 7.65831 0.775789 9.99794 -8.20164 0.859184 -0.225037 0.509836 
377 1 7.62274 4.49923 4.83432 -8.14799 0.146591 0.120809 -0.393154 
2537 1 7.70057 4.23236 10.0133 -7.78927 -0.0299279 1.00102 -0.0377465 
737 1 7.67379 8.07644 4.88248 -7.93744 0.465742 -0.417072 0.544947 
2897 1 7.56545 8.12493 10.14 -7.98446 1.02373 -0.224156 -0.076339 
1097 1 7.60294 11.6301 4.77571 -7.70985 0.467816 0.173012 0.160631 
3257 1 7.62484 11.6311 10.1815 -8.13853 -0.0118645 0.81107 -0.783886 
1457 1 7.60883 15.2329 4.76495 -8.04768 1.15919 0.38192 -0.482991 
3617 1 7.58167 15.2809 10.0073 -8.09464 0.581799 -0.671449 -0.455786 
1817 1 7.56976 18.8923 4.79382 -7.71641 0.445647 -0.323235 0.245617 
3977 1 7.68236 18.6702 10.1198 -7.66865 -0.86625 0.948116 -1.29734 
23 1 11.2135 0.794755 4.7738 -7.92828 0.485405 0.390679 -0.575932 
2183 1 11.2229 0.497621 9.98789 -7.74719 -0.153822 1.278 -1.04961 
383 1 11.2547 4.37889 4.72216 -8.12793 0.522782 -0.0472303 -0.257716 
2543 1 11.2218 4.37127 10.0026 -8.1967 0.897604 0.488942 -0.011369 
743 1 11.2491 7.99338 4.9533 -7.93318 0.132677 0.0442965 -0.248436 
2903 1 11.2293 8.18449 10.2035 -8.16801 -0.362296 -0.92662 -0.928365 
1103 1 11.3057 11.5545 4.84303 -7.90789 0.862077 0.754624 0.13351 
3263 1 11.2192 11.5566 10.0321 -7.99401 0.460894 0.406993 -0.559774 
1463 1 11.2847 15.1999 4.7661 -7.90692 -1.11277 0.404343 -0.426848 
3623 1 11.2736 15.1768 9.91739 -7.70938 0.243368 0.431309 0.0606534 
1823 1 11.2749 18.8373 4.80316 -7.42674 -0.130612 0.607032 0.506319 
3983 1 11.2728 18.7693 10.0288 -8.04479 -0.00889688 0.059447 0.945549 
29 1 14.8206 0.816209 4.79191 -7.75533 1.05314 -0.839407 0.000771338 
2189 1 14.9583 0.674062 9.89225 -7.90999 -0.14684 0.375646 0.45932 
389 1 14.9124 4.41674 4.88049 -8.01783 0.484272 -0.961379 -0.581786 
2549 1 14.7496 4.394 10.1008 -7.82084 -0.94419 0.0894083 0.0972306 
749 1 14.9688 7.95619 4.85716 -7.30433 -1.10905 0.55212 -0.0245199 
2909 1 14.8397 8.06867 10.0134 -7.65218 0.0322787 -0.862447 0.295784 
1109 1 14.8999 11.5617 4.83517 -7.64129 -0.634906 0.428238 0.551257 
3269 1 14.8624 11.6472 10.0764 -7.60848 -0.47015 0.433776 -1.04342 
1469 1 14.9476 15.4175 4.70718 -7.59995 -0.963984 0.0977567 0.552033 
3629 1 14.9553 15.1225 9.94561 -8.31399 -0.608955 0.116412 0.587455 
1829 1 14.8024 18.998 4.90692 -8.38874 1.20663 -1.26561 -0.763032 
3989 1 14.7646 18.8344 10.1512 -8.08606 1.25276 -0.552306 -0.853618 
2 2 0.550853 2.65997 1.20229 -29.1827 -1.16541 -0.38791 0.390588 
2162 2 0.418999 2.6935 6.35702 -29.2403 -0.169617 -0.417066 0.676391 
4322 2 0.356758 2.63097 11.6257 -29.6821 0.921653 -0.237079 -0.0940606 
362 2 0.526743 6.25952 1.20608 -29.5997 -0.921144 0.0374336 -0.165006 
2522 2 0.432116 6.23472 6.43791 -29.4216 -0.292596 -0.785427 -0.319787 
4682 2 0.381179 6.20934 11.6563 -28.6327 0.846454 -0.0831504 -0.221107 
722 2 0.437819 9.84816 1.21561 -29.3761 -0.751551 -0.681385 -0.419969 
2882 2 0.404353 9.85273 6.4577 -28.5946 -0.392889 -0.561054 -0.052131 
5042 2 0.290372 9.85588 11.6615 -29.0286 0.575582 -0.265643 -0.142974 
1082 2 0.418735 13.4287 1.05766 -29.4487 0.0132062 0.233432 0.649676 
3242 2 0.464677 13.4518 6.43744 -28.8483 -1.14308 0.609186 -0.64106 
5402 2 0.390729 13.5257 11.7166 -29.2943 -0.839617 -0.168111 -0.258622 
1442 2 0.390106 17.0111 1.21014 -29.8785 -0.552355 0.580402 -0.265868 
3602 2 0.378943 17.0521 6.40085 -29.1557 0.157205 0.899377 -0.402449 
5762 2 0.375283 17.0838 11.5939 -29.5282 -0.782751 0.806977 0.29753 
1802 2 0.422258 20.7216 1.29015 -29.5757 -0.283747 -0.14431 -0.931704 
3962 2 0.420231 20.7901 6.4458 -29.0211 -0.466939 -0.729925 0.635 
6122 2 0.495297 20.6215 11.5925 -29.3887 -2.17492 0.625439 0.441512 
8 2 4.0662 2.6393 1.29224 -28.5755 -0.0107107 -0.441151 -0.738579 
2168 2 3.99501 2.50915 6.45145 -29.6186 0.705742 1.65271 -0.768807 
4328 2 4.06297 2.64449 11.5582 -29.1888 -0.289197 -0.314734 0.854484 
368 2 4.12644 6.29375 1.19254 -28.8287 -1.25011 -0.0103849 0.79409 
2528 2 4.02302 6.23218 6.53186 -29.1909 0.459506 -0.456964 -0.176766 
4688 2 4.02931 6.21007 11.7268 -29.2934 0.735162 -0.0419428 -0.728413 
728 2 4.00084 9.87418 1.3186 -29.5185 0.585362 0.246347 -0.52898 
2888 2 4.00658 9.82742 6.4398 -29.3474 0.518452 0.248367 0.225404 
5048 2 3.87895 9.7894 11.7053 -29.2028 1.16461 -0.180645 -0.0799069 
1088 2 4.07297 13.527 1.25841 -29.1029 -0.042777 -0.166155 -0.773522 
3248 2 4.05887 13.4841 6.4495 -29.4955 -0.0317853 -0.17059 -0.361975 
5408 2 3.96578 13.3565 11.5877 -29.36 0.163665 1.74644 0.34437 
1448 2 3.99288 17.0916 1.15593 -29.0735 -0.281936 -0.6722 -0.986652 
3608 2 4.09337 17.0723 6.38689 -29.2727 -0.81315 -0.407068 0.122763 
5768 2 4.0141 17.0976 11.656 -29.3259 -0.265169 -0.729663 0.385104 
1808 2 4.02092 20.6276 1.19854 -29.1505 -1.19435 0.32331 -0.00303504 
3968 2 3.9432 20.6739 6.3768 -29.1853 1.23981 -0.30158 0.0643507 
6128 2 4.00635 20.7614 11.6838 -28.8194 0.90166 -0.345412 -0.192924 
14 2 7.65462 2.5541 1.19063 -29.0818 0.0190085 0.96059 -0.368001 
2174 2 7.68296 2.57151 6.35703 -29.1639 -0.712659 0.386485 0.631159 
4334 2 7.6665 2.55943 11.5745 -29.3115 0.445641 0.454244 0.103963 
374 2 7.66576 6.2327 1.27803 -28.637 0.354013 0.0983276 0.12937 
2534 2 7.72683 6.2696 6.54805 -29.0797 -0.514513 0.483792 -0.608942 
4694 2 7.73015 6.30092 11.7056 -29.0488 -1.28269 -0.595744 0.185523 
734 2 7.7182 9.82436 1.19093 -29.0387 -1.76512 0.0228682 0.815231 
2894 2 7.70533 9.87318 6.45062 -29.3329 -0.795026 0.565769 -0.554483 
5054 2 7.60456 9.91748 11.6394 -29.2548 -0.283416 0.598182 0.290889 
1094 2 7.67123 13.4154 1.12477 -29.3581 -0.0138218 0.403769 0.447563 
3254 2 7.64621 13.4403 6.35448 -29.3835 -0.597145 -0.554379 -0.589317 
5414 2 7.72133 13.4828 11.5842 -29.1267 -1.08088 -0.506254 0.4408 
1454 2 7.59072 17.058 1.1142 -29.0494 0.7462 0.472215 -0.0501141 
3614 2 7.61205 16.9931 6.2973 -29.3677 0.352645 0.543482 0.491099 
5774 2 7.71839 17.0665 11.6252 -29.6595 -0.280381 -0.0925338 -0.00362083 
1814 2 7.67658 20.6087 1.18853 -28.8752 -0.199483 0.446991 -0.708471 
3974 2 7.67691 20.5749 6.43156 -29.3965 -0.794321 -0.284614 -0.542908 
6134 2 7.67215 20.6648 11.6287 -29.6007 0.31867 -0.234721 1.15491 
20 2 11.2211 2.60556 1.22805 -29.4691 0.880385 0.474271 -0.794939 
2180 2 11.257 2.63271 6.26702 -28.9703 0.638821 -0.0144436 0.574311 
4340 2 11.2595 2.68133 11.6905 -28.8448 0.401211 -0.0973901 -0.511724 
380 2 11.2549 6.1976 1.13619 -28.7092 -0.394729 1.24497 0.0944185 
2540 2 11.2839 6.25732 6.34951 -29.1268 0.605519 0.170203 0.363331 
4700 2 11.2645 6.30182 11.6323 -28.7142 -0.598065 0.30786 0.0143183 
740 2 11.2993 9.88158 1.17164 -28.601 0.623261 -0.19586 0.581332 
2900 2 11.2858 9.87227 6.4251 -29.0561 0.0165361 -0.992806 -0.624076 
5060 2 11.2558 9.83599 11.5579 -29.2729 0.102441 0.909652 0.508647 
1100 2 11.3061 13.4861 1.22937 -29.3823 -0.276522 0.03692 -0.365703 
3260 2 11.2037 13.4539 6.37374 -29.0571 1.15761 -0.185596 -0.66074 
5420 2 11.2607 13.4946 11.6774 -29.1953 0.123465 -0.537505 -0.760365 
1460 2 11.3411 17.1138 1.27806 -29.3568 -1.12079 0.483633 -0.512767 
3620 2 11.1943 17.0033 6.45574 -29.3176 0.217393 1.62814 -0.929792 
5780 2 11.3129 17.1087 11.6028 -29.0221 -0.443991 -0.198527 0.394269 
1820 2 11.2964 20.7428 1.1564 -29.3721 0.0784167 -0.705241 -0.173164 
3980 2 11.2533 20.6555 6.34139 -29.4601 -0.220499 -0.38133 0.326955 
6140 2 11.3216 20.71 11.586 -29.7996 -0.942987 0.0870487 0.373567 
26 2 14.9382 2.68143 1.13675 -29.257 -0.744606 -0.980057 0.731285 
2186 2 14.9773 2.51555 6.36281 -29.4014 -1.52076 0.549414 0.663653 
4346 2 14.8451 2.59834 11.6975 -29.0861 -0.100433 0.934564 -0.767155 
386 2 14.7499 6.31148 1.28125 -29.0381 1.77458 0.223599 -0.173324 
2546 2 14.9126 6.18655 6.45919 -29.8837 -0.270212 -0.152253 -0.305049 
4706 2 14.7264 6.2645 11.6578 -29.486 1.21179 0.166708 0.234897 
746 2 14.941 9.9626 1.23624 -29.0153 -1.21102 -0.342743 0.142821 
2906 2 14.9063 9.87948 6.4246 -29.4891 0.173769 -0.346079 -0.38471 
5066 2 14.8984 9.86049 11.5846 -29.7744 -0.309971 0.228431 -0.328643 
1106 2 14.8438 13.4686 1.10896 -29.3996 -0.122215 0.657119 0.413072 
3266 2 14.9017 13.5935 6.48873 -29.147 -0.552665 -0.66657 -1.41462 
5426 2 14.9086 13.4292 11.5438 -29.3849 0.14933 -0.354483 0.0111396 
1466 2 14.8642 17.0745 1.12854 -29.0628 1.14723 -0.809436 0.643609 
3626 2 14.844 17.1435 6.4083 -28.8664 0.37993 0.331306 -1.11841 
5786 2 14.9013 17.0653 11.6053 -28.8529 -0.199926 0.52977 0.395935 
1826 2 14.9814 20.5721 1.24682 -29.1737 -0.460062 1.78122 -0.191933 
3986 2 14.9242 20.5533 6.27777 -28.882 -0.508601 1.69829 0.557853 
6146 2 14.9203 20.7408 11.5036 -29.2187 -0.174506 -0.705167 0.476958 
1 2 2.18164 0.824225 3.79843 -29.3491 0.330914 0.657462 -0.0144701 
2161 2 2.33251 0.851142 8.97926 -29.3318 -1.5775 0.0327886 0.788244 
361 2 2.15171 4.46696 3.896 -29.1537 0.875595 -0.514344 0.0608667 
2521 2 2.30684 4.49263 8.98117 -29.4995 -0.315459 -1.50671 0.848032 
721 2 2.25511 8.07884 3.77593 -28.7375 -0.288003 -0.554583 -0.233744 
2881 2 2.13009 8.07432 9.0608 -28.7951 1.36208 -0.414526 0.603676 
1081 2 2.20183 11.7146 3.88013 -29.0234 0.332113 -0.338799 -0.388373 
3241 2 2.07521 11.6868 8.96063 -28.9556 1.66695 -0.142958 0.337649 
1441 2 2.13709 15.2757 3.80417 -29.4195 0.299681 -0.319066 -0.14363 
3601 2 2.07961 15.3187 9.08505 -29.2177 0.983246 -0.478328 0.472107 
1801 2 2.11543 18.8652 3.78869 -28.6985 0.905998 -0.303954 0.29543 
3961 2 2.23545 18.9128 9.06535 -29.0112 -0.926206 -0.212627 -0.910239 
7 2 5.87504 0.81155 3.77248 -29.0156 -0.845151 0.190069 1.3157 
2167 2 5.97978 0.731632 9.0154 -28.9111 -1.49255 0.280564 -0.559033 
367 2 5.82193 4.48451 3.90501 -28.7712 -0.464078 -1.18208 0.279408 
2527 2 5.9132 4.38263 8.98002 -29.2898 -0.352987 0.426736 0.670257 
727 2 5.87268 8.0436 3.95659 -29.2966 -0.320951 0.870148 -0.423369 
2887 2 5.87303 8.10104 9.10989 -29.1273 -1.10779 -0.489688 -0.264272 
1087 2 5.76154 11.6565 3.74396 -29.5707 0.977963 0.14934 0.666322 
3247 2 5.77846 11.6893 9.09222 -29.1034 -0.213664 -0.106375 0.0626549 
1447 2 5.80712 15.3206 3.69736 -28.9671 0.117624 -0.348804 1.23658 
3607 2 5.78201 15.3293 9.05802 -29.3023 -0.0761413 -0.774619 -0.566469 
1807 2 5.79424 18.8863 3.71167 -29.3541 -0.0436482 -0.28415 1.01055 
3967 2 5.73534 18.7938 9.04266 -28.9319 1.42228 0.287573 -0.0946794 
13 2 9.49406 0.910573 3.76526 -28.8892 -0.477281 -1.69189 0.155861 
2173 2 9.48636 0.787607 8.86532 -29.1926 0.113363 -0.420979 1.15761 
373 2 9.4173 4.41565 3.81425 -28.9398 0.308035 0.937105 -0.229745 
2533 2 9.44124 4.42412 8.95875 -29.1891 0.220778 0.189483 0.452527 
733 2 9.46024 8.08358 3.85127 -29.2157 0.198257 -0.459654 0.35881 
2893 2 9.50541 8.19211 9.04265 -28.9863 -0.704804 -1.38434 0.488077 
1093 2 9.49341 11.7503 3.87758 -29.3485 -0.492375 -1.39186 -0.326658 
3253 2 9.44876 11.6774 9.00209 -28.9788 -0.611764 0.0333349 0.329473 
1453 2 9.46864 15.2991 3.70988 -29.1798 -0.117783 0.352588 -0.0823791 
3613 2 9.4778 15.1831 8.97088 -29.2264 -0.580102 0.578345 0.160547 
1813 2 9.486 18.919 3.78319 -29.611 -0.279458 0.502959 0.676113 
3973 2 9.42593 18.8343 9.05597 -29.7952 -0.00192511 -0.602642 -0.542535 
19 2 13.1105 0.781038 3.81131 -29.3513 -0.55197 0.602835 -0.725344 
2179 2 13.0359 0.827609 8.97589 -29.2661 0.451587 -0.585579 -0.131694 
379 2 13.1711 4.44373 3.82439 -29.1117 -0.793866 -0.338223 -0.26639 
2539 2 13.0022 4.41026 8.9311 -28.9956 0.817011 -0.401609 0.0631737 
739 2 13.0248 8.05129 3.8254 -29.3153 1.07477 0.144394 0.361057 
2899 2 13.0489 8.00744 8.95261 -29.3643 0.121675 0.398565 0.454908 
1099 2 13.0867 11.6321 3.74968 -29.2981 -0.125069 0.820677 0.703933 
3259 2 12.9596 11.6474 8.88026 -28.9187 1.45951 0.537511 1.63248 
1459 2 13.0737 15.2822 3.85612 -29.6813 0.684788 0.350796 -0.633547 
3619 2 13.1126 15.3622 8.97551 -28.8415 -0.524743 -1.62746 0.813606 
1819 2 13.0535 18.9153 3.76245 -29.3928 -0.55924 -0.498861 0.217069 
3979 2 13.0003 18.8771 8.98833 -29.0166 0.206092 0.506003 0.359206 
25 2 16.7349 0.767041 3.76927 -29.5265 0.065706 0.50386 0.371598 
2185 2 16.7667 0.757785 8.85969 -28.7525 -0.666818 -1.04284 0.589913 
385 2 16.6758 4.49464 3.81457 -29.0495 0.0727403 -0.533445 0.0980806 
2545 2 16.6744 4.31501 9.13045 -29.3968 -0.78536 0.925205 5.917e-05 
745 2 16.7434 8.12794 3.86638 -29.6457 -0.824889 0.0246037 0.190897 
2905 2 16.5819 7.96098 9.02808 -29.4476 0.846864 0.729299 -0.38802 
1105 2 16.6578 11.7833 3.75236 -29.158 -0.592668 0.171473 1.16582 
3265 2 16.6997 11.7166 8.95814 -29.5253 -0.494886 -0.808107 0.324383 
1465 2 16.7888 15.244 3.798 -29.2559 -0.628115 0.81735 -0.0768933 
3625 2 16.6592 15.2829 8.94603 -29.0992 0.730364 0.49942 -0.389403 
1825 2 16.7176 18.798 3.80144 -29.1096 -0.421609 0.134583 -0.830205 
3985 2 16.6534 18.9152 9.03013 -28.8393 0.279549 -0.951217 -0.0678608 
3 1 2.27806 2.55203 0.151512 -8.40944 0.632953 0.694102 -0.110671 
2163 1 2.18429 2.652 5.35736 -7.7299 -0.267513 -0.380154 0.167784 
4323 1 2.28027 2.59417 10.5312 -7.74707 0.368125 -0.574469 0.576593 
363 1 2.26011 6.43866 0.180866 -7.91193 0.480135 -0.556301 -0.982665 
2523 1 2.29339 6.05991 5.45555 -8.13378 -0.516241 1.34517 -0.987469 
4683 1 2.30798 6.05931 10.6641 -7.98588 -1.65293 1.0802 -0.443643 
723 1 2.20103 9.91473 0.17096 -8.02549 0.160549 0.243818 -0.14033 
2883 1 2.16861 9.92761 5.46685 -8.37025 -0.424923 -0.215671 -0.9401 
5043 1 2.13947 9.82294 10.6935 -7.85861 -0.00099267 -0.180031 -0.287559 
1083 1 2.31954 13.5611 0.259927 -7.6146 -0.456338 -0.586695 -0.446243 
3243 1 2.18758 13.5156 5.32064 -8.17384 0.150047 -0.667232 0.581657 
5403 1 2.06743 13.6886 10.7162 -7.85455 0.920677 -0.605166 -1.5754 
1443 1 2.13664 16.9166 0.253681 -7.49455 1.41098 -0.13151 -0.726966 
3603 1 2.24598 16.9773 5.35833 -7.97864 0.1511 0.687439 0.609611 
5763 1 2.08946 16.9918 10.6552 -7.95923 1.50724 0.733018 -0.12583 
1803 1 2.07249 20.5912 0.123155 -7.51451 2.056 0.836753 0.548973 
3963 1 2.19857 20.7877 5.27216 -8.63438 -1.0315 -0.388451 0.556584 
6123 1 2.19811 20.7103 10.6106 -8.18131 0.821561 -0.790436 0.11555 
9 1 5.86721 2.71131 0.167118 -8.14271 -1.45826 -0.0922818 0.582917 
2169 1 5.87458 2.64906 5.42817 -7.55121 0.376049 -0.041609 0.112665 
4329 1 5.88379 2.54617 10.6243 -7.8298 -0.656343 -0.969304 -0.187164 
369 1 5.91709 6.20413 0.199685 -8.60095 -0.347101 0.345766 0.460228 
2529 1 5.84669 6.36544 5.55976 -7.90585 -0.108631 -0.512206 -1.35959 
4689 1 5.90584 6.21745 10.5873 -7.79812 0.145248 -0.0163287 0.872897 
729 1 5.83608 9.93877 0.266275 -7.40151 0.647282 -0.436515 -0.619887 
2889 1 5.86154 9.85358 5.48683 -7.68961 -0.102252 -0.532605 -0.388307 
5049 1 5.75811 9.91602 10.6504 -7.95869 -0.637874 0.175864 0.118471 
1089 1 5.8954 13.4666 0.0990756 -7.65591 -0.735148 0.42841 0.639563 
3249 1 5.81095 13.4075 5.34292 -7.58108 0.321882 0.146293 0.155553 
5409 1 5.79551 13.4044 10.5936 -7.90828 0.466291 0.0760862 0.267433 
1449 1 5.74283 17.0507 -0.00633552 -7.95852 1.29697 0.549379 0.858153 
3609 1 5.8019 17.004 5.25858 -8.05851 0.270728 0.440704 -0.60636 
5769 1 5.83 17.0885 10.5886 -7.97694 -0.720686 -0.449364 0.173718 
1809 1 5.75 20.531 0.265904 -7.8104 1.04149 0.0295588 -0.16035 
3969 1 5.75994 20.6348 5.41022 -7.51684 1.05263 1.10894 0.307324 
6129 1 5.87477 20.6254 10.6954 -8.08519 -0.158229 -0.377546 -0.883545 
15 1 9.43953 2.63542 0.173241 -7.75438 -0.0688508 -0.554401 0.445201 
2175 1 9.44069 2.61358 5.33417 -8.35405 -0.0194091 0.450006 0.391409 
4335 1 9.57631 2.54253 10.601 -7.73946 -0.367635 -0.73858 0.772757 
375 1 9.39258 6.28739 0.159147 -8.26934 0.580484 -0.43085 -0.0891278 
2535 1 9.51232 6.23174 5.43956 -8.0176 -1.05998 -0.328496 -0.0673863 
4695 1 9.40592 6.24915 10.6378 -8.06417 0.507039 0.0689793 -0.273977 
735 1 9.47317 9.88898 0.1692 -8.64468 0.293768 0.154591 1.05871 
2895 1 9.4801 9.87736 5.46746 -7.74118 -0.096008 -0.0675488 0.163531 
5055 1 9.37621 9.90147 10.5601 -7.8057 0.270278 -0.438072 0.674451 
1095 1 9.50048 13.4568 0.0883329 -8.0009 0.211812 -0.189084 1.22365 
3255 1 9.49675 13.3566 5.31722 -8.09688 -0.675652 0.606262 -0.14855 
5415 1 9.49624 13.4543 10.5013 -8.26717 -0.624442 -0.087673 -0.201121 
1455 1 9.50763 17.1409 0.177692 -7.87421 -0.38509 0.0734649 -0.441028 
3615 1 9.50369 17.1426 5.33383 -7.95482 -1.24799 -1.29799 0.0262061 
5775 1 9.52362 16.9559 10.6179 -7.71223 0.268254 -0.196918 -0.22324 
1815 1 9.45192 20.767 0.133362 -8.09015 0.118544 -0.0576728 0.0330198 
3975 1 9.43228 20.6528 5.37168 -7.91571 -0.119614 0.0821734 -0.0166624 
6135 1 9.37876 20.5165 10.5926 -7.48645 0.271805 -0.0543699 -0.0760602 
21 1 13.1147 2.71123 0.137828 -7.67032 -0.833333 0.284191 0.569668 
2181 1 13.0832 2.52975 5.37534 -7.86105 -0.0759288 0.809293 -0.720598 
4341 1 13.046 2.41177 10.5116 -8.24184 -0.400802 0.418813 0.984838 
381 1 13.061 6.18369 0.1208 -8.26519 -0.370084 0.848866 0.391116 
2541 1 13.1461 6.16115 5.31903 -7.86778 -1.17463 0.293702 0.395584 
4701 1 12.9794 6.3518 10.5096 -8.25184 -0.0799656 -0.742297 0.336457 
741 1 13.1345 9.90633 0.0789739 -7.87139 -1.02257 -0.47333 0.315237 
2901 1 13.0582 9.72241 5.29176 -8.00203 0.734292 0.381477 0.483817 
5061 1 13.1048 9.82468 10.4854 -7.52675 -0.464609 0.478803 1.29441 
1101 1 13.0358 13.5344 0.139475 -7.73438 0.545991 -0.300515 0.357667 
3261 1 13.1333 13.5258 5.35271 -7.88176 0.205402 -0.640817 0.363931 
5421 1 13.0092 13.4522 10.6278 -7.79297 0.636724 -0.258597 -0.224095 
1461 1 13.129 17.1731 0.160042 -8.40007 -0.504854 -0.424524 -0.787317 
3621 1 13.0331 17.0967 5.34162 -7.90098 0.481281 -0.352514 0.978489 
5781 1 13.0642 16.9591 10.5869 -8.22833 0.696468 -0.386111 0.0863555 
1821 1 13.1496 20.7356 0.180427 -7.8948 0.365597 -0.358037 0.151558 
3981 1 12.9798 20.6456 5.25298 -7.81598 0.531626 0.65973 1.42191 
6141 1 13.0784 20.6174 10.6296 -7.56674 0.485591 0.0839085 -0.997032 
27 1 16.7643 2.6036 0.235462 -7.90713 -0.682327 0.241479 -0.383828 
2187 1 16.6739 2.46581 5.42914 -7.92119 1.29798 0.475145 -0.171042 
4347 1 16.6114 2.7652 10.7085 -7.80847 0.00616439 -0.951139 -0.720355 
387 1 16.6948 6.31114 0.323215 -7.64016 -1.09666 0.282824 -0.160598 
2547 1 16.6933 6.21488 5.48873 -7.46231 0.588193 0.120792 -0.586065 
4707 1 16.5318 6.15752 10.6908 -7.77504 0.605933 0.282344 -0.728309 
747 1 16.6863 10.0178 0.267154 -8.2479 1.10993 -1.09441 0.157062 
2907 1 16.6767 9.8317 5.3596 -7.46925 0.467239 -0.269739 0.782201 
5067 1 16.648 9.77019 10.5947 -7.61194 0.797648 -0.126994 -0.408711 
1107 1 16.676 13.4684 0.152346 -8.01648 0.255177 -0.0200425 0.0692487 
3267 1 16.6135 13.608 5.24589 -8.05196 0.800195 -0.475259 0.831726 
5427 1 16.8066 13.2637 10.4792 -7.83663 -0.926292 0.896102 0.0564667 
1467 1 16.691 16.9649 0.136745 -7.74273 -0.3112 -0.00786316 -0.513713 
3627 1 16.6812 17.1595 5.30794 -7.96594 -0.110483 0.534432 -0.0713386 
5787 1 16.7018 17.0263 10.4872 -8.2493 -1.50778 0.329148 -0.0460709 
1827 1 16.7472 20.8046 0.13164 -8.00986 -0.807068 -0.246702 0.698935 
3987 1 16.7318 20.6998 5.31204 -7.91508 -0.134064 0.0891163 -0.218981 
6147 1 16.7323 20.5805 10.458 -8.30715 0.493891 -0.168718 0.55908 
4 1 2.06734 2.70473 2.82583 -7.71655 0.610826 1.03849 -0.345437 
2164 1 2.33778 2.58266 7.93052 -7.77993 -0.158699 0.185022 0.169887 
364 1 2.20556 6.16789 2.68843 -8.03047 0.396343 -0.522887 1.76325 
2524 1 2.22416 6.25259 8.05243 -7.92187 0.471314 0.126627 0.363136 
724 1 2.20285 9.88109 2.74239 -8.09353 0.170172 0.596057 1.31135 
2884 1 2.08837 9.82045 8.10171 -7.86942 0.826118 -0.470819 -0.257006 
1084 1 1.9922 13.3765 2.76899 -7.57068 0.511996 1.01209 0.401344 
3244 1 2.11388 13.5224 7.94086 -8.32662 0.245661 0.336272 0.77017 
1444 1 1.93265 17.1106 2.78588 -7.86076 0.822278 -0.263236 0.534621 
3604 1 2.2123 17.0101 8.05564 -7.97734 -0.526821 0.782601 -0.581231 
1804 1 2.24556 20.6208 2.7325 -8.15004 -0.100584 -0.857341 0.0239592 
3964 1 2.25838 20.7331 7.97171 -8.12466 -0.397832 -0.309531 -0.567145 
10 1 5.86036 2.56683 2.82644 -8.14225 -0.139685 0.872518 -0.497518 
2170 1 5.97475 2.60878 8.0189 -7.94593 -0.349533 -0.79572 -0.0782215 
370 1 5.77588 6.25989 2.90061 -8.53299 0.296351 -0.778379 -0.627654 
2530 1 5.9057 6.25091 8.00951 -7.88485 0.337905 0.0482473 0.982968 
730 1 5.74131 9.82681 2.78977 -7.57038 -0.850197 0.0671716 1.20707 
2890 1 5.76108 9.92584 8.06164 -7.95449 0.456303 -0.531581 0.230866 
1090 1 5.86972 13.5825 2.69956 -8.2587 -0.551392 -0.377514 -0.353343 
3250 1 5.75687 13.4277 8.01521 -7.82094 0.202746 -0.427546 -0.032517 
1450 1 5.88401 17.0554 2.58172 -8.23075 0.33816 -0.914908 0.27947 
3610 1 5.81524 17.0634 7.85836 -8.138 0.0440523 0.235078 0.781965 
1810 1 5.62667 20.7311 2.86511 -8.10391 -0.0985733 0.217415 -1.03635 
3970 1 5.88206 20.5941 7.99692 -8.0543 0.457417 -0.0454868 0.74178 
16 1 9.4951 2.64154 2.78554 -8.39178 0.10853 -0.230542 -0.636373 
2176 1 9.42826 2.61768 8.03639 -7.96877 0.606963 -0.159117 -1.13952 
376 1 9.42609 6.26361 2.80653 -8.02683 -0.512611 0.0499119 -0.0672176 
2536 1 9.49981 6.32652 8.09296 -7.96712 -0.561214 -0.458693 -0.369773 
736 1 9.47126 9.84012 2.9379 -8.0218 0.0875619 0.464597 -2.05983 
2896 1 9.47156 9.87027 8.02294 -8.03225 0.869393 0.7072 -0.407685 
1096 1 9.44046 13.4538 2.78066 -7.84352 -0.367828 -0.54189 -0.713235 
3256 1 9.42713 13.403 7.86154 -7.91924 0.373991 0.53803 1.1166 
1456 1 9.45226 17.2625 2.75867 -7.70563 -0.651741 -1.76008 -0.184558 
3616 1 9.40003 16.9739 7.97881 -7.70073 0.102926 -0.181684 0.233478 
1816 1 9.5348 20.7267 2.77496 -7.84204 -1.39218 0.0486497 -0.233373 
3976 1 9.3968 20.5751 8.00646 -7.68842 0.00368462 1.26216 -0.224864 
22 1 12.9744 2.66398 2.7201 -7.89551 0.227842 -0.511296 0.83541 
2182 1 13.0865 2.61392 7.92627 -7.83134 -0.730297 -0.475662 0.359043 
382 1 13.2074 6.25067 2.77032 -8.17524 -0.241914 0.351247 -0.535724 
2542 1 13.0779 6.16268 7.92965 -8.03525 -0.0125713 0.171347 -0.0618028 
742 1 13.0556 9.90401 2.65815 -8.03706 -0.642682 -0.867571 0.0512759 