# LAMMPS data file written by OVITO Basic 3.8.4

8 atoms
2 atom types

0.0 4.709384 xlo xhi
0.0 4.709384 ylo yhi
0.0 4.709384 zlo zhi

Masses

1 183.84  # W
2 12.0107  # C

Atoms  # atomic

1 1 0.0 0.0 0.0
2 1 0.0 2.354692 2.354692
3 1 2.354692 0.0 2.354692
4 1 2.354692 2.354692 0.0
5 2 1.177346 1.177346 3.532038
6 2 1.177346 3.532038 1.177346
7 2 3.532038 1.177346 1.177346
8 2 3.532038 3.532038 3.532038
