# LAMMPS data file written by OVITO Basic 3.8.4

2 atoms
2 atom types

0.0 2.733 xlo xhi
0.0 2.733 ylo yhi
0.0 2.733 zlo zhi

Masses

1 183.8500  # W
2 12.011    # C

Atoms  # atomic

1 1 0.0 0.0 0.0
2 2 1.3665 1.3665 1.3665
