LAMMPS data file via write_data, version 22 Dec 2022, timestep = 800000

21952 atoms
4 atom types

-0.03302635567357726 50.03302635567684 xlo xhi
-0.06605271134715451 100.06605271135368 ylo yhi
-0.03302635567357726 50.03302635567684 zlo zhi

Masses

1 58.6934
2 91.22
3 92.91
4 26.981539

Atoms # atomic

1406 2 1.7632310833860871 3.3248331107233944 3.6483968186108844 0 0 0
4490 1 1.5084009682521502 1.7007986227078753 1.8292978214374511 0 0 1
18523 1 2.923084387713751 1.2205922156207671 3.7034819688440432 0 1 0
18453 1 1.850764924204706 3.732914734622766 0.7083493710439578 0 1 0
4652 1 0.4790054050639153 0.8170324057029668 4.184038116429035 0 0 1
445 1 3.691141105883847 3.0508793667762166 2.0580687560715423 1 0 0
4384 1 3.4631853680957114 0.5322706168476482 1.470930725496162 0 0 1
21794 1 4.502829915339351 4.33916405750517 0.3975288405437415 0 1 1
56 1 1.5933606848143493 0.09623217629173897 0.10198122929217557 1 0 0
4428 1 5.378720630148736 1.9085979997403053 0.4766929513283781 0 0 1
21601 1 6.529567425134192 3.4943910972626306 1.6971785737684937 0 1 1
1058 1 7.70859201851062 1.6277104147227126 2.5578484978865133 1 0 0
1013 1 7.75120657940622 1.8272463335496558 0.44315427646463845 0 0 0
405 2 5.3199677193829364 1.3989321620140847 2.9552518289655345 0 0 0
733 2 5.413146092100809 3.330865217928012 4.193568433648246 0 0 0
793 2 8.27574907628957 3.747369641443395 3.6651231782795284 0 0 0
3815 2 8.771069029913448 3.982442995936907 0.7178719645362902 0 0 1
359 1 9.148489196069322 0.4343228600579844 3.875215037192525 0 0 0
21902 1 9.878021021294042 2.1736565898847533 2.7006318899951594 0 1 1
18840 1 8.981142128555467 0.019898144609358126 1.554872960882539 0 1 0
741 1 7.216488016265055 1.4408012257416454 4.996004249379962 0 0 0
21903 1 10.149574595352474 1.783705152329178 0.43586116203847747 0 1 1
186 1 12.080506194157602 2.6365954493545734 2.2264443948856214 0 0 0
1354 2 11.22977348706409 3.6131758298465892 4.494212613984112 0 0 0
21240 1 11.179203450588107 0.5382097300304303 2.2116727908123823 0 1 1
420 2 13.557512288175792 1.0257763777318982 3.243538843585568 0 0 0
354 1 13.544254586889855 4.082892059423689 3.582461005894033 0 0 0
468 1 14.225698056679496 3.15833441917223 1.6632486196084142 0 0 0
1120 2 10.884885626268506 4.72211903613414 1.8717930573619983 1 0 0
18157 1 11.232306375094865 0.9703149216321305 4.5640469217136115 0 1 0
465 1 12.633154459967933 3.904305871216025 0.21021189773573984 0 0 0
18828 1 12.298771454054464 1.6498027892001124 -0.017688786632012087 0 1 0
4491 2 15.90853892792005 1.9935272031194793 3.521968026760976 0 0 1
20 1 16.478168935936164 3.282968529722184 1.1239245464564238 0 0 0
18525 1 17.886878179828887 1.1449650570342638 2.2719532172140577 0 1 0
18476 1 15.386410561081457 1.0266727613090412 1.2931781629474426 0 1 0
692 2 18.629910798352267 3.3751285453413162 2.416398286077566 0 0 0
18521 1 19.27546136919282 2.0936486916606643 4.455260165357126 0 1 0
17910 1 15.782492164488339 4.635587353023372 2.9622225413042416 0 1 0
73 2 19.13126794669375 0.6359545414203214 0.22127876232398314 0 0 0
466 1 17.409078793904133 3.7792155222379367 4.4746145300761 0 0 0
18173 1 19.399532561712096 -0.06524463023949621 4.243620374206288 0 1 0
1705 1 20.19049641650617 1.2019657451664278 2.45112237100068 0 0 0
21916 2 21.120846863884637 3.6677592645370822 3.474609983370175 0 1 1
31 1 21.593738324451532 1.2395962841162163 4.261437377814901 0 0 0
36 1 22.540212955756918 1.0224764771346402 2.153198397352815 0 0 0
361 2 21.038787902144314 2.440767463497521 0.5404608868557728 0 0 0
203 1 22.232757579352967 4.47832163161081 1.2293046711654574 0 0 0
26 2 23.66837911820802 3.163431062250281 3.104514102251463 0 0 0
17918 1 23.615708439518784 2.6889925914201966 0.6606643161774661 0 1 0
17807 1 24.887630488545366 0.850152994020533 2.0853064135767436 0 1 0
690 1 24.371003638125536 1.4763754426622562 4.84430107550102 0 0 0
4395 1 26.180138894395494 2.4028285812397012 3.734805222694331 0 0 1
764 1 25.72423349104005 2.984622401448742 1.3812697747443583 0 0 0
3792 1 27.22000084071406 0.9555768459298268 2.0032328256674616 0 0 1
421 1 28.15273702866853 1.3360469247485742 4.244303542030991 0 0 0
766 2 28.00733240141122 3.2611250463886132 2.1649413818777177 0 0 0
436 1 29.5893863914511 1.4263978131560888 2.2238097105083825 0 0 0
4520 1 28.78702182952393 0.9201847118602062 0.24652828325092796 0 0 1
17926 2 30.12797974296316 3.265476415179627 0.399699604622799 0 1 0
32 2 30.127223109532636 2.8769205679267293 4.399761315348379 0 0 0
1089 1 31.188902896123402 0.6809294631874176 3.801336906609651 0 0 0
90 1 31.43860858494266 1.0085287404239465 0.5823170835393245 0 0 0
4070 1 31.666112998812235 2.4840635566921803 2.3496354056094897 0 0 1
3855 2 34.236350913562966 2.354297335568459 1.5275001040846168 0 0 1
4459 2 33.51947801145177 1.7649264168354613 4.2071397978551675 0 0 1
767 2 32.50736395979363 3.767961861507272 4.531379185089989 0 0 0
17935 1 31.0486874540251 4.668110390594494 2.4743475203708236 0 1 0
3903 1 32.41090146711258 4.05051408192541 0.6343971916791664 0 0 1
21632 1 33.51445737941824 4.7860782782251015 2.358122350328154 0 1 1
18068 1 32.826985937952884 0.1167621414452748 2.283082628149017 0 1 0
19422 2 35.211262569233995 3.5260426412383925 3.7199409302682014 0 1 0
17888 1 35.12249130611799 0.4588311558372018 3.0099566588784343 0 1 0
42 1 36.1041613919075 0.9598116678919049 0.5249838474788717 0 0 0
497 2 36.88629567724256 2.4722668107263934 2.186395199751919 0 0 0
18256 1 38.654012132075884 1.4523310039921964 0.7973560473186022 0 1 0
1490 1 36.97737252438999 1.138789011636341 4.2805817830329635 0 0 0
423 2 39.624071641448225 3.129963095317822 2.389319428591545 0 0 0
4410 3 39.22481721919587 0.23487040817419108 3.301973633413401 0 0 1
21824 1 38.612994337893674 2.6101364381679053 4.823506777218549 0 1 1
437 2 37.82154415425396 4.673252871921826 3.321286647836484 0 0 0
18243 1 35.79218629344386 4.8279547464143135 1.5456029723901639 0 1 0
208 2 38.297819150957075 4.959134672835247 0.5173513411711379 0 0 0
19106 3 42.58817144629325 4.182862103395802 3.1190903938893686 0 1 0
771 1 41.375373509202056 1.4998849124361724 2.089132348872065 0 0 0
48 1 42.984742555993726 3.0115481938110573 0.9811474057002432 0 0 0
17945 2 43.690178090770026 0.8808974539914255 2.286935051431129 0 1 0
18855 3 41.14235463883933 1.1711235575590078 4.526024630705899 0 1 0
1117 4 42.69417198042888 2.8483933569920543 3.894911912503628 0 0 0
18806 1 43.49970620378771 0.608961403288485 4.642483659302636 0 1 0
774 3 40.991506062612196 3.6167359708499984 4.941718453846417 0 0 0
1450 3 44.430122209644274 2.991430630157987 4.570843501711664 0 0 0
107 2 40.97031899537912 4.859842033773582 1.0486923548955092 0 0 0
390 1 42.343990270941454 0.7575689628094641 -0.0008245351426502609 0 0 0
4084 1 40.820492634826905 2.3879928249869886 0.0800278443748038 0 0 1
215 1 45.25007526175681 3.1124603711062746 2.0024127735431545 0 0 0
1134 2 49.236830987366396 2.4205652359367043 2.7868360616135504 -1 0 0
18506 1 45.828884237807145 1.3056081401147088 3.539585672626356 0 1 0
451 1 47.919740773215636 0.9450723787379176 4.636244948574596 -1 0 0
728 2 47.27828999068953 1.719770343078017 1.4073858764265363 0 0 0
726 2 49.33780070821326 3.412976059400125 0.5679540584506887 0 0 0
18863 1 46.98200731237142 3.1555502486803824 4.081804346451638 0 1 0
4040 1 49.736622771684466 0.3840088976292317 1.5212799566564954 -1 0 1
500 1 47.564184776260554 4.578014492417599 2.400928216887553 0 0 0
770 3 45.46255564322323 4.96776927258164 3.246012214320287 0 0 0
1175 2 0.11146934808083064 5.1841968732913015 2.890086443884627 1 0 0
512 1 2.6304469715123977 5.4309949891700215 2.0497006519205607 0 0 0
678 1 2.979498298744057 7.450703451567114 2.681114506306252 0 0 0
458 1 0.5939761248372293 7.5687809773406585 2.143949112652429 0 0 0
622 1 1.6285664270254225 9.202162679477997 3.250985753224083 0 0 0
501 2 3.299414470297417 9.369698775168477 1.187181408307118 1 0 0
19126 1 0.5610621977289668 5.677980489511449 0.4511401139025816 0 1 0
59 1 1.8220447191010984 7.374177740802529 4.644874591814743 0 0 0
58 1 3.6457183227314944 9.164664614185538 4.240974504287109 0 0 0
21898 1 4.391825780524745 6.723559459783615 1.0456126436410567 0 1 1
343 1 4.736670749667777 7.016434837231277 4.403696213637573 0 0 0
514 2 3.106611864895735 5.185949679209278 4.864168358691229 0 0 0
4426 2 2.0944570554365756 7.80001208510884 0.18425918556795046 0 0 1
1137 2 4.964128201783275 5.17996057034043 2.8176811139148064 0 0 0
11 1 5.1210546082961645 8.414608046647905 2.5234814770183376 0 0 0
746 2 7.578291055018193 5.744120633851541 2.1617016256440063 0 0 0
1069 1 6.558874106633117 7.672582183727852 0.9732257210278166 0 0 0
517 1 6.942597039914979 7.647286289134546 3.7142093478713893 0 0 0
303 2 8.81686485510565 8.131420687671238 2.0806937045384215 0 0 0
457 2 9.536315528407806 6.134685435995243 3.6253869814356627 0 0 0
523 2 8.872965700923642 9.522045147389214 4.256327129671172 0 0 0
21603 1 6.3768052445381205 5.629279588543086 0.13405096825286267 0 1 1
403 1 6.933521972265189 9.689080387349334 2.313048353517526 0 0 0
341 1 5.938257694350281 9.55334120580462 4.624126052157874 0 0 0
739 1 6.847711386657043 5.580134489537719 4.635271187645446 0 0 0
4203 1 8.967913425882161 6.588511400709889 0.027077199498388785 0 0 1
677 1 11.202839626141921 7.114256216042201 1.8237691192844971 0 0 0
745 1 13.202614632670066 5.779539283927046 1.8204924168789551 0 0 0
798 1 11.977170459071484 6.120294324259714 3.8020432554775123 0 0 0
4493 3 12.843974683510247 8.50710447184403 0.2690076872258842 0 0 1
69 1 10.978338390425298 8.129493000957435 4.26470581857402 0 0 0
410 1 13.213477252792478 8.096900145360602 2.7821252016635807 0 0 0
133 2 14.405820961339279 6.34210194607162 4.287661651059013 0 0 0
402 1 10.301023183989297 8.666874438005589 0.19925736671415661 0 0 0
404 4 14.647692701191117 7.478037966232433 0.8203338857764112 0 0 0
521 2 11.127645869141345 9.633167483952374 2.4179283477118654 0 0 0
4439 3 14.984492714812523 5.103712417457449 0.12673651738463312 0 0 1
137 3 15.379526579125047 6.902958264134347 2.003132291111303 0 0 0
422 1 19.841864153207208 5.187774518822899 1.565831181309993 0 0 0
4100 3 15.133545452807738 9.522391204537307 0.271600859129495 0 0 1
415 2 17.41749246702294 5.695057521054486 0.8912973556378689 0 0 0
125 2 17.462271591107452 8.211204870746691 1.3551733739908778 0 0 0
861 1 17.290341622965258 7.977086754401334 3.737139883711565 0 0 0
529 1 18.2647000605522 5.843792379821774 3.1901333554758367 0 0 0
4171 1 19.637912360320335 8.033387136788415 2.674443463475834 0 0 1
4183 1 19.492355319229414 7.310644321839915 0.3053501227148964 0 0 1
4614 2 15.307314392111058 9.59422579626784 2.8452336350366414 0 0 1
67 1 16.697200911692278 6.051782782885256 4.825608704599624 0 0 0
68 1 19.274359439014173 9.87807230881783 1.1291818136058256 0 0 0
4519 1 24.345896704915706 4.9694242071540495 1.0930623097235372 0 0 1
17907 1 20.594685660502524 6.288734315010946 3.633718017015285 0 1 0
368 1 21.448016056459124 6.639512493323864 1.4624645946713033 0 0 0
246 1 22.034925848928996 8.151240245091481 3.2326599146663257 0 0 0
4448 3 21.362054699275113 8.905036469033579 0.6756571636162172 0 0 1
428 2 23.28567118721158 5.831714159211774 3.2798291484199527 0 0 0
806 2 24.590927878611463 8.254286331631413 3.583451516081207 0 0 0
4500 1 23.62344315752248 7.444891719407394 1.4116958817848282 0 0 1
4503 3 24.563598760798087 9.363530302035269 0.714574704428062 0 0 1
77 1 20.576068906064506 8.498224441098554 4.946326413207122 0 0 0
4172 4 22.7342305416956 9.155715568598529 0.03504721564032971 0 0 1
4393 1 26.55858046782715 5.0359765320196095 0.7715714799730344 0 0 1
1151 2 25.78837794717142 4.841115463383422 3.2565815735513 0 0 0
255 2 28.85054383468175 5.1754605438591765 3.6958601176800343 0 0 0
752 1 25.78333302649146 7.056582143335644 1.559711017425283 0 0 0
87 2 27.017722615207052 7.222218789525277 3.8075727944831557 0 0 0
537 2 28.916734520668882 5.698366493015681 1.268013569677721 0 0 0
757 1 28.73657974518874 9.210840619886401 3.927446198565315 0 0 0
594 2 28.06688035782726 8.096034858586526 1.7027848498623683 0 0 0
4571 1 26.5794887894612 9.72681338581333 2.607551355735111 0 0 1
18182 1 30.055766164671766 7.496055743368686 3.1635697564400993 0 1 0
432 1 30.876775778410305 9.513377881189518 2.5957733566584005 0 0 0
488 1 31.12673992337135 5.876052615898506 4.401240095437621 0 0 0
826 1 30.661220133937757 7.917569654991711 0.9380763294171496 0 0 0
550 1 32.04969164330918 6.635319732359728 2.232758023140274 0 0 0
18558 1 34.5127067167433 6.979551655007465 2.243769542877341 0 1 0
4517 1 33.43700562405826 5.971176705760039 4.21898685451365 0 0 1
18540 2 32.54750481575078 8.281125917675972 4.118527843558769 0 1 0
146 2 33.07181988273456 8.750657357923822 0.8813134731672472 0 0 0
4584 1 33.56698276249273 6.119742724194297 0.4053383993173048 0 0 1
4127 1 31.125031982503543 5.793496425963285 0.2870060742096157 0 0 1
101 1 34.936867674336725 7.843889309905179 4.514548035506507 0 0 0
4463 1 35.44051127186813 8.206073779635393 0.580378405200483 0 0 1
1039 1 35.69943042682814 5.834703239570656 3.8254570391567904 0 0 0
1113 2 36.13180074584985 9.119042941016286 2.692607255202275 0 0 0
17938 1 36.95560005444247 6.7585421718681005 2.081819229369898 0 1 0
769 1 39.52672401541054 6.677969819728265 2.023874365802322 0 0 0
491 2 38.69592894751567 8.876941654810075 2.8376799189167685 0 0 0
45 1 37.876488076289135 7.848962578765701 0.41780194324017045 0 0 0
435 2 38.237037765228926 6.779088173196411 4.594491556724865 0 0 0
108 1 39.32766442895442 9.794170184714032 0.30300919123832637 0 0 0
18246 1 40.17334946540026 5.345394025631651 3.6980460887955915 0 1 0
4139 1 40.61537343581317 7.696576685083252 3.9751335231760345 0 0 1
18762 1 41.03656317518421 8.745034706226557 1.6932746706342716 -1 1 0
4536 1 43.85270708186301 5.413389362477141 1.4741044635820064 0 0 1
1059 1 41.82680378025141 6.529264123081474 2.466303836841029 0 0 0
833 2 43.57224214681677 7.96462361786541 1.3176587627125194 0 0 0
110 1 42.54070175121455 8.679712256890767 3.513831750140613 0 0 0
673 1 43.88287958601419 6.705890337708256 3.5730110037638436 -1 0 0
613 2 44.91453223151436 9.351477862451285 3.607478078060792 0 0 0
4700 1 40.64298001368718 9.950747274496687 3.9286493168262773 0 0 1
1391 3 42.253413449208416 5.966677108961434 4.990612677073091 0 0 0
1169 1 46.25042490843193 4.8891371608279055 0.6981451391822626 0 0 0
968 3 49.64193350506519 8.858707674545284 4.740908950876492 -1 0 0
4528 2 45.9286006862549 7.12455997938769 2.0038108637306693 0 0 1
399 1 48.57310065978965 6.197704218719567 1.1193202373985185 -1 0 0
567 1 48.01554436756226 8.530307769979254 1.3168294458503458 -1 0 0
845 3 48.35216613840376 7.2385883779214835 3.2045983356787016 -1 0 0
792 3 46.44576776448159 6.855371662785763 4.6334930461547765 -1 0 0
18139 4 49.40562473650777 7.256515651580916 4.488517815725902 0 1 0
499 4 47.12805710839174 8.432983648157519 4.828206652957809 0 0 0
723 1 48.10316586124977 5.212021522063596 4.598419589548958 0 0 0
449 1 48.445651324489155 9.919730321176855 3.1111165250277093 -1 0 0
218 2 0.15344217459892093 10.008405626581707 1.2472321359844958 1 0 0
120 2 2.3150829341694634 11.327667656477201 1.8767818955153164 0 0 0
961 1 1.4224589368979352 12.859510083808606 3.606195440943715 0 0 0
118 2 2.35518254899704 14.021491646580623 1.388003474337468 0 0 0
166 1 3.66323683896694 12.888102283363459 3.4274602961941247 1 0 0
167 1 0.3350946435813551 10.994215605300399 3.7682511553861815 1 0 0
447 1 2.7661100614871823 11.151876088084897 4.502050668211075 1 0 0
177 2 4.65888379285047 12.520564524012949 1.1658367445343019 0 0 0
287 1 4.859068556730631 10.766381097347416 2.9474828611513297 0 0 0
4663 1 4.428790377549023 14.805473950344256 2.576915229306223 0 0 1
117 2 0.16841971294509328 12.771703056038023 1.4483506859960775 0 0 0
4830 1 4.941142371405074 14.625147487436303 4.6130112948914395 0 0 0
4487 2 5.455893745735638 10.020152957596776 0.3242943937791037 0 0 1
571 1 7.434758069964669 11.356399653537592 3.8024048882279433 0 0 0
121 1 6.999519841237066 11.850820601511748 1.4766179438198053 0 0 0
464 1 8.386981508839922 13.434124203218595 2.8757737680952964 0 0 0
1132 1 6.021456001400304 13.103920831523741 3.1611104511102943 0 0 0
401 1 8.871528306029479 10.633147128078274 1.4033417315492724 0 0 0
4616 1 8.804129184293748 12.685704297789698 0.12896725030958658 0 0 1
1568 1 5.188731173280415 11.935890504449043 4.9101703750575405 1 0 0
4715 1 6.455739504581601 14.40146836397492 1.5076006883061328 0 0 0
455 2 10.017684789716634 11.611345467629048 3.3360202992483434 0 0 0
644 1 13.000918029356875 10.005809345289288 4.118714477372177 0 0 0
515 1 13.414385855399914 10.629667316112565 1.7523722586504797 0 0 0
169 1 10.411883109586656 13.595043519713867 1.5328901117720743 0 0 0
800 1 12.38232662778522 12.537489786180872 2.599084680762186 0 0 0
397 1 12.616855370032967 13.489635320591134 0.5800701944350628 0 0 0
4427 2 11.285107661267112 11.32782264299309 0.4203142001860997 0 0 1
4444 2 10.963170770236594 13.810792534903266 4.131896597982883 0 0 1
522 2 14.44471290106142 14.222207893693515 2.5064846392537112 0 0 0
906 1 14.280970981336937 11.922272395166432 3.694249059044077 0 0 0
347 1 14.738097368912618 13.87156919313665 -0.029167483613824527 0 0 0
16 1 15.071003690302765 12.030871186496697 1.490643791128735 0 0 0
524 2 12.933652985090024 15.090380136436668 4.69211385981391 0 0 0
1140 1 17.076446416413628 10.855721416421098 1.2970446687816333 0 0 0
132 2 17.319745612595373 13.608167888573327 0.9388340788516107 0 0 0
4782 2 16.767832075372773 12.49075923559364 3.3565230252065503 0 0 0
305 2 18.185626385038553 10.313485481792487 3.5023546574949966 0 0 0
192 1 19.083801457259337 12.174699399749596 2.0114161283693135 0 0 0
462 1 19.349693045303503 12.50838198235558 4.261948178523409 0 0 0
124 1 18.81007345869942 14.36891932922402 3.026520266886699 0 0 0
1249 2 15.207030342308165 13.929690481257326 4.870259465762752 0 0 0
4668 1 15.813513008752134 10.697935877900766 5.011219054813692 0 0 1
5453 1 20.036940841565833 13.725882646588389 0.6203452098735276 0 0 1
1201 1 22.54575549151811 10.171193906627616 4.954958675804948 0 0 0
921 2 23.17933755034428 10.416322478631082 2.6577419666993993 0 0 0
4611 3 21.767742376220934 11.456712559009683 0.9091655390832385 0 0 1
587 2 20.632847736890355 10.450233891215417 3.164115450353895 0 0 0
981 1 21.1205895124099 13.319104781574062 2.5716970014108536 0 0 0
312 1 21.63297896932657 12.328634786065045 4.528267223898273 0 0 0
1543 1 22.93023751568043 14.582177093454181 3.591368653800473 0 0 0
4612 1 23.43667834807638 12.966611659523497 2.0216779910247813 0 0 1
868 1 23.751007048871944 12.423802062829774 4.294680549053062 0 0 0
918 1 20.74961412992496 14.638455896317753 4.557377744138315 0 0 0
4509 1 25.256755360493237 11.564557201720788 1.8150104973605843 0 0 1
197 1 25.364321859667033 10.83377295144247 4.132788553024276 0 0 0
4339 1 26.6636719290666 10.478655690839682 0.42256191907374313 0 0 1
810 2 25.935442496424532 13.316202772736407 3.5405780689770197 0 0 0
4623 2 25.374149235690382 14.034446847734952 0.786872180783863 0 0 1
4852 2 27.473483905537996 12.583885235767621 1.4449948263060737 0 0 0
489 1 28.843147615826847 10.457764666403369 1.9214402754113378 0 0 0
4525 1 27.666143873878436 11.28131802659437 3.9693539305865384 0 0 1
1541 2 28.641147408581112 13.69965846130557 3.600205427233405 0 0 0
484 1 29.909242669114374 11.383501417565185 3.703344039249549 0 0 0
4291 1 29.977237661942166 12.613061920462638 1.6130864254521802 0 0 1
775 2 38.2092104030151 0.018524523018470518 20.229977476380352 0 0 0
99 2 33.9142368131557 10.137878156841023 2.9515277684581376 0 0 0
869 1 31.395081254562484 13.54619945972821 3.2393572727410267 0 0 0
543 1 31.772326560586894 11.565531941763652 2.1162143116335583 0 0 0
532 1 32.33333165678668 13.794054301112888 1.2276056073857347 0 0 0
597 2 32.086807369550534 11.219654566675999 4.493700662242836 0 0 0
651 1 33.72297967145191 12.699637375270058 2.872999694132999 0 0 0
4692 1 34.65934410007329 13.349578613764235 0.49839420943342805 0 0 1
155 2 30.959882577309717 10.272106399201432 0.08970675592539679 0 0 0
929 2 33.15674948044312 14.913048015753526 4.445707819095189 0 0 0
772 2 33.02987076521067 11.570554705667217 -0.005279784560812344 0 0 0
4849 1 35.36136362256044 13.688097639656798 4.353957997881945 0 0 0
1164 1 35.22563261286172 11.18831811460742 1.172686367905285 0 0 0
1102 1 36.13073831629002 13.073864554682755 2.295186530216783 0 0 0
933 1 35.752004855542864 11.443981424403898 3.885195509354433 0 0 0
322 2 37.68861240503644 11.10951038091864 2.0033852614735492 0 0 0
4741 2 38.71504814064547 13.405708569296886 2.2170974138242037 0 0 0
150 2 38.26574002119701 10.813062858570577 4.578941449948344 0 0 0
4759 1 37.44467044975618 13.063650297956249 4.420209929220356 0 0 0
5423 1 36.75483791404541 14.703896248287414 0.8269375880709795 0 0 1
4529 1 36.99713224918555 12.519006063956441 0.260701311810395 0 0 1
329 1 39.6497995201059 12.123360109441371 0.034855052149431034 0 0 0
4643 2 39.81677364093311 14.746186394688708 0.19620071562900485 0 0 1
991 1 39.00778790752738 14.744759652147303 4.837174491210675 0 0 0
4646 1 40.09142250831975 11.070927375202423 2.0773081444152366 0 0 1
213 2 40.16552491629706 12.546048566577829 4.045645167491296 0 0 0
556 2 43.98355061322203 10.361604627427292 0.8793807066750808 0 0 0
602 1 41.322090144282896 12.925102310588008 1.6226579445351454 0 0 0
168 1 41.62502664217385 10.780819798200207 0.37313819848482666 0 0 0
882 1 42.32746778079186 10.968959361767457 2.621390054571285 0 0 0
1218 2 43.927229353887284 12.94559074661313 1.2935746747076777 0 0 0
332 2 42.526567159211346 13.74755398062271 3.8662206166759674 0 0 0
947 2 44.46955627402966 11.982535940019975 3.557744337874606 0 0 0
555 1 42.51649535817875 11.114216498002136 4.818795071103337 0 0 0
4686 1 40.557732256368354 14.951536017756455 2.723265730643479 0 0 1
4810 2 44.69415948310612 15.014923386591718 2.567060721035535 0 0 0
897 2 0.047774154531957436 14.586794413529859 4.6934029907192105 0 0 0
559 1 46.38671387217598 9.950285275292613 1.8251923484509553 0 0 0
4036 1 46.13053079014715 11.718035326276567 0.5048607841429114 -1 0 1
562 1 48.67153981024005 14.674488371751686 2.0065014247725332 -1 0 0
510 1 48.81375392229447 12.822019737795438 3.416794091132695 -1 0 0
4765 1 48.167243488594714 11.529998203809438 1.6143527981171784 -1 0 0
835 1 46.57659352187633 13.461263011514667 1.8434386948840928 0 0 0
4310 1 46.768853596428386 11.635600573570493 3.3507311848638603 0 0 1
541 1 47.00627725963066 14.247200808823205 3.8020471390838515 0 0 0
20347 4 47.48436434309915 -0.05816593565388928 15.531623509340577 0 1 0
229 1 2.3911715017422623 15.046749149717906 3.762376009930611 0 0 0
8772 1 2.753981751438452 16.300458949891205 1.8431072421900703 0 0 1
564 1 1.9374060714353676 17.852190511468955 3.290026749360293 0 0 0
1291 1 1.0239571663362061 17.584807764745054 0.9539493208663378 0 0 0
625 2 3.6697648143092136 18.549637677163012 1.4122154451594953 0 0 0
623 1 3.8626957145406173 16.700317494350386 4.038026999333333 0 0 0
1177 1 0.49097417667128684 16.114226309214946 2.660850656142888 0 0 0
670 1 1.430013653951695 19.81014396566135 2.1477127253207935 1 0 0
226 2 4.324625993118721 15.060985350181513 0.14751670368146094 0 0 0
227 2 0.29904481690776147 15.199862372066804 0.2913655156911548 0 0 0
5495 1 4.652102147361858 18.7942202910576 3.710263656951188 0 0 0
18516 1 7.122198452563152 15.186820112068954 3.6402042083116553 0 1 0
230 2 5.55991975106408 16.85578882751072 2.031723996715766 0 0 0
627 2 7.809449777191026 17.2109592446066 2.3164604397750783 0 0 0
4706 3 6.2953210282650085 19.64119225367026 1.8339991503566804 0 0 0
8531 3 6.7886040436283 19.391883161890906 4.400369994205666 0 0 1
518 2 8.499094757586617 15.102358490648855 0.9608320164605534 0 0 0
971 1 9.670993459985928 18.228854771830257 3.5619486644667497 0 0 0
632 1 5.97300729020212 16.949969864181995 4.609202807956901 0 0 0
916 1 9.872765427413702 15.7093150787197 3.171573200558655 0 0 0
4774 1 8.30101528716846 16.87251992108496 4.821755206408407 0 0 0
4769 3 8.885123271092622 19.70751831671346 1.4629893358188253 0 0 0
4712 2 10.232961088490327 17.58423799050945 1.3460887983729661 0 0 0
231 1 11.990875104115796 15.206874887898467 2.0896628801524155 0 0 0
4720 1 12.70543627582146 18.14324527120374 1.374802652827652 0 0 0
576 1 11.874661954020034 17.162706972164642 3.3096172380402304 0 0 0
572 1 13.640244540042353 18.798350313093103 3.5456454620139475 0 0 0
237 1 14.160563475168246 16.709663840882268 2.2228547940578514 0 0 0
5998 1 11.415728062462412 19.448156722385484 2.747732705643483 0 0 0
797 1 13.150055570927515 15.83385720774215 0.1593260422773694 0 0 0
570 1 11.512566167824343 18.933676184573308 4.899709703777698 0 0 0
519 1 15.017521483044046 16.49702621182602 4.255298241327835 0 0 0
4766 2 11.158689698141652 19.974408486810486 0.3502484610743283 0 0 0
1057 1 37.21624061097739 -0.02519158091993745 2.2942668643451456 0 0 0
5395 2 17.361293987582776 17.944007183215977 0.6842301643641748 0 0 1
1207 1 16.38325926849065 15.744451566525962 2.0305207240589698 0 0 0
4329 1 16.377855699216358 17.689973504594352 3.0363206450669913 0 0 1
4344 2 15.412392179249975 19.41669158105741 1.7567875066002738 0 0 1
850 1 17.059456267286116 15.620882695374988 4.341763627398453 0 0 0
248 1 19.246669130651586 18.749138256265297 2.5097343931758944 0 0 0
794 1 18.70331682041011 15.633534839951256 0.6820542770909603 0 0 0
581 1 18.502287290080243 16.643797142403795 2.658171162589514 0 0 0
8790 1 18.20319523018925 17.76831385027199 4.551745790535132 0 0 1
245 1 19.99695821943841 17.576084824265628 0.4459004157688407 0 0 0
4904 2 23.145882458234254 15.375837658468702 1.0504456798343915 0 0 0
8789 1 21.463028171865666 18.43239627037663 1.9452609155666347 0 0 1
531 2 20.940678684144928 15.910321739565548 1.9424363505243154 0 0 0
1642 2 20.569493120458823 17.161701017638887 4.18661795278678 0 0 0
638 2 22.15067941831465 19.449062421001123 4.374367975446208 0 0 0
297 2 23.495186648257643 17.444585199276034 2.823244365607196 0 0 0
4728 1 23.501873059113144 18.963944967576804 0.7946444192184694 0 0 0
307 2 24.517025491003082 19.74286222554906 3.3928557898343468 0 0 0
535 1 24.920921085840984 15.578763514463281 3.1333606224923534 0 0 0
5774 2 27.29514214048883 15.162150472662226 1.991284643721683 0 0 0
4781 1 26.238513024258157 17.728402023883284 3.44407713120408 0 0 0
5404 1 25.19011597758658 16.977204877217535 1.238067407971548 0 0 1
4644 1 25.94786553531366 19.21809000627802 1.4605315475828011 0 0 1
648 1 26.83200010174778 15.57835254766632 4.584708127110802 0 0 0
652 2 28.432868279603927 19.120449881333684 3.9133806241124165 0 0 0
6081 1 28.435617823234455 16.61044304180244 3.42234985103388 0 0 0
1650 1 27.650523802422228 17.79746602099159 1.5664925770410993 0 0 0
4857 3 29.12665325815279 16.76602876354179 0.2681295563320888 0 0 0
209 3 28.75029099607735 19.813983334250374 1.4619582195924499 0 0 0
18730 1 26.127750309631423 0.024563960249565753 3.8756667794886273 0 1 0
200 1 30.01128640963315 14.922487261346607 1.7190570027937033 0 0 0
776 2 34.637036196338045 15.053602593878704 2.2778620166716195 0 0 0
1316 1 30.65433128465438 15.506952161308496 3.9225145896647096 0 0 0
650 2 30.421828379967863 17.558517609449837 2.328522670286775 0 0 0
4581 1 32.55717619940596 18.174730979086576 1.164724962366433 0 0 1
475 1 32.17023926942664 15.892069500980467 2.156593496983587 0 0 0
6339 2 34.269500847984304 17.610653021680584 2.9071884854625645 0 0 0
542 2 32.30906961429999 17.669417803814774 4.287108162449556 0 0 0
210 3 33.725837197311584 16.26953634861368 0.15724362230305153 0 0 0
4795 1 34.35219266129855 18.949992820457783 0.026593724066247805 0 0 0
6389 1 33.88619560688741 19.89653317486317 2.1846212999919734 0 0 0
6340 1 33.66673586484509 19.85931630751836 4.521190218592617 0 0 0
4020 1 38.42948687913751 18.42723118253616 0.03706740158811882 0 0 1
653 2 36.00861542314068 17.057678361753904 0.9969370891507636 0 0 0
1661 1 36.79780420870277 17.678813646683068 3.380649543081376 0 0 0
5476 1 37.08080505495998 15.222893418909115 3.305908234299787 0 0 1
4251 1 38.264712223020986 16.235150167658198 1.6731290511704178 0 0 1
657 2 38.8912243031012 18.884670081754706 2.5379002896574865 0 0 0
446 1 39.24719989845114 16.768658765070263 3.574773479138705 0 0 0
993 1 35.4439423298674 16.068071262513115 4.5980998450983614 0 0 0
4746 2 36.429466940160665 19.67221597265983 1.2418789822286684 0 0 0
164 1 42.36729620255716 15.053178807984931 0.779181604240972 0 0 0
4806 1 40.50502881721699 16.866254359844262 1.5300711497222552 0 0 0
4753 1 40.7130606592746 19.01889636963556 0.7431869293923636 0 0 0
6087 2 41.36500567795976 18.252589445720638 3.5690184157940608 0 0 0
612 1 43.47518017312993 16.06182829045764 4.651227864262328 0 0 0
4534 1 42.50436686710472 17.4921872590681 0.6662199179935915 0 0 1
4809 1 42.68883631494436 19.55422310161325 2.025261765942889 0 0 0
4748 1 42.40647676197032 16.16960909552352 2.6629566463099392 0 0 0
5794 2 44.414448234494465 17.688695407500052 2.698052959681233 0 0 0
4586 1 44.63707759495707 16.188251893457014 0.39613647992003564 0 0 1
8816 2 44.51715685386948 18.74919589198734 0.7534541389406944 0 0 1
598 1 41.19688456482777 15.751980968489297 4.795216229786125 0 0 0
5377 1 49.74899262085032 19.578322118255116 0.7339422207179829 -1 0 1
8614 1 49.703303745740676 18.292665723495627 2.6435136858925836 0 0 1
727 1 46.70377076979724 15.783139319503206 1.5983103030455776 0 0 0
561 1 45.900318365543086 16.599741500972605 4.403574040350103 -1 0 0
335 1 48.7360158313137 16.89103278735011 1.04244025150948 0 0 0
5741 2 46.965808902552624 18.34455061718055 2.181102764850837 -1 0 0
671 1 48.07098686947801 19.115853903028956 4.286606688696529 0 0 0
4926 2 48.303211356764976 16.48068047591617 3.7424453314659485 0 0 0
4755 1 45.87098280729948 19.03831317053082 4.434416307538284 0 0 0
5995 2 0.49643115649381353 20.148898570262258 4.521878929712122 0 0 0