# LAMMPS data file written by OVITO Basic 3.8.4

8080 atoms
2 atom types

0.0 60.0 xlo xhi
0.0 60.0 ylo yhi
-10.0 410.0 zlo zhi

Masses

1 12.0107  # C
2 10.811  # B

Atoms  # atomic

1 1 31.29374027 24.49999809 -3.035562018
2 1 31.29374027 24.49999809 243.1144017
3 1 31.29374027 24.49999809 -0.574064506
4 1 31.29374027 24.49999809 1.887448756
5 1 31.29374027 24.49999809 4.348946363
6 1 31.29374027 24.49999809 6.810429077
7 1 31.29374027 24.49999809 9.271927066
8 1 31.29374027 24.49999809 11.73343957
9 1 31.29374027 24.49999809 14.19493679
10 1 31.29374027 24.49999809 16.65643554
11 1 31.29374027 24.49999809 19.11793582
12 1 31.29374027 24.49999809 21.57944679
13 1 31.29374027 24.49999809 24.04093027
14 1 31.29374027 24.49999809 26.50242597
15 1 31.29374027 24.49999809 28.96393999
16 1 31.29374027 24.49999809 31.42543569
17 1 31.29374027 24.49999809 33.8869375
18 1 31.29374027 24.49999809 36.34843625
19 1 31.29374027 24.49999809 38.80994722
20 1 31.29374027 24.49999809 41.2714307
21 1 31.29374027 24.49999809 43.73292945
22 1 31.29374027 24.49999809 46.19442821
23 1 31.29374027 24.49999809 48.65593612
24 1 31.29374027 24.49999809 51.11743793
25 1 31.29374027 24.49999809 53.57893974
26 1 31.29374027 24.49999809 56.04043543
27 1 31.29374027 24.49999809 58.50192502
28 1 31.29374027 24.49999809 60.96343294
29 1 31.29374027 24.49999809 63.42492864
30 1 31.29374027 24.49999809 65.88642433
31 1 31.29374027 24.49999809 68.34793836
32 1 31.29374027 24.49999809 70.80943406
33 1 31.29374027 24.49999809 73.27093586
34 1 31.29374027 24.49999809 75.73243156
35 1 31.29374027 24.49999809 78.19394559
36 1 31.29374027 24.49999809 80.65542907
37 1 31.29374027 24.49999809 83.11694309
38 1 31.29374027 24.49999809 85.57842657
39 1 31.29374027 24.49999809 88.0399406
40 1 31.29374027 24.49999809 90.50141797
41 1 31.29374027 24.49999809 92.9629381
42 1 31.29374027 24.49999809 95.4244338
43 1 31.29374027 24.49999809 97.88592339
44 1 31.29374027 24.49999809 100.3474191
45 1 31.29374027 24.49999809 102.8089148
46 1 31.29374027 24.49999809 105.2704349
47 1 31.29374027 24.49999809 107.7319184
48 1 31.29374027 24.49999809 110.1934385
49 1 31.29374027 24.49999809 112.654922
50 1 31.29374027 24.49999809 115.1164299
51 1 31.29374027 24.49999809 117.5779378
52 1 31.29374027 24.49999809 120.0394213
53 1 31.29374027 24.49999809 122.5009048
54 1 31.29374027 24.49999809 124.9624249
55 1 31.29374027 24.49999809 127.4239206
56 1 31.29374027 24.49999809 129.885453
57 1 31.29374027 24.49999809 132.3469365
58 1 31.29374027 24.49999809 134.8084199
59 1 31.29374027 24.49999809 137.2699279
60 1 31.29374027 24.49999809 139.7314236
61 1 31.29374027 24.49999809 142.1929315
62 1 31.29374027 24.49999809 144.6544272
63 1 31.29374027 24.49999809 147.1159351
64 1 31.29374027 24.49999809 149.5774308
65 1 31.29374027 24.49999809 152.0389143
66 1 31.29374027 24.49999809 154.5004222
67 1 31.29374027 24.49999809 156.9619301
68 1 31.29374027 24.49999809 159.4234258
69 1 31.29374027 24.49999809 161.8849337
70 1 31.29374027 24.49999809 164.3464294
71 1 31.29374027 24.49999809 166.8079129
72 1 31.29374027 24.49999809 169.2694208
73 1 31.29374027 24.49999809 171.7309165
74 1 31.29374027 24.49999809 174.1924244
75 1 31.29374027 24.49999809 176.6539201
76 1 31.29374027 24.49999809 179.1154402
77 1 31.29374027 24.49999809 181.5769115
78 1 31.29374027 24.49999809 184.0384194
79 1 31.29374027 24.49999809 186.4999151
80 1 31.29374027 24.49999809 188.9614353
81 1 31.29374027 24.49999809 191.4229187
82 1 31.29374027 24.49999809 193.8844267
83 1 31.29374027 24.49999809 196.3459224
84 1 31.29374027 24.49999809 198.807418
85 1 31.29374027 24.49999809 201.2688893
86 1 31.29374027 24.49999809 203.7303972
87 1 31.29374027 24.49999809 206.1919296
88 1 31.29374027 24.49999809 208.6533886
89 1 31.29374027 24.49999809 211.114921
90 1 31.29374027 24.49999809 213.5764289
91 1 31.29374027 24.49999809 216.0379124
92 1 31.29374027 24.49999809 218.4993958
93 1 31.29374027 24.49999809 220.9609038
94 1 31.29374027 24.49999809 223.4224361
95 1 31.29374027 24.49999809 225.8839196
96 1 31.29374027 24.49999809 228.3454031
97 1 31.29374027 24.49999809 230.8069354
98 1 31.29374027 24.49999809 233.2684189
99 1 31.29374027 24.49999809 235.7299268
100 1 31.29374027 24.49999809 238.1914103
101 1 31.29374027 24.49999809 240.6529182
102 1 31.14474893 25.91369212 -3.035562018
103 1 31.14474893 25.91369212 243.1144017
104 1 31.14474893 25.91369212 -0.574064506
105 1 31.14474893 25.91369212 1.887448756
106 1 31.14474893 25.91369212 4.348946363
107 1 31.14474893 25.91369212 6.810429077
108 1 31.14474893 25.91369212 9.271927066
109 1 31.14474893 25.91369212 11.73343957
110 1 31.14474893 25.91369212 14.19493679
111 1 31.14474893 25.91369212 16.65643554
112 1 31.14474893 25.91369212 19.11793582
113 1 31.14474893 25.91369212 21.57944679
114 1 31.14474893 25.91369212 24.04093027
115 1 31.14474893 25.91369212 26.50242597
116 1 31.14474893 25.91369212 28.96393999
117 1 31.14474893 25.91369212 31.42543569
118 1 31.14474893 25.91369212 33.8869375
119 1 31.14474893 25.91369212 36.34843625
120 1 31.14474893 25.91369212 38.80994722
121 1 31.14474893 25.91369212 41.2714307
122 1 31.14474893 25.91369212 43.73292945
123 1 31.14474893 25.91369212 46.19442821
124 1 31.14474893 25.91369212 48.65593612
125 1 31.14474893 25.91369212 51.11743793
126 1 31.14474893 25.91369212 53.57893974
127 1 31.14474893 25.91369212 56.04043543
128 1 31.14474893 25.91369212 58.50192502
129 1 31.14474893 25.91369212 60.96343294
130 1 31.14474893 25.91369212 63.42492864
131 1 31.14474893 25.91369212 65.88642433
132 1 31.14474893 25.91369212 68.34793836
133 1 31.14474893 25.91369212 70.80943406
134 1 31.14474893 25.91369212 73.27093586
135 1 31.14474893 25.91369212 75.73243156
136 1 31.14474893 25.91369212 78.19394559
137 1 31.14474893 25.91369212 80.65542907
138 1 31.14474893 25.91369212 83.11694309
139 1 31.14474893 25.91369212 85.57842657
140 1 31.14474893 25.91369212 88.0399406
141 1 31.14474893 25.91369212 90.50141797
142 1 31.14474893 25.91369212 92.9629381
143 1 31.14474893 25.91369212 95.4244338
144 1 31.14474893 25.91369212 97.88592339
145 1 31.14474893 25.91369212 100.3474191
146 1 31.14474893 25.91369212 102.8089148
147 1 31.14474893 25.91369212 105.2704349
148 1 31.14474893 25.91369212 107.7319184
149 1 31.14474893 25.91369212 110.1934385
150 1 31.14474893 25.91369212 112.654922
151 1 31.14474893 25.91369212 115.1164299
152 1 31.14474893 25.91369212 117.5779378
153 1 31.14474893 25.91369212 120.0394213
154 1 31.14474893 25.91369212 122.5009048
155 1 31.14474893 25.91369212 124.9624249
156 1 31.14474893 25.91369212 127.4239206
157 1 31.14474893 25.91369212 129.885453
158 1 31.14474893 25.91369212 132.3469365
159 1 31.14474893 25.91369212 134.8084199
160 1 31.14474893 25.91369212 137.2699279
161 1 31.14474893 25.91369212 139.7314236
162 1 31.14474893 25.91369212 142.1929315
163 1 31.14474893 25.91369212 144.6544272
164 1 31.14474893 25.91369212 147.1159351
165 1 31.14474893 25.91369212 149.5774308
166 1 31.14474893 25.91369212 152.0389143
167 1 31.14474893 25.91369212 154.5004222
168 1 31.14474893 25.91369212 156.9619301
169 1 31.14474893 25.91369212 159.4234258
170 1 31.14474893 25.91369212 161.8849337
171 1 31.14474893 25.91369212 164.3464294
172 1 31.14474893 25.91369212 166.8079129
173 1 31.14474893 25.91369212 169.2694208
174 1 31.14474893 25.91369212 171.7309165
175 1 31.14474893 25.91369212 174.1924244
176 1 31.14474893 25.91369212 176.6539201
177 1 31.14474893 25.91369212 179.1154402
178 1 31.14474893 25.91369212 181.5769115
179 1 31.14474893 25.91369212 184.0384194
180 1 31.14474893 25.91369212 186.4999151
181 1 31.14474893 25.91369212 188.9614353
182 1 31.14474893 25.91369212 191.4229187
183 1 31.14474893 25.91369212 193.8844267
184 1 31.14474893 25.91369212 196.3459224
185 1 31.14474893 25.91369212 198.807418
186 1 31.14474893 25.91369212 201.2688893
187 1 31.14474893 25.91369212 203.7303972
188 1 31.14474893 25.91369212 206.1919296
189 1 31.14474893 25.91369212 208.6533886
190 1 31.14474893 25.91369212 211.114921
191 1 31.14474893 25.91369212 213.5764289
192 1 31.14474893 25.91369212 216.0379124
193 1 31.14474893 25.91369212 218.4993958
194 1 31.14474893 25.91369212 220.9609038
195 1 31.14474893 25.91369212 223.4224361
196 1 31.14474893 25.91369212 225.8839196
197 1 31.14474893 25.91369212 228.3454031
198 1 31.14474893 25.91369212 230.8069354
199 1 31.14474893 25.91369212 233.2684189
200 1 31.14474893 25.91369212 235.7299268
201 1 31.14474893 25.91369212 238.1914103
202 1 31.14474893 25.91369212 240.6529182
203 1 30.96102119 26.59854412 -1.804820756
204 1 30.96102119 26.59854412 0.656692125
205 1 30.96102119 26.59854412 3.118190113
206 1 30.96102119 26.59854412 5.579688102
207 1 30.96102119 26.59854412 8.04118609
208 1 30.96102119 26.59854412 10.50269935
209 1 30.96102119 26.59854412 12.96419658
210 1 30.96102119 26.59854412 15.4256938
211 1 30.96102119 26.59854412 17.88717881
212 1 30.96102119 26.59854412 20.34869131
213 1 30.96102119 26.59854412 22.81018853
214 1 30.96102119 26.59854412 25.27168728
215 1 30.96102119 26.59854412 27.73317993
216 1 30.96102119 26.59854412 30.19470006
217 1 30.96102119 26.59854412 32.65619576
218 1 30.96102119 26.59854412 35.11767924
219 1 30.96102119 26.59854412 37.57917799
220 1 30.96102119 26.59854412 40.04069202
221 1 30.96102119 26.59854412 42.50218466
222 1 30.96102119 26.59854412 44.96368952
223 1 30.96102119 26.59854412 47.42518216
224 1 30.96102119 26.59854412 49.88669008
225 1 30.96102119 26.59854412 52.34817356
226 1 30.96102119 26.59854412 54.80967537
227 1 30.96102119 26.59854412 57.27118939
228 1 30.96102119 26.59854412 59.7326912
229 1 30.96102119 26.59854412 62.1941869
230 1 30.96102119 26.59854412 64.65567037
231 1 30.96102119 26.59854412 67.11719662
232 1 30.96102119 26.59854412 69.5786801
233 1 30.96102119 26.59854412 72.04019412
234 1 30.96102119 26.59854412 74.50167149
235 1 30.96102119 26.59854412 76.96319163
236 1 30.96102119 26.59854412 79.42468122
237 1 30.96102119 26.59854412 81.88618302
238 1 30.96102119 26.59854412 84.34767872
239 1 30.96102119 26.59854412 86.80918053
240 1 30.96102119 26.59854412 89.27066401
241 1 30.96102119 26.59854412 91.73217803
242 1 30.96102119 26.59854412 94.19368595
243 1 30.96102119 26.59854412 96.65518776
244 1 30.96102119 26.59854412 99.11667734
245 1 30.96102119 26.59854412 101.5781853
246 1 30.96102119 26.59854412 104.039681
247 1 30.96102119 26.59854412 106.5011767
248 1 30.96102119 26.59854412 108.9626724
249 1 30.96102119 26.59854412 111.4241925
250 1 30.96102119 26.59854412 113.885676
251 1 30.96102119 26.59854412 116.3471839
252 1 30.96102119 26.59854412 118.8086674
253 1 30.96102119 26.59854412 121.2701753
254 1 30.96102119 26.59854412 123.7316588
255 1 30.96102119 26.59854412 126.1931667
256 1 30.96102119 26.59854412 128.6546746
257 1 30.96102119 26.59854412 131.1161703
258 1 30.96102119 26.59854412 133.5776782
259 1 30.96102119 26.59854412 136.0391739
260 1 30.96102119 26.59854412 138.5006696
261 1 30.96102119 26.59854412 140.9621653
262 1 30.96102119 26.59854412 143.4236854
263 1 30.96102119 26.59854412 145.8851689
264 1 30.96102119 26.59854412 148.3466768
265 1 30.96102119 26.59854412 150.808197
266 1 30.96102119 26.59854412 153.2696682
267 1 30.96102119 26.59854412 155.7311639
268 1 30.96102119 26.59854412 158.1926718
269 1 30.96102119 26.59854412 160.6541798
270 1 30.96102119 26.59854412 163.1156754
271 1 30.96102119 26.59854412 165.5771711
272 1 30.96102119 26.59854412 168.0386913
273 1 30.96102119 26.59854412 170.5001625
274 1 30.96102119 26.59854412 172.9616705
275 1 30.96102119 26.59854412 175.4231784
276 1 30.96102119 26.59854412 177.8846741
277 1 30.96102119 26.59854412 180.3461698
278 1 30.96102119 26.59854412 182.8076777
279 1 30.96102119 26.59854412 185.2691734
280 1 30.96102119 26.59854412 187.7306813
281 1 30.96102119 26.59854412 190.192177
282 1 30.96102119 26.59854412 192.6536849
283 1 30.96102119 26.59854412 195.1151684
284 1 30.96102119 26.59854412 197.5766885
285 1 30.96102119 26.59854412 200.038172
286 1 30.96102119 26.59854412 202.4996555
287 1 30.96102119 26.59854412 204.9611634
288 1 30.96102119 26.59854412 207.4226958
289 1 30.96102119 26.59854412 209.8841548
290 1 30.96102119 26.59854412 212.3456627
291 1 30.96102119 26.59854412 214.8071706
292 1 30.96102119 26.59854412 217.2686541
293 1 30.96102119 26.59854412 219.7301376
294 1 30.96102119 26.59854412 222.1916699
295 1 30.96102119 26.59854412 224.6531779
296 1 30.96102119 26.59854412 227.1146613
297 1 30.96102119 26.59854412 229.5761693
298 1 30.96102119 26.59854412 232.0376527
299 1 30.96102119 26.59854412 234.4991851
300 1 30.96102119 26.59854412 236.9606441
301 1 30.96102119 26.59854412 239.4221765
302 1 30.96102119 26.59854412 241.8836844
303 1 30.38188577 27.89785981 -1.804820756
304 1 30.38188577 27.89785981 0.656692125
305 1 30.38188577 27.89785981 3.118190113
306 1 30.38188577 27.89785981 5.579688102
307 1 30.38188577 27.89785981 8.04118609
308 1 30.38188577 27.89785981 10.50269935
309 1 30.38188577 27.89785981 12.96419658
310 1 30.38188577 27.89785981 15.4256938
311 1 30.38188577 27.89785981 17.88717881
312 1 30.38188577 27.89785981 20.34869131
313 1 30.38188577 27.89785981 22.81018853
314 1 30.38188577 27.89785981 25.27168728
315 1 30.38188577 27.89785981 27.73317993
316 1 30.38188577 27.89785981 30.19470006
317 1 30.38188577 27.89785981 32.65619576
318 1 30.38188577 27.89785981 35.11767924
319 1 30.38188577 27.89785981 37.57917799
320 1 30.38188577 27.89785981 40.04069202
321 1 30.38188577 27.89785981 42.50218466
322 1 30.38188577 27.89785981 44.96368952
323 1 30.38188577 27.89785981 47.42518216
324 1 30.38188577 27.89785981 49.88669008
325 1 30.38188577 27.89785981 52.34817356
326 1 30.38188577 27.89785981 54.80967537
327 1 30.38188577 27.89785981 57.27118939
328 1 30.38188577 27.89785981 59.7326912
329 1 30.38188577 27.89785981 62.1941869
330 1 30.38188577 27.89785981 64.65567037
331 1 30.38188577 27.89785981 67.11719662
332 1 30.38188577 27.89785981 69.5786801
333 1 30.38188577 27.89785981 72.04019412
334 1 30.38188577 27.89785981 74.50167149
335 1 30.38188577 27.89785981 76.96319163
336 1 30.38188577 27.89785981 79.42468122
337 1 30.38188577 27.89785981 81.88618302
338 1 30.38188577 27.89785981 84.34767872
339 1 30.38188577 27.89785981 86.80918053
340 1 30.38188577 27.89785981 89.27066401
341 1 30.38188577 27.89785981 91.73217803
342 1 30.38188577 27.89785981 94.19368595
343 1 30.38188577 27.89785981 96.65518776
344 1 30.38188577 27.89785981 99.11667734
345 1 30.38188577 27.89785981 101.5781853
346 1 30.38188577 27.89785981 104.039681
347 1 30.38188577 27.89785981 106.5011767
348 1 30.38188577 27.89785981 108.9626724
349 1 30.38188577 27.89785981 111.4241925
350 1 30.38188577 27.89785981 113.885676
351 1 30.38188577 27.89785981 116.3471839
352 1 30.38188577 27.89785981 118.8086674
353 1 30.38188577 27.89785981 121.2701753
354 1 30.38188577 27.89785981 123.7316588
355 1 30.38188577 27.89785981 126.1931667
356 1 30.38188577 27.89785981 128.6546746
357 1 30.38188577 27.89785981 131.1161703
358 1 30.38188577 27.89785981 133.5776782
359 1 30.38188577 27.89785981 136.0391739
360 1 30.38188577 27.89785981 138.5006696
361 1 30.38188577 27.89785981 140.9621653
362 1 30.38188577 27.89785981 143.4236854
363 1 30.38188577 27.89785981 145.8851689
364 1 30.38188577 27.89785981 148.3466768
365 1 30.38188577 27.89785981 150.808197
366 1 30.38188577 27.89785981 153.2696682
367 1 30.38188577 27.89785981 155.7311639
368 1 30.38188577 27.89785981 158.1926718
369 1 30.38188577 27.89785981 160.6541798
370 1 30.38188577 27.89785981 163.1156754
371 1 30.38188577 27.89785981 165.5771711
372 1 30.38188577 27.89785981 168.0386913
373 1 30.38188577 27.89785981 170.5001625
374 1 30.38188577 27.89785981 172.9616705
375 1 30.38188577 27.89785981 175.4231784
376 1 30.38188577 27.89785981 177.8846741
377 1 30.38188577 27.89785981 180.3461698
378 1 30.38188577 27.89785981 182.8076777
379 1 30.38188577 27.89785981 185.2691734
380 1 30.38188577 27.89785981 187.7306813
381 1 30.38188577 27.89785981 190.192177
382 1 30.38188577 27.89785981 192.6536849
383 1 30.38188577 27.89785981 195.1151684
384 1 30.38188577 27.89785981 197.5766885
385 1 30.38188577 27.89785981 200.038172
386 1 30.38188577 27.89785981 202.4996555
387 1 30.38188577 27.89785981 204.9611634
388 1 30.38188577 27.89785981 207.4226958
389 1 30.38188577 27.89785981 209.8841548
390 1 30.38188577 27.89785981 212.3456627
391 1 30.38188577 27.89785981 214.8071706
392 1 30.38188577 27.89785981 217.2686541
393 1 30.38188577 27.89785981 219.7301376
394 1 30.38188577 27.89785981 222.1916699
395 1 30.38188577 27.89785981 224.6531779
396 1 30.38188577 27.89785981 227.1146613
397 1 30.38188577 27.89785981 229.5761693
398 1 30.38188577 27.89785981 232.0376527
399 1 30.38188577 27.89785981 234.4991851
400 1 30.38188577 27.89785981 236.9606441
401 1 30.38188577 27.89785981 239.4221765
402 1 30.38188577 27.89785981 241.8836844
403 1 29.99579608 28.4932512 -3.035562018
404 1 29.99579608 28.4932512 243.1144017
405 1 29.99579608 28.4932512 -0.574064506
406 1 29.99579608 28.4932512 1.887448756
407 1 29.99579608 28.4932512 4.348946363
408 1 29.99579608 28.4932512 6.810429077
409 1 29.99579608 28.4932512 9.271927066
410 1 29.99579608 28.4932512 11.73343957
411 1 29.99579608 28.4932512 14.19493679
412 1 29.99579608 28.4932512 16.65643554
413 1 29.99579608 28.4932512 19.11793582
414 1 29.99579608 28.4932512 21.57944679
415 1 29.99579608 28.4932512 24.04093027
416 1 29.99579608 28.4932512 26.50242597
417 1 29.99579608 28.4932512 28.96393999
418 1 29.99579608 28.4932512 31.42543569
419 1 29.99579608 28.4932512 33.8869375
420 1 29.99579608 28.4932512 36.34843625
421 1 29.99579608 28.4932512 38.80994722
422 1 29.99579608 28.4932512 41.2714307
423 1 29.99579608 28.4932512 43.73292945
424 1 29.99579608 28.4932512 46.19442821
425 1 29.99579608 28.4932512 48.65593612
426 1 29.99579608 28.4932512 51.11743793
427 1 29.99579608 28.4932512 53.57893974
428 1 29.99579608 28.4932512 56.04043543
429 1 29.99579608 28.4932512 58.50192502
430 1 29.99579608 28.4932512 60.96343294
431 1 29.99579608 28.4932512 63.42492864
432 1 29.99579608 28.4932512 65.88642433
433 1 29.99579608 28.4932512 68.34793836
434 1 29.99579608 28.4932512 70.80943406
435 1 29.99579608 28.4932512 73.27093586
436 1 29.99579608 28.4932512 75.73243156
437 1 29.99579608 28.4932512 78.19394559
438 1 29.99579608 28.4932512 80.65542907
439 1 29.99579608 28.4932512 83.11694309
440 1 29.99579608 28.4932512 85.57842657
441 1 29.99579608 28.4932512 88.0399406
442 1 29.99579608 28.4932512 90.50141797
443 1 29.99579608 28.4932512 92.9629381
444 1 29.99579608 28.4932512 95.4244338
445 1 29.99579608 28.4932512 97.88592339
446 1 29.99579608 28.4932512 100.3474191
447 1 29.99579608 28.4932512 102.8089148
448 1 29.99579608 28.4932512 105.2704349
449 1 29.99579608 28.4932512 107.7319184
450 1 29.99579608 28.4932512 110.1934385
451 1 29.99579608 28.4932512 112.654922
452 1 29.99579608 28.4932512 115.1164299
453 1 29.99579608 28.4932512 117.5779378
454 1 29.99579608 28.4932512 120.0394213
455 1 29.99579608 28.4932512 122.5009048
456 1 29.99579608 28.4932512 124.9624249
457 1 29.99579608 28.4932512 127.4239206
458 1 29.99579608 28.4932512 129.885453
459 1 29.99579608 28.4932512 132.3469365
460 1 29.99579608 28.4932512 134.8084199
461 1 29.99579608 28.4932512 137.2699279
462 1 29.99579608 28.4932512 139.7314236
463 1 29.99579608 28.4932512 142.1929315
464 1 29.99579608 28.4932512 144.6544272
465 1 29.99579608 28.4932512 147.1159351
466 1 29.99579608 28.4932512 149.5774308
467 1 29.99579608 28.4932512 152.0389143
468 1 29.99579608 28.4932512 154.5004222
469 1 29.99579608 28.4932512 156.9619301
470 1 29.99579608 28.4932512 159.4234258
471 1 29.99579608 28.4932512 161.8849337
472 1 29.99579608 28.4932512 164.3464294
473 1 29.99579608 28.4932512 166.8079129
474 1 29.99579608 28.4932512 169.2694208
475 1 29.99579608 28.4932512 171.7309165
476 1 29.99579608 28.4932512 174.1924244
477 1 29.99579608 28.4932512 176.6539201
478 1 29.99579608 28.4932512 179.1154402
479 1 29.99579608 28.4932512 181.5769115
480 1 29.99579608 28.4932512 184.0384194
481 1 29.99579608 28.4932512 186.4999151
482 1 29.99579608 28.4932512 188.9614353
483 1 29.99579608 28.4932512 191.4229187
484 1 29.99579608 28.4932512 193.8844267
485 1 29.99579608 28.4932512 196.3459224
486 1 29.99579608 28.4932512 198.807418
487 1 29.99579608 28.4932512 201.2688893
488 1 29.99579608 28.4932512 203.7303972
489 1 29.99579608 28.4932512 206.1919296
490 1 29.99579608 28.4932512 208.6533886
491 1 29.99579608 28.4932512 211.114921
492 1 29.99579608 28.4932512 213.5764289
493 1 29.99579608 28.4932512 216.0379124
494 1 29.99579608 28.4932512 218.4993958
495 1 29.99579608 28.4932512 220.9609038
496 1 29.99579608 28.4932512 223.4224361
497 1 29.99579608 28.4932512 225.8839196
498 1 29.99579608 28.4932512 228.3454031
499 1 29.99579608 28.4932512 230.8069354
500 1 29.99579608 28.4932512 233.2684189
501 1 29.99579608 28.4932512 235.7299268
502 1 29.99579608 28.4932512 238.1914103
503 1 29.99579608 28.4932512 240.6529182
504 1 29.04413402 29.54913855 -3.035562018
505 1 29.04413402 29.54913855 243.1144017
506 1 29.04413402 29.54913855 -0.574064506
507 1 29.04413402 29.54913855 1.887448756
508 1 29.04413402 29.54913855 4.348946363
509 1 29.04413402 29.54913855 6.810429077
510 1 29.04413402 29.54913855 9.271927066
511 1 29.04413402 29.54913855 11.73343957
512 1 29.04413402 29.54913855 14.19493679
513 1 29.04413402 29.54913855 16.65643554
514 1 29.04413402 29.54913855 19.11793582
515 1 29.04413402 29.54913855 21.57944679
516 1 29.04413402 29.54913855 24.04093027
517 1 29.04413402 29.54913855 26.50242597
518 1 29.04413402 29.54913855 28.96393999
519 1 29.04413402 29.54913855 31.42543569
520 1 29.04413402 29.54913855 33.8869375
521 1 29.04413402 29.54913855 36.34843625
522 1 29.04413402 29.54913855 38.80994722
523 1 29.04413402 29.54913855 41.2714307
524 1 29.04413402 29.54913855 43.73292945
525 1 29.04413402 29.54913855 46.19442821
526 1 29.04413402 29.54913855 48.65593612
527 1 29.04413402 29.54913855 51.11743793
528 1 29.04413402 29.54913855 53.57893974
529 1 29.04413402 29.54913855 56.04043543
530 1 29.04413402 29.54913855 58.50192502
531 1 29.04413402 29.54913855 60.96343294
532 1 29.04413402 29.54913855 63.42492864
533 1 29.04413402 29.54913855 65.88642433
534 1 29.04413402 29.54913855 68.34793836
535 1 29.04413402 29.54913855 70.80943406
536 1 29.04413402 29.54913855 73.27093586
537 1 29.04413402 29.54913855 75.73243156
538 1 29.04413402 29.54913855 78.19394559
539 1 29.04413402 29.54913855 80.65542907
540 1 29.04413402 29.54913855 83.11694309
541 1 29.04413402 29.54913855 85.57842657
542 1 29.04413402 29.54913855 88.0399406
543 1 29.04413402 29.54913855 90.50141797
544 1 29.04413402 29.54913855 92.9629381
545 1 29.04413402 29.54913855 95.4244338
546 1 29.04413402 29.54913855 97.88592339
547 1 29.04413402 29.54913855 100.3474191
548 1 29.04413402 29.54913855 102.8089148
549 1 29.04413402 29.54913855 105.2704349
550 1 29.04413402 29.54913855 107.7319184
551 1 29.04413402 29.54913855 110.1934385
552 1 29.04413402 29.54913855 112.654922
553 1 29.04413402 29.54913855 115.1164299
554 1 29.04413402 29.54913855 117.5779378
555 1 29.04413402 29.54913855 120.0394213
556 1 29.04413402 29.54913855 122.5009048
557 1 29.04413402 29.54913855 124.9624249
558 1 29.04413402 29.54913855 127.4239206
559 1 29.04413402 29.54913855 129.885453
560 1 29.04413402 29.54913855 132.3469365
561 1 29.04413402 29.54913855 134.8084199
562 1 29.04413402 29.54913855 137.2699279
563 1 29.04413402 29.54913855 139.7314236
564 1 29.04413402 29.54913855 142.1929315
565 1 29.04413402 29.54913855 144.6544272
566 1 29.04413402 29.54913855 147.1159351
567 1 29.04413402 29.54913855 149.5774308
568 1 29.04413402 29.54913855 152.0389143
569 1 29.04413402 29.54913855 154.5004222
570 1 29.04413402 29.54913855 156.9619301
571 1 29.04413402 29.54913855 159.4234258
572 1 29.04413402 29.54913855 161.8849337
573 1 29.04413402 29.54913855 164.3464294
574 1 29.04413402 29.54913855 166.8079129
575 1 29.04413402 29.54913855 169.2694208
576 1 29.04413402 29.54913855 171.7309165
577 1 29.04413402 29.54913855 174.1924244
578 1 29.04413402 29.54913855 176.6539201
579 1 29.04413402 29.54913855 179.1154402
580 1 29.04413402 29.54913855 181.5769115
581 1 29.04413402 29.54913855 184.0384194
582 1 29.04413402 29.54913855 186.4999151
583 1 29.04413402 29.54913855 188.9614353
584 1 29.04413402 29.54913855 191.4229187
585 1 29.04413402 29.54913855 193.8844267
586 1 29.04413402 29.54913855 196.3459224
587 1 29.04413402 29.54913855 198.807418
588 1 29.04413402 29.54913855 201.2688893
589 1 29.04413402 29.54913855 203.7303972
590 1 29.04413402 29.54913855 206.1919296
591 1 29.04413402 29.54913855 208.6533886
592 1 29.04413402 29.54913855 211.114921
593 1 29.04413402 29.54913855 213.5764289
594 1 29.04413402 29.54913855 216.0379124
595 1 29.04413402 29.54913855 218.4993958
596 1 29.04413402 29.54913855 220.9609038
597 1 29.04413402 29.54913855 223.4224361
598 1 29.04413402 29.54913855 225.8839196
599 1 29.04413402 29.54913855 228.3454031
600 1 29.04413402 29.54913855 230.8069354
601 1 29.04413402 29.54913855 233.2684189
602 1 29.04413402 29.54913855 235.7299268
603 1 29.04413402 29.54913855 238.1914103
604 1 29.04413402 29.54913855 240.6529182
605 1 28.49294901 29.99640584 -1.804820756
606 1 28.49294901 29.99640584 0.656692125
607 1 28.49294901 29.99640584 3.118190113
608 1 28.49294901 29.99640584 5.579688102
609 1 28.49294901 29.99640584 8.04118609
610 1 28.49294901 29.99640584 10.50269935
611 1 28.49294901 29.99640584 12.96419658
612 1 28.49294901 29.99640584 15.4256938
613 1 28.49294901 29.99640584 17.88717881
614 1 28.49294901 29.99640584 20.34869131
615 1 28.49294901 29.99640584 22.81018853
616 1 28.49294901 29.99640584 25.27168728
617 1 28.49294901 29.99640584 27.73317993
618 1 28.49294901 29.99640584 30.19470006
619 1 28.49294901 29.99640584 32.65619576
620 1 28.49294901 29.99640584 35.11767924
621 1 28.49294901 29.99640584 37.57917799
622 1 28.49294901 29.99640584 40.04069202
623 1 28.49294901 29.99640584 42.50218466
624 1 28.49294901 29.99640584 44.96368952
625 1 28.49294901 29.99640584 47.42518216
626 1 28.49294901 29.99640584 49.88669008
627 1 28.49294901 29.99640584 52.34817356
628 1 28.49294901 29.99640584 54.80967537
629 1 28.49294901 29.99640584 57.27118939
630 1 28.49294901 29.99640584 59.7326912
631 1 28.49294901 29.99640584 62.1941869
632 1 28.49294901 29.99640584 64.65567037
633 1 28.49294901 29.99640584 67.11719662
634 1 28.49294901 29.99640584 69.5786801
635 1 28.49294901 29.99640584 72.04019412
636 1 28.49294901 29.99640584 74.50167149
637 1 28.49294901 29.99640584 76.96319163
638 1 28.49294901 29.99640584 79.42468122
639 1 28.49294901 29.99640584 81.88618302
640 1 28.49294901 29.99640584 84.34767872
641 1 28.49294901 29.99640584 86.80918053
642 1 28.49294901 29.99640584 89.27066401
643 1 28.49294901 29.99640584 91.73217803
644 1 28.49294901 29.99640584 94.19368595
645 1 28.49294901 29.99640584 96.65518776
646 1 28.49294901 29.99640584 99.11667734
647 1 28.49294901 29.99640584 101.5781853
648 1 28.49294901 29.99640584 104.039681
649 1 28.49294901 29.99640584 106.5011767
650 1 28.49294901 29.99640584 108.9626724
651 1 28.49294901 29.99640584 111.4241925
652 1 28.49294901 29.99640584 113.885676
653 1 28.49294901 29.99640584 116.3471839
654 1 28.49294901 29.99640584 118.8086674
655 1 28.49294901 29.99640584 121.2701753
656 1 28.49294901 29.99640584 123.7316588
657 1 28.49294901 29.99640584 126.1931667
658 1 28.49294901 29.99640584 128.6546746
659 1 28.49294901 29.99640584 131.1161703
660 1 28.49294901 29.99640584 133.5776782
661 1 28.49294901 29.99640584 136.0391739
662 1 28.49294901 29.99640584 138.5006696
663 1 28.49294901 29.99640584 140.9621653
664 1 28.49294901 29.99640584 143.4236854
665 1 28.49294901 29.99640584 145.8851689
666 1 28.49294901 29.99640584 148.3466768
667 1 28.49294901 29.99640584 150.808197
668 1 28.49294901 29.99640584 153.2696682
669 1 28.49294901 29.99640584 155.7311639
670 1 28.49294901 29.99640584 158.1926718
671 1 28.49294901 29.99640584 160.6541798
672 1 28.49294901 29.99640584 163.1156754
673 1 28.49294901 29.99640584 165.5771711
674 1 28.49294901 29.99640584 168.0386913
675 1 28.49294901 29.99640584 170.5001625
676 1 28.49294901 29.99640584 172.9616705
677 1 28.49294901 29.99640584 175.4231784
678 1 28.49294901 29.99640584 177.8846741
679 1 28.49294901 29.99640584 180.3461698
680 1 28.49294901 29.99640584 182.8076777
681 1 28.49294901 29.99640584 185.2691734
682 1 28.49294901 29.99640584 187.7306813
683 1 28.49294901 29.99640584 190.192177
684 1 28.49294901 29.99640584 192.6536849
685 1 28.49294901 29.99640584 195.1151684
686 1 28.49294901 29.99640584 197.5766885
687 1 28.49294901 29.99640584 200.038172
688 1 28.49294901 29.99640584 202.4996555
689 1 28.49294901 29.99640584 204.9611634
690 1 28.49294901 29.99640584 207.4226958
691 1 28.49294901 29.99640584 209.8841548
692 1 28.49294901 29.99640584 212.3456627
693 1 28.49294901 29.99640584 214.8071706
694 1 28.49294901 29.99640584 217.2686541
695 1 28.49294901 29.99640584 219.7301376
696 1 28.49294901 29.99640584 222.1916699
697 1 28.49294901 29.99640584 224.6531779
698 1 28.49294901 29.99640584 227.1146613
699 1 28.49294901 29.99640584 229.5761693
700 1 28.49294901 29.99640584 232.0376527
701 1 28.49294901 29.99640584 234.4991851
702 1 28.49294901 29.99640584 236.9606441
703 1 28.49294901 29.99640584 239.4221765
704 1 28.49294901 29.99640584 241.8836844
705 1 27.26187229 30.70620418 -1.804820756
706 1 27.26187229 30.70620418 0.656692125
707 1 27.26187229 30.70620418 3.118190113
708 1 27.26187229 30.70620418 5.579688102
709 1 27.26187229 30.70620418 8.04118609
710 1 27.26187229 30.70620418 10.50269935
711 1 27.26187229 30.70620418 12.96419658
712 1 27.26187229 30.70620418 15.4256938
713 1 27.26187229 30.70620418 17.88717881
714 1 27.26187229 30.70620418 20.34869131
715 1 27.26187229 30.70620418 22.81018853
716 1 27.26187229 30.70620418 25.27168728