# LAMMPS data file written by OVITO Basic 3.8.4

1440 atoms
1 atom types

0.0 25.7831001282 xlo xhi
0.0 25.7831001282 ylo yhi
-5.0 55.0 zlo zhi

Masses

1 12.0107  # C

Atoms  # atomic

1 1 2.578309475 12.89154853 -4.30629301
2 1 2.578309475 12.89154853 15.64692795
3 1 2.578309475 12.89154853 35.60014891
4 1 2.678679316 14.32687586 -4.30629301
5 1 2.678679316 14.32687586 15.64692795
6 1 2.678679316 14.32687586 35.60014891
7 1 2.803679138 15.03578596 -3.059213466
8 1 2.803679138 15.03578596 16.8940066
9 1 2.803679138 15.03578596 36.84722757
10 1 3.200269388 16.41888694 -3.059213466
11 1 3.200269388 16.41888694 16.8940066
12 1 3.200269388 16.41888694 36.84722757
13 1 3.469938824 17.08631439 -4.30629301
14 1 3.469938824 17.08631439 15.64692795
15 1 3.469938824 17.08631439 35.60014891
16 1 4.145429063 18.35672545 -4.30629301
17 1 4.145429063 18.35672545 15.64692795
18 1 4.145429063 18.35672545 35.60014891
19 1 4.547958824 18.95351577 -3.059213466
20 1 4.547958824 18.95351577 16.8940066
21 1 4.547958824 18.95351577 36.84722757
22 1 5.472828227 20.05572642 -3.059213466
23 1 5.472828227 20.05572642 16.8940066
24 1 5.472828227 20.05572642 36.84722757
25 1 5.990648931 20.5557772 -4.30629301
26 1 5.990648931 20.5557772 15.64692795
27 1 5.990648931 20.5557772 35.60014891
28 1 7.124457957 21.44161668 -4.30629301
29 1 7.124457957 21.44161668 15.64692795
30 1 7.124457957 21.44161668 35.60014891
31 1 7.734928041 21.82307471 -3.059213466
32 1 7.734928041 21.82307471 16.8940066
33 1 7.734928041 21.82307471 36.84722757
34 1 9.028137413 22.45381432 -3.059213466
35 1 9.028137413 22.45381432 16.8940066
36 1 9.028137413 22.45381432 36.84722757
37 1 9.704578158 22.70001463 -4.30629301
38 1 9.704578158 22.70001463 15.64692795
39 1 9.704578158 22.70001463 35.60014891
40 1 11.10066734 23.04810275 -4.30629301
41 1 11.10066734 23.04810275 15.64692795
42 1 11.10066734 23.04810275 35.60014891
43 1 11.81351777 23.14828625 -3.059213466
44 1 11.81351777 23.14828625 16.8940066
45 1 11.81351777 23.14828625 36.84722757
46 1 13.25147609 23.19850402 -3.059213466
47 1 13.25147609 23.19850402 16.8940066
48 1 13.25147609 23.19850402 36.84722757
49 1 13.96957467 23.14828625 -4.30629301
50 1 13.96957467 23.14828625 15.64692795
51 1 13.96957467 23.14828625 35.60014891
52 1 15.38654502 22.89843298 -4.30629301
53 1 15.38654502 22.89843298 15.64692795
54 1 15.38654502 22.89843298 35.60014891
55 1 16.07851659 22.70001463 -3.059213466
56 1 16.07851659 22.70001463 16.8940066
57 1 16.07851659 22.70001463 36.84722757
58 1 17.41257545 22.16102461 -3.059213466
59 1 17.41257545 22.16102461 16.8940066
60 1 17.41257545 22.16102461 36.84722757
61 1 18.04816364 21.82307471 -4.30629301
62 1 18.04816364 21.82307471 15.64692795
63 1 18.04816364 21.82307471 35.60014891
64 1 19.24100663 21.01848545 -4.30629301
65 1 19.24100663 21.01848545 15.64692795
66 1 19.24100663 21.01848545 35.60014891
67 1 19.79245542 20.5557772 -3.059213466
68 1 19.79245542 20.5557772 16.8940066
69 1 19.79245542 20.5557772 36.84722757
70 1 20.79194379 19.5207628 -3.059213466
71 1 20.79194379 19.5207628 16.8940066
72 1 20.79194379 19.5207628 36.84722757
73 1 21.23513477 18.95351577 -4.30629301
74 1 21.23513477 18.95351577 15.64692795
75 1 21.23513477 18.95351577 35.60014891
76 1 21.99759748 17.73331634 -4.30629301
77 1 21.99759748 17.73331634 15.64692795
78 1 21.99759748 17.73331634 35.60014891
79 1 22.31315477 17.08631439 -3.059213466
80 1 22.31315477 17.08631439 16.8940066
81 1 22.31315477 17.08631439 36.84722757
82 1 22.80526494 15.73425509 -3.059213466
83 1 22.80526494 15.73425509 16.8940066
84 1 22.80526494 15.73425509 36.84722757
85 1 22.9794158 15.03578596 -4.30629301
86 1 22.9794158 15.03578596 15.64692795
87 1 22.9794158 15.03578596 35.60014891
88 1 23.17966602 13.61096568 -4.30629301
89 1 23.17966602 13.61096568 15.64692795
90 1 23.17966602 13.61096568 35.60014891
91 1 23.20478489 12.89154853 -3.059213466
92 1 23.20478489 12.89154853 16.8940066
93 1 23.20478489 12.89154853 36.84722757
94 1 23.10442619 11.45621812 -3.059213466
95 1 23.10442619 11.45621812 16.8940066
96 1 23.10442619 11.45621812 36.84722757
97 1 22.9794158 10.74730649 -4.30629301
98 1 22.9794158 10.74730649 15.64692795
99 1 22.9794158 10.74730649 35.60014891
100 1 22.58281576 9.364208581 -4.30629301
101 1 22.58281576 9.364208581 15.64692795
102 1 22.58281576 9.364208581 35.60014891
103 1 22.31315477 8.696778051 -3.059213466
104 1 22.31315477 8.696778051 16.8940066
105 1 22.31315477 8.696778051 36.84722757
106 1 21.6376653 7.426367764 -3.059213466
107 1 21.6376653 7.426367764 16.8940066
108 1 21.6376653 7.426367764 36.84722757
109 1 21.23513477 6.829577439 -4.30629301
110 1 21.23513477 6.829577439 15.64692795
111 1 21.23513477 6.829577439 35.60014891
112 1 20.31026383 5.72736871 -4.30629301
113 1 20.31026383 5.72736871 15.64692795
114 1 20.31026383 5.72736871 35.60014891
115 1 19.79245542 5.22731909 -3.059213466
116 1 19.79245542 5.22731909 16.8940066
117 1 19.79245542 5.22731909 36.84722757
118 1 18.65863602 4.341488827 -3.059213466
119 1 18.65863602 4.341488827 16.8940066
120 1 18.65863602 4.341488827 36.84722757
121 1 18.04816364 3.960018887 -4.30629301
122 1 18.04816364 3.960018887 15.64692795
123 1 18.04816364 3.960018887 35.60014891
124 1 16.75495273 3.329278894 -4.30629301
125 1 16.75495273 3.329278894 15.64692795
126 1 16.75495273 3.329278894 35.60014891
127 1 16.07851659 3.083079545 -3.059213466
128 1 16.07851659 3.083079545 16.8940066
129 1 16.07851659 3.083079545 36.84722757
130 1 14.68242511 2.734989315 -3.059213466
131 1 14.68242511 2.734989315 16.8940066
132 1 14.68242511 2.734989315 36.84722757
133 1 13.96957467 2.63480946 -4.30629301
134 1 13.96957467 2.63480946 15.64692795
135 1 13.96957467 2.63480946 35.60014891
136 1 12.53161789 2.584589385 -4.30629301
137 1 12.53161789 2.584589385 15.64692795
138 1 12.53161789 2.584589385 35.60014891
139 1 11.81351777 2.63480946 -3.059213466
140 1 11.81351777 2.63480946 16.8940066
141 1 11.81351777 2.63480946 36.84722757
142 1 10.39654819 2.88465946 -3.059213466
143 1 10.39654819 2.88465946 16.8940066
144 1 10.39654819 2.88465946 36.84722757
145 1 9.704578158 3.083079545 -4.30629301
146 1 9.704578158 3.083079545 15.64692795
147 1 9.704578158 3.083079545 35.60014891
148 1 8.370516998 3.62206899 -4.30629301
149 1 8.370516998 3.62206899 15.64692795
150 1 8.370516998 3.62206899 35.60014891
151 1 7.734928041 3.960018887 -3.059213466
152 1 7.734928041 3.960018887 16.8940066
153 1 7.734928041 3.960018887 36.84722757
154 1 6.542087356 4.764608534 -3.059213466
155 1 6.542087356 4.764608534 16.8940066
156 1 6.542087356 4.764608534 36.84722757
157 1 5.990648931 5.22731909 -4.30629301
158 1 5.990648931 5.22731909 15.64692795
159 1 5.990648931 5.22731909 35.60014891
160 1 4.991148657 6.262329261 -4.30629301
161 1 4.991148657 6.262329261 15.64692795
162 1 4.991148657 6.262329261 35.60014891
163 1 4.547958824 6.829577439 -3.059213466
164 1 4.547958824 6.829577439 16.8940066
165 1 4.547958824 6.829577439 36.84722757
166 1 3.785498807 8.049777641 -3.059213466
167 1 3.785498807 8.049777641 16.8940066
168 1 3.785498807 8.049777641 36.84722757
169 1 3.469938824 8.696778051 -4.30629301
170 1 3.469938824 8.696778051 15.64692795
171 1 3.469938824 8.696778051 35.60014891
172 1 2.977829427 10.04883736 -4.30629301
173 1 2.977829427 10.04883736 15.64692795
174 1 2.977829427 10.04883736 35.60014891
175 1 2.803679138 10.74730649 -3.059213466
176 1 2.803679138 10.74730649 16.8940066
177 1 2.803679138 10.74730649 36.84722757
178 1 2.603429501 12.17213753 -3.059213466
179 1 2.603429501 12.17213753 16.8940066
180 1 2.603429501 12.17213753 36.84722757
181 1 2.578309475 12.89154853 -1.812143289
182 1 2.578309475 12.89154853 18.14107634
183 1 2.578309475 12.89154853 38.09429908
184 1 2.678679316 14.32687586 -1.812143289
185 1 2.678679316 14.32687586 18.14107634
186 1 2.678679316 14.32687586 38.09429908
187 1 2.803679138 15.03578596 -0.565063744
188 1 2.803679138 15.03578596 19.38815677
189 1 2.803679138 15.03578596 39.34137773
190 1 3.200269388 16.41888694 -0.565063744
191 1 3.200269388 16.41888694 19.38815677
192 1 3.200269388 16.41888694 39.34137773
193 1 3.469938824 17.08631439 -1.812143289
194 1 3.469938824 17.08631439 18.14107634
195 1 3.469938824 17.08631439 38.09429908
196 1 4.145429063 18.35672545 -1.812143289
197 1 4.145429063 18.35672545 18.14107634
198 1 4.145429063 18.35672545 38.09429908
199 1 4.547958824 18.95351577 -0.565063744
200 1 4.547958824 18.95351577 19.38815677
201 1 4.547958824 18.95351577 39.34137773
202 1 5.472828227 20.05572642 -0.565063744
203 1 5.472828227 20.05572642 19.38815677
204 1 5.472828227 20.05572642 39.34137773
205 1 5.990648931 20.5557772 -1.812143289
206 1 5.990648931 20.5557772 18.14107634
207 1 5.990648931 20.5557772 38.09429908
208 1 7.124457957 21.44161668 -1.812143289
209 1 7.124457957 21.44161668 18.14107634
210 1 7.124457957 21.44161668 38.09429908
211 1 7.734928041 21.82307471 -0.565063744
212 1 7.734928041 21.82307471 19.38815677
213 1 7.734928041 21.82307471 39.34137773
214 1 9.028137413 22.45381432 -0.565063744
215 1 9.028137413 22.45381432 19.38815677
216 1 9.028137413 22.45381432 39.34137773
217 1 9.704578158 22.70001463 -1.812143289
218 1 9.704578158 22.70001463 18.14107634
219 1 9.704578158 22.70001463 38.09429908
220 1 11.10066734 23.04810275 -1.812143289
221 1 11.10066734 23.04810275 18.14107634
222 1 11.10066734 23.04810275 38.09429908
223 1 11.81351777 23.14828625 -0.565063744
224 1 11.81351777 23.14828625 19.38815677
225 1 11.81351777 23.14828625 39.34137773
226 1 13.25147609 23.19850402 -0.565063744
227 1 13.25147609 23.19850402 19.38815677
228 1 13.25147609 23.19850402 39.34137773
229 1 13.96957467 23.14828625 -1.812143289
230 1 13.96957467 23.14828625 18.14107634
231 1 13.96957467 23.14828625 38.09429908
232 1 15.38654502 22.89843298 -1.812143289
233 1 15.38654502 22.89843298 18.14107634
234 1 15.38654502 22.89843298 38.09429908
235 1 16.07851659 22.70001463 -0.565063744
236 1 16.07851659 22.70001463 19.38815677
237 1 16.07851659 22.70001463 39.34137773
238 1 17.41257545 22.16102461 -0.565063744
239 1 17.41257545 22.16102461 19.38815677
240 1 17.41257545 22.16102461 39.34137773
241 1 18.04816364 21.82307471 -1.812143289
242 1 18.04816364 21.82307471 18.14107634
243 1 18.04816364 21.82307471 38.09429908
244 1 19.24100663 21.01848545 -1.812143289
245 1 19.24100663 21.01848545 18.14107634
246 1 19.24100663 21.01848545 38.09429908
247 1 19.79245542 20.5557772 -0.565063744
248 1 19.79245542 20.5557772 19.38815677
249 1 19.79245542 20.5557772 39.34137773
250 1 20.79194379 19.5207628 -0.565063744
251 1 20.79194379 19.5207628 19.38815677
252 1 20.79194379 19.5207628 39.34137773
253 1 21.23513477 18.95351577 -1.812143289
254 1 21.23513477 18.95351577 18.14107634
255 1 21.23513477 18.95351577 38.09429908
256 1 21.99759748 17.73331634 -1.812143289
257 1 21.99759748 17.73331634 18.14107634
258 1 21.99759748 17.73331634 38.09429908
259 1 22.31315477 17.08631439 -0.565063744
260 1 22.31315477 17.08631439 19.38815677
261 1 22.31315477 17.08631439 39.34137773
262 1 22.80526494 15.73425509 -0.565063744
263 1 22.80526494 15.73425509 19.38815677
264 1 22.80526494 15.73425509 39.34137773
265 1 22.9794158 15.03578596 -1.812143289
266 1 22.9794158 15.03578596 18.14107634
267 1 22.9794158 15.03578596 38.09429908
268 1 23.17966602 13.61096568 -1.812143289
269 1 23.17966602 13.61096568 18.14107634
270 1 23.17966602 13.61096568 38.09429908
271 1 23.20478489 12.89154853 -0.565063744
272 1 23.20478489 12.89154853 19.38815677
273 1 23.20478489 12.89154853 39.34137773
274 1 23.10442619 11.45621812 -0.565063744
275 1 23.10442619 11.45621812 19.38815677
276 1 23.10442619 11.45621812 39.34137773
277 1 22.9794158 10.74730649 -1.812143289
278 1 22.9794158 10.74730649 18.14107634
279 1 22.9794158 10.74730649 38.09429908
280 1 22.58281576 9.364208581 -1.812143289
281 1 22.58281576 9.364208581 18.14107634
282 1 22.58281576 9.364208581 38.09429908
283 1 22.31315477 8.696778051 -0.565063744
284 1 22.31315477 8.696778051 19.38815677
285 1 22.31315477 8.696778051 39.34137773
286 1 21.6376653 7.426367764 -0.565063744
287 1 21.6376653 7.426367764 19.38815677
288 1 21.6376653 7.426367764 39.34137773
289 1 21.23513477 6.829577439 -1.812143289
290 1 21.23513477 6.829577439 18.14107634
291 1 21.23513477 6.829577439 38.09429908
292 1 20.31026383 5.72736871 -1.812143289
293 1 20.31026383 5.72736871 18.14107634
294 1 20.31026383 5.72736871 38.09429908
295 1 19.79245542 5.22731909 -0.565063744
296 1 19.79245542 5.22731909 19.38815677
297 1 19.79245542 5.22731909 39.34137773
298 1 18.65863602 4.341488827 -0.565063744
299 1 18.65863602 4.341488827 19.38815677
300 1 18.65863602 4.341488827 39.34137773
301 1 18.04816364 3.960018887 -1.812143289
302 1 18.04816364 3.960018887 18.14107634
303 1 18.04816364 3.960018887 38.09429908
304 1 16.75495273 3.329278894 -1.812143289
305 1 16.75495273 3.329278894 18.14107634
306 1 16.75495273 3.329278894 38.09429908
307 1 16.07851659 3.083079545 -0.565063744
308 1 16.07851659 3.083079545 19.38815677
309 1 16.07851659 3.083079545 39.34137773
310 1 14.68242511 2.734989315 -0.565063744
311 1 14.68242511 2.734989315 19.38815677
312 1 14.68242511 2.734989315 39.34137773
313 1 13.96957467 2.63480946 -1.812143289
314 1 13.96957467 2.63480946 18.14107634
315 1 13.96957467 2.63480946 38.09429908
316 1 12.53161789 2.584589385 -1.812143289
317 1 12.53161789 2.584589385 18.14107634
318 1 12.53161789 2.584589385 38.09429908
319 1 11.81351777 2.63480946 -0.565063744
320 1 11.81351777 2.63480946 19.38815677
321 1 11.81351777 2.63480946 39.34137773
322 1 10.39654819 2.88465946 -0.565063744
323 1 10.39654819 2.88465946 19.38815677
324 1 10.39654819 2.88465946 39.34137773
325 1 9.704578158 3.083079545 -1.812143289
326 1 9.704578158 3.083079545 18.14107634
327 1 9.704578158 3.083079545 38.09429908
328 1 8.370516998 3.62206899 -1.812143289
329 1 8.370516998 3.62206899 18.14107634
330 1 8.370516998 3.62206899 38.09429908
331 1 7.734928041 3.960018887 -0.565063744
332 1 7.734928041 3.960018887 19.38815677
333 1 7.734928041 3.960018887 39.34137773
334 1 6.542087356 4.764608534 -0.565063744
335 1 6.542087356 4.764608534 19.38815677
336 1 6.542087356 4.764608534 39.34137773
337 1 5.990648931 5.22731909 -1.812143289
338 1 5.990648931 5.22731909 18.14107634
339 1 5.990648931 5.22731909 38.09429908
340 1 4.991148657 6.262329261 -1.812143289
341 1 4.991148657 6.262329261 18.14107634
342 1 4.991148657 6.262329261 38.09429908
343 1 4.547958824 6.829577439 -0.565063744
344 1 4.547958824 6.829577439 19.38815677
345 1 4.547958824 6.829577439 39.34137773
346 1 3.785498807 8.049777641 -0.565063744
347 1 3.785498807 8.049777641 19.38815677
348 1 3.785498807 8.049777641 39.34137773
349 1 3.469938824 8.696778051 -1.812143289
350 1 3.469938824 8.696778051 18.14107634
351 1 3.469938824 8.696778051 38.09429908
352 1 2.977829427 10.04883736 -1.812143289
353 1 2.977829427 10.04883736 18.14107634
354 1 2.977829427 10.04883736 38.09429908
355 1 2.803679138 10.74730649 -0.565063744
356 1 2.803679138 10.74730649 19.38815677
357 1 2.803679138 10.74730649 39.34137773
358 1 2.603429501 12.17213753 -0.565063744
359 1 2.603429501 12.17213753 19.38815677
360 1 2.603429501 12.17213753 39.34137773
361 1 2.578309475 12.89154853 0.682014907
362 1 2.578309475 12.89154853 20.63523542
363 1 2.578309475 12.89154853 40.58845639
364 1 2.678679316 14.32687586 0.682014907
365 1 2.678679316 14.32687586 20.63523542
366 1 2.678679316 14.32687586 40.58845639
367 1 2.803679138 15.03578596 1.929085531
368 1 2.803679138 15.03578596 21.88230515
369 1 2.803679138 15.03578596 41.8355279
370 1 3.200269388 16.41888694 1.929085531
371 1 3.200269388 16.41888694 21.88230515
372 1 3.200269388 16.41888694 41.8355279
373 1 3.469938824 17.08631439 0.682014907
374 1 3.469938824 17.08631439 20.63523542
375 1 3.469938824 17.08631439 40.58845639
376 1 4.145429063 18.35672545 0.682014907
377 1 4.145429063 18.35672545 20.63523542
378 1 4.145429063 18.35672545 40.58845639
379 1 4.547958824 18.95351577 1.929085531
380 1 4.547958824 18.95351577 21.88230515
381 1 4.547958824 18.95351577 41.8355279
382 1 5.472828227 20.05572642 1.929085531
383 1 5.472828227 20.05572642 21.88230515
384 1 5.472828227 20.05572642 41.8355279
385 1 5.990648931 20.5557772 0.682014907
386 1 5.990648931 20.5557772 20.63523542
387 1 5.990648931 20.5557772 40.58845639
388 1 7.124457957 21.44161668 0.682014907
389 1 7.124457957 21.44161668 20.63523542
390 1 7.124457957 21.44161668 40.58845639
391 1 7.734928041 21.82307471 1.929085531
392 1 7.734928041 21.82307471 21.88230515
393 1 7.734928041 21.82307471 41.8355279
394 1 9.028137413 22.45381432 1.929085531
395 1 9.028137413 22.45381432 21.88230515
396 1 9.028137413 22.45381432 41.8355279
397 1 9.704578158 22.70001463 0.682014907
398 1 9.704578158 22.70001463 20.63523542
399 1 9.704578158 22.70001463 40.58845639
400 1 11.10066734 23.04810275 0.682014907
401 1 11.10066734 23.04810275 20.63523542
402 1 11.10066734 23.04810275 40.58845639
403 1 11.81351777 23.14828625 1.929085531
404 1 11.81351777 23.14828625 21.88230515
405 1 11.81351777 23.14828625 41.8355279
406 1 13.25147609 23.19850402 1.929085531
407 1 13.25147609 23.19850402 21.88230515
408 1 13.25147609 23.19850402 41.8355279
409 1 13.96957467 23.14828625 0.682014907
410 1 13.96957467 23.14828625 20.63523542
411 1 13.96957467 23.14828625 40.58845639
412 1 15.38654502 22.89843298 0.682014907
413 1 15.38654502 22.89843298 20.63523542
414 1 15.38654502 22.89843298 40.58845639
415 1 16.07851659 22.70001463 1.929085531
416 1 16.07851659 22.70001463 21.88230515
417 1 16.07851659 22.70001463 41.8355279
418 1 17.41257545 22.16102461 1.929085531
419 1 17.41257545 22.16102461 21.88230515
420 1 17.41257545 22.16102461 41.8355279
421 1 18.04816364 21.82307471 0.682014907
422 1 18.04816364 21.82307471 20.63523542
423 1 18.04816364 21.82307471 40.58845639
424 1 19.24100663 21.01848545 0.682014907
425 1 19.24100663 21.01848545 20.63523542
426 1 19.24100663 21.01848545 40.58845639
427 1 19.79245542 20.5557772 1.929085531
428 1 19.79245542 20.5557772 21.88230515
429 1 19.79245542 20.5557772 41.8355279
430 1 20.79194379 19.5207628 1.929085531
431 1 20.79194379 19.5207628 21.88230515
432 1 20.79194379 19.5207628 41.8355279
433 1 21.23513477 18.95351577 0.682014907
434 1 21.23513477 18.95351577 20.63523542
435 1 21.23513477 18.95351577 40.58845639
436 1 21.99759748 17.73331634 0.682014907
437 1 21.99759748 17.73331634 20.63523542
438 1 21.99759748 17.73331634 40.58845639
439 1 22.31315477 17.08631439 1.929085531
440 1 22.31315477 17.08631439 21.88230515
441 1 22.31315477 17.08631439 41.8355279
442 1 22.80526494 15.73425509 1.929085531
443 1 22.80526494 15.73425509 21.88230515
444 1 22.80526494 15.73425509 41.8355279
445 1 22.9794158 15.03578596 0.682014907
446 1 22.9794158 15.03578596 20.63523542
447 1 22.9794158 15.03578596 40.58845639
448 1 23.17966602 13.61096568 0.682014907
449 1 23.17966602 13.61096568 20.63523542
450 1 23.17966602 13.61096568 40.58845639
451 1 23.20478489 12.89154853 1.929085531
452 1 23.20478489 12.89154853 21.88230515
453 1 23.20478489 12.89154853 41.8355279
454 1 23.10442619 11.45621812 1.929085531
455 1 23.10442619 11.45621812 21.88230515
456 1 23.10442619 11.45621812 41.8355279
457 1 22.9794158 10.74730649 0.682014907
458 1 22.9794158 10.74730649 20.63523542
459 1 22.9794158 10.74730649 40.58845639
460 1 22.58281576 9.364208581 0.682014907
461 1 22.58281576 9.364208581 20.63523542
462 1 22.58281576 9.364208581 40.58845639
463 1 22.31315477 8.696778051 1.929085531
464 1 22.31315477 8.696778051 21.88230515
465 1 22.31315477 8.696778051 41.8355279
466 1 21.6376653 7.426367764 1.929085531
467 1 21.6376653 7.426367764 21.88230515
468 1 21.6376653 7.426367764 41.8355279
469 1 21.23513477 6.829577439 0.682014907
470 1 21.23513477 6.829577439 20.63523542
471 1 21.23513477 6.829577439 40.58845639
472 1 20.31026383 5.72736871 0.682014907
473 1 20.31026383 5.72736871 20.63523542
474 1 20.31026383 5.72736871 40.58845639
475 1 19.79245542 5.22731909 1.929085531
476 1 19.79245542 5.22731909 21.88230515
477 1 19.79245542 5.22731909 41.8355279
478 1 18.65863602 4.341488827 1.929085531
479 1 18.65863602 4.341488827 21.88230515
480 1 18.65863602 4.341488827 41.8355279
481 1 18.04816364 3.960018887 0.682014907
482 1 18.04816364 3.960018887 20.63523542
483 1 18.04816364 3.960018887 40.58845639
484 1 16.75495273 3.329278894 0.682014907
485 1 16.75495273 3.329278894 20.63523542
486 1 16.75495273 3.329278894 40.58845639
487 1 16.07851659 3.083079545 1.929085531
488 1 16.07851659 3.083079545 21.88230515
489 1 16.07851659 3.083079545 41.8355279
490 1 14.68242511 2.734989315 1.929085531
491 1 14.68242511 2.734989315 21.88230515
492 1 14.68242511 2.734989315 41.8355279
493 1 13.96957467 2.63480946 0.682014907
494 1 13.96957467 2.63480946 20.63523542
495 1 13.96957467 2.63480946 40.58845639
496 1 12.53161789 2.584589385 0.682014907
497 1 12.53161789 2.584589385 20.63523542
498 1 12.53161789 2.584589385 40.58845639
499 1 11.81351777 2.63480946 1.929085531
500 1 11.81351777 2.63480946 21.88230515
501 1 11.81351777 2.63480946 41.8355279
502 1 10.39654819 2.88465946 1.929085531
503 1 10.39654819 2.88465946 21.88230515
504 1 10.39654819 2.88465946 41.8355279
505 1 9.704578158 3.083079545 0.682014907
506 1 9.704578158 3.083079545 20.63523542
507 1 9.704578158 3.083079545 40.58845639
508 1 8.370516998 3.62206899 0.682014907
509 1 8.370516998 3.62206899 20.63523542
510 1 8.370516998 3.62206899 40.58845639
511 1 7.734928041 3.960018887 1.929085531
512 1 7.734928041 3.960018887 21.88230515
513 1 7.734928041 3.960018887 41.8355279
514 1 6.542087356 4.764608534 1.929085531
515 1 6.542087356 4.764608534 21.88230515
516 1 6.542087356 4.764608534 41.8355279
517 1 5.990648931 5.22731909 0.682014907
518 1 5.990648931 5.22731909 20.63523542
519 1 5.990648931 5.22731909 40.58845639
520 1 4.991148657 6.262329261 0.682014907
521 1 4.991148657 6.262329261 20.63523542
522 1 4.991148657 6.262329261 40.58845639
523 1 4.547958824 6.829577439 1.929085531
524 1 4.547958824 6.829577439 21.88230515
525 1 4.547958824 6.829577439 41.8355279
526 1 3.785498807 8.049777641 1.929085531
527 1 3.785498807 8.049777641 21.88230515
528 1 3.785498807 8.049777641 41.8355279
529 1 3.469938824 8.696778051 0.682014907
530 1 3.469938824 8.696778051 20.63523542
531 1 3.469938824 8.696778051 40.58845639
532 1 2.977829427 10.04883736 0.682014907
533 1 2.977829427 10.04883736 20.63523542
534 1 2.977829427 10.04883736 40.58845639
535 1 2.803679138 10.74730649 1.929085531
536 1 2.803679138 10.74730649 21.88230515
537 1 2.803679138 10.74730649 41.8355279
538 1 2.603429501 12.17213753 1.929085531
539 1 2.603429501 12.17213753 21.88230515
540 1 2.603429501 12.17213753 41.8355279
541 1 2.578309475 12.89154853 3.176165521
542 1 2.578309475 12.89154853 23.12938559
543 1 2.578309475 12.89154853 43.08260655
544 1 2.678679316 14.32687586 3.176165521
545 1 2.678679316 14.32687586 23.12938559
546 1 2.678679316 14.32687586 43.08260655
547 1 2.803679138 15.03578596 4.423245064
548 1 2.803679138 15.03578596 24.37646603
549 1 2.803679138 15.03578596 44.3296852
550 1 3.200269388 16.41888694 4.423245064
551 1 3.200269388 16.41888694 24.37646603
552 1 3.200269388 16.41888694 44.3296852
553 1 3.469938824 17.08631439 3.176165521
554 1 3.469938824 17.08631439 23.12938559
555 1 3.469938824 17.08631439 43.08260655
556 1 4.145429063 18.35672545 3.176165521
557 1 4.145429063 18.35672545 23.12938559
558 1 4.145429063 18.35672545 43.08260655
559 1 4.547958824 18.95351577 4.423245064
560 1 4.547958824 18.95351577 24.37646603
561 1 4.547958824 18.95351577 44.3296852
562 1 5.472828227 20.05572642 4.423245064
563 1 5.472828227 20.05572642 24.37646603
564 1 5.472828227 20.05572642 44.3296852
565 1 5.990648931 20.5557772 3.176165521
566 1 5.990648931 20.5557772 23.12938559
567 1 5.990648931 20.5557772 43.08260655
568 1 7.124457957 21.44161668 3.176165521
569 1 7.124457957 21.44161668 23.12938559
570 1 7.124457957 21.44161668 43.08260655
571 1 7.734928041 21.82307471 4.423245064
572 1 7.734928041 21.82307471 24.37646603
573 1 7.734928041 21.82307471 44.3296852
574 1 9.028137413 22.45381432 4.423245064
575 1 9.028137413 22.45381432 24.37646603
576 1 9.028137413 22.45381432 44.3296852
577 1 9.704578158 22.70001463 3.176165521
578 1 9.704578158 22.70001463 23.12938559
579 1 9.704578158 22.70001463 43.08260655
580 1 11.10066734 23.04810275 3.176165521
581 1 11.10066734 23.04810275 23.12938559
582 1 11.10066734 23.04810275 43.08260655
583 1 11.81351777 23.14828625 4.423245064
584 1 11.81351777 23.14828625 24.37646603
585 1 11.81351777 23.14828625 44.3296852
586 1 13.25147609 23.19850402 4.423245064
587 1 13.25147609 23.19850402 24.37646603
588 1 13.25147609 23.19850402 44.3296852
589 1 13.96957467 23.14828625 3.176165521
590 1 13.96957467 23.14828625 23.12938559
591 1 13.96957467 23.14828625 43.08260655
592 1 15.38654502 22.89843298 3.176165521
593 1 15.38654502 22.89843298 23.12938559
594 1 15.38654502 22.89843298 43.08260655
595 1 16.07851659 22.70001463 4.423245064
596 1 16.07851659 22.70001463 24.37646603
597 1 16.07851659 22.70001463 44.3296852
598 1 17.41257545 22.16102461 4.423245064
599 1 17.41257545 22.16102461 24.37646603
600 1 17.41257545 22.16102461 44.3296852
601 1 18.04816364 21.82307471 3.176165521
602 1 18.04816364 21.82307471 23.12938559
603 1 18.04816364 21.82307471 43.08260655
604 1 19.24100663 21.01848545 3.176165521
605 1 19.24100663 21.01848545 23.12938559
606 1 19.24100663 21.01848545 43.08260655
607 1 19.79245542 20.5557772 4.423245064
608 1 19.79245542 20.5557772 24.37646603
609 1 19.79245542 20.5557772 44.3296852
610 1 20.79194379 19.5207628 4.423245064
611 1 20.79194379 19.5207628 24.37646603
612 1 20.79194379 19.5207628 44.3296852
613 1 21.23513477 18.95351577 3.176165521
614 1 21.23513477 18.95351577 23.12938559
615 1 21.23513477 18.95351577 43.08260655
616 1 21.99759748 17.73331634 3.176165521
617 1 21.99759748 17.73331634 23.12938559
618 1 21.99759748 17.73331634 43.08260655
619 1 22.31315477 17.08631439 4.423245064
620 1 22.31315477 17.08631439 24.37646603
621 1 22.31315477 17.08631439 44.3296852
622 1 22.80526494 15.73425509 4.423245064
623 1 22.80526494 15.73425509 24.37646603
624 1 22.80526494 15.73425509 44.3296852
625 1 22.9794158 15.03578596 3.176165521
626 1 22.9794158 15.03578596 23.12938559
627 1 22.9794158 15.03578596 43.08260655
628 1 23.17966602 13.61096568 3.176165521
629 1 23.17966602 13.61096568 23.12938559
630 1 23.17966602 13.61096568 43.08260655
631 1 23.20478489 12.89154853 4.423245064
632 1 23.20478489 12.89154853 24.37646603
633 1 23.20478489 12.89154853 44.3296852
634 1 23.10442619 11.45621812 4.423245064
635 1 23.10442619 11.45621812 24.37646603
636 1 23.10442619 11.45621812 44.3296852
637 1 22.9794158 10.74730649 3.176165521
638 1 22.9794158 10.74730649 23.12938559
639 1 22.9794158 10.74730649 43.08260655
640 1 22.58281576 9.364208581 3.176165521
641 1 22.58281576 9.364208581 23.12938559
642 1 22.58281576 9.364208581 43.08260655
643 1 22.31315477 8.696778051 4.423245064
644 1 22.31315477 8.696778051 24.37646603
645 1 22.31315477 8.696778051 44.3296852
646 1 21.6376653 7.426367764 4.423245064
647 1 21.6376653 7.426367764 24.37646603
648 1 21.6376653 7.426367764 44.3296852
649 1 21.23513477 6.829577439 3.176165521
650 1 21.23513477 6.829577439 23.12938559
651 1 21.23513477 6.829577439 43.08260655
652 1 20.31026383 5.72736871 3.176165521
653 1 20.31026383 5.72736871 23.12938559
654 1 20.31026383 5.72736871 43.08260655
655 1 19.79245542 5.22731909 4.423245064
656 1 19.79245542 5.22731909 24.37646603
657 1 19.79245542 5.22731909 44.3296852
658 1 18.65863602 4.341488827 4.423245064
659 1 18.65863602 4.341488827 24.37646603
660 1 18.65863602 4.341488827 44.3296852
661 1 18.04816364 3.960018887 3.176165521
662 1 18.04816364 3.960018887 23.12938559
663 1 18.04816364 3.960018887 43.08260655
664 1 16.75495273 3.329278894 3.176165521
665 1 16.75495273 3.329278894 23.12938559
666 1 16.75495273 3.329278894 43.08260655
667 1 16.07851659 3.083079545 4.423245064
668 1 16.07851659 3.083079545 24.37646603
669 1 16.07851659 3.083079545 44.3296852
670 1 14.68242511 2.734989315 4.423245064
671 1 14.68242511 2.734989315 24.37646603
672 1 14.68242511 2.734989315 44.3296852
673 1 13.96957467 2.63480946 3.176165521
674 1 13.96957467 2.63480946 23.12938559
675 1 13.96957467 2.63480946 43.08260655
676 1 12.53161789 2.584589385 3.176165521
677 1 12.53161789 2.584589385 23.12938559
678 1 12.53161789 2.584589385 43.08260655
679 1 11.81351777 2.63480946 4.423245064
680 1 11.81351777 2.63480946 24.37646603
681 1 11.81351777 2.63480946 44.3296852
682 1 10.39654819 2.88465946 4.423245064
683 1 10.39654819 2.88465946 24.37646603
684 1 10.39654819 2.88465946 44.3296852
685 1 9.704578158 3.083079545 3.176165521
686 1 9.704578158 3.083079545 23.12938559
687 1 9.704578158 3.083079545 43.08260655
688 1 8.370516998 3.62206899 3.176165521
689 1 8.370516998 3.62206899 23.12938559
690 1 8.370516998 3.62206899 43.08260655
691 1 7.734928041 3.960018887 4.423245064
692 1 7.734928041 3.960018887 24.37646603
693 1 7.734928041 3.960018887 44.3296852
694 1 6.542087356 4.764608534 4.423245064
695 1 6.542087356 4.764608534 24.37646603
696 1 6.542087356 4.764608534 44.3296852
697 1 5.990648931 5.22731909 3.176165521
698 1 5.990648931 5.22731909 23.12938559
699 1 5.990648931 5.22731909 43.08260655
700 1 4.991148657 6.262329261 3.176165521
701 1 4.991148657 6.262329261 23.12938559
702 1 4.991148657 6.262329261 43.08260655
703 1 4.547958824 6.829577439 4.423245064
704 1 4.547958824 6.829577439 24.37646603
705 1 4.547958824 6.829577439 44.3296852
706 1 3.785498807 8.049777641 4.423245064
707 1 3.785498807 8.049777641 24.37646603
708 1 3.785498807 8.049777641 44.3296852
709 1 3.469938824 8.696778051 3.176165521
710 1 3.469938824 8.696778051 23.12938559
711 1 3.469938824 8.696778051 43.08260655
712 1 2.977829427 10.04883736 3.176165521
713 1 2.977829427 10.04883736 23.12938559
714 1 2.977829427 10.04883736 43.08260655
715 1 2.803679138 10.74730649 4.423245064
716 1 2.803679138 10.74730649 24.37646603