# LAMMPS data file written by OVITO Basic 3.8.4

816 atoms
1 atom types

0.0 99.5066528321 xlo xhi
0.0 49.5634994507 ylo yhi
0.0 25.0 zlo zhi

Masses

1 10.811  # B

Atoms  # atomic

1 1 0.81981499 1.457749712 0.0
2 1 5.937410745 1.457749712 0.0
3 1 2.585901482 1.457749712 0.0
4 1 7.703498002 1.457749712 0.0
5 1 5.089889593 0.0 0.0
6 1 3.433423208 0.0 0.0
7 1 1.702858236 0.0 0.0
8 1 6.820454756 0.0 0.0
9 1 9.379256173 1.457749712 0.0
10 1 14.496852885 1.457749712 0.0
11 1 11.14534343 1.457749712 0.0
12 1 16.262939376 1.457749712 0.0
13 1 13.649330585 0.0 0.0
14 1 11.99286573 0.0 0.0
15 1 10.262300184 0.0 0.0
16 1 15.37989613 0.0 0.0
17 1 17.938699078 1.457749712 0.0
18 1 23.056295789 1.457749712 0.0
19 1 19.704785569 1.457749712 0.0
20 1 24.822382281 1.457749712 0.0
21 1 22.208771959 0.0 0.0
22 1 20.552306339 0.0 0.0
23 1 18.821740793 0.0 0.0
24 1 23.939339035 0.0 0.0
25 1 26.498138921 1.457749712 0.0
26 1 31.615735633 1.457749712 0.0
27 1 28.264225413 1.457749712 0.0
28 1 33.381825186 1.457749712 0.0
29 1 30.768213333 0.0 0.0
30 1 29.111750774 0.0 0.0
31 1 27.381182167 0.0 0.0
32 1 32.498778879 0.0 0.0
33 1 35.057581826 1.457749712 0.0
34 1 40.175178538 1.457749712 0.0
35 1 36.823668318 1.457749712 0.0
36 1 41.941265029 1.457749712 0.0
37 1 39.327656238 0.0 0.0
38 1 37.671190618 0.0 0.0
39 1 35.940628133 0.0 0.0
40 1 41.058221783 0.0 0.0
41 1 43.61702167 1.457749712 0.0
42 1 48.734621442 1.457749712 0.0
43 1 45.383108161 1.457749712 0.0
44 1 50.500707934 1.457749712 0.0
45 1 47.887099142 0.0 0.0
46 1 46.230633522 0.0 0.0
47 1 44.500067977 0.0 0.0
48 1 49.617664688 0.0 0.0
49 1 0.81981499 4.37325006 0.0
50 1 5.937410745 4.37325006 0.0
51 1 2.585901482 4.37325006 0.0
52 1 7.703498002 4.37325006 0.0
53 1 5.089889593 2.915499979 0.0
54 1 3.433423208 2.915499979 0.0
55 1 1.702858236 2.915499979 0.0
56 1 6.820454756 2.915499979 0.0
57 1 9.379256173 4.37325006 0.0
58 1 14.496852885 4.37325006 0.0
59 1 11.14534343 4.37325006 0.0
60 1 16.262939376 4.37325006 0.0
61 1 13.649330585 2.915499979 0.0
62 1 11.99286573 2.915499979 0.0
63 1 10.262300184 2.915499979 0.0
64 1 15.37989613 2.915499979 0.0
65 1 17.938699078 4.37325006 0.0
66 1 23.056295789 4.37325006 0.0
67 1 19.704785569 4.37325006 0.0
68 1 24.822382281 4.37325006 0.0
69 1 22.208771959 2.915499979 0.0
70 1 20.552306339 2.915499979 0.0
71 1 18.821740793 2.915499979 0.0
72 1 23.939339035 2.915499979 0.0
73 1 26.498138921 4.37325006 0.0
74 1 31.615735633 4.37325006 0.0
75 1 28.264225413 4.37325006 0.0
76 1 33.381825186 4.37325006 0.0
77 1 30.768213333 2.915499979 0.0
78 1 29.111750774 2.915499979 0.0
79 1 27.381182167 2.915499979 0.0
80 1 32.498778879 2.915499979 0.0
81 1 35.057581826 4.37325006 0.0
82 1 40.175178538 4.37325006 0.0
83 1 36.823668318 4.37325006 0.0
84 1 41.941265029 4.37325006 0.0
85 1 39.327656238 2.915499979 0.0
86 1 37.671190618 2.915499979 0.0
87 1 35.940628133 2.915499979 0.0
88 1 41.058221783 2.915499979 0.0
89 1 43.61702167 4.37325006 0.0
90 1 48.734621442 4.37325006 0.0
91 1 45.383108161 4.37325006 0.0
92 1 50.500707934 4.37325006 0.0
93 1 47.887099142 2.915499979 0.0
94 1 46.230633522 2.915499979 0.0
95 1 44.500067977 2.915499979 0.0
96 1 49.617664688 2.915499979 0.0
97 1 0.81981499 7.288749485 0.0
98 1 5.937410745 7.288749485 0.0
99 1 2.585901482 7.288749485 0.0
100 1 7.703498002 7.288749485 0.0
101 1 5.089889593 5.830999957 0.0
102 1 3.433423208 5.830999957 0.0
103 1 1.702858236 5.830999957 0.0
104 1 6.820454756 5.830999957 0.0
105 1 9.379256173 7.288749485 0.0
106 1 14.496852885 7.288749485 0.0
107 1 11.14534343 7.288749485 0.0
108 1 16.262939376 7.288749485 0.0
109 1 13.649330585 5.830999957 0.0
110 1 11.99286573 5.830999957 0.0
111 1 10.262300184 5.830999957 0.0
112 1 15.37989613 5.830999957 0.0
113 1 17.938699078 7.288749485 0.0
114 1 23.056295789 7.288749485 0.0
115 1 19.704785569 7.288749485 0.0
116 1 24.822382281 7.288749485 0.0
117 1 22.208771959 5.830999957 0.0
118 1 20.552306339 5.830999957 0.0
119 1 18.821740793 5.830999957 0.0
120 1 23.939339035 5.830999957 0.0
121 1 26.498138921 7.288749485 0.0
122 1 31.615735633 7.288749485 0.0
123 1 28.264225413 7.288749485 0.0
124 1 33.381825186 7.288749485 0.0
125 1 30.768213333 5.830999957 0.0
126 1 29.111750774 5.830999957 0.0
127 1 27.381182167 5.830999957 0.0
128 1 32.498778879 5.830999957 0.0
129 1 35.057581826 7.288749485 0.0
130 1 40.175178538 7.288749485 0.0
131 1 36.823668318 7.288749485 0.0
132 1 41.941265029 7.288749485 0.0
133 1 39.327656238 5.830999957 0.0
134 1 37.671190618 5.830999957 0.0
135 1 35.940628133 5.830999957 0.0
136 1 41.058221783 5.830999957 0.0
137 1 43.61702167 7.288749485 0.0
138 1 48.734621442 7.288749485 0.0
139 1 45.383108161 7.288749485 0.0
140 1 50.500707934 7.288749485 0.0
141 1 47.887099142 5.830999957 0.0
142 1 46.230633522 5.830999957 0.0
143 1 44.500067977 5.830999957 0.0
144 1 49.617664688 5.830999957 0.0
145 1 0.81981499 10.204249279 0.0
146 1 5.937410745 10.204249279 0.0
147 1 2.585901482 10.204249279 0.0
148 1 7.703498002 10.204249279 0.0
149 1 5.089889593 8.74650012 0.0
150 1 3.433423208 8.74650012 0.0
151 1 1.702858236 8.74650012 0.0
152 1 6.820454756 8.74650012 0.0
153 1 9.379256173 10.204249279 0.0
154 1 14.496852885 10.204249279 0.0
155 1 11.14534343 10.204249279 0.0
156 1 16.262939376 10.204249279 0.0
157 1 13.649330585 8.74650012 0.0
158 1 11.99286573 8.74650012 0.0
159 1 10.262300184 8.74650012 0.0
160 1 15.37989613 8.74650012 0.0
161 1 17.938699078 10.204249279 0.0
162 1 23.056295789 10.204249279 0.0
163 1 19.704785569 10.204249279 0.0
164 1 24.822382281 10.204249279 0.0
165 1 22.208771959 8.74650012 0.0
166 1 20.552306339 8.74650012 0.0
167 1 18.821740793 8.74650012 0.0
168 1 23.939339035 8.74650012 0.0
169 1 26.498138921 10.204249279 0.0
170 1 31.615735633 10.204249279 0.0
171 1 28.264225413 10.204249279 0.0
172 1 33.381825186 10.204249279 0.0
173 1 30.768213333 8.74650012 0.0
174 1 29.111750774 8.74650012 0.0
175 1 27.381182167 8.74650012 0.0
176 1 32.498778879 8.74650012 0.0
177 1 35.057581826 10.204249279 0.0
178 1 40.175178538 10.204249279 0.0
179 1 36.823668318 10.204249279 0.0
180 1 41.941265029 10.204249279 0.0
181 1 39.327656238 8.74650012 0.0
182 1 37.671190618 8.74650012 0.0
183 1 35.940628133 8.74650012 0.0
184 1 41.058221783 8.74650012 0.0
185 1 43.61702167 10.204249279 0.0
186 1 48.734621442 10.204249279 0.0
187 1 45.383108161 10.204249279 0.0
188 1 50.500707934 10.204249279 0.0
189 1 47.887099142 8.74650012 0.0
190 1 46.230633522 8.74650012 0.0
191 1 44.500067977 8.74650012 0.0
192 1 49.617664688 8.74650012 0.0
193 1 0.81981499 13.11975055 0.0
194 1 5.937410745 13.11975055 0.0
195 1 2.585901482 13.11975055 0.0
196 1 7.703498002 13.11975055 0.0
197 1 5.089889593 11.661999914 0.0
198 1 3.433423208 11.661999914 0.0
199 1 1.702858236 11.661999914 0.0
200 1 6.820454756 11.661999914 0.0
201 1 9.379256173 13.11975055 0.0
202 1 14.496852885 13.11975055 0.0
203 1 11.14534343 13.11975055 0.0
204 1 16.262939376 13.11975055 0.0
205 1 13.649330585 11.661999914 0.0
206 1 11.99286573 11.661999914 0.0
207 1 10.262300184 11.661999914 0.0
208 1 15.37989613 11.661999914 0.0
209 1 17.938699078 13.11975055 0.0
210 1 23.056295789 13.11975055 0.0
211 1 19.704785569 13.11975055 0.0
212 1 24.822382281 13.11975055 0.0
213 1 22.208771959 11.661999914 0.0
214 1 20.552306339 11.661999914 0.0
215 1 18.821740793 11.661999914 0.0
216 1 23.939339035 11.661999914 0.0
217 1 26.498138921 13.11975055 0.0
218 1 31.615735633 13.11975055 0.0
219 1 28.264225413 13.11975055 0.0
220 1 33.381825186 13.11975055 0.0
221 1 30.768213333 11.661999914 0.0
222 1 29.111750774 11.661999914 0.0
223 1 27.381182167 11.661999914 0.0
224 1 32.498778879 11.661999914 0.0
225 1 35.057581826 13.11975055 0.0
226 1 40.175178538 13.11975055 0.0
227 1 36.823668318 13.11975055 0.0
228 1 41.941265029 13.11975055 0.0
229 1 39.327656238 11.661999914 0.0
230 1 37.671190618 11.661999914 0.0
231 1 35.940628133 11.661999914 0.0
232 1 41.058221783 11.661999914 0.0
233 1 43.61702167 13.11975055 0.0
234 1 48.734621442 13.11975055 0.0
235 1 45.383108161 13.11975055 0.0
236 1 50.500707934 13.11975055 0.0
237 1 47.887099142 11.661999914 0.0
238 1 46.230633522 11.661999914 0.0
239 1 44.500067977 11.661999914 0.0
240 1 49.617664688 11.661999914 0.0
241 1 0.81981499 16.035248867 0.0
242 1 5.937410745 16.035248867 0.0
243 1 2.585901482 16.035248867 0.0
244 1 7.703498002 16.035248867 0.0
245 1 5.089889593 14.577500447 0.0
246 1 3.433423208 14.577500447 0.0
247 1 1.702858236 14.577500447 0.0
248 1 6.820454756 14.577500447 0.0
249 1 9.379256173 16.035248867 0.0
250 1 14.496852885 16.035248867 0.0
251 1 11.14534343 16.035248867 0.0
252 1 16.262939376 16.035248867 0.0
253 1 13.649330585 14.577500447 0.0
254 1 11.99286573 14.577500447 0.0
255 1 10.262300184 14.577500447 0.0
256 1 15.37989613 14.577500447 0.0
257 1 17.938699078 16.035248867 0.0
258 1 23.056295789 16.035248867 0.0
259 1 19.704785569 16.035248867 0.0
260 1 24.822382281 16.035248867 0.0
261 1 22.208771959 14.577500447 0.0
262 1 20.552306339 14.577500447 0.0
263 1 18.821740793 14.577500447 0.0
264 1 23.939339035 14.577500447 0.0
265 1 26.498138921 16.035248867 0.0
266 1 31.615735633 16.035248867 0.0
267 1 28.264225413 16.035248867 0.0
268 1 33.381825186 16.035248867 0.0
269 1 30.768213333 14.577500447 0.0
270 1 29.111750774 14.577500447 0.0
271 1 27.381182167 14.577500447 0.0
272 1 32.498778879 14.577500447 0.0
273 1 35.057581826 16.035248867 0.0
274 1 40.175178538 16.035248867 0.0
275 1 36.823668318 16.035248867 0.0
276 1 41.941265029 16.035248867 0.0
277 1 39.327656238 14.577500447 0.0
278 1 37.671190618 14.577500447 0.0
279 1 35.940628133 14.577500447 0.0
280 1 41.058221783 14.577500447 0.0
281 1 43.61702167 16.035248867 0.0
282 1 48.734621442 16.035248867 0.0
283 1 45.383108161 16.035248867 0.0
284 1 50.500707934 16.035248867 0.0
285 1 47.887099142 14.577500447 0.0
286 1 46.230633522 14.577500447 0.0
287 1 44.500067977 14.577500447 0.0
288 1 49.617664688 14.577500447 0.0
289 1 0.81981499 18.950750138 0.0
290 1 5.937410745 18.950750138 0.0
291 1 2.585901482 18.950750138 0.0
292 1 7.703498002 18.950750138 0.0
293 1 5.089889593 17.493000241 0.0
294 1 3.433423208 17.493000241 0.0
295 1 1.702858236 17.493000241 0.0
296 1 6.820454756 17.493000241 0.0
297 1 9.379256173 18.950750138 0.0
298 1 14.496852885 18.950750138 0.0
299 1 11.14534343 18.950750138 0.0
300 1 16.262939376 18.950750138 0.0
301 1 13.649330585 17.493000241 0.0
302 1 11.99286573 17.493000241 0.0
303 1 10.262300184 17.493000241 0.0
304 1 15.37989613 17.493000241 0.0
305 1 17.938699078 18.950750138 0.0
306 1 23.056295789 18.950750138 0.0
307 1 19.704785569 18.950750138 0.0
308 1 24.822382281 18.950750138 0.0
309 1 22.208771959 17.493000241 0.0
310 1 20.552306339 17.493000241 0.0
311 1 18.821740793 17.493000241 0.0
312 1 23.939339035 17.493000241 0.0
313 1 26.498138921 18.950750138 0.0
314 1 31.615735633 18.950750138 0.0
315 1 28.264225413 18.950750138 0.0
316 1 33.381825186 18.950750138 0.0
317 1 30.768213333 17.493000241 0.0
318 1 29.111750774 17.493000241 0.0
319 1 27.381182167 17.493000241 0.0
320 1 32.498778879 17.493000241 0.0
321 1 35.057581826 18.950750138 0.0
322 1 40.175178538 18.950750138 0.0
323 1 36.823668318 18.950750138 0.0
324 1 41.941265029 18.950750138 0.0
325 1 39.327656238 17.493000241 0.0
326 1 37.671190618 17.493000241 0.0
327 1 35.940628133 17.493000241 0.0
328 1 41.058221783 17.493000241 0.0
329 1 43.61702167 18.950750138 0.0
330 1 48.734621442 18.950750138 0.0
331 1 45.383108161 18.950750138 0.0
332 1 50.500707934 18.950750138 0.0
333 1 47.887099142 17.493000241 0.0
334 1 46.230633522 17.493000241 0.0
335 1 44.500067977 17.493000241 0.0
336 1 49.617664688 17.493000241 0.0
337 1 0.81981499 21.866248454 0.0
338 1 5.937410745 21.866248454 0.0
339 1 2.585901482 21.866248454 0.0
340 1 7.703498002 21.866248454 0.0
341 1 5.089889593 20.408500034 0.0
342 1 3.433423208 20.408500034 0.0
343 1 1.702858236 20.408500034 0.0
344 1 6.820454756 20.408500034 0.0
345 1 9.379256173 21.866248454 0.0
346 1 14.496852885 21.866248454 0.0
347 1 11.14534343 21.866248454 0.0
348 1 16.262939376 21.866248454 0.0
349 1 13.649330585 20.408500034 0.0
350 1 11.99286573 20.408500034 0.0
351 1 10.262300184 20.408500034 0.0
352 1 15.37989613 20.408500034 0.0
353 1 17.938699078 21.866248454 0.0
354 1 23.056295789 21.866248454 0.0
355 1 19.704785569 21.866248454 0.0
356 1 24.822382281 21.866248454 0.0
357 1 22.208771959 20.408500034 0.0
358 1 20.552306339 20.408500034 0.0
359 1 18.821740793 20.408500034 0.0
360 1 23.939339035 20.408500034 0.0
361 1 26.498138921 21.866248454 0.0
362 1 31.615735633 21.866248454 0.0
363 1 28.264225413 21.866248454 0.0
364 1 33.381825186 21.866248454 0.0
365 1 30.768213333 20.408500034 0.0
366 1 29.111750774 20.408500034 0.0
367 1 27.381182167 20.408500034 0.0
368 1 32.498778879 20.408500034 0.0
369 1 35.057581826 21.866248454 0.0
370 1 40.175178538 21.866248454 0.0
371 1 36.823668318 21.866248454 0.0
372 1 41.941265029 21.866248454 0.0
373 1 39.327656238 20.408500034 0.0
374 1 37.671190618 20.408500034 0.0
375 1 35.940628133 20.408500034 0.0
376 1 41.058221783 20.408500034 0.0
377 1 43.61702167 21.866248454 0.0
378 1 48.734621442 21.866248454 0.0
379 1 45.383108161 21.866248454 0.0
380 1 50.500707934 21.866248454 0.0
381 1 47.887099142 20.408500034 0.0
382 1 46.230633522 20.408500034 0.0
383 1 44.500067977 20.408500034 0.0
384 1 49.617664688 20.408500034 0.0
385 1 0.81981499 24.781749725 0.0
386 1 5.937410745 24.781749725 0.0
387 1 2.585901482 24.781749725 0.0
388 1 7.703498002 24.781749725 0.0
389 1 5.089889593 23.323999828 0.0
390 1 3.433423208 23.323999828 0.0
391 1 1.702858236 23.323999828 0.0
392 1 6.820454756 23.323999828 0.0
393 1 9.379256173 24.781749725 0.0
394 1 14.496852885 24.781749725 0.0
395 1 11.14534343 24.781749725 0.0
396 1 16.262939376 24.781749725 0.0
397 1 13.649330585 23.323999828 0.0
398 1 11.99286573 23.323999828 0.0
399 1 10.262300184 23.323999828 0.0
400 1 15.37989613 23.323999828 0.0
401 1 17.938699078 24.781749725 0.0
402 1 23.056295789 24.781749725 0.0
403 1 19.704785569 24.781749725 0.0
404 1 24.822382281 24.781749725 0.0
405 1 22.208771959 23.323999828 0.0
406 1 20.552306339 23.323999828 0.0
407 1 18.821740793 23.323999828 0.0
408 1 23.939339035 23.323999828 0.0
409 1 26.498138921 24.781749725 0.0
410 1 31.615735633 24.781749725 0.0
411 1 28.264225413 24.781749725 0.0
412 1 33.381825186 24.781749725 0.0
413 1 30.768213333 23.323999828 0.0
414 1 29.111750774 23.323999828 0.0
415 1 27.381182167 23.323999828 0.0
416 1 32.498778879 23.323999828 0.0
417 1 35.057581826 24.781749725 0.0
418 1 40.175178538 24.781749725 0.0
419 1 36.823668318 24.781749725 0.0
420 1 41.941265029 24.781749725 0.0
421 1 39.327656238 23.323999828 0.0
422 1 37.671190618 23.323999828 0.0
423 1 35.940628133 23.323999828 0.0
424 1 41.058221783 23.323999828 0.0
425 1 43.61702167 24.781749725 0.0
426 1 48.734621442 24.781749725 0.0
427 1 45.383108161 24.781749725 0.0
428 1 50.500707934 24.781749725 0.0
429 1 47.887099142 23.323999828 0.0
430 1 46.230633522 23.323999828 0.0
431 1 44.500067977 23.323999828 0.0
432 1 49.617664688 23.323999828 0.0
433 1 0.81981499 27.697249519 0.0
434 1 5.937410745 27.697249519 0.0
435 1 2.585901482 27.697249519 0.0
436 1 7.703498002 27.697249519 0.0
437 1 5.089889593 26.239501099 0.0
438 1 3.433423208 26.239501099 0.0
439 1 1.702858236 26.239501099 0.0
440 1 6.820454756 26.239501099 0.0
441 1 9.379256173 27.697249519 0.0
442 1 14.496852885 27.697249519 0.0
443 1 11.14534343 27.697249519 0.0
444 1 16.262939376 27.697249519 0.0
445 1 13.649330585 26.239501099 0.0
446 1 11.99286573 26.239501099 0.0
447 1 10.262300184 26.239501099 0.0
448 1 15.37989613 26.239501099 0.0
449 1 17.938699078 27.697249519 0.0
450 1 23.056295789 27.697249519 0.0
451 1 19.704785569 27.697249519 0.0
452 1 24.822382281 27.697249519 0.0
453 1 22.208771959 26.239501099 0.0
454 1 20.552306339 26.239501099 0.0
455 1 18.821740793 26.239501099 0.0
456 1 23.939339035 26.239501099 0.0
457 1 26.498138921 27.697249519 0.0
458 1 31.615735633 27.697249519 0.0
459 1 28.264225413 27.697249519 0.0
460 1 33.381825186 27.697249519 0.0
461 1 30.768213333 26.239501099 0.0
462 1 29.111750774 26.239501099 0.0
463 1 27.381182167 26.239501099 0.0
464 1 32.498778879 26.239501099 0.0
465 1 35.057581826 27.697249519 0.0
466 1 40.175178538 27.697249519 0.0
467 1 36.823668318 27.697249519 0.0
468 1 41.941265029 27.697249519 0.0
469 1 39.327656238 26.239501099 0.0
470 1 37.671190618 26.239501099 0.0
471 1 35.940628133 26.239501099 0.0
472 1 41.058221783 26.239501099 0.0
473 1 43.61702167 27.697249519 0.0
474 1 48.734621442 27.697249519 0.0
475 1 45.383108161 27.697249519 0.0
476 1 50.500707934 27.697249519 0.0
477 1 47.887099142 26.239501099 0.0
478 1 46.230633522 26.239501099 0.0
479 1 44.500067977 26.239501099 0.0
480 1 49.617664688 26.239501099 0.0
481 1 0.81981499 30.612749313 0.0
482 1 5.937410745 30.612749313 0.0
483 1 2.585901482 30.612749313 0.0
484 1 7.703498002 30.612749313 0.0
485 1 5.089889593 29.155000893 0.0
486 1 3.433423208 29.155000893 0.0
487 1 1.702858236 29.155000893 0.0
488 1 6.820454756 29.155000893 0.0
489 1 9.379256173 30.612749313 0.0
490 1 14.496852885 30.612749313 0.0
491 1 11.14534343 30.612749313 0.0
492 1 16.262939376 30.612749313 0.0
493 1 13.649330585 29.155000893 0.0
494 1 11.99286573 29.155000893 0.0
495 1 10.262300184 29.155000893 0.0
496 1 15.37989613 29.155000893 0.0
497 1 17.938699078 30.612749313 0.0
498 1 23.056295789 30.612749313 0.0
499 1 19.704785569 30.612749313 0.0
500 1 24.822382281 30.612749313 0.0
501 1 22.208771959 29.155000893 0.0
502 1 20.552306339 29.155000893 0.0
503 1 18.821740793 29.155000893 0.0
504 1 23.939339035 29.155000893 0.0
505 1 26.498138921 30.612749313 0.0
506 1 31.615735633 30.612749313 0.0
507 1 28.264225413 30.612749313 0.0
508 1 33.381825186 30.612749313 0.0
509 1 30.768213333 29.155000893 0.0
510 1 29.111750774 29.155000893 0.0
511 1 27.381182167 29.155000893 0.0
512 1 32.498778879 29.155000893 0.0
513 1 35.057581826 30.612749313 0.0
514 1 40.175178538 30.612749313 0.0
515 1 36.823668318 30.612749313 0.0
516 1 41.941265029 30.612749313 0.0
517 1 39.327656238 29.155000893 0.0
518 1 37.671190618 29.155000893 0.0
519 1 35.940628133 29.155000893 0.0
520 1 41.058221783 29.155000893 0.0
521 1 43.61702167 30.612749313 0.0
522 1 48.734621442 30.612749313 0.0
523 1 45.383108161 30.612749313 0.0
524 1 50.500707934 30.612749313 0.0
525 1 47.887099142 29.155000893 0.0
526 1 46.230633522 29.155000893 0.0
527 1 44.500067977 29.155000893 0.0
528 1 49.617664688 29.155000893 0.0
529 1 0.81981499 33.528252061 0.0
530 1 5.937410745 33.528252061 0.0
531 1 2.585901482 33.528252061 0.0
532 1 7.703498002 33.528252061 0.0
533 1 5.089889593 32.070497733 0.0
534 1 3.433423208 32.070497733 0.0
535 1 1.702858236 32.070497733 0.0
536 1 6.820454756 32.070497733 0.0
537 1 9.379256173 33.528252061 0.0
538 1 14.496852885 33.528252061 0.0
539 1 11.14534343 33.528252061 0.0
540 1 16.262939376 33.528252061 0.0
541 1 13.649330585 32.070497733 0.0
542 1 11.99286573 32.070497733 0.0
543 1 10.262300184 32.070497733 0.0
544 1 15.37989613 32.070497733 0.0
545 1 17.938699078 33.528252061 0.0
546 1 23.056295789 33.528252061 0.0
547 1 19.704785569 33.528252061 0.0
548 1 24.822382281 33.528252061 0.0
549 1 22.208771959 32.070497733 0.0
550 1 20.552306339 32.070497733 0.0
551 1 18.821740793 32.070497733 0.0
552 1 23.939339035 32.070497733 0.0
553 1 26.498138921 33.528252061 0.0
554 1 31.615735633 33.528252061 0.0
555 1 28.264225413 33.528252061 0.0
556 1 33.381825186 33.528252061 0.0
557 1 30.768213333 32.070497733 0.0
558 1 29.111750774 32.070497733 0.0
559 1 27.381182167 32.070497733 0.0
560 1 32.498778879 32.070497733 0.0
561 1 35.057581826 33.528252061 0.0
562 1 40.175178538 33.528252061 0.0
563 1 36.823668318 33.528252061 0.0
564 1 41.941265029 33.528252061 0.0
565 1 39.327656238 32.070497733 0.0
566 1 37.671190618 32.070497733 0.0
567 1 35.940628133 32.070497733 0.0
568 1 41.058221783 32.070497733 0.0
569 1 43.61702167 33.528252061 0.0
570 1 48.734621442 33.528252061 0.0
571 1 45.383108161 33.528252061 0.0
572 1 50.500707934 33.528252061 0.0
573 1 47.887099142 32.070497733 0.0
574 1 46.230633522 32.070497733 0.0
575 1 44.500067977 32.070497733 0.0
576 1 49.617664688 32.070497733 0.0
577 1 0.81981499 36.443748901 0.0
578 1 5.937410745 36.443748901 0.0
579 1 2.585901482 36.443748901 0.0
580 1 7.703498002 36.443748901 0.0
581 1 5.089889593 34.986000481 0.0
582 1 3.433423208 34.986000481 0.0
583 1 1.702858236 34.986000481 0.0
584 1 6.820454756 34.986000481 0.0
585 1 9.379256173 36.443748901 0.0
586 1 14.496852885 36.443748901 0.0
587 1 11.14534343 36.443748901 0.0
588 1 16.262939376 36.443748901 0.0
589 1 13.649330585 34.986000481 0.0
590 1 11.99286573 34.986000481 0.0
591 1 10.262300184 34.986000481 0.0
592 1 15.37989613 34.986000481 0.0
593 1 17.938699078 36.443748901 0.0
594 1 23.056295789 36.443748901 0.0
595 1 19.704785569 36.443748901 0.0
596 1 24.822382281 36.443748901 0.0
597 1 22.208771959 34.986000481 0.0
598 1 20.552306339 34.986000481 0.0
599 1 18.821740793 34.986000481 0.0
600 1 23.939339035 34.986000481 0.0
601 1 26.498138921 36.443748901 0.0
602 1 31.615735633 36.443748901 0.0
603 1 28.264225413 36.443748901 0.0
604 1 33.381825186 36.443748901 0.0
605 1 30.768213333 34.986000481 0.0
606 1 29.111750774 34.986000481 0.0
607 1 27.381182167 34.986000481 0.0
608 1 32.498778879 34.986000481 0.0
609 1 35.057581826 36.443748901 0.0
610 1 40.175178538 36.443748901 0.0
611 1 36.823668318 36.443748901 0.0
612 1 41.941265029 36.443748901 0.0
613 1 39.327656238 34.986000481 0.0
614 1 37.671190618 34.986000481 0.0
615 1 35.940628133 34.986000481 0.0
616 1 41.058221783 34.986000481 0.0
617 1 43.61702167 36.443748901 0.0
618 1 48.734621442 36.443748901 0.0
619 1 45.383108161 36.443748901 0.0
620 1 50.500707934 36.443748901 0.0
621 1 47.887099142 34.986000481 0.0
622 1 46.230633522 34.986000481 0.0
623 1 44.500067977 34.986000481 0.0
624 1 49.617664688 34.986000481 0.0
625 1 0.81981499 39.359248695 0.0
626 1 5.937410745 39.359248695 0.0
627 1 2.585901482 39.359248695 0.0
628 1 7.703498002 39.359248695 0.0
629 1 5.089889593 37.901500275 0.0
630 1 3.433423208 37.901500275 0.0
631 1 1.702858236 37.901500275 0.0
632 1 6.820454756 37.901500275 0.0
633 1 9.379256173 39.359248695 0.0
634 1 14.496852885 39.359248695 0.0
635 1 11.14534343 39.359248695 0.0
636 1 16.262939376 39.359248695 0.0
637 1 13.649330585 37.901500275 0.0
638 1 11.99286573 37.901500275 0.0
639 1 10.262300184 37.901500275 0.0
640 1 15.37989613 37.901500275 0.0
641 1 17.938699078 39.359248695 0.0
642 1 23.056295789 39.359248695 0.0
643 1 19.704785569 39.359248695 0.0
644 1 24.822382281 39.359248695 0.0
645 1 22.208771959 37.901500275 0.0
646 1 20.552306339 37.901500275 0.0
647 1 18.821740793 37.901500275 0.0
648 1 23.939339035 37.901500275 0.0
649 1 26.498138921 39.359248695 0.0
650 1 31.615735633 39.359248695 0.0
651 1 28.264225413 39.359248695 0.0
652 1 33.381825186 39.359248695 0.0
653 1 30.768213333 37.901500275 0.0
654 1 29.111750774 37.901500275 0.0
655 1 27.381182167 37.901500275 0.0
656 1 32.498778879 37.901500275 0.0
657 1 35.057581826 39.359248695 0.0
658 1 40.175178538 39.359248695 0.0
659 1 36.823668318 39.359248695 0.0
660 1 41.941265029 39.359248695 0.0
661 1 39.327656238 37.901500275 0.0
662 1 37.671190618 37.901500275 0.0
663 1 35.940628133 37.901500275 0.0
664 1 41.058221783 37.901500275 0.0
665 1 43.61702167 39.359248695 0.0
666 1 48.734621442 39.359248695 0.0
667 1 45.383108161 39.359248695 0.0
668 1 50.500707934 39.359248695 0.0
669 1 47.887099142 37.901500275 0.0
670 1 46.230633522 37.901500275 0.0
671 1 44.500067977 37.901500275 0.0
672 1 49.617664688 37.901500275 0.0
673 1 0.81981499 42.274748489 0.0
674 1 5.937410745 42.274748489 0.0
675 1 2.585901482 42.274748489 0.0
676 1 7.703498002 42.274748489 0.0
677 1 5.089889593 40.817000069 0.0
678 1 3.433423208 40.817000069 0.0
679 1 1.702858236 40.817000069 0.0
680 1 6.820454756 40.817000069 0.0
681 1 9.379256173 42.274748489 0.0
682 1 14.496852885 42.274748489 0.0
683 1 11.14534343 42.274748489 0.0
684 1 16.262939376 42.274748489 0.0
685 1 13.649330585 40.817000069 0.0
686 1 11.99286573 40.817000069 0.0
687 1 10.262300184 40.817000069 0.0
688 1 15.37989613 40.817000069 0.0
689 1 17.938699078 42.274748489 0.0
690 1 23.056295789 42.274748489 0.0
691 1 19.704785569 42.274748489 0.0
692 1 24.822382281 42.274748489 0.0
693 1 22.208771959 40.817000069 0.0
694 1 20.552306339 40.817000069 0.0
695 1 18.821740793 40.817000069 0.0
696 1 23.939339035 40.817000069 0.0
697 1 26.498138921 42.274748489 0.0
698 1 31.615735633 42.274748489 0.0
699 1 28.264225413 42.274748489 0.0
700 1 33.381825186 42.274748489 0.0
701 1 30.768213333 40.817000069 0.0
702 1 29.111750774 40.817000069 0.0
703 1 27.381182167 40.817000069 0.0
704 1 32.498778879 40.817000069 0.0
705 1 35.057581826 42.274748489 0.0
706 1 40.175178538 42.274748489 0.0
707 1 36.823668318 42.274748489 0.0
708 1 41.941265029 42.274748489 0.0
709 1 39.327656238 40.817000069 0.0
710 1 37.671190618 40.817000069 0.0
711 1 35.940628133 40.817000069 0.0
712 1 41.058221783 40.817000069 0.0
713 1 43.61702167 42.274748489 0.0
714 1 48.734621442 42.274748489 0.0
715 1 45.383108161 42.274748489 0.0
716 1 50.500707934 42.274748489 0.0
717 1 47.887099142 40.817000069 0.0
718 1 46.230633522 40.817000069 0.0
719 1 44.500067977 40.817000069 0.0
720 1 49.617664688 40.817000069 0.0
721 1 0.81981499 45.190251237 0.0
722 1 5.937410745 45.190251237 0.0
723 1 2.585901482 45.190251237 0.0
724 1 7.703498002 45.190251237 0.0
725 1 5.089889593 43.732496909 0.0
726 1 3.433423208 43.732496909 0.0
727 1 1.702858236 43.732496909 0.0
728 1 6.820454756 43.732496909 0.0
729 1 9.379256173 45.190251237 0.0
730 1 14.496852885 45.190251237 0.0
731 1 11.14534343 45.190251237 0.0
732 1 16.262939376 45.190251237 0.0
733 1 13.649330585 43.732496909 0.0
734 1 11.99286573 43.732496909 0.0
735 1 10.262300184 43.732496909 0.0
736 1 15.37989613 43.732496909 0.0
737 1 17.938699078 45.190251237 0.0
738 1 23.056295789 45.190251237 0.0
739 1 19.704785569 45.190251237 0.0
740 1 24.822382281 45.190251237 0.0
741 1 22.208771959 43.732496909 0.0
742 1 20.552306339 43.732496909 0.0
743 1 18.821740793 43.732496909 0.0
744 1 23.939339035 43.732496909 0.0
745 1 26.498138921 45.190251237 0.0
746 1 31.615735633 45.190251237 0.0
747 1 28.264225413 45.190251237 0.0
748 1 33.381825186 45.190251237 0.0
749 1 30.768213333 43.732496909 0.0
750 1 29.111750774 43.732496909 0.0
751 1 27.381182167 43.732496909 0.0
752 1 32.498778879 43.732496909 0.0
753 1 35.057581826 45.190251237 0.0
754 1 40.175178538 45.190251237 0.0
755 1 36.823668318 45.190251237 0.0
756 1 41.941265029 45.190251237 0.0
757 1 39.327656238 43.732496909 0.0
758 1 37.671190618 43.732496909 0.0
759 1 35.940628133 43.732496909 0.0
760 1 41.058221783 43.732496909 0.0
761 1 43.61702167 45.190251237 0.0
762 1 48.734621442 45.190251237 0.0
763 1 45.383108161 45.190251237 0.0
764 1 50.500707934 45.190251237 0.0
765 1 47.887099142 43.732496909 0.0
766 1 46.230633522 43.732496909 0.0
767 1 44.500067977 43.732496909 0.0
768 1 49.617664688 43.732496909 0.0
769 1 0.81981499 48.105751031 0.0
770 1 5.937410745 48.105751031 0.0
771 1 2.585901482 48.105751031 0.0
772 1 7.703498002 48.105751031 0.0
773 1 5.089889593 46.647999657 0.0
774 1 3.433423208 46.647999657 0.0
775 1 1.702858236 46.647999657 0.0
776 1 6.820454756 46.647999657 0.0
777 1 9.379256173 48.105751031 0.0
778 1 14.496852885 48.105751031 0.0
779 1 11.14534343 48.105751031 0.0
780 1 16.262939376 48.105751031 0.0
781 1 13.649330585 46.647999657 0.0
782 1 11.99286573 46.647999657 0.0
783 1 10.262300184 46.647999657 0.0
784 1 15.37989613 46.647999657 0.0
785 1 17.938699078 48.105751031 0.0
786 1 23.056295789 48.105751031 0.0
787 1 19.704785569 48.105751031 0.0
788 1 24.822382281 48.105751031 0.0
789 1 22.208771959 46.647999657 0.0
790 1 20.552306339 46.647999657 0.0
791 1 18.821740793 46.647999657 0.0
792 1 23.939339035 46.647999657 0.0
793 1 26.498138921 48.105751031 0.0
794 1 31.615735633 48.105751031 0.0
795 1 28.264225413 48.105751031 0.0
796 1 33.381825186 48.105751031 0.0
797 1 30.768213333 46.647999657 0.0
798 1 29.111750774 46.647999657 0.0
799 1 27.381182167 46.647999657 0.0
800 1 32.498778879 46.647999657 0.0
801 1 35.057581826 48.105751031 0.0
802 1 40.175178538 48.105751031 0.0
803 1 36.823668318 48.105751031 0.0
804 1 41.941265029 48.105751031 0.0
805 1 39.327656238 46.647999657 0.0
806 1 37.671190618 46.647999657 0.0
807 1 35.940628133 46.647999657 0.0
808 1 41.058221783 46.647999657 0.0
809 1 43.61702167 48.105751031 0.0
810 1 48.734621442 48.105751031 0.0
811 1 45.383108161 48.105751031 0.0
812 1 50.500707934 48.105751031 0.0
813 1 47.887099142 46.647999657 0.0
814 1 46.230633522 46.647999657 0.0
815 1 44.500067977 46.647999657 0.0
816 1 49.617664688 46.647999657 0.0
