# LAMMPS data file written by OVITO Basic 3.8.4

540 atoms
1 atom types

0.0 99.5066528321 xlo xhi
0.0 50.0389480591 ylo yhi
0.0 25.0 zlo zhi

Masses

1 12.0107  # C

Atoms  # atomic

1 1 0.0 3.7065884 0.0
2 1 1.604999776 0.926647286 0.0
3 1 0.0 1.853294573 0.0
4 1 1.604999776 4.63323578 0.0
5 1 3.210000269 3.7065884 0.0
6 1 4.815000224 0.926647286 0.0
7 1 3.210000269 1.853294573 0.0
8 1 4.815000224 4.63323578 0.0
9 1 6.420000538 3.7065884 0.0
10 1 8.025000493 0.926647286 0.0
11 1 6.420000538 1.853294573 0.0
12 1 8.025000493 4.63323578 0.0
13 1 9.630000449 3.7065884 0.0
14 1 11.234999686 0.926647286 0.0
15 1 9.630000449 1.853294573 0.0
16 1 11.234999686 4.63323578 0.0
17 1 12.840001077 3.7065884 0.0
18 1 14.444999597 0.926647286 0.0
19 1 12.840001077 1.853294573 0.0
20 1 14.444999597 4.63323578 0.0
21 1 16.049999552 3.7065884 0.0
22 1 17.655000942 0.926647286 0.0
23 1 16.049999552 1.853294573 0.0
24 1 17.655000942 4.63323578 0.0
25 1 19.260000897 3.7065884 0.0
26 1 20.865000853 0.926647286 0.0
27 1 19.260000897 1.853294573 0.0
28 1 20.865000853 4.63323578 0.0
29 1 22.469999373 3.7065884 0.0
30 1 24.075000763 0.926647286 0.0
31 1 22.469999373 1.853294573 0.0
32 1 24.075000763 4.63323578 0.0
33 1 25.680002153 3.7065884 0.0
34 1 27.285000673 0.926647286 0.0
35 1 25.680002153 1.853294573 0.0
36 1 27.285000673 4.63323578 0.0
37 1 28.889999194 3.7065884 0.0
38 1 30.495000584 0.926647286 0.0
39 1 28.889999194 1.853294573 0.0
40 1 30.495000584 4.63323578 0.0
41 1 32.099999104 3.7065884 0.0
42 1 33.705003364 0.926647286 0.0
43 1 32.099999104 1.853294573 0.0
44 1 33.705003364 4.63323578 0.0
45 1 35.310001884 3.7065884 0.0
46 1 36.915003274 0.926647286 0.0
47 1 35.310001884 1.853294573 0.0
48 1 36.915003274 4.63323578 0.0
49 1 38.520001795 3.7065884 0.0
50 1 40.125000315 0.926647286 0.0
51 1 38.520001795 1.853294573 0.0
52 1 40.125000315 4.63323578 0.0
53 1 41.730001705 3.7065884 0.0
54 1 43.335000225 0.926647286 0.0
55 1 41.730001705 1.853294573 0.0
56 1 43.335000225 4.63323578 0.0
57 1 44.939998746 3.7065884 0.0
58 1 46.545003006 0.926647286 0.0
59 1 44.939998746 1.853294573 0.0
60 1 46.545003006 4.63323578 0.0
61 1 0.0 9.266471559 0.0
62 1 1.604999776 6.486530166 0.0
63 1 0.0 7.413177545 0.0
64 1 1.604999776 10.193118939 0.0
65 1 3.210000269 9.266471559 0.0
66 1 4.815000224 6.486530166 0.0
67 1 3.210000269 7.413177545 0.0
68 1 4.815000224 10.193118939 0.0
69 1 6.420000538 9.266471559 0.0
70 1 8.025000493 6.486530166 0.0
71 1 6.420000538 7.413177545 0.0
72 1 8.025000493 10.193118939 0.0
73 1 9.630000449 9.266471559 0.0
74 1 11.234999686 6.486530166 0.0
75 1 9.630000449 7.413177545 0.0
76 1 11.234999686 10.193118939 0.0
77 1 12.840001077 9.266471559 0.0
78 1 14.444999597 6.486530166 0.0
79 1 12.840001077 7.413177545 0.0
80 1 14.444999597 10.193118939 0.0
81 1 16.049999552 9.266471559 0.0
82 1 17.655000942 6.486530166 0.0
83 1 16.049999552 7.413177545 0.0
84 1 17.655000942 10.193118939 0.0
85 1 19.260000897 9.266471559 0.0
86 1 20.865000853 6.486530166 0.0
87 1 19.260000897 7.413177545 0.0
88 1 20.865000853 10.193118939 0.0
89 1 22.469999373 9.266471559 0.0
90 1 24.075000763 6.486530166 0.0
91 1 22.469999373 7.413177545 0.0
92 1 24.075000763 10.193118939 0.0
93 1 25.680002153 9.266471559 0.0
94 1 27.285000673 6.486530166 0.0
95 1 25.680002153 7.413177545 0.0
96 1 27.285000673 10.193118939 0.0
97 1 28.889999194 9.266471559 0.0
98 1 30.495000584 6.486530166 0.0
99 1 28.889999194 7.413177545 0.0
100 1 30.495000584 10.193118939 0.0
101 1 32.099999104 9.266471559 0.0
102 1 33.705003364 6.486530166 0.0
103 1 32.099999104 7.413177545 0.0
104 1 33.705003364 10.193118939 0.0
105 1 35.310001884 9.266471559 0.0
106 1 36.915003274 6.486530166 0.0
107 1 35.310001884 7.413177545 0.0
108 1 36.915003274 10.193118939 0.0
109 1 38.520001795 9.266471559 0.0
110 1 40.125000315 6.486530166 0.0
111 1 38.520001795 7.413177545 0.0
112 1 40.125000315 10.193118939 0.0
113 1 41.730001705 9.266471559 0.0
114 1 43.335000225 6.486530166 0.0
115 1 41.730001705 7.413177545 0.0
116 1 43.335000225 10.193118939 0.0
117 1 44.939998746 9.266471559 0.0
118 1 46.545003006 6.486530166 0.0
119 1 44.939998746 7.413177545 0.0
120 1 46.545003006 10.193118939 0.0
121 1 0.0 14.826355091 0.0
122 1 1.604999776 12.046413698 0.0
123 1 0.0 12.973060332 0.0
124 1 1.604999776 15.753001725 0.0
125 1 3.210000269 14.826355091 0.0
126 1 4.815000224 12.046413698 0.0
127 1 3.210000269 12.973060332 0.0
128 1 4.815000224 15.753001725 0.0
129 1 6.420000538 14.826355091 0.0
130 1 8.025000493 12.046413698 0.0
131 1 6.420000538 12.973060332 0.0
132 1 8.025000493 15.753001725 0.0
133 1 9.630000449 14.826355091 0.0
134 1 11.234999686 12.046413698 0.0
135 1 9.630000449 12.973060332 0.0
136 1 11.234999686 15.753001725 0.0
137 1 12.840001077 14.826355091 0.0
138 1 14.444999597 12.046413698 0.0
139 1 12.840001077 12.973060332 0.0
140 1 14.444999597 15.753001725 0.0
141 1 16.049999552 14.826355091 0.0
142 1 17.655000942 12.046413698 0.0
143 1 16.049999552 12.973060332 0.0
144 1 17.655000942 15.753001725 0.0
145 1 19.260000897 14.826355091 0.0
146 1 20.865000853 12.046413698 0.0
147 1 19.260000897 12.973060332 0.0
148 1 20.865000853 15.753001725 0.0
149 1 22.469999373 14.826355091 0.0
150 1 24.075000763 12.046413698 0.0
151 1 22.469999373 12.973060332 0.0
152 1 24.075000763 15.753001725 0.0
153 1 25.680002153 14.826355091 0.0
154 1 27.285000673 12.046413698 0.0
155 1 25.680002153 12.973060332 0.0
156 1 27.285000673 15.753001725 0.0
157 1 28.889999194 14.826355091 0.0
158 1 30.495000584 12.046413698 0.0
159 1 28.889999194 12.973060332 0.0
160 1 30.495000584 15.753001725 0.0
161 1 32.099999104 14.826355091 0.0
162 1 33.705003364 12.046413698 0.0
163 1 32.099999104 12.973060332 0.0
164 1 33.705003364 15.753001725 0.0
165 1 35.310001884 14.826355091 0.0
166 1 36.915003274 12.046413698 0.0
167 1 35.310001884 12.973060332 0.0
168 1 36.915003274 15.753001725 0.0
169 1 38.520001795 14.826355091 0.0
170 1 40.125000315 12.046413698 0.0
171 1 38.520001795 12.973060332 0.0
172 1 40.125000315 15.753001725 0.0
173 1 41.730001705 14.826355091 0.0
174 1 43.335000225 12.046413698 0.0
175 1 41.730001705 12.973060332 0.0
176 1 43.335000225 15.753001725 0.0
177 1 44.939998746 14.826355091 0.0
178 1 46.545003006 12.046413698 0.0
179 1 44.939998746 12.973060332 0.0
180 1 46.545003006 15.753001725 0.0
181 1 0.0 20.386237877 0.0
182 1 1.604999776 17.606296484 0.0
183 1 0.0 18.532943118 0.0
184 1 1.604999776 21.312886002 0.0
185 1 3.210000269 20.386237877 0.0
186 1 4.815000224 17.606296484 0.0
187 1 3.210000269 18.532943118 0.0
188 1 4.815000224 21.312886002 0.0
189 1 6.420000538 20.386237877 0.0
190 1 8.025000493 17.606296484 0.0
191 1 6.420000538 18.532943118 0.0
192 1 8.025000493 21.312886002 0.0
193 1 9.630000449 20.386237877 0.0
194 1 11.234999686 17.606296484 0.0
195 1 9.630000449 18.532943118 0.0
196 1 11.234999686 21.312886002 0.0
197 1 12.840001077 20.386237877 0.0
198 1 14.444999597 17.606296484 0.0
199 1 12.840001077 18.532943118 0.0
200 1 14.444999597 21.312886002 0.0
201 1 16.049999552 20.386237877 0.0
202 1 17.655000942 17.606296484 0.0
203 1 16.049999552 18.532943118 0.0
204 1 17.655000942 21.312886002 0.0
205 1 19.260000897 20.386237877 0.0
206 1 20.865000853 17.606296484 0.0
207 1 19.260000897 18.532943118 0.0
208 1 20.865000853 21.312886002 0.0
209 1 22.469999373 20.386237877 0.0
210 1 24.075000763 17.606296484 0.0
211 1 22.469999373 18.532943118 0.0
212 1 24.075000763 21.312886002 0.0
213 1 25.680002153 20.386237877 0.0
214 1 27.285000673 17.606296484 0.0
215 1 25.680002153 18.532943118 0.0
216 1 27.285000673 21.312886002 0.0
217 1 28.889999194 20.386237877 0.0
218 1 30.495000584 17.606296484 0.0
219 1 28.889999194 18.532943118 0.0
220 1 30.495000584 21.312886002 0.0
221 1 32.099999104 20.386237877 0.0
222 1 33.705003364 17.606296484 0.0
223 1 32.099999104 18.532943118 0.0
224 1 33.705003364 21.312886002 0.0
225 1 35.310001884 20.386237877 0.0
226 1 36.915003274 17.606296484 0.0
227 1 35.310001884 18.532943118 0.0
228 1 36.915003274 21.312886002 0.0
229 1 38.520001795 20.386237877 0.0
230 1 40.125000315 17.606296484 0.0
231 1 38.520001795 18.532943118 0.0
232 1 40.125000315 21.312886002 0.0
233 1 41.730001705 20.386237877 0.0
234 1 43.335000225 17.606296484 0.0
235 1 41.730001705 18.532943118 0.0
236 1 43.335000225 21.312886002 0.0
237 1 44.939998746 20.386237877 0.0
238 1 46.545003006 17.606296484 0.0
239 1 44.939998746 18.532943118 0.0
240 1 46.545003006 21.312886002 0.0
241 1 0.0 25.946120663 0.0
242 1 1.604999776 23.16617927 0.0
243 1 0.0 24.092827396 0.0
244 1 1.604999776 26.872767297 0.0
245 1 3.210000269 25.946120663 0.0
246 1 4.815000224 23.16617927 0.0
247 1 3.210000269 24.092827396 0.0
248 1 4.815000224 26.872767297 0.0
249 1 6.420000538 25.946120663 0.0
250 1 8.025000493 23.16617927 0.0
251 1 6.420000538 24.092827396 0.0
252 1 8.025000493 26.872767297 0.0
253 1 9.630000449 25.946120663 0.0
254 1 11.234999686 23.16617927 0.0
255 1 9.630000449 24.092827396 0.0
256 1 11.234999686 26.872767297 0.0
257 1 12.840001077 25.946120663 0.0
258 1 14.444999597 23.16617927 0.0
259 1 12.840001077 24.092827396 0.0
260 1 14.444999597 26.872767297 0.0
261 1 16.049999552 25.946120663 0.0
262 1 17.655000942 23.16617927 0.0
263 1 16.049999552 24.092827396 0.0
264 1 17.655000942 26.872767297 0.0
265 1 19.260000897 25.946120663 0.0
266 1 20.865000853 23.16617927 0.0
267 1 19.260000897 24.092827396 0.0
268 1 20.865000853 26.872767297 0.0
269 1 22.469999373 25.946120663 0.0
270 1 24.075000763 23.16617927 0.0
271 1 22.469999373 24.092827396 0.0
272 1 24.075000763 26.872767297 0.0
273 1 25.680002153 25.946120663 0.0
274 1 27.285000673 23.16617927 0.0
275 1 25.680002153 24.092827396 0.0
276 1 27.285000673 26.872767297 0.0
277 1 28.889999194 25.946120663 0.0
278 1 30.495000584 23.16617927 0.0
279 1 28.889999194 24.092827396 0.0
280 1 30.495000584 26.872767297 0.0
281 1 32.099999104 25.946120663 0.0
282 1 33.705003364 23.16617927 0.0
283 1 32.099999104 24.092827396 0.0
284 1 33.705003364 26.872767297 0.0
285 1 35.310001884 25.946120663 0.0
286 1 36.915003274 23.16617927 0.0
287 1 35.310001884 24.092827396 0.0
288 1 36.915003274 26.872767297 0.0
289 1 38.520001795 25.946120663 0.0
290 1 40.125000315 23.16617927 0.0
291 1 38.520001795 24.092827396 0.0
292 1 40.125000315 26.872767297 0.0
293 1 41.730001705 25.946120663 0.0
294 1 43.335000225 23.16617927 0.0
295 1 41.730001705 24.092827396 0.0
296 1 43.335000225 26.872767297 0.0
297 1 44.939998746 25.946120663 0.0
298 1 46.545003006 23.16617927 0.0
299 1 44.939998746 24.092827396 0.0
300 1 46.545003006 26.872767297 0.0
301 1 0.0 31.50600345 0.0
302 1 1.604999776 28.726063548 0.0
303 1 0.0 29.652710182 0.0
304 1 1.604999776 32.432653066 0.0
305 1 3.210000269 31.50600345 0.0
306 1 4.815000224 28.726063548 0.0
307 1 3.210000269 29.652710182 0.0
308 1 4.815000224 32.432653066 0.0
309 1 6.420000538 31.50600345 0.0
310 1 8.025000493 28.726063548 0.0
311 1 6.420000538 29.652710182 0.0
312 1 8.025000493 32.432653066 0.0
313 1 9.630000449 31.50600345 0.0
314 1 11.234999686 28.726063548 0.0
315 1 9.630000449 29.652710182 0.0
316 1 11.234999686 32.432653066 0.0
317 1 12.840001077 31.50600345 0.0
318 1 14.444999597 28.726063548 0.0
319 1 12.840001077 29.652710182 0.0
320 1 14.444999597 32.432653066 0.0
321 1 16.049999552 31.50600345 0.0
322 1 17.655000942 28.726063548 0.0
323 1 16.049999552 29.652710182 0.0
324 1 17.655000942 32.432653066 0.0
325 1 19.260000897 31.50600345 0.0
326 1 20.865000853 28.726063548 0.0
327 1 19.260000897 29.652710182 0.0
328 1 20.865000853 32.432653066 0.0
329 1 22.469999373 31.50600345 0.0
330 1 24.075000763 28.726063548 0.0
331 1 22.469999373 29.652710182 0.0
332 1 24.075000763 32.432653066 0.0
333 1 25.680002153 31.50600345 0.0
334 1 27.285000673 28.726063548 0.0
335 1 25.680002153 29.652710182 0.0
336 1 27.285000673 32.432653066 0.0
337 1 28.889999194 31.50600345 0.0
338 1 30.495000584 28.726063548 0.0
339 1 28.889999194 29.652710182 0.0
340 1 30.495000584 32.432653066 0.0
341 1 32.099999104 31.50600345 0.0
342 1 33.705003364 28.726063548 0.0
343 1 32.099999104 29.652710182 0.0
344 1 33.705003364 32.432653066 0.0
345 1 35.310001884 31.50600345 0.0
346 1 36.915003274 28.726063548 0.0
347 1 35.310001884 29.652710182 0.0
348 1 36.915003274 32.432653066 0.0
349 1 38.520001795 31.50600345 0.0
350 1 40.125000315 28.726063548 0.0
351 1 38.520001795 29.652710182 0.0
352 1 40.125000315 32.432653066 0.0
353 1 41.730001705 31.50600345 0.0
354 1 43.335000225 28.726063548 0.0
355 1 41.730001705 29.652710182 0.0
356 1 43.335000225 32.432653066 0.0
357 1 44.939998746 31.50600345 0.0
358 1 46.545003006 28.726063548 0.0
359 1 44.939998746 29.652710182 0.0
360 1 46.545003006 32.432653066 0.0
361 1 0.0 37.065886236 0.0
362 1 1.604999776 34.285946334 0.0
363 1 0.0 35.212592968 0.0
364 1 1.604999776 37.992535853 0.0
365 1 3.210000269 37.065886236 0.0
366 1 4.815000224 34.285946334 0.0
367 1 3.210000269 35.212592968 0.0
368 1 4.815000224 37.992535853 0.0
369 1 6.420000538 37.065886236 0.0
370 1 8.025000493 34.285946334 0.0
371 1 6.420000538 35.212592968 0.0
372 1 8.025000493 37.992535853 0.0
373 1 9.630000449 37.065886236 0.0
374 1 11.234999686 34.285946334 0.0
375 1 9.630000449 35.212592968 0.0
376 1 11.234999686 37.992535853 0.0
377 1 12.840001077 37.065886236 0.0
378 1 14.444999597 34.285946334 0.0
379 1 12.840001077 35.212592968 0.0
380 1 14.444999597 37.992535853 0.0
381 1 16.049999552 37.065886236 0.0
382 1 17.655000942 34.285946334 0.0
383 1 16.049999552 35.212592968 0.0
384 1 17.655000942 37.992535853 0.0
385 1 19.260000897 37.065886236 0.0
386 1 20.865000853 34.285946334 0.0
387 1 19.260000897 35.212592968 0.0
388 1 20.865000853 37.992535853 0.0
389 1 22.469999373 37.065886236 0.0
390 1 24.075000763 34.285946334 0.0
391 1 22.469999373 35.212592968 0.0
392 1 24.075000763 37.992535853 0.0
393 1 25.680002153 37.065886236 0.0
394 1 27.285000673 34.285946334 0.0
395 1 25.680002153 35.212592968 0.0
396 1 27.285000673 37.992535853 0.0
397 1 28.889999194 37.065886236 0.0
398 1 30.495000584 34.285946334 0.0
399 1 28.889999194 35.212592968 0.0
400 1 30.495000584 37.992535853 0.0
401 1 32.099999104 37.065886236 0.0
402 1 33.705003364 34.285946334 0.0
403 1 32.099999104 35.212592968 0.0
404 1 33.705003364 37.992535853 0.0
405 1 35.310001884 37.065886236 0.0
406 1 36.915003274 34.285946334 0.0
407 1 35.310001884 35.212592968 0.0
408 1 36.915003274 37.992535853 0.0
409 1 38.520001795 37.065886236 0.0
410 1 40.125000315 34.285946334 0.0
411 1 38.520001795 35.212592968 0.0
412 1 40.125000315 37.992535853 0.0
413 1 41.730001705 37.065886236 0.0
414 1 43.335000225 34.285946334 0.0
415 1 41.730001705 35.212592968 0.0
416 1 43.335000225 37.992535853 0.0
417 1 44.939998746 37.065886236 0.0
418 1 46.545003006 34.285946334 0.0
419 1 44.939998746 35.212592968 0.0
420 1 46.545003006 37.992535853 0.0
421 1 0.0 42.625772005 0.0
422 1 1.604999776 39.84582912 0.0
423 1 0.0 40.772475754 0.0
424 1 1.604999776 43.552418639 0.0
425 1 3.210000269 42.625772005 0.0
426 1 4.815000224 39.84582912 0.0
427 1 3.210000269 40.772475754 0.0
428 1 4.815000224 43.552418639 0.0
429 1 6.420000538 42.625772005 0.0
430 1 8.025000493 39.84582912 0.0
431 1 6.420000538 40.772475754 0.0
432 1 8.025000493 43.552418639 0.0
433 1 9.630000449 42.625772005 0.0
434 1 11.234999686 39.84582912 0.0
435 1 9.630000449 40.772475754 0.0
436 1 11.234999686 43.552418639 0.0
437 1 12.840001077 42.625772005 0.0
438 1 14.444999597 39.84582912 0.0
439 1 12.840001077 40.772475754 0.0
440 1 14.444999597 43.552418639 0.0
441 1 16.049999552 42.625772005 0.0
442 1 17.655000942 39.84582912 0.0
443 1 16.049999552 40.772475754 0.0
444 1 17.655000942 43.552418639 0.0
445 1 19.260000897 42.625772005 0.0
446 1 20.865000853 39.84582912 0.0
447 1 19.260000897 40.772475754 0.0
448 1 20.865000853 43.552418639 0.0
449 1 22.469999373 42.625772005 0.0
450 1 24.075000763 39.84582912 0.0
451 1 22.469999373 40.772475754 0.0
452 1 24.075000763 43.552418639 0.0
453 1 25.680002153 42.625772005 0.0
454 1 27.285000673 39.84582912 0.0
455 1 25.680002153 40.772475754 0.0
456 1 27.285000673 43.552418639 0.0
457 1 28.889999194 42.625772005 0.0
458 1 30.495000584 39.84582912 0.0
459 1 28.889999194 40.772475754 0.0
460 1 30.495000584 43.552418639 0.0
461 1 32.099999104 42.625772005 0.0
462 1 33.705003364 39.84582912 0.0
463 1 32.099999104 40.772475754 0.0
464 1 33.705003364 43.552418639 0.0
465 1 35.310001884 42.625772005 0.0
466 1 36.915003274 39.84582912 0.0
467 1 35.310001884 40.772475754 0.0
468 1 36.915003274 43.552418639 0.0
469 1 38.520001795 42.625772005 0.0
470 1 40.125000315 39.84582912 0.0
471 1 38.520001795 40.772475754 0.0
472 1 40.125000315 43.552418639 0.0
473 1 41.730001705 42.625772005 0.0
474 1 43.335000225 39.84582912 0.0
475 1 41.730001705 40.772475754 0.0
476 1 43.335000225 43.552418639 0.0
477 1 44.939998746 42.625772005 0.0
478 1 46.545003006 39.84582912 0.0
479 1 44.939998746 40.772475754 0.0
480 1 46.545003006 43.552418639 0.0
481 1 0.0 48.185654791 0.0
482 1 1.604999776 45.405711907 0.0
483 1 0.0 46.332358541 0.0
484 1 1.604999776 49.112301425 0.0
485 1 3.210000269 48.185654791 0.0
486 1 4.815000224 45.405711907 0.0
487 1 3.210000269 46.332358541 0.0
488 1 4.815000224 49.112301425 0.0
489 1 6.420000538 48.185654791 0.0
490 1 8.025000493 45.405711907 0.0
491 1 6.420000538 46.332358541 0.0
492 1 8.025000493 49.112301425 0.0
493 1 9.630000449 48.185654791 0.0
494 1 11.234999686 45.405711907 0.0
495 1 9.630000449 46.332358541 0.0
496 1 11.234999686 49.112301425 0.0
497 1 12.840001077 48.185654791 0.0
498 1 14.444999597 45.405711907 0.0
499 1 12.840001077 46.332358541 0.0
500 1 14.444999597 49.112301425 0.0
501 1 16.049999552 48.185654791 0.0
502 1 17.655000942 45.405711907 0.0
503 1 16.049999552 46.332358541 0.0
504 1 17.655000942 49.112301425 0.0
505 1 19.260000897 48.185654791 0.0
506 1 20.865000853 45.405711907 0.0
507 1 19.260000897 46.332358541 0.0
508 1 20.865000853 49.112301425 0.0
509 1 22.469999373 48.185654791 0.0
510 1 24.075000763 45.405711907 0.0
511 1 22.469999373 46.332358541 0.0
512 1 24.075000763 49.112301425 0.0
513 1 25.680002153 48.185654791 0.0
514 1 27.285000673 45.405711907 0.0
515 1 25.680002153 46.332358541 0.0
516 1 27.285000673 49.112301425 0.0
517 1 28.889999194 48.185654791 0.0
518 1 30.495000584 45.405711907 0.0
519 1 28.889999194 46.332358541 0.0
520 1 30.495000584 49.112301425 0.0
521 1 32.099999104 48.185654791 0.0
522 1 33.705003364 45.405711907 0.0
523 1 32.099999104 46.332358541 0.0
524 1 33.705003364 49.112301425 0.0
525 1 35.310001884 48.185654791 0.0
526 1 36.915003274 45.405711907 0.0
527 1 35.310001884 46.332358541 0.0
528 1 36.915003274 49.112301425 0.0
529 1 38.520001795 48.185654791 0.0
530 1 40.125000315 45.405711907 0.0
531 1 38.520001795 46.332358541 0.0
532 1 40.125000315 49.112301425 0.0
533 1 41.730001705 48.185654791 0.0
534 1 43.335000225 45.405711907 0.0
535 1 41.730001705 46.332358541 0.0
536 1 43.335000225 49.112301425 0.0
537 1 44.939998746 48.185654791 0.0
538 1 46.545003006 45.405711907 0.0
539 1 44.939998746 46.332358541 0.0
540 1 46.545003006 49.112301425 0.0
