LAMMPS (22 Dec 2022)
  using 1 OpenMP thread(s) per MPI task
Loaded 1 plugins from C:\Program Files\LAMMPS 64-bit 23Jun2022\plugins
Loaded 0 plugins from C:\Program Files\LAMMPS 64-bit 23Jun2022-MPI\plugins
Loaded 1 plugins from C:\Program Files\LAMMPS 64-bit 22Dec2022-MSMPI\plugins
Loaded 1 plugins from C:\Program Files\LAMMPS 64-bit 28Mar2023-MPI\plugins
#------------------------------------------------------------------------------------------
# LAMMPS 64-bit 22Dec2022-MSMPI
#------------------------------------------------------------------------------------------
clear
  using 1 OpenMP thread(s) per MPI task
Loaded 1 plugins from C:\Program Files\LAMMPS 64-bit 23Jun2022\plugins
Loaded 0 plugins from C:\Program Files\LAMMPS 64-bit 23Jun2022-MPI\plugins
Loaded 1 plugins from C:\Program Files\LAMMPS 64-bit 22Dec2022-MSMPI\plugins
Loaded 1 plugins from C:\Program Files\LAMMPS 64-bit 28Mar2023-MPI\plugins
#echo both
# ---------- Initializing Simulation ---------------------------------
units metal
dimension 3
boundary p p p
atom_style atomic
atom_modify map array

#read_data ./../../NiTi.data
read_data ./../../NiHf.data
Reading data file ...
  orthogonal box = (0 0 0) to (3.02 3.02 3.02)
  2 by 2 by 2 MPI processor grid
  reading atoms ...
  2 atoms
  read_data CPU = 0.001 seconds
#read_data ./../../Ti3Hf.data

replicate 1 1 1
Replication is creating a 1x1x1 = 1 times larger system...
  orthogonal box = (0 0 0) to (3.02 3.02 3.02)
  2 by 2 by 2 MPI processor grid
  2 atoms
  replicate CPU = 0.000 seconds

# ---------- Defining the Interatomic Potential ---------------------
pair_style meam
#pair_coeff * * ./../../library.meam Ni Ti Hf ./../../NiTiHf.meam Ni Ti
pair_coeff * * ./../../library.meam Ni Ti Hf ./../../NiTiHf.meam Ni Hf
#pair_coeff * * ./../../library.meam Ni Ti Hf ./../../NiTiHf.meam Ti Hf

# ---------- Running Minimization -------------------------------------
fix 1 all box/relax iso 0.0 vmax 0.001

thermo 10
thermo_style custom step pe etotal lx ly lz vol press pxx pyy pzz

min_style cg
minimize 1e-25 1e-25 5000 10000
Neighbor list info ...
  update: every = 1 steps, delay = 0 steps, check = yes
  max neighbors/atom: 2000, page size: 100000
  master list distance cutoff = 7
  ghost atom cutoff = 7
  binsize = 3.5, bins = 1 1 1
  2 neighbor lists, perpetual/occasional/extra = 2 0 0
  (1) pair meam, perpetual
      attributes: full, newton on
      pair build: full/bin/atomonly
      stencil: full/bin/3d
      bin: standard
  (2) pair meam, perpetual, half/full from (1)
      attributes: half, newton on
      pair build: halffull/newton
      stencil: none
      bin: none
WARNING: Proc sub-domain size < neighbor skin, could lead to lost atoms (src/domain.cpp:966)
Per MPI rank memory allocation (min/avg/max) = 9.67 | 9.67 | 9.67 Mbytes
   Step         PotEng         TotEng           Lx             Ly             Lz           Volume         Press           Pxx            Pyy            Pzz      
         0  -10.950521     -10.950521      3.02           3.02           3.02           27.543608      427656.92      427656.92      427656.92      427656.92    
        10  -11.151742     -11.151742      3.0502         3.0502         3.0502         28.378207      346614.66      346614.66      346614.66      346614.66    
        20  -11.316157     -11.316157      3.0804         3.0804         3.0804         29.229497      273812.29      273812.29      273812.29      273812.29    
        30  -11.446453     -11.446453      3.1106         3.1106         3.1106         30.097644      208521.09      208521.09      208521.09      208521.09    
        40  -11.545159     -11.545159      3.1408         3.1408         3.1408         30.982813      150074.94      150074.94      150074.94      150074.94    
        50  -11.614654     -11.614654      3.171          3.171          3.171          31.885169      97864.858      97864.858      97864.858      97864.858    
        60  -11.657191     -11.657191      3.2012         3.2012         3.2012         32.804878      51411.465      51411.465      51411.465      51411.465    
        70  -11.674943     -11.674943      3.2314         3.2314         3.2314         33.742104      10251.974      10251.974      10251.974      10251.974    
        75  -11.675756     -11.675756      3.239539       3.239539       3.239539       33.997707     -2.1270418e-09 -2.1327098e-09 -2.1137437e-09 -2.1346719e-09
Loop time of 0.0131317 on 8 procs for 75 steps with 2 atoms

59.5% CPU use with 8 MPI tasks x 1 OpenMP threads

Minimization stats:
  Stopping criterion = energy tolerance
  Energy initial, next-to-last, final = 
     -10.9505214359238  -11.6757558063199  -11.6757558063199
  Force two-norm initial, final = 22.056024 1.2897099e-13
  Force max component initial, final = 22.056024 1.2622933e-13
  Final line search alpha, max atom move = 1 1.2622933e-13
  Iterations, force evaluations = 75 78

MPI task timing breakdown:
Section |  min time  |  avg time  |  max time  |%varavg| %total
---------------------------------------------------------------
Pair    | 0.007689   | 0.0078649  | 0.008383   |   0.2 | 59.89
Neigh   | 0          | 0          | 0          |   0.0 |  0.00
Comm    | 0.001402   | 0.0018401  | 0.002235   |   0.7 | 14.01
Output  | 7.8e-05    | 8.725e-05  | 0.000139   |   0.0 |  0.66
Modify  | 0          | 0          | 0          |   0.0 |  0.00
Other   |            | 0.00334    |            |       | 25.43

Nlocal:           0.25 ave           1 max           0 min
Histogram: 6 0 0 0 0 0 0 0 0 2
Nghost:         249.75 ave         250 max         249 min
Histogram: 2 0 0 0 0 0 0 0 0 6
Neighs:             14 ave          56 max           0 min
Histogram: 6 0 0 0 0 0 0 0 0 2
FullNghs:           28 ave         112 max           0 min
Histogram: 6 0 0 0 0 0 0 0 0 2

Total # of neighbors = 224
Ave neighs/atom = 112
Neighbor list builds = 0
Dangerous builds = 0

variable  natoms equal "count(all)"
variable      x0 equal "lx"
variable      y0 equal "ly"
variable      z0 equal "lz"
variable      v0 equal "vol"
variable   etot0 equal "etotal"
variable   ecoh0 equal "pe/v_natoms"

unfix 1
write_data ./../step2_elastic/data.in
System init for write_data ...
WARNING: Proc sub-domain size < neighbor skin, could lead to lost atoms (src/domain.cpp:966)

# ---------- For Equation of States -------------------------------------
change_box all x scale 0.94 y scale 0.94 z scale 0.94 remap
Changing box ...
  orthogonal box = (-0.012583315 -0.10976948 -0.10976948) to (3.0325833 3.1297695 3.1297695)
  orthogonal box = (-0.012583315 -0.012583315 -0.10976948) to (3.0325833 3.0325833 3.1297695)
  orthogonal box = (-0.012583315 -0.012583315 -0.012583315) to (3.0325833 3.0325833 3.0325833)
run 1
WARNING: No fixes with time integration, atoms won't move (src/verlet.cpp:60)
WARNING: Proc sub-domain size < neighbor skin, could lead to lost atoms (src/domain.cpp:966)
Per MPI rank memory allocation (min/avg/max) = 8.573 | 8.573 | 8.575 Mbytes
   Step         PotEng         TotEng           Lx             Ly             Lz           Volume         Press           Pxx            Pyy            Pzz      
        75  -11.120836     -11.120836      3.0451666      3.0451666      3.0451666      28.237951      359528.92      359528.92      359528.92      359528.92    
        76  -11.120836     -11.120836      3.0451666      3.0451666      3.0451666      28.237951      359528.92      359528.92      359528.92      359528.92    
Loop time of 0.0001725 on 8 procs for 1 steps with 2 atoms

Performance: 500.870 ns/day, 0.048 hours/ns, 5797.101 timesteps/s, 11.594 katom-step/s
0.0% CPU use with 8 MPI tasks x 1 OpenMP threads

MPI task timing breakdown:
Section |  min time  |  avg time  |  max time  |%varavg| %total
---------------------------------------------------------------
Pair    | 0.000123   | 0.00012512 | 0.000135   |   0.0 | 72.54
Neigh   | 0          | 0          | 0          |   0.0 |  0.00
Comm    | 1.5e-05    | 2.1625e-05 | 3.2e-05    |   0.0 | 12.54
Output  | 1.2e-05    | 2.175e-05  | 3e-05      |   0.0 | 12.61
Modify  | 0          | 1.25e-07   | 1e-06      |   0.0 |  0.07
Other   |            | 3.875e-06  |            |       |  2.25

Nlocal:           0.25 ave           2 max           0 min
Histogram: 7 0 0 0 0 0 0 0 0 1
Nghost:         249.75 ave         250 max         248 min
Histogram: 1 0 0 0 0 0 0 0 0 7
Neighs:             14 ave         112 max           0 min
Histogram: 7 0 0 0 0 0 0 0 0 1
FullNghs:           28 ave         224 max           0 min
Histogram: 7 0 0 0 0 0 0 0 0 1

Total # of neighbors = 224
Ave neighs/atom = 112
Neighbor list builds = 0
Dangerous builds = 0
print "# Lattice constant (Angstroms), Volume (Angstrom), Total energy (eV), Cohesive energy (eV/atom)" file lattice_cohesive_energy.txt screen no


# Loop over lattice constants
variable i loop 49 # Number of steps
label loop

change_box all x scale 1.0025 y scale 1.0025 z scale 1.0025 remap
Changing box ...
  orthogonal box = (-0.016389773 -0.012583315 -0.012583315) to (3.0363898 3.0325833 3.0325833)
  orthogonal box = (-0.016389773 -0.016389773 -0.012583315) to (3.0363898 3.0363898 3.0325833)
  orthogonal box = (-0.016389773 -0.016389773 -0.016389773) to (3.0363898 3.0363898 3.0363898)

run 1
WARNING: No fixes with time integration, atoms won't move (src/verlet.cpp:60)
WARNING: Proc sub-domain size < neighbor skin, could lead to lost atoms (src/domain.cpp:966)
Per MPI rank memory allocation (min/avg/max) = 8.573 | 8.573 | 8.575 Mbytes
   Step         PotEng         TotEng           Lx             Ly             Lz           Volume         Press           Pxx            Pyy            Pzz      
        76  -11.167184     -11.167184      3.0527795      3.0527795      3.0527795      28.450266      340085.08      340085.08      340085.08      340085.08    
        77  -11.167184     -11.167184      3.0527795      3.0527795      3.0527795      28.450266      340085.08      340085.08      340085.08      340085.08    
Loop time of 0.000157625 on 8 procs for 1 steps with 2 atoms

Performance: 548.136 ns/day, 0.044 hours/ns, 6344.171 timesteps/s, 12.688 katom-step/s
0.0% CPU use with 8 MPI tasks x 1 OpenMP threads

MPI task timing breakdown:
Section |  min time  |  avg time  |  max time  |%varavg| %total
---------------------------------------------------------------
Pair    | 0.000112   | 0.00011462 | 0.000121   |   0.0 | 72.72
Neigh   | 0          | 0          | 0          |   0.0 |  0.00
Comm    | 1.5e-05    | 1.975e-05  | 2.8e-05    |   0.0 | 12.53
Output  | 1.1e-05    | 1.85e-05   | 2.6e-05    |   0.0 | 11.74
Modify  | 0          | 2.5e-07    | 1e-06      |   0.0 |  0.16
Other   |            | 4.5e-06    |            |       |  2.85

Nlocal:           0.25 ave           2 max           0 min
Histogram: 7 0 0 0 0 0 0 0 0 1
Nghost:         249.75 ave         250 max         248 min
Histogram: 1 0 0 0 0 0 0 0 0 7
Neighs:             14 ave         112 max           0 min
Histogram: 7 0 0 0 0 0 0 0 0 1
FullNghs:           28 ave         224 max           0 min
Histogram: 7 0 0 0 0 0 0 0 0 1

Total # of neighbors = 224
Ave neighs/atom = 112
Neighbor list builds = 0
Dangerous builds = 0
variable  natoms equal "count(all)"
variable xlength equal "lx"
variable  volume equal "vol"
variable  etotal equal "etotal"
variable    ecoh equal "pe/v_natoms"
print "${xlength}, ${volume}, ${etotal}, ${ecoh}" append lattice_cohesive_energy.txt screen no

next i
jump SELF loop

change_box all x scale 1.0025 y scale 1.0025 z scale 1.0025 remap
Changing box ...
  orthogonal box = (-0.020205747 -0.016389773 -0.016389773) to (3.0402057 3.0363898 3.0363898)
  orthogonal box = (-0.020205747 -0.020205747 -0.016389773) to (3.0402057 3.0402057 3.0363898)
  orthogonal box = (-0.020205747 -0.020205747 -0.020205747) to (3.0402057 3.0402057 3.0402057)

run 1
WARNING: No fixes with time integration, atoms won't move (src/verlet.cpp:60)
WARNING: Proc sub-domain size < neighbor skin, could lead to lost atoms (src/domain.cpp:966)
Per MPI rank memory allocation (min/avg/max) = 8.573 | 8.573 | 8.575 Mbytes
   Step         PotEng         TotEng           Lx             Ly             Lz           Volume         Press           Pxx            Pyy            Pzz      
        77  -11.211317     -11.211317      3.0604115      3.0604115      3.0604115      28.664177      321113.74      321113.74      321113.74      321113.74    
        78  -11.211317     -11.211317      3.0604115      3.0604115      3.0604115      28.664177      321113.74      321113.74      321113.74      321113.74    
Loop time of 0.000158125 on 8 procs for 1 steps with 2 atoms

Performance: 546.403 ns/day, 0.044 hours/ns, 6324.111 timesteps/s, 12.648 katom-step/s
0.0% CPU use with 8 MPI tasks x 1 OpenMP threads

MPI task timing breakdown:
Section |  min time  |  avg time  |  max time  |%varavg| %total
---------------------------------------------------------------
Pair    | 0.000113   | 0.00011563 | 0.000123   |   0.0 | 73.12
Neigh   | 0          | 0          | 0          |   0.0 |  0.00
Comm    | 1.4e-05    | 1.9625e-05 | 2.8e-05    |   0.0 | 12.41
Output  | 1.1e-05    | 1.8875e-05 | 2.6e-05    |   0.0 | 11.94
Modify  | 0          | 1.25e-07   | 1e-06      |   0.0 |  0.08
Other   |            | 3.875e-06  |            |       |  2.45

Nlocal:           0.25 ave           2 max           0 min
Histogram: 7 0 0 0 0 0 0 0 0 1
Nghost:         249.75 ave         250 max         248 min
Histogram: 1 0 0 0 0 0 0 0 0 7
Neighs:             14 ave         112 max           0 min
Histogram: 7 0 0 0 0 0 0 0 0 1
FullNghs:           28 ave         224 max           0 min
Histogram: 7 0 0 0 0 0 0 0 0 1

Total # of neighbors = 224
Ave neighs/atom = 112
Neighbor list builds = 0
Dangerous builds = 0
variable  natoms equal "count(all)"
variable xlength equal "lx"
variable  volume equal "vol"
variable  etotal equal "etotal"
variable    ecoh equal "pe/v_natoms"
print "${xlength}, ${volume}, ${etotal}, ${ecoh}" append lattice_cohesive_energy.txt screen no

next i
jump SELF loop

change_box all x scale 1.0025 y scale 1.0025 z scale 1.0025 remap
Changing box ...
  orthogonal box = (-0.024031262 -0.020205747 -0.020205747) to (3.0440313 3.0402057 3.0402057)
  orthogonal box = (-0.024031262 -0.024031262 -0.020205747) to (3.0440313 3.0440313 3.0402057)
  orthogonal box = (-0.024031262 -0.024031262 -0.024031262) to (3.0440313 3.0440313 3.0440313)

run 1
WARNING: No fixes with time integration, atoms won't move (src/verlet.cpp:60)
WARNING: Proc sub-domain size < neighbor skin, could lead to lost atoms (src/domain.cpp:966)
Per MPI rank memory allocation (min/avg/max) = 8.573 | 8.573 | 8.575 Mbytes
   Step         PotEng         TotEng           Lx             Ly             Lz           Volume         Press           Pxx            Pyy            Pzz      
        78  -11.25326      -11.25326       3.0680625      3.0680625      3.0680625      28.879696      302606.6       302606.6       302606.6       302606.6     
        79  -11.25326      -11.25326       3.0680625      3.0680625      3.0680625      28.879696      302606.6       302606.6       302606.6       302606.6     
Loop time of 0.000254875 on 8 procs for 1 steps with 2 atoms

Performance: 338.990 ns/day, 0.071 hours/ns, 3923.492 timesteps/s, 7.847 katom-step/s
0.0% CPU use with 8 MPI tasks x 1 OpenMP threads

MPI task timing breakdown:
Section |  min time  |  avg time  |  max time  |%varavg| %total
---------------------------------------------------------------
Pair    | 0.000114   | 0.00014125 | 0.000216   |   0.0 | 55.42
Neigh   | 0          | 0          | 0          |   0.0 |  0.00
Comm    | 1.4e-05    | 4.2125e-05 | 0.000116   |   0.0 | 16.53
Output  | 1.3e-05    | 6.55e-05   | 0.00012    |   0.0 | 25.70
Modify  | 0          | 1.25e-07   | 1e-06      |   0.0 |  0.05
Other   |            | 5.875e-06  |            |       |  2.31

Nlocal:           0.25 ave           2 max           0 min
Histogram: 7 0 0 0 0 0 0 0 0 1
Nghost:         249.75 ave         250 max         248 min
Histogram: 1 0 0 0 0 0 0 0 0 7
Neighs:             14 ave         112 max           0 min
Histogram: 7 0 0 0 0 0 0 0 0 1
FullNghs:           28 ave         224 max           0 min
Histogram: 7 0 0 0 0 0 0 0 0 1

Total # of neighbors = 224
Ave neighs/atom = 112
Neighbor list builds = 0
Dangerous builds = 0
variable  natoms equal "count(all)"
variable xlength equal "lx"
variable  volume equal "vol"
variable  etotal equal "etotal"
variable    ecoh equal "pe/v_natoms"
print "${xlength}, ${volume}, ${etotal}, ${ecoh}" append lattice_cohesive_energy.txt screen no

next i
jump SELF loop

change_box all x scale 1.0025 y scale 1.0025 z scale 1.0025 remap
Changing box ...
  orthogonal box = (-0.02786634 -0.024031262 -0.024031262) to (3.0478663 3.0440313 3.0440313)
  orthogonal box = (-0.02786634 -0.02786634 -0.024031262) to (3.0478663 3.0478663 3.0440313)
  orthogonal box = (-0.02786634 -0.02786634 -0.02786634) to (3.0478663 3.0478663 3.0478663)

run 1
WARNING: No fixes with time integration, atoms won't move (src/verlet.cpp:60)
WARNING: Proc sub-domain size < neighbor skin, could lead to lost atoms (src/domain.cpp:966)
Per MPI rank memory allocation (min/avg/max) = 8.573 | 8.573 | 8.575 Mbytes
   Step         PotEng         TotEng           Lx             Ly             Lz           Volume         Press           Pxx            Pyy            Pzz      
        79  -11.293042     -11.293042      3.0757327      3.0757327      3.0757327      29.096836      284555.41      284555.41      284555.41      284555.41    
        80  -11.293042     -11.293042      3.0757327      3.0757327      3.0757327      29.096836      284555.41      284555.41      284555.41      284555.41    
Loop time of 0.000281625 on 8 procs for 1 steps with 2 atoms

Performance: 306.791 ns/day, 0.078 hours/ns, 3550.821 timesteps/s, 7.102 katom-step/s
0.0% CPU use with 8 MPI tasks x 1 OpenMP threads

MPI task timing breakdown:
Section |  min time  |  avg time  |  max time  |%varavg| %total
---------------------------------------------------------------
Pair    | 0.000154   | 0.00017675 | 0.000233   |   0.0 | 62.76
Neigh   | 0          | 0          | 0          |   0.0 |  0.00
Comm    | 1.5e-05    | 4.0125e-05 | 9.4e-05    |   0.0 | 14.25
Output  | 1.7e-05    | 5.8e-05    | 0.000102   |   0.0 | 20.59
Modify  | 0          | 3.75e-07   | 1e-06      |   0.0 |  0.13
Other   |            | 6.375e-06  |            |       |  2.26

Nlocal:           0.25 ave           2 max           0 min
Histogram: 7 0 0 0 0 0 0 0 0 1
Nghost:         249.75 ave         250 max         248 min
Histogram: 1 0 0 0 0 0 0 0 0 7
Neighs:             14 ave         112 max           0 min
Histogram: 7 0 0 0 0 0 0 0 0 1
FullNghs:           28 ave         224 max           0 min
Histogram: 7 0 0 0 0 0 0 0 0 1

Total # of neighbors = 224
Ave neighs/atom = 112
Neighbor list builds = 0
Dangerous builds = 0
variable  natoms equal "count(all)"
variable xlength equal "lx"
variable  volume equal "vol"
variable  etotal equal "etotal"
variable    ecoh equal "pe/v_natoms"
print "${xlength}, ${volume}, ${etotal}, ${ecoh}" append lattice_cohesive_energy.txt screen no

next i
jump SELF loop

change_box all x scale 1.0025 y scale 1.0025 z scale 1.0025 remap
Changing box ...
  orthogonal box = (-0.031711006 -0.02786634 -0.02786634) to (3.051711 3.0478663 3.0478663)
  orthogonal box = (-0.031711006 -0.031711006 -0.02786634) to (3.051711 3.051711 3.0478663)
  orthogonal box = (-0.031711006 -0.031711006 -0.031711006) to (3.051711 3.051711 3.051711)

run 1
WARNING: No fixes with time integration, atoms won't move (src/verlet.cpp:60)
WARNING: Proc sub-domain size < neighbor skin, could lead to lost atoms (src/domain.cpp:966)
Per MPI rank memory allocation (min/avg/max) = 8.573 | 8.573 | 8.575 Mbytes
   Step         PotEng         TotEng           Lx             Ly             Lz           Volume         Press           Pxx            Pyy            Pzz      
        80  -11.330689     -11.330689      3.083422       3.083422       3.083422       29.315608      266952.09      266952.09      266952.09      266952.09    
        81  -11.330689     -11.330689      3.083422       3.083422       3.083422       29.315608      266952.09      266952.09      266952.09      266952.09    
Loop time of 0.000195 on 8 procs for 1 steps with 2 atoms

Performance: 443.077 ns/day, 0.054 hours/ns, 5128.205 timesteps/s, 10.256 katom-step/s
0.0% CPU use with 8 MPI tasks x 1 OpenMP threads

MPI task timing breakdown:
Section |  min time  |  avg time  |  max time  |%varavg| %total
---------------------------------------------------------------
Pair    | 0.000129   | 0.00013475 | 0.00015    |   0.0 | 69.10
Neigh   | 0          | 0          | 0          |   0.0 |  0.00
Comm    | 1.5e-05    | 2.5125e-05 | 4.4e-05    |   0.0 | 12.88
Output  | 1.3e-05    | 2.8875e-05 | 4.3e-05    |   0.0 | 14.81
Modify  | 0          | 0          | 0          |   0.0 |  0.00
Other   |            | 6.25e-06   |            |       |  3.21

Nlocal:           0.25 ave           2 max           0 min
Histogram: 7 0 0 0 0 0 0 0 0 1
Nghost:         249.75 ave         250 max         248 min
Histogram: 1 0 0 0 0 0 0 0 0 7
Neighs:             14 ave         112 max           0 min
Histogram: 7 0 0 0 0 0 0 0 0 1
FullNghs:           28 ave         224 max           0 min
Histogram: 7 0 0 0 0 0 0 0 0 1

Total # of neighbors = 224
Ave neighs/atom = 112
Neighbor list builds = 0
Dangerous builds = 0
variable  natoms equal "count(all)"
variable xlength equal "lx"
variable  volume equal "vol"
variable  etotal equal "etotal"
variable    ecoh equal "pe/v_natoms"
print "${xlength}, ${volume}, ${etotal}, ${ecoh}" append lattice_cohesive_energy.txt screen no

next i
jump SELF loop

change_box all x scale 1.0025 y scale 1.0025 z scale 1.0025 remap
Changing box ...
  orthogonal box = (-0.035565283 -0.031711006 -0.031711006) to (3.0555653 3.051711 3.051711)
  orthogonal box = (-0.035565283 -0.035565283 -0.031711006) to (3.0555653 3.0555653 3.051711)
  orthogonal box = (-0.035565283 -0.035565283 -0.035565283) to (3.0555653 3.0555653 3.0555653)

run 1
WARNING: No fixes with time integration, atoms won't move (src/verlet.cpp:60)
WARNING: Proc sub-domain size < neighbor skin, could lead to lost atoms (src/domain.cpp:966)
Per MPI rank memory allocation (min/avg/max) = 8.573 | 8.573 | 8.575 Mbytes
   Step         PotEng         TotEng           Lx             Ly             Lz           Volume         Press           Pxx            Pyy            Pzz      
        81  -11.366227     -11.366227      3.0911306      3.0911306      3.0911306      29.536025      249788.68      249788.68      249788.68      249788.68    
        82  -11.366227     -11.366227      3.0911306      3.0911306      3.0911306      29.536025      249788.68      249788.68      249788.68      249788.68    
Loop time of 0.00019575 on 8 procs for 1 steps with 2 atoms

Performance: 441.379 ns/day, 0.054 hours/ns, 5108.557 timesteps/s, 10.217 katom-step/s
0.0% CPU use with 8 MPI tasks x 1 OpenMP threads

MPI task timing breakdown:
Section |  min time  |  avg time  |  max time  |%varavg| %total
---------------------------------------------------------------
Pair    | 0.000127   | 0.000135   | 0.000151   |   0.0 | 68.97
Neigh   | 0          | 0          | 0          |   0.0 |  0.00
Comm    | 1.5e-05    | 2.475e-05  | 4.8e-05    |   0.0 | 12.64
Output  | 1.3e-05    | 2.9875e-05 | 4.7e-05    |   0.0 | 15.26
Modify  | 0          | 0          | 0          |   0.0 |  0.00
Other   |            | 6.125e-06  |            |       |  3.13

Nlocal:           0.25 ave           2 max           0 min
Histogram: 7 0 0 0 0 0 0 0 0 1
Nghost:         249.75 ave         250 max         248 min
Histogram: 1 0 0 0 0 0 0 0 0 7
Neighs:             14 ave         112 max           0 min
Histogram: 7 0 0 0 0 0 0 0 0 1
FullNghs:           28 ave         224 max           0 min
Histogram: 7 0 0 0 0 0 0 0 0 1

Total # of neighbors = 224
Ave neighs/atom = 112
Neighbor list builds = 0
Dangerous builds = 0
variable  natoms equal "count(all)"
variable xlength equal "lx"
variable  volume equal "vol"
variable  etotal equal "etotal"
variable    ecoh equal "pe/v_natoms"
print "${xlength}, ${volume}, ${etotal}, ${ecoh}" append lattice_cohesive_energy.txt screen no

next i
jump SELF loop

change_box all x scale 1.0025 y scale 1.0025 z scale 1.0025 remap
Changing box ...
  orthogonal box = (-0.039429197 -0.035565283 -0.035565283) to (3.0594292 3.0555653 3.0555653)
  orthogonal box = (-0.039429197 -0.039429197 -0.035565283) to (3.0594292 3.0594292 3.0555653)
  orthogonal box = (-0.039429197 -0.039429197 -0.039429197) to (3.0594292 3.0594292 3.0594292)

run 1
WARNING: No fixes with time integration, atoms won't move (src/verlet.cpp:60)
WARNING: Proc sub-domain size < neighbor skin, could lead to lost atoms (src/domain.cpp:966)
Per MPI rank memory allocation (min/avg/max) = 8.573 | 8.573 | 8.575 Mbytes
   Step         PotEng         TotEng           Lx             Ly             Lz           Volume         Press           Pxx            Pyy            Pzz      
        82  -11.399684     -11.399684      3.0988584      3.0988584      3.0988584      29.7581        233057.36      233057.36      233057.36      233057.36    
        83  -11.399684     -11.399684      3.0988584      3.0988584      3.0988584      29.7581        233057.36      233057.36      233057.36      233057.36    
Loop time of 0.000195625 on 8 procs for 1 steps with 2 atoms

Performance: 441.661 ns/day, 0.054 hours/ns, 5111.821 timesteps/s, 10.224 katom-step/s
0.0% CPU use with 8 MPI tasks x 1 OpenMP threads

MPI task timing breakdown:
Section |  min time  |  avg time  |  max time  |%varavg| %total
---------------------------------------------------------------
Pair    | 0.000128   | 0.00013575 | 0.000152   |   0.0 | 69.39
Neigh   | 0          | 0          | 0          |   0.0 |  0.00
Comm    | 1.4e-05    | 2.4e-05    | 4.7e-05    |   0.0 | 12.27
Output  | 1.3e-05    | 2.9375e-05 | 4.5e-05    |   0.0 | 15.02
Modify  | 0          | 2.5e-07    | 1e-06      |   0.0 |  0.13
Other   |            | 6.25e-06   |            |       |  3.19

Nlocal:           0.25 ave           2 max           0 min
Histogram: 7 0 0 0 0 0 0 0 0 1
Nghost:         249.75 ave         250 max         248 min
Histogram: 1 0 0 0 0 0 0 0 0 7
Neighs:             14 ave         112 max           0 min
Histogram: 7 0 0 0 0 0 0 0 0 1
FullNghs:           28 ave         224 max           0 min
Histogram: 7 0 0 0 0 0 0 0 0 1

Total # of neighbors = 224
Ave neighs/atom = 112
Neighbor list builds = 0
Dangerous builds = 0
variable  natoms equal "count(all)"
variable xlength equal "lx"
variable  volume equal "vol"
variable  etotal equal "etotal"
variable    ecoh equal "pe/v_natoms"
print "${xlength}, ${volume}, ${etotal}, ${ecoh}" append lattice_cohesive_energy.txt screen no

next i
jump SELF loop

change_box all x scale 1.0025 y scale 1.0025 z scale 1.0025 remap
Changing box ...
  orthogonal box = (-0.043302769 -0.039429197 -0.039429197) to (3.0633028 3.0594292 3.0594292)
  orthogonal box = (-0.043302769 -0.043302769 -0.039429197) to (3.0633028 3.0633028 3.0594292)
  orthogonal box = (-0.043302769 -0.043302769 -0.043302769) to (3.0633028 3.0633028 3.0633028)

run 1
WARNING: No fixes with time integration, atoms won't move (src/verlet.cpp:60)
WARNING: Proc sub-domain size < neighbor skin, could lead to lost atoms (src/domain.cpp:966)
Per MPI rank memory allocation (min/avg/max) = 8.573 | 8.573 | 8.575 Mbytes
   Step         PotEng         TotEng           Lx             Ly             Lz           Volume         Press           Pxx            Pyy            Pzz      
        83  -11.431086     -11.431086      3.1066055      3.1066055      3.1066055      29.981844      216750.35      216750.35      216750.35      216750.35    
        84  -11.431086     -11.431086      3.1066055      3.1066055      3.1066055      29.981844      216750.35      216750.35      216750.35      216750.35    
Loop time of 0.000213125 on 8 procs for 1 steps with 2 atoms

Performance: 405.396 ns/day, 0.059 hours/ns, 4692.082 timesteps/s, 9.384 katom-step/s
0.0% CPU use with 8 MPI tasks x 1 OpenMP threads

MPI task timing breakdown:
Section |  min time  |  avg time  |  max time  |%varavg| %total
---------------------------------------------------------------
Pair    | 0.00014    | 0.00014912 | 0.000166   |   0.0 | 69.97
Neigh   | 0          | 0          | 0          |   0.0 |  0.00
Comm    | 1.6e-05    | 2.6125e-05 | 5e-05      |   0.0 | 12.26
Output  | 1.3e-05    | 3.05e-05   | 4.8e-05    |   0.0 | 14.31
Modify  | 0          | 1.25e-07   | 1e-06      |   0.0 |  0.06
Other   |            | 7.25e-06   |            |       |  3.40

Nlocal:           0.25 ave           2 max           0 min
Histogram: 7 0 0 0 0 0 0 0 0 1
Nghost:         249.75 ave         250 max         248 min
Histogram: 1 0 0 0 0 0 0 0 0 7
Neighs:             14 ave         112 max           0 min
Histogram: 7 0 0 0 0 0 0 0 0 1
FullNghs:           28 ave         224 max           0 min
Histogram: 7 0 0 0 0 0 0 0 0 1

Total # of neighbors = 224
Ave neighs/atom = 112
Neighbor list builds = 0
Dangerous builds = 0
variable  natoms equal "count(all)"
variable xlength equal "lx"
variable  volume equal "vol"
variable  etotal equal "etotal"
variable    ecoh equal "pe/v_natoms"
print "${xlength}, ${volume}, ${etotal}, ${ecoh}" append lattice_cohesive_energy.txt screen no

next i
jump SELF loop

change_box all x scale 1.0025 y scale 1.0025 z scale 1.0025 remap
Changing box ...
  orthogonal box = (-0.047186026 -0.043302769 -0.043302769) to (3.067186 3.0633028 3.0633028)
  orthogonal box = (-0.047186026 -0.047186026 -0.043302769) to (3.067186 3.067186 3.0633028)
  orthogonal box = (-0.047186026 -0.047186026 -0.047186026) to (3.067186 3.067186 3.067186)

run 1
WARNING: No fixes with time integration, atoms won't move (src/verlet.cpp:60)
WARNING: Proc sub-domain size < neighbor skin, could lead to lost atoms (src/domain.cpp:966)
Per MPI rank memory allocation (min/avg/max) = 8.573 | 8.573 | 8.575 Mbytes
   Step         PotEng         TotEng           Lx             Ly             Lz           Volume         Press           Pxx            Pyy            Pzz      
        84  -11.460458     -11.460458      3.1143721      3.1143721      3.1143721      30.20727       200859.98      200859.98      200859.98      200859.98    
        85  -11.460458     -11.460458      3.1143721      3.1143721      3.1143721      30.20727       200859.98      200859.98      200859.98      200859.98    
Loop time of 0.000196125 on 8 procs for 1 steps with 2 atoms

Performance: 440.535 ns/day, 0.054 hours/ns, 5098.789 timesteps/s, 10.198 katom-step/s
0.0% CPU use with 8 MPI tasks x 1 OpenMP threads

MPI task timing breakdown:
Section |  min time  |  avg time  |  max time  |%varavg| %total
---------------------------------------------------------------
Pair    | 0.000125   | 0.00013512 | 0.000153   |   0.0 | 68.90
Neigh   | 0          | 0          | 0          |   0.0 |  0.00
Comm    | 1.5e-05    | 2.4875e-05 | 5.2e-05    |   0.0 | 12.68
Output  | 1.2e-05    | 3e-05      | 5e-05      |   0.0 | 15.30
Modify  | 0          | 1.25e-07   | 1e-06      |   0.0 |  0.06
Other   |            | 6e-06      |            |       |  3.06

Nlocal:           0.25 ave           2 max           0 min
Histogram: 7 0 0 0 0 0 0 0 0 1
Nghost:         249.75 ave         250 max         248 min
Histogram: 1 0 0 0 0 0 0 0 0 7
Neighs:             14 ave         112 max           0 min
Histogram: 7 0 0 0 0 0 0 0 0 1
FullNghs:           28 ave         224 max           0 min
Histogram: 7 0 0 0 0 0 0 0 0 1

Total # of neighbors = 224
Ave neighs/atom = 112
Neighbor list builds = 0
Dangerous builds = 0
variable  natoms equal "count(all)"
variable xlength equal "lx"
variable  volume equal "vol"
variable  etotal equal "etotal"
variable    ecoh equal "pe/v_natoms"
print "${xlength}, ${volume}, ${etotal}, ${ecoh}" append lattice_cohesive_energy.txt screen no

next i
jump SELF loop

change_box all x scale 1.0025 y scale 1.0025 z scale 1.0025 remap
Changing box ...
  orthogonal box = (-0.051078991 -0.047186026 -0.047186026) to (3.071079 3.067186 3.067186)
  orthogonal box = (-0.051078991 -0.051078991 -0.047186026) to (3.071079 3.071079 3.067186)
  orthogonal box = (-0.051078991 -0.051078991 -0.051078991) to (3.071079 3.071079 3.071079)

run 1
WARNING: No fixes with time integration, atoms won't move (src/verlet.cpp:60)
WARNING: Proc sub-domain size < neighbor skin, could lead to lost atoms (src/domain.cpp:966)
Per MPI rank memory allocation (min/avg/max) = 8.573 | 8.573 | 8.575 Mbytes
   Step         PotEng         TotEng           Lx             Ly             Lz           Volume         Press           Pxx            Pyy            Pzz      
        85  -11.487828     -11.487828      3.122158       3.122158       3.122158       30.434392      185378.71      185378.71      185378.71      185378.71    
        86  -11.487828     -11.487828      3.122158       3.122158       3.122158       30.434392      185378.71      185378.71      185378.71      185378.71    
Loop time of 0.00017 on 8 procs for 1 steps with 2 atoms

Performance: 508.235 ns/day, 0.047 hours/ns, 5882.353 timesteps/s, 11.765 katom-step/s
0.0% CPU use with 8 MPI tasks x 1 OpenMP threads

MPI task timing breakdown:
Section |  min time  |  avg time  |  max time  |%varavg| %total
---------------------------------------------------------------
Pair    | 0.000117   | 0.00012175 | 0.000131   |   0.0 | 71.62
Neigh   | 0          | 0          | 0          |   0.0 |  0.00
Comm    | 1.3e-05    | 2e-05      | 3.2e-05    |   0.0 | 11.76
Output  | 1.2e-05    | 2.2625e-05 | 3.3e-05    |   0.0 | 13.31
Modify  | 0          | 1.25e-07   | 1e-06      |   0.0 |  0.07
Other   |            | 5.5e-06    |            |       |  3.24

Nlocal:           0.25 ave           2 max           0 min
Histogram: 7 0 0 0 0 0 0 0 0 1
Nghost:         249.75 ave         250 max         248 min
Histogram: 1 0 0 0 0 0 0 0 0 7
Neighs:             14 ave         112 max           0 min
Histogram: 7 0 0 0 0 0 0 0 0 1
FullNghs:           28 ave         224 max           0 min
Histogram: 7 0 0 0 0 0 0 0 0 1

Total # of neighbors = 224
Ave neighs/atom = 112
Neighbor list builds = 0
Dangerous builds = 0
variable  natoms equal "count(all)"
variable xlength equal "lx"
variable  volume equal "vol"
variable  etotal equal "etotal"
variable    ecoh equal "pe/v_natoms"
print "${xlength}, ${volume}, ${etotal}, ${ecoh}" append lattice_cohesive_energy.txt screen no

next i
jump SELF loop

change_box all x scale 1.0025 y scale 1.0025 z scale 1.0025 remap
Changing box ...
  orthogonal box = (-0.054981689 -0.051078991 -0.051078991) to (3.0749817 3.071079 3.071079)
  orthogonal box = (-0.054981689 -0.054981689 -0.051078991) to (3.0749817 3.0749817 3.071079)
  orthogonal box = (-0.054981689 -0.054981689 -0.054981689) to (3.0749817 3.0749817 3.0749817)

run 1
WARNING: No fixes with time integration, atoms won't move (src/verlet.cpp:60)
WARNING: Proc sub-domain size < neighbor skin, could lead to lost atoms (src/domain.cpp:966)
Per MPI rank memory allocation (min/avg/max) = 8.573 | 8.573 | 8.575 Mbytes
   Step         PotEng         TotEng           Lx             Ly             Lz           Volume         Press           Pxx            Pyy            Pzz      
        86  -11.513222     -11.513222      3.1299634      3.1299634      3.1299634      30.663221      170299.16      170299.16      170299.16      170299.16    
        87  -11.513222     -11.513222      3.1299634      3.1299634      3.1299634      30.663221      170299.16      170299.16      170299.16      170299.16    
Loop time of 0.000169875 on 8 procs for 1 steps with 2 atoms

Performance: 508.609 ns/day, 0.047 hours/ns, 5886.681 timesteps/s, 11.773 katom-step/s
0.0% CPU use with 8 MPI tasks x 1 OpenMP threads

MPI task timing breakdown:
Section |  min time  |  avg time  |  max time  |%varavg| %total
---------------------------------------------------------------
Pair    | 0.000115   | 0.0001205  | 0.00013    |   0.0 | 70.93
Neigh   | 0          | 0          | 0          |   0.0 |  0.00
Comm    | 1.3e-05    | 2.0375e-05 | 3.5e-05    |   0.0 | 11.99
Output  | 1.3e-05    | 2.3375e-05 | 3.4e-05    |   0.0 | 13.76
Modify  | 0          | 1.25e-07   | 1e-06      |   0.0 |  0.07
Other   |            | 5.5e-06    |            |       |  3.24

Nlocal:           0.25 ave           2 max           0 min
Histogram: 7 0 0 0 0 0 0 0 0 1
Nghost:         249.75 ave         250 max         248 min
Histogram: 1 0 0 0 0 0 0 0 0 7
Neighs:             14 ave         112 max           0 min
Histogram: 7 0 0 0 0 0 0 0 0 1
FullNghs:           28 ave         224 max           0 min
Histogram: 7 0 0 0 0 0 0 0 0 1

Total # of neighbors = 224
Ave neighs/atom = 112
Neighbor list builds = 0
Dangerous builds = 0
variable  natoms equal "count(all)"
variable xlength equal "lx"
variable  volume equal "vol"
variable  etotal equal "etotal"
variable    ecoh equal "pe/v_natoms"
print "${xlength}, ${volume}, ${etotal}, ${ecoh}" append lattice_cohesive_energy.txt screen no

next i
jump SELF loop

change_box all x scale 1.0025 y scale 1.0025 z scale 1.0025 remap
Changing box ...
  orthogonal box = (-0.058894143 -0.054981689 -0.054981689) to (3.0788941 3.0749817 3.0749817)
  orthogonal box = (-0.058894143 -0.058894143 -0.054981689) to (3.0788941 3.0788941 3.0749817)
  orthogonal box = (-0.058894143 -0.058894143 -0.058894143) to (3.0788941 3.0788941 3.0788941)

run 1
WARNING: No fixes with time integration, atoms won't move (src/verlet.cpp:60)
WARNING: Proc sub-domain size < neighbor skin, could lead to lost atoms (src/domain.cpp:966)
Per MPI rank memory allocation (min/avg/max) = 8.573 | 8.573 | 8.575 Mbytes
   Step         PotEng         TotEng           Lx             Ly             Lz           Volume         Press           Pxx            Pyy            Pzz      
        87  -11.536665     -11.536665      3.1377883      3.1377883      3.1377883      30.89377       155614         155614         155614         155614       
        88  -11.536665     -11.536665      3.1377883      3.1377883      3.1377883      30.89377       155614         155614         155614         155614       
Loop time of 0.000227125 on 8 procs for 1 steps with 2 atoms

Performance: 380.407 ns/day, 0.063 hours/ns, 4402.862 timesteps/s, 8.806 katom-step/s
0.0% CPU use with 8 MPI tasks x 1 OpenMP threads

MPI task timing breakdown:
Section |  min time  |  avg time  |  max time  |%varavg| %total
---------------------------------------------------------------
Pair    | 0.000124   | 0.00015225 | 0.000181   |   0.0 | 67.03
Neigh   | 0          | 0          | 0          |   0.0 |  0.00
Comm    | 1.4e-05    | 2.775e-05  | 7.1e-05    |   0.0 | 12.22
Output  | 1.6e-05    | 4.125e-05  | 7.7e-05    |   0.0 | 18.16
Modify  | 0          | 2.5e-07    | 1e-06      |   0.0 |  0.11
Other   |            | 5.625e-06  |            |       |  2.48

Nlocal:           0.25 ave           2 max           0 min
Histogram: 7 0 0 0 0 0 0 0 0 1
Nghost:         249.75 ave         250 max         248 min
Histogram: 1 0 0 0 0 0 0 0 0 7
Neighs:             11 ave          88 max           0 min
Histogram: 7 0 0 0 0 0 0 0 0 1
FullNghs:           22 ave         176 max           0 min
Histogram: 7 0 0 0 0 0 0 0 0 1

Total # of neighbors = 176
Ave neighs/atom = 88
Neighbor list builds = 0
Dangerous builds = 0
variable  natoms equal "count(all)"
variable xlength equal "lx"
variable  volume equal "vol"
variable  etotal equal "etotal"
variable    ecoh equal "pe/v_natoms"
print "${xlength}, ${volume}, ${etotal}, ${ecoh}" append lattice_cohesive_energy.txt screen no

next i
jump SELF loop

change_box all x scale 1.0025 y scale 1.0025 z scale 1.0025 remap
Changing box ...
  orthogonal box = (-0.062816379 -0.058894143 -0.058894143) to (3.0828164 3.0788941 3.0788941)
  orthogonal box = (-0.062816379 -0.062816379 -0.058894143) to (3.0828164 3.0828164 3.0788941)
  orthogonal box = (-0.062816379 -0.062816379 -0.062816379) to (3.0828164 3.0828164 3.0828164)

run 1
WARNING: No fixes with time integration, atoms won't move (src/verlet.cpp:60)
WARNING: Proc sub-domain size < neighbor skin, could lead to lost atoms (src/domain.cpp:966)
Per MPI rank memory allocation (min/avg/max) = 8.573 | 8.573 | 8.575 Mbytes
   Step         PotEng         TotEng           Lx             Ly             Lz           Volume         Press           Pxx            Pyy            Pzz      
        88  -11.558184     -11.558184      3.1456328      3.1456328      3.1456328      31.126053      141315.97      141315.97      141315.97      141315.97    
        89  -11.558184     -11.558184      3.1456328      3.1456328      3.1456328      31.126053      141315.97      141315.97      141315.97      141315.97    
Loop time of 0.0001765 on 8 procs for 1 steps with 2 atoms

Performance: 489.518 ns/day, 0.049 hours/ns, 5665.722 timesteps/s, 11.331 katom-step/s
0.0% CPU use with 8 MPI tasks x 1 OpenMP threads

MPI task timing breakdown:
Section |  min time  |  avg time  |  max time  |%varavg| %total
---------------------------------------------------------------
Pair    | 0.000121   | 0.00012675 | 0.000133   |   0.0 | 71.81
Neigh   | 0          | 0          | 0          |   0.0 |  0.00
Comm    | 1.6e-05    | 2.25e-05   | 3.2e-05    |   0.0 | 12.75
Output  | 1.4e-05    | 2.225e-05  | 3.3e-05    |   0.0 | 12.61
Modify  | 0          | 1.25e-07   | 1e-06      |   0.0 |  0.07
Other   |            | 4.875e-06  |            |       |  2.76

Nlocal:           0.25 ave           2 max           0 min
Histogram: 7 0 0 0 0 0 0 0 0 1
Nghost:         249.75 ave         250 max         248 min
Histogram: 1 0 0 0 0 0 0 0 0 7
Neighs:             11 ave          88 max           0 min
Histogram: 7 0 0 0 0 0 0 0 0 1
FullNghs:           22 ave         176 max           0 min
Histogram: 7 0 0 0 0 0 0 0 0 1

Total # of neighbors = 176
Ave neighs/atom = 88
Neighbor list builds = 0
Dangerous builds = 0
variable  natoms equal "count(all)"
variable xlength equal "lx"
variable  volume equal "vol"
variable  etotal equal "etotal"
variable    ecoh equal "pe/v_natoms"
print "${xlength}, ${volume}, ${etotal}, ${ecoh}" append lattice_cohesive_energy.txt screen no

next i
jump SELF loop

change_box all x scale 1.0025 y scale 1.0025 z scale 1.0025 remap
Changing box ...
  orthogonal box = (-0.066748419 -0.062816379 -0.062816379) to (3.0867484 3.0828164 3.0828164)
  orthogonal box = (-0.066748419 -0.066748419 -0.062816379) to (3.0867484 3.0867484 3.0828164)
  orthogonal box = (-0.066748419 -0.066748419 -0.066748419) to (3.0867484 3.0867484 3.0867484)

run 1
WARNING: No fixes with time integration, atoms won't move (src/verlet.cpp:60)
WARNING: Proc sub-domain size < neighbor skin, could lead to lost atoms (src/domain.cpp:966)
Per MPI rank memory allocation (min/avg/max) = 8.573 | 8.573 | 8.575 Mbytes
   Step         PotEng         TotEng           Lx             Ly             Lz           Volume         Press           Pxx            Pyy            Pzz      
        89  -11.577803     -11.577803      3.1534968      3.1534968      3.1534968      31.360083      127397.96      127397.96      127397.96      127397.96    
        90  -11.577803     -11.577803      3.1534968      3.1534968      3.1534968      31.360083      127397.96      127397.96      127397.96      127397.96    
Loop time of 0.00017575 on 8 procs for 1 steps with 2 atoms

Performance: 491.607 ns/day, 0.049 hours/ns, 5689.900 timesteps/s, 11.380 katom-step/s
0.0% CPU use with 8 MPI tasks x 1 OpenMP threads

MPI task timing breakdown:
Section |  min time  |  avg time  |  max time  |%varavg| %total
---------------------------------------------------------------
Pair    | 0.00012    | 0.00012563 | 0.000133   |   0.0 | 71.48
Neigh   | 0          | 0          | 0          |   0.0 |  0.00
Comm    | 1.4e-05    | 2.1125e-05 | 3.2e-05    |   0.0 | 12.02
Output  | 1.3e-05    | 2.3e-05    | 3.4e-05    |   0.0 | 13.09
Modify  | 0          | 2.5e-07    | 1e-06      |   0.0 |  0.14
Other   |            | 5.75e-06   |            |       |  3.27

Nlocal:           0.25 ave           2 max           0 min
Histogram: 7 0 0 0 0 0 0 0 0 1
Nghost:         249.75 ave         250 max         248 min
Histogram: 1 0 0 0 0 0 0 0 0 7
Neighs:             11 ave          88 max           0 min
Histogram: 7 0 0 0 0 0 0 0 0 1
FullNghs:           22 ave         176 max           0 min
Histogram: 7 0 0 0 0 0 0 0 0 1

Total # of neighbors = 176
Ave neighs/atom = 88
Neighbor list builds = 0
Dangerous builds = 0
variable  natoms equal "count(all)"
variable xlength equal "lx"
variable  volume equal "vol"
variable  etotal equal "etotal"
variable    ecoh equal "pe/v_natoms"
print "${xlength}, ${volume}, ${etotal}, ${ecoh}" append lattice_cohesive_energy.txt screen no

next i
jump SELF loop

change_box all x scale 1.0025 y scale 1.0025 z scale 1.0025 remap
Changing box ...
  orthogonal box = (-0.070690291 -0.066748419 -0.066748419) to (3.0906903 3.0867484 3.0867484)
  orthogonal box = (-0.070690291 -0.070690291 -0.066748419) to (3.0906903 3.0906903 3.0867484)
  orthogonal box = (-0.070690291 -0.070690291 -0.070690291) to (3.0906903 3.0906903 3.0906903)

run 1
WARNING: No fixes with time integration, atoms won't move (src/verlet.cpp:60)
WARNING: Proc sub-domain size < neighbor skin, could lead to lost atoms (src/domain.cpp:966)
Per MPI rank memory allocation (min/avg/max) = 8.573 | 8.573 | 8.575 Mbytes
   Step         PotEng         TotEng           Lx             Ly             Lz           Volume         Press           Pxx            Pyy            Pzz      
        90  -11.59555      -11.59555       3.1613806      3.1613806      3.1613806      31.595872      113852.96      113852.96      113852.96      113852.96    
        91  -11.59555      -11.59555       3.1613806      3.1613806      3.1613806      31.595872      113852.96      113852.96      113852.96      113852.96    
Loop time of 0.000184375 on 8 procs for 1 steps with 2 atoms

Performance: 468.610 ns/day, 0.051 hours/ns, 5423.729 timesteps/s, 10.847 katom-step/s
0.0% CPU use with 8 MPI tasks x 1 OpenMP threads

MPI task timing breakdown:
Section |  min time  |  avg time  |  max time  |%varavg| %total
---------------------------------------------------------------
Pair    | 0.000123   | 0.000128   | 0.000133   |   0.0 | 69.42
Neigh   | 0          | 0          | 0          |   0.0 |  0.00
Comm    | 1.4e-05    | 2.15e-05   | 3.1e-05    |   0.0 | 11.66
Output  | 1.6e-05    | 2.275e-05  | 3.1e-05    |   0.0 | 12.34
Modify  | 0          | 1.25e-07   | 1e-06      |   0.0 |  0.07
Other   |            | 1.2e-05    |            |       |  6.51

Nlocal:           0.25 ave           2 max           0 min
Histogram: 7 0 0 0 0 0 0 0 0 1
Nghost:         249.75 ave         250 max         248 min
Histogram: 1 0 0 0 0 0 0 0 0 7
Neighs:             11 ave          88 max           0 min
Histogram: 7 0 0 0 0 0 0 0 0 1
FullNghs:           22 ave         176 max           0 min
Histogram: 7 0 0 0 0 0 0 0 0 1

Total # of neighbors = 176
Ave neighs/atom = 88
Neighbor list builds = 0
Dangerous builds = 0
variable  natoms equal "count(all)"
variable xlength equal "lx"
variable  volume equal "vol"
variable  etotal equal "etotal"
variable    ecoh equal "pe/v_natoms"
print "${xlength}, ${volume}, ${etotal}, ${ecoh}" append lattice_cohesive_energy.txt screen no

next i
jump SELF loop

change_box all x scale 1.0025 y scale 1.0025 z scale 1.0025 remap
Changing box ...
  orthogonal box = (-0.074642016 -0.070690291 -0.070690291) to (3.094642 3.0906903 3.0906903)
  orthogonal box = (-0.074642016 -0.074642016 -0.070690291) to (3.094642 3.094642 3.0906903)
  orthogonal box = (-0.074642016 -0.074642016 -0.074642016) to (3.094642 3.094642 3.094642)

run 1
WARNING: No fixes with time integration, atoms won't move (src/verlet.cpp:60)
WARNING: Proc sub-domain size < neighbor skin, could lead to lost atoms (src/domain.cpp:966)
Per MPI rank memory allocation (min/avg/max) = 8.573 | 8.573 | 8.575 Mbytes
   Step         PotEng         TotEng           Lx             Ly             Lz           Volume         Press           Pxx            Pyy            Pzz      
        91  -11.611448     -11.611448      3.169284       3.169284       3.169284       31.833434      100673.93      100673.93      100673.93      100673.93    
        92  -11.611448     -11.611448      3.169284       3.169284       3.169284       31.833434      100673.93      100673.93      100673.93      100673.93    
Loop time of 0.00017525 on 8 procs for 1 steps with 2 atoms

Performance: 493.010 ns/day, 0.049 hours/ns, 5706.134 timesteps/s, 11.412 katom-step/s
0.0% CPU use with 8 MPI tasks x 1 OpenMP threads

MPI task timing breakdown:
Section |  min time  |  avg time  |  max time  |%varavg| %total
---------------------------------------------------------------
Pair    | 0.00012    | 0.00012575 | 0.000133   |   0.0 | 71.75
Neigh   | 0          | 0          | 0          |   0.0 |  0.00
Comm    | 1.5e-05    | 2.1375e-05 | 3.1e-05    |   0.0 | 12.20
Output  | 1.3e-05    | 2.15e-05   | 3.2e-05    |   0.0 | 12.27
Modify  | 0          | 1.25e-07   | 1e-06      |   0.0 |  0.07
Other   |            | 6.5e-06    |            |       |  3.71

Nlocal:           0.25 ave           2 max           0 min
Histogram: 7 0 0 0 0 0 0 0 0 1
Nghost:         249.75 ave         250 max         248 min
Histogram: 1 0 0 0 0 0 0 0 0 7
Neighs:             11 ave          88 max           0 min
Histogram: 7 0 0 0 0 0 0 0 0 1
FullNghs:           22 ave         176 max           0 min
Histogram: 7 0 0 0 0 0 0 0 0 1

Total # of neighbors = 176
Ave neighs/atom = 88
Neighbor list builds = 0
Dangerous builds = 0
variable  natoms equal "count(all)"
variable xlength equal "lx"
variable  volume equal "vol"
variable  etotal equal "etotal"
variable    ecoh equal "pe/v_natoms"
print "${xlength}, ${volume}, ${etotal}, ${ecoh}" append lattice_cohesive_energy.txt screen no

next i
jump SELF loop

change_box all x scale 1.0025 y scale 1.0025 z scale 1.0025 remap
Changing box ...
  orthogonal box = (-0.078603621 -0.074642016 -0.074642016) to (3.0986036 3.094642 3.094642)
  orthogonal box = (-0.078603621 -0.078603621 -0.074642016) to (3.0986036 3.0986036 3.094642)
  orthogonal box = (-0.078603621 -0.078603621 -0.078603621) to (3.0986036 3.0986036 3.0986036)

run 1
WARNING: No fixes with time integration, atoms won't move (src/verlet.cpp:60)
WARNING: Proc sub-domain size < neighbor skin, could lead to lost atoms (src/domain.cpp:966)
Per MPI rank memory allocation (min/avg/max) = 8.573 | 8.573 | 8.575 Mbytes
   Step         PotEng         TotEng           Lx             Ly             Lz           Volume         Press           Pxx            Pyy            Pzz      
        92  -11.625525     -11.625525      3.1772072      3.1772072      3.1772072      32.072782      87858.867      87858.867      87858.867      87858.867    
        93  -11.625525     -11.625525      3.1772072      3.1772072      3.1772072      32.072782      87858.867      87858.867      87858.867      87858.867    
Loop time of 0.0001745 on 8 procs for 1 steps with 2 atoms

Performance: 495.129 ns/day, 0.048 hours/ns, 5730.659 timesteps/s, 11.461 katom-step/s
0.0% CPU use with 8 MPI tasks x 1 OpenMP threads

MPI task timing breakdown:
Section |  min time  |  avg time  |  max time  |%varavg| %total
---------------------------------------------------------------
Pair    | 0.00012    | 0.00012425 | 0.000129   |   0.0 | 71.20
Neigh   | 0          | 0          | 0          |   0.0 |  0.00
Comm    | 1.6e-05    | 2.1375e-05 | 3.1e-05    |   0.0 | 12.25
Output  | 1.4e-05    | 2.2e-05    | 3e-05      |   0.0 | 12.61
Modify  | 0          | 0          | 0          |   0.0 |  0.00
Other   |            | 6.875e-06  |            |       |  3.94

Nlocal:           0.25 ave           2 max           0 min
Histogram: 7 0 0 0 0 0 0 0 0 1
Nghost:         249.75 ave         250 max         248 min
Histogram: 1 0 0 0 0 0 0 0 0 7
Neighs:             11 ave          88 max           0 min
Histogram: 7 0 0 0 0 0 0 0 0 1
FullNghs:           22 ave         176 max           0 min
Histogram: 7 0 0 0 0 0 0 0 0 1

Total # of neighbors = 176
Ave neighs/atom = 88
Neighbor list builds = 0
Dangerous builds = 0
variable  natoms equal "count(all)"
variable xlength equal "lx"
variable  volume equal "vol"
variable  etotal equal "etotal"
variable    ecoh equal "pe/v_natoms"
print "${xlength}, ${volume}, ${etotal}, ${ecoh}" append lattice_cohesive_energy.txt screen no

next i
jump SELF loop

change_box all x scale 1.0025 y scale 1.0025 z scale 1.0025 remap
Changing box ...
  orthogonal box = (-0.08257513 -0.078603621 -0.078603621) to (3.1025751 3.0986036 3.0986036)
  orthogonal box = (-0.08257513 -0.08257513 -0.078603621) to (3.1025751 3.1025751 3.0986036)
  orthogonal box = (-0.08257513 -0.08257513 -0.08257513) to (3.1025751 3.1025751 3.1025751)

run 1
WARNING: No fixes with time integration, atoms won't move (src/verlet.cpp:60)
WARNING: Proc sub-domain size < neighbor skin, could lead to lost atoms (src/domain.cpp:966)
Per MPI rank memory allocation (min/avg/max) = 8.573 | 8.573 | 8.575 Mbytes
   Step         PotEng         TotEng           Lx             Ly             Lz           Volume         Press           Pxx            Pyy            Pzz      
        93  -11.637806     -11.637806      3.1851503      3.1851503      3.1851503      32.31393       75406.595      75406.595      75406.595      75406.595    
        94  -11.637806     -11.637806      3.1851503      3.1851503      3.1851503      32.31393       75406.595      75406.595      75406.595      75406.595    
Loop time of 0.000173 on 8 procs for 1 steps with 2 atoms

Performance: 499.422 ns/day, 0.048 hours/ns, 5780.347 timesteps/s, 11.561 katom-step/s
0.0% CPU use with 8 MPI tasks x 1 OpenMP threads

MPI task timing breakdown:
Section |  min time  |  avg time  |  max time  |%varavg| %total
---------------------------------------------------------------
Pair    | 0.000118   | 0.00012387 | 0.00013    |   0.0 | 71.60
Neigh   | 0          | 0          | 0          |   0.0 |  0.00
Comm    | 1.4e-05    | 2.1125e-05 | 2.9e-05    |   0.0 | 12.21
Output  | 1.3e-05    | 2.1625e-05 | 3.2e-05    |   0.0 | 12.50
Modify  | 0          | 0          | 0          |   0.0 |  0.00
Other   |            | 6.375e-06  |            |       |  3.68

Nlocal:           0.25 ave           2 max           0 min
Histogram: 7 0 0 0 0 0 0 0 0 1
Nghost:         249.75 ave         250 max         248 min
Histogram: 1 0 0 0 0 0 0 0 0 7
Neighs:             11 ave          88 max           0 min
Histogram: 7 0 0 0 0 0 0 0 0 1
FullNghs:           22 ave         176 max           0 min
Histogram: 7 0 0 0 0 0 0 0 0 1

Total # of neighbors = 176
Ave neighs/atom = 88
Neighbor list builds = 0
Dangerous builds = 0
variable  natoms equal "count(all)"
variable xlength equal "lx"
variable  volume equal "vol"
variable  etotal equal "etotal"
variable    ecoh equal "pe/v_natoms"
print "${xlength}, ${volume}, ${etotal}, ${ecoh}" append lattice_cohesive_energy.txt screen no

next i
jump SELF loop

change_box all x scale 1.0025 y scale 1.0025 z scale 1.0025 remap
Changing box ...
  orthogonal box = (-0.086556568 -0.08257513 -0.08257513) to (3.1065566 3.1025751 3.1025751)
  orthogonal box = (-0.086556568 -0.086556568 -0.08257513) to (3.1065566 3.1065566 3.1025751)
  orthogonal box = (-0.086556568 -0.086556568 -0.086556568) to (3.1065566 3.1065566 3.1065566)

run 1
WARNING: No fixes with time integration, atoms won't move (src/verlet.cpp:60)
WARNING: Proc sub-domain size < neighbor skin, could lead to lost atoms (src/domain.cpp:966)
Per MPI rank memory allocation (min/avg/max) = 8.573 | 8.573 | 8.575 Mbytes
   Step         PotEng         TotEng           Lx             Ly             Lz           Volume         Press           Pxx            Pyy            Pzz      
        94  -11.648318     -11.648318      3.1931131      3.1931131      3.1931131      32.556891      63310.017      63310.017      63310.017      63310.017    
        95  -11.648318     -11.648318      3.1931131      3.1931131      3.1931131      32.556891      63310.017      63310.017      63310.017      63310.017    
Loop time of 0.000235875 on 8 procs for 1 steps with 2 atoms

Performance: 366.296 ns/day, 0.066 hours/ns, 4239.534 timesteps/s, 8.479 katom-step/s
0.0% CPU use with 8 MPI tasks x 1 OpenMP threads

MPI task timing breakdown:
Section |  min time  |  avg time  |  max time  |%varavg| %total
---------------------------------------------------------------
Pair    | 0.000172   | 0.0001795  | 0.000192   |   0.0 | 76.10
Neigh   | 0          | 0          | 0          |   0.0 |  0.00
Comm    | 1.3e-05    | 2.1875e-05 | 4.2e-05    |   0.0 |  9.27
Output  | 1.4e-05    | 2.825e-05  | 4.3e-05    |   0.0 | 11.98
Modify  | 0          | 2.5e-07    | 2e-06      |   0.0 |  0.11
Other   |            | 6e-06      |            |       |  2.54

Nlocal:           0.25 ave           2 max           0 min
Histogram: 7 0 0 0 0 0 0 0 0 1
Nghost:         249.75 ave         250 max         248 min
Histogram: 1 0 0 0 0 0 0 0 0 7
Neighs:             11 ave          88 max           0 min
Histogram: 7 0 0 0 0 0 0 0 0 1
FullNghs:           22 ave         176 max           0 min
Histogram: 7 0 0 0 0 0 0 0 0 1

Total # of neighbors = 176
Ave neighs/atom = 88
Neighbor list builds = 0
Dangerous builds = 0
variable  natoms equal "count(all)"
variable xlength equal "lx"
variable  volume equal "vol"
variable  etotal equal "etotal"
variable    ecoh equal "pe/v_natoms"
print "${xlength}, ${volume}, ${etotal}, ${ecoh}" append lattice_cohesive_energy.txt screen no

next i
jump SELF loop

change_box all x scale 1.0025 y scale 1.0025 z scale 1.0025 remap
Changing box ...
  orthogonal box = (-0.09054796 -0.086556568 -0.086556568) to (3.110548 3.1065566 3.1065566)
  orthogonal box = (-0.09054796 -0.09054796 -0.086556568) to (3.110548 3.110548 3.1065566)
  orthogonal box = (-0.09054796 -0.09054796 -0.09054796) to (3.110548 3.110548 3.110548)

run 1
WARNING: No fixes with time integration, atoms won't move (src/verlet.cpp:60)
WARNING: Proc sub-domain size < neighbor skin, could lead to lost atoms (src/domain.cpp:966)
Per MPI rank memory allocation (min/avg/max) = 8.573 | 8.573 | 8.575 Mbytes
   Step         PotEng         TotEng           Lx             Ly             Lz           Volume         Press           Pxx            Pyy            Pzz      
        95  -11.657088     -11.657088      3.2010959      3.2010959      3.2010959      32.801678      51562.171      51562.171      51562.171      51562.171    
        96  -11.657088     -11.657088      3.2010959      3.2010959      3.2010959      32.801678      51562.171      51562.171      51562.171      51562.171    
Loop time of 0.00017125 on 8 procs for 1 steps with 2 atoms

Performance: 504.526 ns/day, 0.048 hours/ns, 5839.416 timesteps/s, 11.679 katom-step/s
0.0% CPU use with 8 MPI tasks x 1 OpenMP threads

MPI task timing breakdown:
Section |  min time  |  avg time  |  max time  |%varavg| %total
---------------------------------------------------------------
Pair    | 0.000119   | 0.000122   | 0.000129   |   0.0 | 71.24
Neigh   | 0          | 0          | 0          |   0.0 |  0.00
Comm    | 1.4e-05    | 2.025e-05  | 3.2e-05    |   0.0 | 11.82
Output  | 1.4e-05    | 2.3125e-05 | 3.3e-05    |   0.0 | 13.50
Modify  | 0          | 1.25e-07   | 1e-06      |   0.0 |  0.07
Other   |            | 5.75e-06   |            |       |  3.36

Nlocal:           0.25 ave           2 max           0 min
Histogram: 7 0 0 0 0 0 0 0 0 1
Nghost:         249.75 ave         250 max         248 min
Histogram: 1 0 0 0 0 0 0 0 0 7
Neighs:             11 ave          88 max           0 min
Histogram: 7 0 0 0 0 0 0 0 0 1
FullNghs:           22 ave         176 max           0 min
Histogram: 7 0 0 0 0 0 0 0 0 1

Total # of neighbors = 176
Ave neighs/atom = 88
Neighbor list builds = 0
Dangerous builds = 0
variable  natoms equal "count(all)"
variable xlength equal "lx"
variable  volume equal "vol"
variable  etotal equal "etotal"
variable    ecoh equal "pe/v_natoms"
print "${xlength}, ${volume}, ${etotal}, ${ecoh}" append lattice_cohesive_energy.txt screen no

next i
jump SELF loop

change_box all x scale 1.0025 y scale 1.0025 z scale 1.0025 remap
Changing box ...
  orthogonal box = (-0.09454933 -0.09054796 -0.09054796) to (3.1145493 3.110548 3.110548)
  orthogonal box = (-0.09454933 -0.09454933 -0.09054796) to (3.1145493 3.1145493 3.110548)
  orthogonal box = (-0.09454933 -0.09454933 -0.09454933) to (3.1145493 3.1145493 3.1145493)

run 1
WARNING: No fixes with time integration, atoms won't move (src/verlet.cpp:60)
WARNING: Proc sub-domain size < neighbor skin, could lead to lost atoms (src/domain.cpp:966)
Per MPI rank memory allocation (min/avg/max) = 8.573 | 8.573 | 8.575 Mbytes
   Step         PotEng         TotEng           Lx             Ly             Lz           Volume         Press           Pxx            Pyy            Pzz      
        96  -11.664142     -11.664142      3.2090987      3.2090987      3.2090987      33.048306      40156.074      40156.074      40156.074      40156.074    
        97  -11.664142     -11.664142      3.2090987      3.2090987      3.2090987      33.048306      40156.074      40156.074      40156.074      40156.074    
Loop time of 0.000169125 on 8 procs for 1 steps with 2 atoms

Performance: 510.865 ns/day, 0.047 hours/ns, 5912.786 timesteps/s, 11.826 katom-step/s
1154.8% CPU use with 8 MPI tasks x 1 OpenMP threads

MPI task timing breakdown:
Section |  min time  |  avg time  |  max time  |%varavg| %total
---------------------------------------------------------------
Pair    | 0.000118   | 0.00012225 | 0.000129   |   0.0 | 72.28
Neigh   | 0          | 0          | 0          |   0.0 |  0.00
Comm    | 1.2e-05    | 1.9375e-05 | 3.2e-05    |   0.0 | 11.46
Output  | 1.2e-05    | 2.2125e-05 | 3.3e-05    |   0.0 | 13.08
Modify  | 0          | 1.25e-07   | 1e-06      |   0.0 |  0.07
Other   |            | 5.25e-06   |            |       |  3.10

Nlocal:           0.25 ave           2 max           0 min
Histogram: 7 0 0 0 0 0 0 0 0 1
Nghost:         249.75 ave         250 max         248 min
Histogram: 1 0 0 0 0 0 0 0 0 7
Neighs:             11 ave          88 max           0 min
Histogram: 7 0 0 0 0 0 0 0 0 1
FullNghs:           22 ave         176 max           0 min
Histogram: 7 0 0 0 0 0 0 0 0 1

Total # of neighbors = 176
Ave neighs/atom = 88
Neighbor list builds = 0
Dangerous builds = 0
variable  natoms equal "count(all)"
variable xlength equal "lx"
variable  volume equal "vol"
variable  etotal equal "etotal"
variable    ecoh equal "pe/v_natoms"
print "${xlength}, ${volume}, ${etotal}, ${ecoh}" append lattice_cohesive_energy.txt screen no

next i
jump SELF loop

change_box all x scale 1.0025 y scale 1.0025 z scale 1.0025 remap
Changing box ...
  orthogonal box = (-0.098560703 -0.09454933 -0.09454933) to (3.1185607 3.1145493 3.1145493)
  orthogonal box = (-0.098560703 -0.098560703 -0.09454933) to (3.1185607 3.1185607 3.1145493)
  orthogonal box = (-0.098560703 -0.098560703 -0.098560703) to (3.1185607 3.1185607 3.1185607)

run 1
WARNING: No fixes with time integration, atoms won't move (src/verlet.cpp:60)
WARNING: Proc sub-domain size < neighbor skin, could lead to lost atoms (src/domain.cpp:966)
Per MPI rank memory allocation (min/avg/max) = 8.573 | 8.573 | 8.575 Mbytes
   Step         PotEng         TotEng           Lx             Ly             Lz           Volume         Press           Pxx            Pyy            Pzz      
        97  -11.669506     -11.669506      3.2171214      3.2171214      3.2171214      33.296789      29084.88       29084.88       29084.88       29084.88     
        98  -11.669506     -11.669506      3.2171214      3.2171214      3.2171214      33.296789      29084.88       29084.88       29084.88       29084.88     
Loop time of 0.000171625 on 8 procs for 1 steps with 2 atoms

Performance: 503.423 ns/day, 0.048 hours/ns, 5826.657 timesteps/s, 11.653 katom-step/s
0.0% CPU use with 8 MPI tasks x 1 OpenMP threads

MPI task timing breakdown:
Section |  min time  |  avg time  |  max time  |%varavg| %total
---------------------------------------------------------------
Pair    | 0.000115   | 0.0001215  | 0.000131   |   0.0 | 70.79
Neigh   | 0          | 0          | 0          |   0.0 |  0.00
Comm    | 1.4e-05    | 2.075e-05  | 3.6e-05    |   0.0 | 12.09
Output  | 1.3e-05    | 2.4125e-05 | 3.6e-05    |   0.0 | 14.06
Modify  | 0          | 0          | 0          |   0.0 |  0.00
Other   |            | 5.25e-06   |            |       |  3.06

Nlocal:           0.25 ave           2 max           0 min
Histogram: 7 0 0 0 0 0 0 0 0 1
Nghost:         249.75 ave         250 max         248 min
Histogram: 1 0 0 0 0 0 0 0 0 7
Neighs:              8 ave          64 max           0 min
Histogram: 7 0 0 0 0 0 0 0 0 1
FullNghs:           16 ave         128 max           0 min
Histogram: 7 0 0 0 0 0 0 0 0 1

Total # of neighbors = 128
Ave neighs/atom = 64
Neighbor list builds = 0
Dangerous builds = 0
variable  natoms equal "count(all)"
variable xlength equal "lx"
variable  volume equal "vol"
variable  etotal equal "etotal"
variable    ecoh equal "pe/v_natoms"
print "${xlength}, ${volume}, ${etotal}, ${ecoh}" append lattice_cohesive_energy.txt screen no

next i
jump SELF loop

change_box all x scale 1.0025 y scale 1.0025 z scale 1.0025 remap
Changing box ...
  orthogonal box = (-0.1025821 -0.098560703 -0.098560703) to (3.1225821 3.1185607 3.1185607)
  orthogonal box = (-0.1025821 -0.1025821 -0.098560703) to (3.1225821 3.1225821 3.1185607)
  orthogonal box = (-0.1025821 -0.1025821 -0.1025821) to (3.1225821 3.1225821 3.1225821)

run 1
WARNING: No fixes with time integration, atoms won't move (src/verlet.cpp:60)
WARNING: Proc sub-domain size < neighbor skin, could lead to lost atoms (src/domain.cpp:966)
Per MPI rank memory allocation (min/avg/max) = 8.573 | 8.573 | 8.575 Mbytes
   Step         PotEng         TotEng           Lx             Ly             Lz           Volume         Press           Pxx            Pyy            Pzz      
        98  -11.673206     -11.673206      3.2251642      3.2251642      3.2251642      33.54714       18341.9        18341.9        18341.9        18341.9      
        99  -11.673206     -11.673206      3.2251642      3.2251642      3.2251642      33.54714       18341.9        18341.9        18341.9        18341.9      
Loop time of 0.00020025 on 8 procs for 1 steps with 2 atoms

Performance: 431.461 ns/day, 0.056 hours/ns, 4993.758 timesteps/s, 9.988 katom-step/s
0.0% CPU use with 8 MPI tasks x 1 OpenMP threads

MPI task timing breakdown:
Section |  min time  |  avg time  |  max time  |%varavg| %total
---------------------------------------------------------------
Pair    | 0.000125   | 0.00013588 | 0.000152   |   0.0 | 67.85
Neigh   | 0          | 0          | 0          |   0.0 |  0.00
Comm    | 1.3e-05    | 2.45e-05   | 5e-05      |   0.0 | 12.23
Output  | 1.6e-05    | 3.1375e-05 | 5.1e-05    |   0.0 | 15.67
Modify  | 0          | 0          | 0          |   0.0 |  0.00
Other   |            | 8.5e-06    |            |       |  4.24

Nlocal:           0.25 ave           2 max           0 min
Histogram: 7 0 0 0 0 0 0 0 0 1
Nghost:         249.75 ave         250 max         248 min
Histogram: 1 0 0 0 0 0 0 0 0 7
Neighs:              8 ave          64 max           0 min
Histogram: 7 0 0 0 0 0 0 0 0 1
FullNghs:           16 ave         128 max           0 min
Histogram: 7 0 0 0 0 0 0 0 0 1

Total # of neighbors = 128
Ave neighs/atom = 64
Neighbor list builds = 0
Dangerous builds = 0
variable  natoms equal "count(all)"
variable xlength equal "lx"
variable  volume equal "vol"
variable  etotal equal "etotal"
variable    ecoh equal "pe/v_natoms"
print "${xlength}, ${volume}, ${etotal}, ${ecoh}" append lattice_cohesive_energy.txt screen no

next i
jump SELF loop

change_box all x scale 1.0025 y scale 1.0025 z scale 1.0025 remap
Changing box ...
  orthogonal box = (-0.10661356 -0.1025821 -0.1025821) to (3.1266136 3.1225821 3.1225821)
  orthogonal box = (-0.10661356 -0.10661356 -0.1025821) to (3.1266136 3.1266136 3.1225821)
  orthogonal box = (-0.10661356 -0.10661356 -0.10661356) to (3.1266136 3.1266136 3.1266136)

run 1
WARNING: No fixes with time integration, atoms won't move (src/verlet.cpp:60)
WARNING: Proc sub-domain size < neighbor skin, could lead to lost atoms (src/domain.cpp:966)
Per MPI rank memory allocation (min/avg/max) = 8.573 | 8.573 | 8.575 Mbytes
   Step         PotEng         TotEng           Lx             Ly             Lz           Volume         Press           Pxx            Pyy            Pzz      
        99  -11.675268     -11.675268      3.2332271      3.2332271      3.2332271      33.799373      7920.5221      7920.5221      7920.5221      7920.5221    
       100  -11.675268     -11.675268      3.2332271      3.2332271      3.2332271      33.799373      7920.5221      7920.5221      7920.5221      7920.5221    
Loop time of 0.000198875 on 8 procs for 1 steps with 2 atoms

Performance: 434.444 ns/day, 0.055 hours/ns, 5028.284 timesteps/s, 10.057 katom-step/s
0.0% CPU use with 8 MPI tasks x 1 OpenMP threads

MPI task timing breakdown:
Section |  min time  |  avg time  |  max time  |%varavg| %total
---------------------------------------------------------------
Pair    | 0.000124   | 0.00013513 | 0.000151   |   0.0 | 67.94
Neigh   | 0          | 0          | 0          |   0.0 |  0.00
Comm    | 1.3e-05    | 2.475e-05  | 5e-05      |   0.0 | 12.45
Output  | 1.6e-05    | 3.0625e-05 | 5.1e-05    |   0.0 | 15.40
Modify  | 0          | 2.5e-07    | 1e-06      |   0.0 |  0.13
Other   |            | 8.125e-06  |            |       |  4.09

Nlocal:           0.25 ave           2 max           0 min
Histogram: 7 0 0 0 0 0 0 0 0 1
Nghost:         249.75 ave         250 max         248 min
Histogram: 1 0 0 0 0 0 0 0 0 7
Neighs:              8 ave          64 max           0 min
Histogram: 7 0 0 0 0 0 0 0 0 1
FullNghs:           16 ave         128 max           0 min
Histogram: 7 0 0 0 0 0 0 0 0 1

Total # of neighbors = 128
Ave neighs/atom = 64
Neighbor list builds = 0
Dangerous builds = 0
variable  natoms equal "count(all)"
variable xlength equal "lx"
variable  volume equal "vol"
variable  etotal equal "etotal"
variable    ecoh equal "pe/v_natoms"
print "${xlength}, ${volume}, ${etotal}, ${ecoh}" append lattice_cohesive_energy.txt screen no

next i
jump SELF loop

change_box all x scale 1.0025 y scale 1.0025 z scale 1.0025 remap
Changing box ...
  orthogonal box = (-0.11065509 -0.10661356 -0.10661356) to (3.1306551 3.1266136 3.1266136)
  orthogonal box = (-0.11065509 -0.11065509 -0.10661356) to (3.1306551 3.1306551 3.1266136)
  orthogonal box = (-0.11065509 -0.11065509 -0.11065509) to (3.1306551 3.1306551 3.1306551)

run 1
WARNING: No fixes with time integration, atoms won't move (src/verlet.cpp:60)
WARNING: Proc sub-domain size < neighbor skin, could lead to lost atoms (src/domain.cpp:966)
Per MPI rank memory allocation (min/avg/max) = 8.573 | 8.573 | 8.575 Mbytes
   Step         PotEng         TotEng           Lx             Ly             Lz           Volume         Press           Pxx            Pyy            Pzz      
       100  -11.675718     -11.675718      3.2413102      3.2413102      3.2413102      34.053502     -2185.8028     -2185.8028     -2185.8028     -2185.8028    
       101  -11.675718     -11.675718      3.2413102      3.2413102      3.2413102      34.053502     -2185.8028     -2185.8028     -2185.8028     -2185.8028    
Loop time of 0.000193 on 8 procs for 1 steps with 2 atoms

Performance: 447.668 ns/day, 0.054 hours/ns, 5181.347 timesteps/s, 10.363 katom-step/s
0.0% CPU use with 8 MPI tasks x 1 OpenMP threads

MPI task timing breakdown:
Section |  min time  |  avg time  |  max time  |%varavg| %total
---------------------------------------------------------------
Pair    | 0.000131   | 0.00013637 | 0.000147   |   0.0 | 70.66
Neigh   | 0          | 0          | 0          |   0.0 |  0.00
Comm    | 1.6e-05    | 2.525e-05  | 4e-05      |   0.0 | 13.08
Output  | 1.4e-05    | 2.5375e-05 | 3.9e-05    |   0.0 | 13.15
Modify  | 0          | 6.25e-07   | 2e-06      |   0.0 |  0.32
Other   |            | 5.375e-06  |            |       |  2.78

Nlocal:           0.25 ave           2 max           0 min
Histogram: 7 0 0 0 0 0 0 0 0 1
Nghost:         249.75 ave         250 max         248 min
Histogram: 1 0 0 0 0 0 0 0 0 7
Neighs:              8 ave          64 max           0 min
Histogram: 7 0 0 0 0 0 0 0 0 1
FullNghs:           16 ave         128 max           0 min
Histogram: 7 0 0 0 0 0 0 0 0 1

Total # of neighbors = 128
Ave neighs/atom = 64
Neighbor list builds = 0
Dangerous builds = 0
variable  natoms equal "count(all)"
variable xlength equal "lx"
variable  volume equal "vol"
variable  etotal equal "etotal"
variable    ecoh equal "pe/v_natoms"
print "${xlength}, ${volume}, ${etotal}, ${ecoh}" append lattice_cohesive_energy.txt screen no

next i
jump SELF loop

change_box all x scale 1.0025 y scale 1.0025 z scale 1.0025 remap
Changing box ...
  orthogonal box = (-0.11470673 -0.11065509 -0.11065509) to (3.1347067 3.1306551 3.1306551)
  orthogonal box = (-0.11470673 -0.11470673 -0.11065509) to (3.1347067 3.1347067 3.1306551)
  orthogonal box = (-0.11470673 -0.11470673 -0.11470673) to (3.1347067 3.1347067 3.1347067)

run 1
WARNING: No fixes with time integration, atoms won't move (src/verlet.cpp:60)
WARNING: Proc sub-domain size < neighbor skin, could lead to lost atoms (src/domain.cpp:966)
Per MPI rank memory allocation (min/avg/max) = 8.573 | 8.573 | 8.575 Mbytes
   Step         PotEng         TotEng           Lx             Ly             Lz           Volume         Press           Pxx            Pyy            Pzz      
       101  -11.67458      -11.67458       3.2494135      3.2494135      3.2494135      34.309542     -11983.495     -11983.495     -11983.495     -11983.495    
       102  -11.67458      -11.67458       3.2494135      3.2494135      3.2494135      34.309542     -11983.495     -11983.495     -11983.495     -11983.495    
Loop time of 0.000216625 on 8 procs for 1 steps with 2 atoms

Performance: 398.846 ns/day, 0.060 hours/ns, 4616.272 timesteps/s, 9.233 katom-step/s
0.0% CPU use with 8 MPI tasks x 1 OpenMP threads

MPI task timing breakdown:
Section |  min time  |  avg time  |  max time  |%varavg| %total
---------------------------------------------------------------
Pair    | 0.000145   | 0.000154   | 0.000169   |   0.0 | 71.09
Neigh   | 0          | 0          | 0          |   0.0 |  0.00
Comm    | 1.6e-05    | 2.5125e-05 | 4.8e-05    |   0.0 | 11.60
Output  | 1.5e-05    | 3.1e-05    | 4.9e-05    |   0.0 | 14.31
Modify  | 0          | 2.5e-07    | 1e-06      |   0.0 |  0.12
Other   |            | 6.25e-06   |            |       |  2.89

Nlocal:           0.25 ave           2 max           0 min
Histogram: 7 0 0 0 0 0 0 0 0 1
Nghost:         249.75 ave         250 max         248 min
Histogram: 1 0 0 0 0 0 0 0 0 7
Neighs:              8 ave          64 max           0 min
Histogram: 7 0 0 0 0 0 0 0 0 1
FullNghs:           16 ave         128 max           0 min
Histogram: 7 0 0 0 0 0 0 0 0 1

Total # of neighbors = 128
Ave neighs/atom = 64
Neighbor list builds = 0
Dangerous builds = 0
variable  natoms equal "count(all)"
variable xlength equal "lx"
variable  volume equal "vol"
variable  etotal equal "etotal"
variable    ecoh equal "pe/v_natoms"
print "${xlength}, ${volume}, ${etotal}, ${ecoh}" append lattice_cohesive_energy.txt screen no

next i
jump SELF loop

change_box all x scale 1.0025 y scale 1.0025 z scale 1.0025 remap
Changing box ...
  orthogonal box = (-0.1187685 -0.11470673 -0.11470673) to (3.1387685 3.1347067 3.1347067)
  orthogonal box = (-0.1187685 -0.1187685 -0.11470673) to (3.1387685 3.1387685 3.1347067)
  orthogonal box = (-0.1187685 -0.1187685 -0.1187685) to (3.1387685 3.1387685 3.1387685)

run 1
WARNING: No fixes with time integration, atoms won't move (src/verlet.cpp:60)
WARNING: Proc sub-domain size < neighbor skin, could lead to lost atoms (src/domain.cpp:966)
Per MPI rank memory allocation (min/avg/max) = 8.573 | 8.573 | 8.575 Mbytes
   Step         PotEng         TotEng           Lx             Ly             Lz           Volume         Press           Pxx            Pyy            Pzz      
       102  -11.671882     -11.671882      3.257537       3.257537       3.257537       34.567508     -21478.82      -21478.82      -21478.82      -21478.82     
       103  -11.671882     -11.671882      3.257537       3.257537       3.257537       34.567508     -21478.82      -21478.82      -21478.82      -21478.82     
Loop time of 0.00019775 on 8 procs for 1 steps with 2 atoms

Performance: 436.915 ns/day, 0.055 hours/ns, 5056.890 timesteps/s, 10.114 katom-step/s
0.0% CPU use with 8 MPI tasks x 1 OpenMP threads

MPI task timing breakdown:
Section |  min time  |  avg time  |  max time  |%varavg| %total
---------------------------------------------------------------
Pair    | 0.000136   | 0.00014138 | 0.000153   |   0.0 | 71.49
Neigh   | 0          | 0          | 0          |   0.0 |  0.00
Comm    | 1.7e-05    | 2.5e-05    | 3.9e-05    |   0.0 | 12.64
Output  | 1.4e-05    | 2.575e-05  | 3.9e-05    |   0.0 | 13.02
Modify  | 0          | 3.75e-07   | 2e-06      |   0.0 |  0.19
Other   |            | 5.25e-06   |            |       |  2.65

Nlocal:           0.25 ave           2 max           0 min
Histogram: 7 0 0 0 0 0 0 0 0 1
Nghost:         249.75 ave         250 max         248 min
Histogram: 1 0 0 0 0 0 0 0 0 7
Neighs:              8 ave          64 max           0 min
Histogram: 7 0 0 0 0 0 0 0 0 1
FullNghs:           16 ave         128 max           0 min
Histogram: 7 0 0 0 0 0 0 0 0 1

Total # of neighbors = 128
Ave neighs/atom = 64
Neighbor list builds = 0
Dangerous builds = 0
variable  natoms equal "count(all)"
variable xlength equal "lx"
variable  volume equal "vol"
variable  etotal equal "etotal"
variable    ecoh equal "pe/v_natoms"
print "${xlength}, ${volume}, ${etotal}, ${ecoh}" append lattice_cohesive_energy.txt screen no

next i
jump SELF loop

change_box all x scale 1.0025 y scale 1.0025 z scale 1.0025 remap
Changing box ...
[...]
Histogram: 1 0 0 0 0 0 0 0 0 7
Neighs:              8 ave          64 max           0 min
Histogram: 7 0 0 0 0 0 0 0 0 1
FullNghs:           16 ave         128 max           0 min
Histogram: 7 0 0 0 0 0 0 0 0 1

Total # of neighbors = 128
Ave neighs/atom = 64
Neighbor list builds = 0
Dangerous builds = 0
variable  natoms equal "count(all)"
variable xlength equal "lx"
variable  volume equal "vol"
variable  etotal equal "etotal"
variable    ecoh equal "pe/v_natoms"
print "${xlength}, ${volume}, ${etotal}, ${ecoh}" append lattice_cohesive_energy.txt screen no

next i
jump SELF loop

change_box all x scale 1.0025 y scale 1.0025 z scale 1.0025 remap
Changing box ...
  orthogonal box = (-0.18515518 -0.18092786 -0.18092786) to (3.2051552 3.2009279 3.2009279)
  orthogonal box = (-0.18515518 -0.18515518 -0.18092786) to (3.2051552 3.2051552 3.2009279)
  orthogonal box = (-0.18515518 -0.18515518 -0.18515518) to (3.2051552 3.2051552 3.2051552)

run 1
WARNING: No fixes with time integration, atoms won't move (src/verlet.cpp:60)
WARNING: Proc sub-domain size < neighbor skin, could lead to lost atoms (src/domain.cpp:966)
Per MPI rank memory allocation (min/avg/max) = 8.573 | 8.573 | 8.575 Mbytes
   Step         PotEng         TotEng           Lx             Ly             Lz           Volume         Press           Pxx            Pyy            Pzz      
       118  -11.43628      -11.43628       3.3903104      3.3903104      3.3903104      38.96892      -137060.51     -137060.51     -137060.51     -137060.51    
       119  -11.43628      -11.43628       3.3903104      3.3903104      3.3903104      38.96892      -137060.51     -137060.51     -137060.51     -137060.51    
Loop time of 0.000161 on 8 procs for 1 steps with 2 atoms

Performance: 536.646 ns/day, 0.045 hours/ns, 6211.180 timesteps/s, 12.422 katom-step/s
0.0% CPU use with 8 MPI tasks x 1 OpenMP threads

MPI task timing breakdown:
Section |  min time  |  avg time  |  max time  |%varavg| %total
---------------------------------------------------------------
Pair    | 0.000114   | 0.0001165  | 0.000123   |   0.0 | 72.36
Neigh   | 0          | 0          | 0          |   0.0 |  0.00
Comm    | 1.3e-05    | 1.975e-05  | 3e-05      |   0.0 | 12.27
Output  | 1.1e-05    | 1.9625e-05 | 2.8e-05    |   0.0 | 12.19
Modify  | 0          | 1.25e-07   | 1e-06      |   0.0 |  0.08
Other   |            | 5e-06      |            |       |  3.11

Nlocal:           0.25 ave           2 max           0 min
Histogram: 7 0 0 0 0 0 0 0 0 1
Nghost:         249.75 ave         250 max         248 min
Histogram: 1 0 0 0 0 0 0 0 0 7
Neighs:              8 ave          64 max           0 min
Histogram: 7 0 0 0 0 0 0 0 0 1
FullNghs:           16 ave         128 max           0 min
Histogram: 7 0 0 0 0 0 0 0 0 1

Total # of neighbors = 128
Ave neighs/atom = 64
Neighbor list builds = 0
Dangerous builds = 0
variable  natoms equal "count(all)"
variable xlength equal "lx"
variable  volume equal "vol"
variable  etotal equal "etotal"
variable    ecoh equal "pe/v_natoms"
print "${xlength}, ${volume}, ${etotal}, ${ecoh}" append lattice_cohesive_energy.txt screen no

next i
jump SELF loop

change_box all x scale 1.0025 y scale 1.0025 z scale 1.0025 remap
Changing box ...
  orthogonal box = (-0.18939307 -0.18515518 -0.18515518) to (3.2093931 3.2051552 3.2051552)
  orthogonal box = (-0.18939307 -0.18939307 -0.18515518) to (3.2093931 3.2093931 3.2051552)
  orthogonal box = (-0.18939307 -0.18939307 -0.18939307) to (3.2093931 3.2093931 3.2093931)

run 1
WARNING: No fixes with time integration, atoms won't move (src/verlet.cpp:60)
WARNING: Proc sub-domain size < neighbor skin, could lead to lost atoms (src/domain.cpp:966)
Per MPI rank memory allocation (min/avg/max) = 8.573 | 8.573 | 8.575 Mbytes
   Step         PotEng         TotEng           Lx             Ly             Lz           Volume         Press           Pxx            Pyy            Pzz      
       119  -11.410733     -11.410733      3.3987861      3.3987861      3.3987861      39.261918     -142289.11     -142289.11     -142289.11     -142289.11    
       120  -11.410733     -11.410733      3.3987861      3.3987861      3.3987861      39.261918     -142289.11     -142289.11     -142289.11     -142289.11    
Loop time of 0.000148125 on 8 procs for 1 steps with 2 atoms

Performance: 583.291 ns/day, 0.041 hours/ns, 6751.055 timesteps/s, 13.502 katom-step/s
0.0% CPU use with 8 MPI tasks x 1 OpenMP threads

MPI task timing breakdown:
Section |  min time  |  avg time  |  max time  |%varavg| %total
---------------------------------------------------------------
Pair    | 0.000108   | 0.00011038 | 0.000114   |   0.0 | 74.51
Neigh   | 0          | 0          | 0          |   0.0 |  0.00
Comm    | 1.4e-05    | 1.825e-05  | 2.4e-05    |   0.0 | 12.32
Output  | 1.1e-05    | 1.6e-05    | 2.1e-05    |   0.0 | 10.80
Modify  | 0          | 1.25e-07   | 1e-06      |   0.0 |  0.08
Other   |            | 3.375e-06  |            |       |  2.28

Nlocal:           0.25 ave           2 max           0 min
Histogram: 7 0 0 0 0 0 0 0 0 1
Nghost:         249.75 ave         250 max         248 min
Histogram: 1 0 0 0 0 0 0 0 0 7
Neighs:              8 ave          64 max           0 min
Histogram: 7 0 0 0 0 0 0 0 0 1
FullNghs:           16 ave         128 max           0 min
Histogram: 7 0 0 0 0 0 0 0 0 1

Total # of neighbors = 128
Ave neighs/atom = 64
Neighbor list builds = 0
Dangerous builds = 0
variable  natoms equal "count(all)"
variable xlength equal "lx"
variable  volume equal "vol"
variable  etotal equal "etotal"
variable    ecoh equal "pe/v_natoms"
print "${xlength}, ${volume}, ${etotal}, ${ecoh}" append lattice_cohesive_energy.txt screen no

next i
jump SELF loop

change_box all x scale 1.0025 y scale 1.0025 z scale 1.0025 remap
Changing box ...
  orthogonal box = (-0.19364155 -0.18939307 -0.18939307) to (3.2136416 3.2093931 3.2093931)
  orthogonal box = (-0.19364155 -0.19364155 -0.18939307) to (3.2136416 3.2136416 3.2093931)
  orthogonal box = (-0.19364155 -0.19364155 -0.19364155) to (3.2136416 3.2136416 3.2136416)

run 1
WARNING: No fixes with time integration, atoms won't move (src/verlet.cpp:60)
WARNING: Proc sub-domain size < neighbor skin, could lead to lost atoms (src/domain.cpp:966)
Per MPI rank memory allocation (min/avg/max) = 8.573 | 8.573 | 8.575 Mbytes
   Step         PotEng         TotEng           Lx             Ly             Lz           Volume         Press           Pxx            Pyy            Pzz      
       120  -11.38405      -11.38405       3.4072831      3.4072831      3.4072831      39.55712      -147313.01     -147313.01     -147313.01     -147313.01    
       121  -11.38405      -11.38405       3.4072831      3.4072831      3.4072831      39.55712      -147313.01     -147313.01     -147313.01     -147313.01    
Loop time of 0.000151125 on 8 procs for 1 steps with 2 atoms

Performance: 571.712 ns/day, 0.042 hours/ns, 6617.039 timesteps/s, 13.234 katom-step/s
0.0% CPU use with 8 MPI tasks x 1 OpenMP threads

MPI task timing breakdown:
Section |  min time  |  avg time  |  max time  |%varavg| %total
---------------------------------------------------------------
Pair    | 0.000111   | 0.00011262 | 0.000117   |   0.0 | 74.52
Neigh   | 0          | 0          | 0          |   0.0 |  0.00
Comm    | 1.4e-05    | 1.7875e-05 | 2.3e-05    |   0.0 | 11.83
Output  | 1.1e-05    | 1.6375e-05 | 2.1e-05    |   0.0 | 10.84
Modify  | 0          | 1.25e-07   | 1e-06      |   0.0 |  0.08
Other   |            | 4.125e-06  |            |       |  2.73

Nlocal:           0.25 ave           2 max           0 min
Histogram: 7 0 0 0 0 0 0 0 0 1
Nghost:         249.75 ave         250 max         248 min
Histogram: 1 0 0 0 0 0 0 0 0 7
Neighs:              8 ave          64 max           0 min
Histogram: 7 0 0 0 0 0 0 0 0 1
FullNghs:           16 ave         128 max           0 min
Histogram: 7 0 0 0 0 0 0 0 0 1

Total # of neighbors = 128
Ave neighs/atom = 64
Neighbor list builds = 0
Dangerous builds = 0
variable  natoms equal "count(all)"
variable xlength equal "lx"
variable  volume equal "vol"
variable  etotal equal "etotal"
variable    ecoh equal "pe/v_natoms"
print "${xlength}, ${volume}, ${etotal}, ${ecoh}" append lattice_cohesive_energy.txt screen no

next i
jump SELF loop

change_box all x scale 1.0025 y scale 1.0025 z scale 1.0025 remap
Changing box ...
  orthogonal box = (-0.19790066 -0.19364155 -0.19364155) to (3.2179007 3.2136416 3.2136416)
  orthogonal box = (-0.19790066 -0.19790066 -0.19364155) to (3.2179007 3.2179007 3.2136416)
  orthogonal box = (-0.19790066 -0.19790066 -0.19790066) to (3.2179007 3.2179007 3.2179007)

run 1
WARNING: No fixes with time integration, atoms won't move (src/verlet.cpp:60)
WARNING: Proc sub-domain size < neighbor skin, could lead to lost atoms (src/domain.cpp:966)
Per MPI rank memory allocation (min/avg/max) = 8.573 | 8.573 | 8.575 Mbytes
   Step         PotEng         TotEng           Lx             Ly             Lz           Volume         Press           Pxx            Pyy            Pzz      
       121  -11.356252     -11.356252      3.4158013      3.4158013      3.4158013      39.85454      -152136.8      -152136.8      -152136.8      -152136.8     
       122  -11.356252     -11.356252      3.4158013      3.4158013      3.4158013      39.85454      -152136.8      -152136.8      -152136.8      -152136.8     
Loop time of 0.000149 on 8 procs for 1 steps with 2 atoms

Performance: 579.866 ns/day, 0.041 hours/ns, 6711.409 timesteps/s, 13.423 katom-step/s
0.0% CPU use with 8 MPI tasks x 1 OpenMP threads

MPI task timing breakdown:
Section |  min time  |  avg time  |  max time  |%varavg| %total
---------------------------------------------------------------
Pair    | 0.000109   | 0.000111   | 0.000115   |   0.0 | 74.50
Neigh   | 0          | 0          | 0          |   0.0 |  0.00
Comm    | 1.4e-05    | 1.8e-05    | 2.3e-05    |   0.0 | 12.08
Output  | 1.1e-05    | 1.6125e-05 | 2e-05      |   0.0 | 10.82
Modify  | 0          | 0          | 0          |   0.0 |  0.00
Other   |            | 3.875e-06  |            |       |  2.60

Nlocal:           0.25 ave           2 max           0 min
Histogram: 7 0 0 0 0 0 0 0 0 1
Nghost:         249.75 ave         250 max         248 min
Histogram: 1 0 0 0 0 0 0 0 0 7
Neighs:              8 ave          64 max           0 min
Histogram: 7 0 0 0 0 0 0 0 0 1
FullNghs:           16 ave         128 max           0 min
Histogram: 7 0 0 0 0 0 0 0 0 1

Total # of neighbors = 128
Ave neighs/atom = 64
Neighbor list builds = 0
Dangerous builds = 0
variable  natoms equal "count(all)"
variable xlength equal "lx"
variable  volume equal "vol"
variable  etotal equal "etotal"
variable    ecoh equal "pe/v_natoms"
print "${xlength}, ${volume}, ${etotal}, ${ecoh}" append lattice_cohesive_energy.txt screen no

next i
jump SELF loop

change_box all x scale 1.0025 y scale 1.0025 z scale 1.0025 remap
Changing box ...
  orthogonal box = (-0.20217041 -0.19790066 -0.19790066) to (3.2221704 3.2179007 3.2179007)
  orthogonal box = (-0.20217041 -0.20217041 -0.19790066) to (3.2221704 3.2221704 3.2179007)
  orthogonal box = (-0.20217041 -0.20217041 -0.20217041) to (3.2221704 3.2221704 3.2221704)

run 1
WARNING: No fixes with time integration, atoms won't move (src/verlet.cpp:60)
WARNING: Proc sub-domain size < neighbor skin, could lead to lost atoms (src/domain.cpp:966)
Per MPI rank memory allocation (min/avg/max) = 8.573 | 8.573 | 8.575 Mbytes
   Step         PotEng         TotEng           Lx             Ly             Lz           Volume         Press           Pxx            Pyy            Pzz      
       122  -11.327361     -11.327361      3.4243408      3.4243408      3.4243408      40.154197     -156765.01     -156765.01     -156765.01     -156765.01    
       123  -11.327361     -11.327361      3.4243408      3.4243408      3.4243408      40.154197     -156765.01     -156765.01     -156765.01     -156765.01    
Loop time of 0.000149875 on 8 procs for 1 steps with 2 atoms

Performance: 576.480 ns/day, 0.042 hours/ns, 6672.227 timesteps/s, 13.344 katom-step/s
0.0% CPU use with 8 MPI tasks x 1 OpenMP threads

MPI task timing breakdown:
Section |  min time  |  avg time  |  max time  |%varavg| %total
---------------------------------------------------------------
Pair    | 0.000109   | 0.00011062 | 0.000114   |   0.0 | 73.81
Neigh   | 0          | 0          | 0          |   0.0 |  0.00
Comm    | 1.5e-05    | 1.8375e-05 | 2.3e-05    |   0.0 | 12.26
Output  | 1.1e-05    | 1.575e-05  | 2e-05      |   0.0 | 10.51
Modify  | 0          | 3.75e-07   | 1e-06      |   0.0 |  0.25
Other   |            | 4.75e-06   |            |       |  3.17

Nlocal:           0.25 ave           2 max           0 min
Histogram: 7 0 0 0 0 0 0 0 0 1
Nghost:         249.75 ave         250 max         248 min
Histogram: 1 0 0 0 0 0 0 0 0 7
Neighs:              8 ave          64 max           0 min
Histogram: 7 0 0 0 0 0 0 0 0 1
FullNghs:           16 ave         128 max           0 min
Histogram: 7 0 0 0 0 0 0 0 0 1

Total # of neighbors = 128
Ave neighs/atom = 64
Neighbor list builds = 0
Dangerous builds = 0
variable  natoms equal "count(all)"
variable xlength equal "lx"
variable  volume equal "vol"
variable  etotal equal "etotal"
variable    ecoh equal "pe/v_natoms"
print "${xlength}, ${volume}, ${etotal}, ${ecoh}" append lattice_cohesive_energy.txt screen no

next i
jump SELF loop

change_box all x scale 1.0025 y scale 1.0025 z scale 1.0025 remap
Changing box ...
  orthogonal box = (-0.20645084 -0.20217041 -0.20217041) to (3.2264508 3.2221704 3.2221704)
  orthogonal box = (-0.20645084 -0.20645084 -0.20217041) to (3.2264508 3.2264508 3.2221704)
  orthogonal box = (-0.20645084 -0.20645084 -0.20645084) to (3.2264508 3.2264508 3.2264508)

run 1
WARNING: No fixes with time integration, atoms won't move (src/verlet.cpp:60)
WARNING: Proc sub-domain size < neighbor skin, could lead to lost atoms (src/domain.cpp:966)
Per MPI rank memory allocation (min/avg/max) = 8.573 | 8.573 | 8.575 Mbytes
   Step         PotEng         TotEng           Lx             Ly             Lz           Volume         Press           Pxx            Pyy            Pzz      
       123  -11.2974       -11.2974        3.4329017      3.4329017      3.4329017      40.456107     -161202.12     -161202.12     -161202.12     -161202.12    
       124  -11.2974       -11.2974        3.4329017      3.4329017      3.4329017      40.456107     -161202.12     -161202.12     -161202.12     -161202.12    
Loop time of 0.000151 on 8 procs for 1 steps with 2 atoms

Performance: 572.185 ns/day, 0.042 hours/ns, 6622.517 timesteps/s, 13.245 katom-step/s
0.0% CPU use with 8 MPI tasks x 1 OpenMP threads

MPI task timing breakdown:
Section |  min time  |  avg time  |  max time  |%varavg| %total
---------------------------------------------------------------
Pair    | 0.00011    | 0.0001115  | 0.000116   |   0.0 | 73.84
Neigh   | 0          | 0          | 0          |   0.0 |  0.00
Comm    | 1.4e-05    | 1.8125e-05 | 2.5e-05    |   0.0 | 12.00
Output  | 1.2e-05    | 1.7125e-05 | 2.2e-05    |   0.0 | 11.34
Modify  | 0          | 0          | 0          |   0.0 |  0.00
Other   |            | 4.25e-06   |            |       |  2.81

Nlocal:           0.25 ave           2 max           0 min
Histogram: 7 0 0 0 0 0 0 0 0 1
Nghost:         249.75 ave         250 max         248 min
Histogram: 1 0 0 0 0 0 0 0 0 7
Neighs:              8 ave          64 max           0 min
Histogram: 7 0 0 0 0 0 0 0 0 1
FullNghs:           16 ave         128 max           0 min
Histogram: 7 0 0 0 0 0 0 0 0 1

Total # of neighbors = 128
Ave neighs/atom = 64
Neighbor list builds = 0
Dangerous builds = 0
variable  natoms equal "count(all)"
variable xlength equal "lx"
variable  volume equal "vol"
variable  etotal equal "etotal"
variable    ecoh equal "pe/v_natoms"
print "${xlength}, ${volume}, ${etotal}, ${ecoh}" append lattice_cohesive_energy.txt screen no

next i
jump SELF loop

change_box all x scale 1.0025 y scale 1.0025 z scale 1.0025 remap
Changing box ...
  orthogonal box = (-0.21074196 -0.20645084 -0.20645084) to (3.230742 3.2264508 3.2264508)
  orthogonal box = (-0.21074196 -0.21074196 -0.20645084) to (3.230742 3.230742 3.2264508)
  orthogonal box = (-0.21074196 -0.21074196 -0.21074196) to (3.230742 3.230742 3.230742)

run 1
Per MPI rank memory allocation (min/avg/max) = 8.573 | 8.573 | 8.575 Mbytes
   Step         PotEng         TotEng           Lx             Ly             Lz           Volume         Press           Pxx            Pyy            Pzz      
WARNING: Too many warnings: 102 vs 100. All future warnings will be suppressed (src/thermo.cpp:466)
       124  -11.266388     -11.266388      3.4414839      3.4414839      3.4414839      40.760287     -165452.49     -165452.49     -165452.49     -165452.49    
       125  -11.266388     -11.266388      3.4414839      3.4414839      3.4414839      40.760287     -165452.49     -165452.49     -165452.49     -165452.49    
Loop time of 0.0001525 on 8 procs for 1 steps with 2 atoms

Performance: 566.557 ns/day, 0.042 hours/ns, 6557.377 timesteps/s, 13.115 katom-step/s
0.0% CPU use with 8 MPI tasks x 1 OpenMP threads

MPI task timing breakdown:
Section |  min time  |  avg time  |  max time  |%varavg| %total
---------------------------------------------------------------
Pair    | 0.000113   | 0.00011438 | 0.000118   |   0.0 | 75.00
Neigh   | 0          | 0          | 0          |   0.0 |  0.00
Comm    | 1.4e-05    | 1.8125e-05 | 2.5e-05    |   0.0 | 11.89
Output  | 1e-05      | 1.6125e-05 | 2.2e-05    |   0.0 | 10.57
Modify  | 0          | 0          | 0          |   0.0 |  0.00
Other   |            | 3.875e-06  |            |       |  2.54

Nlocal:           0.25 ave           2 max           0 min
Histogram: 7 0 0 0 0 0 0 0 0 1
Nghost:         249.75 ave         250 max         248 min
Histogram: 1 0 0 0 0 0 0 0 0 7
Neighs:              8 ave          64 max           0 min
Histogram: 7 0 0 0 0 0 0 0 0 1
FullNghs:           16 ave         128 max           0 min
Histogram: 7 0 0 0 0 0 0 0 0 1

Total # of neighbors = 128
Ave neighs/atom = 64
Neighbor list builds = 0
Dangerous builds = 0
variable  natoms equal "count(all)"
variable xlength equal "lx"
variable  volume equal "vol"
variable  etotal equal "etotal"
variable    ecoh equal "pe/v_natoms"
print "${xlength}, ${volume}, ${etotal}, ${ecoh}" append lattice_cohesive_energy.txt screen no

next i
jump SELF loop

print "-------------------------------------------------------------"
-------------------------------------------------------------
print "Show results of 1st step (Running Minimization)"
Show results of 1st step (Running Minimization)
print "The number of atoms = ${natoms};"
The number of atoms = 2;
print "The lattice constant, x (Angstoms) = ${x0};"
The lattice constant, x (Angstoms) = 3.44148392421421;
print "The lattice constant, y (Angstoms) = ${y0};"
The lattice constant, y (Angstoms) = 3.44148392421421;
print "The lattice constant, z (Angstoms) = ${z0};"
The lattice constant, z (Angstoms) = 3.44148392421421;
print "The volume (Angstoms^3) = ${v0};"
The volume (Angstoms^3) = 40.7602872249722;
print "The total energy (eV) = ${etot0};"
The total energy (eV) = -11.2663877521294;
print "The cohesive energy (eV/atom) = ${ecoh0};"
The cohesive energy (eV/atom) = -5.63319387606468;
print "-------------------------------------------------------------"
-------------------------------------------------------------
print "Simulations completed !"
Simulations completed !
Total wall time: 0:00:00
