# LAMMPS data file written by OVITO Basic 3.8.4

2 atoms
2 atom types

0.0 3.06 xlo xhi
0.0 3.06 ylo yhi
0.0 3.06 zlo zhi

Masses

1 47.867   # Ti
2 51.996   # Cr

Atoms  # atomic

1 1 0.0 0.0 0.0
2 2 1.53 1.53 1.53
