LAMMPS (22 Dec 2022)
  using 1 OpenMP thread(s) per MPI task
Loaded 1 plugins from C:\Program Files\LAMMPS 64-bit 23Jun2022\plugins
Loaded 0 plugins from C:\Program Files\LAMMPS 64-bit 23Jun2022-MPI\plugins
Loaded 1 plugins from C:\Program Files\LAMMPS 64-bit 22Dec2022-MSMPI\plugins
Loaded 1 plugins from C:\Program Files\LAMMPS 64-bit 28Mar2023-MPI\plugins
#------------------------------------------------------------------------------------------
# LAMMPS 64-bit 22Dec2022-MSMPI
#------------------------------------------------------------------------------------------
clear
  using 1 OpenMP thread(s) per MPI task
Loaded 1 plugins from C:\Program Files\LAMMPS 64-bit 23Jun2022\plugins
Loaded 0 plugins from C:\Program Files\LAMMPS 64-bit 23Jun2022-MPI\plugins
Loaded 1 plugins from C:\Program Files\LAMMPS 64-bit 22Dec2022-MSMPI\plugins
Loaded 1 plugins from C:\Program Files\LAMMPS 64-bit 28Mar2023-MPI\plugins
#echo both
# ---------- Initializing Simulation ---------------------------------
units metal
dimension 3
boundary p p p
atom_style atomic
atom_modify map array

read_data ./../../Ni3Sn.data
Reading data file ...
  orthogonal box = (0 0 0) to (3.724323 3.724323 3.724323)
  2 by 2 by 2 MPI processor grid
  reading atoms ...
  4 atoms
  read_data CPU = 0.001 seconds

replicate 1 1 1
Replication is creating a 1x1x1 = 1 times larger system...
  orthogonal box = (0 0 0) to (3.724323 3.724323 3.724323)
  2 by 2 by 2 MPI processor grid
  4 atoms
  replicate CPU = 0.000 seconds

# ---------- Defining the Interatomic Potential ---------------------
pair_style meam
pair_coeff * * ./../../library.meam Ni Sn ./../../NiSn.meam Ni Sn

# ---------- Running Minimization -------------------------------------
fix 1 all box/relax iso 0.0 vmax 0.001

thermo 10
thermo_style custom step pe etotal lx ly lz vol press pxx pyy pzz

min_style cg
minimize 1e-25 1e-25 5000 10000
Neighbor list info ...
  update: every = 1 steps, delay = 0 steps, check = yes
  max neighbors/atom: 2000, page size: 100000
  master list distance cutoff = 7.5
  ghost atom cutoff = 7.5
  binsize = 3.75, bins = 1 1 1
  2 neighbor lists, perpetual/occasional/extra = 2 0 0
  (1) pair meam, perpetual
      attributes: full, newton on
      pair build: full/bin/atomonly
      stencil: full/bin/3d
      bin: standard
  (2) pair meam, perpetual, half/full from (1)
      attributes: half, newton on
      pair build: halffull/newton
      stencil: none
      bin: none
WARNING: Proc sub-domain size < neighbor skin, could lead to lost atoms (src/domain.cpp:966)
Per MPI rank memory allocation (min/avg/max) = 9.701 | 9.701 | 9.701 Mbytes
   Step         PotEng         TotEng           Lx             Ly             Lz           Volume         Press           Pxx            Pyy            Pzz      
         0  -16.488678     -16.488678      3.724323       3.724323       3.724323       51.658527      20703.096      20703.096      20703.096      20703.096    
         9  -16.492778     -16.492778      3.7397016      3.7397016      3.7397016      52.301105      7.1761611e-10  7.5162635e-10  6.6660075e-10  7.3462123e-10
Loop time of 0.0028655 on 8 procs for 9 steps with 4 atoms

0.0% CPU use with 8 MPI tasks x 1 OpenMP threads

Minimization stats:
  Stopping criterion = energy tolerance
  Energy initial, next-to-last, final = 
     -16.4886776885157  -16.4927779669034  -16.4927779669034
  Force two-norm initial, final = 2.0025723 7.159627e-14
  Force max component initial, final = 2.0025723 6.998812e-14
  Final line search alpha, max atom move = 1 6.998812e-14
  Iterations, force evaluations = 9 14

MPI task timing breakdown:
Section |  min time  |  avg time  |  max time  |%varavg| %total
---------------------------------------------------------------
Pair    | 0.001866   | 0.0019105  | 0.001987   |   0.1 | 66.67
Neigh   | 0          | 0          | 0          |   0.0 |  0.00
Comm    | 0.000375   | 0.00044875 | 0.000494   |   0.0 | 15.66
Output  | 0          | 0          | 0          |   0.0 |  0.00
Modify  | 0          | 0          | 0          |   0.0 |  0.00
Other   |            | 0.0005063  |            |       | 17.67

Nlocal:            0.5 ave           1 max           0 min
Histogram: 4 0 0 0 0 0 0 0 0 4
Nghost:          499.5 ave         500 max         499 min
Histogram: 4 0 0 0 0 0 0 0 0 4
Neighs:             35 ave          70 max           0 min
Histogram: 4 0 0 0 0 0 0 0 0 4
FullNghs:           70 ave         140 max           0 min
Histogram: 4 0 0 0 0 0 0 0 0 4

Total # of neighbors = 560
Ave neighs/atom = 140
Neighbor list builds = 0
Dangerous builds = 0

variable  natoms equal "count(all)"
variable      x0 equal "lx"
variable      y0 equal "ly"
variable      z0 equal "lz"
variable      v0 equal "vol"
variable   etot0 equal "etotal"
variable   ecoh0 equal "pe/v_natoms"

unfix 1
write_data ./../step2_elastic/data.in
System init for write_data ...
WARNING: Proc sub-domain size < neighbor skin, could lead to lost atoms (src/domain.cpp:966)

# ---------- For Equation of States -------------------------------------
change_box all x scale 0.94 y scale 0.94 z scale 0.94 remap
Changing box ...
  orthogonal box = (0.10450173 -0.0076893158 -0.0076893158) to (3.6198213 3.7320123 3.7320123)
  orthogonal box = (0.10450173 0.10450173 -0.0076893158) to (3.6198213 3.6198213 3.7320123)
  orthogonal box = (0.10450173 0.10450173 0.10450173) to (3.6198213 3.6198213 3.6198213)
run 1
WARNING: No fixes with time integration, atoms won't move (src/verlet.cpp:60)
WARNING: Proc sub-domain size < neighbor skin, could lead to lost atoms (src/domain.cpp:966)
Per MPI rank memory allocation (min/avg/max) = 8.619 | 8.62 | 8.625 Mbytes
   Step         PotEng         TotEng           Lx             Ly             Lz           Volume         Press           Pxx            Pyy            Pzz      
         9  -15.390298     -15.390298      3.5153195      3.5153195      3.5153195      43.440461      479420.58      479420.58      479420.58      479420.58    
        10  -15.390298     -15.390298      3.5153195      3.5153195      3.5153195      43.440461      479420.58      479420.58      479420.58      479420.58    
Loop time of 0.000283625 on 8 procs for 1 steps with 4 atoms

Performance: 304.628 ns/day, 0.079 hours/ns, 3525.782 timesteps/s, 14.103 katom-step/s
0.0% CPU use with 8 MPI tasks x 1 OpenMP threads

MPI task timing breakdown:
Section |  min time  |  avg time  |  max time  |%varavg| %total
---------------------------------------------------------------
Pair    | 0.000228   | 0.000231   | 0.000241   |   0.0 | 81.45
Neigh   | 0          | 0          | 0          |   0.0 |  0.00
Comm    | 1.7e-05    | 2.5125e-05 | 3.7e-05    |   0.0 |  8.86
Output  | 1.3e-05    | 2.2625e-05 | 3.2e-05    |   0.0 |  7.98
Modify  | 0          | 2.5e-07    | 1e-06      |   0.0 |  0.09
Other   |            | 4.625e-06  |            |       |  1.63

Nlocal:            0.5 ave           4 max           0 min
Histogram: 7 0 0 0 0 0 0 0 0 1
Nghost:          499.5 ave         500 max         496 min
Histogram: 1 0 0 0 0 0 0 0 0 7
Neighs:             44 ave         352 max           0 min
Histogram: 7 0 0 0 0 0 0 0 0 1
FullNghs:           88 ave         704 max           0 min
Histogram: 7 0 0 0 0 0 0 0 0 1

Total # of neighbors = 704
Ave neighs/atom = 176
Neighbor list builds = 0
Dangerous builds = 0
print "# Lattice constant (Angstroms), Volume (Angstrom), Total energy (eV), Cohesive energy (eV/atom)" file lattice_cohesive_energy.txt screen no


# Loop over lattice constants
variable i loop 49 # Number of steps
label loop

change_box all x scale 1.0025 y scale 1.0025 z scale 1.0025 remap
Changing box ...
  orthogonal box = (0.10010758 0.10450173 0.10450173) to (3.6242154 3.6198213 3.6198213)
  orthogonal box = (0.10010758 0.10010758 0.10450173) to (3.6242154 3.6242154 3.6198213)
  orthogonal box = (0.10010758 0.10010758 0.10010758) to (3.6242154 3.6242154 3.6242154)

run 1
WARNING: No fixes with time integration, atoms won't move (src/verlet.cpp:60)
WARNING: Proc sub-domain size < neighbor skin, could lead to lost atoms (src/domain.cpp:966)
Per MPI rank memory allocation (min/avg/max) = 8.619 | 8.62 | 8.625 Mbytes
   Step         PotEng         TotEng           Lx             Ly             Lz           Volume         Press           Pxx            Pyy            Pzz      
        10  -15.485179     -15.485179      3.5241078      3.5241078      3.5241078      43.767079      451604.41      451604.41      451604.41      451604.41    
        11  -15.485179     -15.485179      3.5241078      3.5241078      3.5241078      43.767079      451604.41      451604.41      451604.41      451604.41    
Loop time of 0.000271 on 8 procs for 1 steps with 4 atoms

Performance: 318.819 ns/day, 0.075 hours/ns, 3690.037 timesteps/s, 14.760 katom-step/s
0.0% CPU use with 8 MPI tasks x 1 OpenMP threads

MPI task timing breakdown:
Section |  min time  |  avg time  |  max time  |%varavg| %total
---------------------------------------------------------------
Pair    | 0.000219   | 0.0002215  | 0.000231   |   0.0 | 81.73
Neigh   | 0          | 0          | 0          |   0.0 |  0.00
Comm    | 1.6e-05    | 2.425e-05  | 3.5e-05    |   0.0 |  8.95
Output  | 1.1e-05    | 2.0875e-05 | 2.9e-05    |   0.0 |  7.70
Modify  | 0          | 1.25e-07   | 1e-06      |   0.0 |  0.05
Other   |            | 4.25e-06   |            |       |  1.57

Nlocal:            0.5 ave           4 max           0 min
Histogram: 7 0 0 0 0 0 0 0 0 1
Nghost:          499.5 ave         500 max         496 min
Histogram: 1 0 0 0 0 0 0 0 0 7
Neighs:             44 ave         352 max           0 min
Histogram: 7 0 0 0 0 0 0 0 0 1
FullNghs:           88 ave         704 max           0 min
Histogram: 7 0 0 0 0 0 0 0 0 1

Total # of neighbors = 704
Ave neighs/atom = 176
Neighbor list builds = 0
Dangerous builds = 0
variable  natoms equal "count(all)"
variable xlength equal "lx"
variable  volume equal "vol"
variable  etotal equal "etotal"
variable    ecoh equal "pe/v_natoms"
print "${xlength}, ${volume}, ${etotal}, ${ecoh}" append lattice_cohesive_energy.txt screen no

next i
jump SELF loop

change_box all x scale 1.0025 y scale 1.0025 z scale 1.0025 remap
Changing box ...
  orthogonal box = (0.095702449 0.10010758 0.10010758) to (3.6286206 3.6242154 3.6242154)
  orthogonal box = (0.095702449 0.095702449 0.10010758) to (3.6286206 3.6286206 3.6242154)
  orthogonal box = (0.095702449 0.095702449 0.095702449) to (3.6286206 3.6286206 3.6286206)

run 1
WARNING: No fixes with time integration, atoms won't move (src/verlet.cpp:60)
WARNING: Proc sub-domain size < neighbor skin, could lead to lost atoms (src/domain.cpp:966)
Per MPI rank memory allocation (min/avg/max) = 8.619 | 8.62 | 8.625 Mbytes
   Step         PotEng         TotEng           Lx             Ly             Lz           Volume         Press           Pxx            Pyy            Pzz      
        11  -15.575149     -15.575149      3.5329181      3.5329181      3.5329181      44.096154      424644.27      424644.27      424644.27      424644.27    
        12  -15.575149     -15.575149      3.5329181      3.5329181      3.5329181      44.096154      424644.27      424644.27      424644.27      424644.27    
Loop time of 0.000271 on 8 procs for 1 steps with 4 atoms

Performance: 318.819 ns/day, 0.075 hours/ns, 3690.037 timesteps/s, 14.760 katom-step/s
0.0% CPU use with 8 MPI tasks x 1 OpenMP threads

MPI task timing breakdown:
Section |  min time  |  avg time  |  max time  |%varavg| %total
---------------------------------------------------------------
Pair    | 0.000219   | 0.00022187 | 0.000231   |   0.0 | 81.87
Neigh   | 0          | 0          | 0          |   0.0 |  0.00
Comm    | 1.7e-05    | 2.475e-05  | 3.6e-05    |   0.0 |  9.13
Output  | 1.1e-05    | 2.025e-05  | 2.9e-05    |   0.0 |  7.47
Modify  | 0          | 0          | 0          |   0.0 |  0.00
Other   |            | 4.125e-06  |            |       |  1.52

Nlocal:            0.5 ave           4 max           0 min
Histogram: 7 0 0 0 0 0 0 0 0 1
Nghost:          499.5 ave         500 max         496 min
Histogram: 1 0 0 0 0 0 0 0 0 7
Neighs:             44 ave         352 max           0 min
Histogram: 7 0 0 0 0 0 0 0 0 1
FullNghs:           88 ave         704 max           0 min
Histogram: 7 0 0 0 0 0 0 0 0 1

Total # of neighbors = 704
Ave neighs/atom = 176
Neighbor list builds = 0
Dangerous builds = 0
variable  natoms equal "count(all)"
variable xlength equal "lx"
variable  volume equal "vol"
variable  etotal equal "etotal"
variable    ecoh equal "pe/v_natoms"
print "${xlength}, ${volume}, ${etotal}, ${ecoh}" append lattice_cohesive_energy.txt screen no

next i
jump SELF loop

change_box all x scale 1.0025 y scale 1.0025 z scale 1.0025 remap
Changing box ...
  orthogonal box = (0.091286301 0.095702449 0.095702449) to (3.6330367 3.6286206 3.6286206)
  orthogonal box = (0.091286301 0.091286301 0.095702449) to (3.6330367 3.6330367 3.6286206)
  orthogonal box = (0.091286301 0.091286301 0.091286301) to (3.6330367 3.6330367 3.6330367)

run 1
WARNING: No fixes with time integration, atoms won't move (src/verlet.cpp:60)
WARNING: Proc sub-domain size < neighbor skin, could lead to lost atoms (src/domain.cpp:966)
Per MPI rank memory allocation (min/avg/max) = 8.619 | 8.62 | 8.625 Mbytes
   Step         PotEng         TotEng           Lx             Ly             Lz           Volume         Press           Pxx            Pyy            Pzz      
        12  -15.660302     -15.660302      3.5417504      3.5417504      3.5417504      44.427702      398518.93      398518.93      398518.93      398518.93    
        13  -15.660302     -15.660302      3.5417504      3.5417504      3.5417504      44.427702      398518.93      398518.93      398518.93      398518.93    
Loop time of 0.000270625 on 8 procs for 1 steps with 4 atoms

Performance: 319.261 ns/day, 0.075 hours/ns, 3695.150 timesteps/s, 14.781 katom-step/s
0.0% CPU use with 8 MPI tasks x 1 OpenMP threads

MPI task timing breakdown:
Section |  min time  |  avg time  |  max time  |%varavg| %total
---------------------------------------------------------------
Pair    | 0.00022    | 0.0002225  | 0.000231   |   0.0 | 82.22
Neigh   | 0          | 0          | 0          |   0.0 |  0.00
Comm    | 1.6e-05    | 2.325e-05  | 3.5e-05    |   0.0 |  8.59
Output  | 1.2e-05    | 2.125e-05  | 3e-05      |   0.0 |  7.85
Modify  | 0          | 0          | 0          |   0.0 |  0.00
Other   |            | 3.625e-06  |            |       |  1.34

Nlocal:            0.5 ave           4 max           0 min
Histogram: 7 0 0 0 0 0 0 0 0 1
Nghost:          499.5 ave         500 max         496 min
Histogram: 1 0 0 0 0 0 0 0 0 7
Neighs:             35 ave         280 max           0 min
Histogram: 7 0 0 0 0 0 0 0 0 1
FullNghs:           70 ave         560 max           0 min
Histogram: 7 0 0 0 0 0 0 0 0 1

Total # of neighbors = 560
Ave neighs/atom = 140
Neighbor list builds = 0
Dangerous builds = 0
variable  natoms equal "count(all)"
variable xlength equal "lx"
variable  volume equal "vol"
variable  etotal equal "etotal"
variable    ecoh equal "pe/v_natoms"
print "${xlength}, ${volume}, ${etotal}, ${ecoh}" append lattice_cohesive_energy.txt screen no

next i
jump SELF loop

change_box all x scale 1.0025 y scale 1.0025 z scale 1.0025 remap
Changing box ...
  orthogonal box = (0.086859113 0.091286301 0.091286301) to (3.6374639 3.6330367 3.6330367)
  orthogonal box = (0.086859113 0.086859113 0.091286301) to (3.6374639 3.6374639 3.6330367)
  orthogonal box = (0.086859113 0.086859113 0.086859113) to (3.6374639 3.6374639 3.6374639)

run 1
WARNING: No fixes with time integration, atoms won't move (src/verlet.cpp:60)
WARNING: Proc sub-domain size < neighbor skin, could lead to lost atoms (src/domain.cpp:966)
Per MPI rank memory allocation (min/avg/max) = 8.619 | 8.62 | 8.625 Mbytes
   Step         PotEng         TotEng           Lx             Ly             Lz           Volume         Press           Pxx            Pyy            Pzz      
        13  -15.740734     -15.740734      3.5506048      3.5506048      3.5506048      44.761744      373207.59      373207.59      373207.59      373207.59    
        14  -15.740734     -15.740734      3.5506048      3.5506048      3.5506048      44.761744      373207.59      373207.59      373207.59      373207.59    
Loop time of 0.000268125 on 8 procs for 1 steps with 4 atoms

Performance: 322.238 ns/day, 0.074 hours/ns, 3729.604 timesteps/s, 14.918 katom-step/s
0.0% CPU use with 8 MPI tasks x 1 OpenMP threads

MPI task timing breakdown:
Section |  min time  |  avg time  |  max time  |%varavg| %total
---------------------------------------------------------------
Pair    | 0.000217   | 0.00021988 | 0.000228   |   0.0 | 82.00
Neigh   | 0          | 0          | 0          |   0.0 |  0.00
Comm    | 1.7e-05    | 2.425e-05  | 3.5e-05    |   0.0 |  9.04
Output  | 1.1e-05    | 1.9625e-05 | 2.8e-05    |   0.0 |  7.32
Modify  | 0          | 0          | 0          |   0.0 |  0.00
Other   |            | 4.375e-06  |            |       |  1.63

Nlocal:            0.5 ave           4 max           0 min
Histogram: 7 0 0 0 0 0 0 0 0 1
Nghost:          499.5 ave         500 max         496 min
Histogram: 1 0 0 0 0 0 0 0 0 7
Neighs:             35 ave         280 max           0 min
Histogram: 7 0 0 0 0 0 0 0 0 1
FullNghs:           70 ave         560 max           0 min
Histogram: 7 0 0 0 0 0 0 0 0 1

Total # of neighbors = 560
Ave neighs/atom = 140
Neighbor list builds = 0
Dangerous builds = 0
variable  natoms equal "count(all)"
variable xlength equal "lx"
variable  volume equal "vol"
variable  etotal equal "etotal"
variable    ecoh equal "pe/v_natoms"
print "${xlength}, ${volume}, ${etotal}, ${ecoh}" append lattice_cohesive_energy.txt screen no

next i
jump SELF loop

change_box all x scale 1.0025 y scale 1.0025 z scale 1.0025 remap
Changing box ...
  orthogonal box = (0.082420857 0.086859113 0.086859113) to (3.6419021 3.6374639 3.6374639)
  orthogonal box = (0.082420857 0.082420857 0.086859113) to (3.6419021 3.6419021 3.6374639)
  orthogonal box = (0.082420857 0.082420857 0.082420857) to (3.6419021 3.6419021 3.6419021)

run 1
WARNING: No fixes with time integration, atoms won't move (src/verlet.cpp:60)
WARNING: Proc sub-domain size < neighbor skin, could lead to lost atoms (src/domain.cpp:966)
Per MPI rank memory allocation (min/avg/max) = 8.619 | 8.62 | 8.625 Mbytes
   Step         PotEng         TotEng           Lx             Ly             Lz           Volume         Press           Pxx            Pyy            Pzz      
        14  -15.816538     -15.816538      3.5594813      3.5594813      3.5594813      45.098297      348689.92      348689.92      348689.92      348689.92    
        15  -15.816538     -15.816538      3.5594813      3.5594813      3.5594813      45.098297      348689.92      348689.92      348689.92      348689.92    
Loop time of 0.000270125 on 8 procs for 1 steps with 4 atoms

Performance: 319.852 ns/day, 0.075 hours/ns, 3701.990 timesteps/s, 14.808 katom-step/s
0.0% CPU use with 8 MPI tasks x 1 OpenMP threads

MPI task timing breakdown:
Section |  min time  |  avg time  |  max time  |%varavg| %total
---------------------------------------------------------------
Pair    | 0.000218   | 0.00022087 | 0.00023    |   0.0 | 81.77
Neigh   | 0          | 0          | 0          |   0.0 |  0.00
Comm    | 1.7e-05    | 2.375e-05  | 3.5e-05    |   0.0 |  8.79
Output  | 1.2e-05    | 2.1375e-05 | 3e-05      |   0.0 |  7.91
Modify  | 0          | 0          | 0          |   0.0 |  0.00
Other   |            | 4.125e-06  |            |       |  1.53

Nlocal:            0.5 ave           4 max           0 min
Histogram: 7 0 0 0 0 0 0 0 0 1
Nghost:          499.5 ave         500 max         496 min
Histogram: 1 0 0 0 0 0 0 0 0 7
Neighs:             35 ave         280 max           0 min
Histogram: 7 0 0 0 0 0 0 0 0 1
FullNghs:           70 ave         560 max           0 min
Histogram: 7 0 0 0 0 0 0 0 0 1

Total # of neighbors = 560
Ave neighs/atom = 140
Neighbor list builds = 0
Dangerous builds = 0
variable  natoms equal "count(all)"
variable xlength equal "lx"
variable  volume equal "vol"
variable  etotal equal "etotal"
variable    ecoh equal "pe/v_natoms"
print "${xlength}, ${volume}, ${etotal}, ${ecoh}" append lattice_cohesive_energy.txt screen no

next i
jump SELF loop

change_box all x scale 1.0025 y scale 1.0025 z scale 1.0025 remap
Changing box ...
  orthogonal box = (0.077971506 0.082420857 0.082420857) to (3.6463515 3.6419021 3.6419021)
  orthogonal box = (0.077971506 0.077971506 0.082420857) to (3.6463515 3.6463515 3.6419021)
  orthogonal box = (0.077971506 0.077971506 0.077971506) to (3.6463515 3.6463515 3.6463515)

run 1
WARNING: No fixes with time integration, atoms won't move (src/verlet.cpp:60)
WARNING: Proc sub-domain size < neighbor skin, could lead to lost atoms (src/domain.cpp:966)
Per MPI rank memory allocation (min/avg/max) = 8.619 | 8.62 | 8.625 Mbytes
   Step         PotEng         TotEng           Lx             Ly             Lz           Volume         Press           Pxx            Pyy            Pzz      
        15  -15.887806     -15.887806      3.56838        3.56838        3.56838        45.43738       324946.01      324946.01      324946.01      324946.01    
        16  -15.887806     -15.887806      3.56838        3.56838        3.56838        45.43738       324946.01      324946.01      324946.01      324946.01    
Loop time of 0.000264125 on 8 procs for 1 steps with 4 atoms

Performance: 327.118 ns/day, 0.073 hours/ns, 3786.086 timesteps/s, 15.144 katom-step/s
0.0% CPU use with 8 MPI tasks x 1 OpenMP threads

MPI task timing breakdown:
Section |  min time  |  avg time  |  max time  |%varavg| %total
---------------------------------------------------------------
Pair    | 0.000215   | 0.00021763 | 0.000226   |   0.0 | 82.39
Neigh   | 0          | 0          | 0          |   0.0 |  0.00
Comm    | 1.6e-05    | 2.3125e-05 | 3.2e-05    |   0.0 |  8.76
Output  | 1.1e-05    | 1.8875e-05 | 2.7e-05    |   0.0 |  7.15
Modify  | 0          | 1.25e-07   | 1e-06      |   0.0 |  0.05
Other   |            | 4.375e-06  |            |       |  1.66

Nlocal:            0.5 ave           4 max           0 min
Histogram: 7 0 0 0 0 0 0 0 0 1
Nghost:          499.5 ave         500 max         496 min
Histogram: 1 0 0 0 0 0 0 0 0 7
Neighs:             35 ave         280 max           0 min
Histogram: 7 0 0 0 0 0 0 0 0 1
FullNghs:           70 ave         560 max           0 min
Histogram: 7 0 0 0 0 0 0 0 0 1

Total # of neighbors = 560
Ave neighs/atom = 140
Neighbor list builds = 0
Dangerous builds = 0
variable  natoms equal "count(all)"
variable xlength equal "lx"
variable  volume equal "vol"
variable  etotal equal "etotal"
variable    ecoh equal "pe/v_natoms"
print "${xlength}, ${volume}, ${etotal}, ${ecoh}" append lattice_cohesive_energy.txt screen no

next i
jump SELF loop

change_box all x scale 1.0025 y scale 1.0025 z scale 1.0025 remap
Changing box ...
  orthogonal box = (0.073511031 0.077971506 0.077971506) to (3.650812 3.6463515 3.6463515)
  orthogonal box = (0.073511031 0.073511031 0.077971506) to (3.650812 3.650812 3.6463515)
  orthogonal box = (0.073511031 0.073511031 0.073511031) to (3.650812 3.650812 3.650812)

run 1
WARNING: No fixes with time integration, atoms won't move (src/verlet.cpp:60)
WARNING: Proc sub-domain size < neighbor skin, could lead to lost atoms (src/domain.cpp:966)
Per MPI rank memory allocation (min/avg/max) = 8.619 | 8.62 | 8.625 Mbytes
   Step         PotEng         TotEng           Lx             Ly             Lz           Volume         Press           Pxx            Pyy            Pzz      
        16  -15.954627     -15.954627      3.5773009      3.5773009      3.5773009      45.779013      301956.42      301956.42      301956.42      301956.42    
        17  -15.954627     -15.954627      3.5773009      3.5773009      3.5773009      45.779013      301956.42      301956.42      301956.42      301956.42    
Loop time of 0.000267375 on 8 procs for 1 steps with 4 atoms

Performance: 323.142 ns/day, 0.074 hours/ns, 3740.065 timesteps/s, 14.960 katom-step/s
0.0% CPU use with 8 MPI tasks x 1 OpenMP threads

MPI task timing breakdown:
Section |  min time  |  avg time  |  max time  |%varavg| %total
---------------------------------------------------------------
Pair    | 0.000217   | 0.0002185  | 0.000228   |   0.0 | 81.72
Neigh   | 0          | 0          | 0          |   0.0 |  0.00
Comm    | 1.6e-05    | 2.3625e-05 | 3.4e-05    |   0.0 |  8.84
Output  | 1.1e-05    | 2.0625e-05 | 2.9e-05    |   0.0 |  7.71
Modify  | 0          | 2.5e-07    | 1e-06      |   0.0 |  0.09
Other   |            | 4.375e-06  |            |       |  1.64

Nlocal:            0.5 ave           4 max           0 min
Histogram: 7 0 0 0 0 0 0 0 0 1
Nghost:          499.5 ave         500 max         496 min
Histogram: 1 0 0 0 0 0 0 0 0 7
Neighs:             35 ave         280 max           0 min
Histogram: 7 0 0 0 0 0 0 0 0 1
FullNghs:           70 ave         560 max           0 min
Histogram: 7 0 0 0 0 0 0 0 0 1

Total # of neighbors = 560
Ave neighs/atom = 140
Neighbor list builds = 0
Dangerous builds = 0
variable  natoms equal "count(all)"
variable xlength equal "lx"
variable  volume equal "vol"
variable  etotal equal "etotal"
variable    ecoh equal "pe/v_natoms"
print "${xlength}, ${volume}, ${etotal}, ${ecoh}" append lattice_cohesive_energy.txt screen no

next i
jump SELF loop

change_box all x scale 1.0025 y scale 1.0025 z scale 1.0025 remap
Changing box ...
  orthogonal box = (0.069039405 0.073511031 0.073511031) to (3.6552836 3.650812 3.650812)
  orthogonal box = (0.069039405 0.069039405 0.073511031) to (3.6552836 3.6552836 3.650812)
  orthogonal box = (0.069039405 0.069039405 0.069039405) to (3.6552836 3.6552836 3.6552836)

run 1
WARNING: No fixes with time integration, atoms won't move (src/verlet.cpp:60)
WARNING: Proc sub-domain size < neighbor skin, could lead to lost atoms (src/domain.cpp:966)
Per MPI rank memory allocation (min/avg/max) = 8.619 | 8.62 | 8.625 Mbytes
   Step         PotEng         TotEng           Lx             Ly             Lz           Volume         Press           Pxx            Pyy            Pzz      
        17  -16.017091     -16.017091      3.5862442      3.5862442      3.5862442      46.123215      279702.12      279702.12      279702.12      279702.12    
        18  -16.017091     -16.017091      3.5862442      3.5862442      3.5862442      46.123215      279702.12      279702.12      279702.12      279702.12    
Loop time of 0.000264375 on 8 procs for 1 steps with 4 atoms

Performance: 326.809 ns/day, 0.073 hours/ns, 3782.506 timesteps/s, 15.130 katom-step/s
0.0% CPU use with 8 MPI tasks x 1 OpenMP threads

MPI task timing breakdown:
Section |  min time  |  avg time  |  max time  |%varavg| %total
---------------------------------------------------------------
Pair    | 0.000212   | 0.00021537 | 0.000223   |   0.0 | 81.47
Neigh   | 0          | 0          | 0          |   0.0 |  0.00
Comm    | 1.7e-05    | 2.3375e-05 | 3.2e-05    |   0.0 |  8.84
Output  | 1.3e-05    | 2.075e-05  | 2.9e-05    |   0.0 |  7.85
Modify  | 0          | 2.5e-07    | 1e-06      |   0.0 |  0.09
Other   |            | 4.625e-06  |            |       |  1.75

Nlocal:            0.5 ave           4 max           0 min
Histogram: 7 0 0 0 0 0 0 0 0 1
Nghost:          499.5 ave         500 max         496 min
Histogram: 1 0 0 0 0 0 0 0 0 7
Neighs:             35 ave         280 max           0 min
Histogram: 7 0 0 0 0 0 0 0 0 1
FullNghs:           70 ave         560 max           0 min
Histogram: 7 0 0 0 0 0 0 0 0 1

Total # of neighbors = 560
Ave neighs/atom = 140
Neighbor list builds = 0
Dangerous builds = 0
variable  natoms equal "count(all)"
variable xlength equal "lx"
variable  volume equal "vol"
variable  etotal equal "etotal"
variable    ecoh equal "pe/v_natoms"
print "${xlength}, ${volume}, ${etotal}, ${ecoh}" append lattice_cohesive_energy.txt screen no

next i
jump SELF loop

change_box all x scale 1.0025 y scale 1.0025 z scale 1.0025 remap
Changing box ...
  orthogonal box = (0.064556599 0.069039405 0.069039405) to (3.6597664 3.6552836 3.6552836)
  orthogonal box = (0.064556599 0.064556599 0.069039405) to (3.6597664 3.6597664 3.6552836)
  orthogonal box = (0.064556599 0.064556599 0.064556599) to (3.6597664 3.6597664 3.6597664)

run 1
WARNING: No fixes with time integration, atoms won't move (src/verlet.cpp:60)
WARNING: Proc sub-domain size < neighbor skin, could lead to lost atoms (src/domain.cpp:966)
Per MPI rank memory allocation (min/avg/max) = 8.619 | 8.62 | 8.625 Mbytes
   Step         PotEng         TotEng           Lx             Ly             Lz           Volume         Press           Pxx            Pyy            Pzz      
        18  -16.075285     -16.075285      3.5952098      3.5952098      3.5952098      46.470005      258164.49      258164.49      258164.49      258164.49    
        19  -16.075285     -16.075285      3.5952098      3.5952098      3.5952098      46.470005      258164.49      258164.49      258164.49      258164.49    
Loop time of 0.000268 on 8 procs for 1 steps with 4 atoms

Performance: 322.388 ns/day, 0.074 hours/ns, 3731.343 timesteps/s, 14.925 katom-step/s
0.0% CPU use with 8 MPI tasks x 1 OpenMP threads

MPI task timing breakdown:
Section |  min time  |  avg time  |  max time  |%varavg| %total
---------------------------------------------------------------
Pair    | 0.000218   | 0.00022075 | 0.000229   |   0.0 | 82.37
Neigh   | 0          | 0          | 0          |   0.0 |  0.00
Comm    | 1.7e-05    | 2.375e-05  | 3.4e-05    |   0.0 |  8.86
Output  | 1.1e-05    | 1.9375e-05 | 2.7e-05    |   0.0 |  7.23
Modify  | 0          | 1.25e-07   | 1e-06      |   0.0 |  0.05
Other   |            | 4e-06      |            |       |  1.49

Nlocal:            0.5 ave           4 max           0 min
Histogram: 7 0 0 0 0 0 0 0 0 1
Nghost:          499.5 ave         500 max         496 min
Histogram: 1 0 0 0 0 0 0 0 0 7
Neighs:             35 ave         280 max           0 min
Histogram: 7 0 0 0 0 0 0 0 0 1
FullNghs:           70 ave         560 max           0 min
Histogram: 7 0 0 0 0 0 0 0 0 1

Total # of neighbors = 560
Ave neighs/atom = 140
Neighbor list builds = 0
Dangerous builds = 0
variable  natoms equal "count(all)"
variable xlength equal "lx"
variable  volume equal "vol"
variable  etotal equal "etotal"
variable    ecoh equal "pe/v_natoms"
print "${xlength}, ${volume}, ${etotal}, ${ecoh}" append lattice_cohesive_energy.txt screen no

next i
jump SELF loop

change_box all x scale 1.0025 y scale 1.0025 z scale 1.0025 remap
Changing box ...
  orthogonal box = (0.060062587 0.064556599 0.064556599) to (3.6642604 3.6597664 3.6597664)
  orthogonal box = (0.060062587 0.060062587 0.064556599) to (3.6642604 3.6642604 3.6597664)
  orthogonal box = (0.060062587 0.060062587 0.060062587) to (3.6642604 3.6642604 3.6642604)

run 1
WARNING: No fixes with time integration, atoms won't move (src/verlet.cpp:60)
WARNING: Proc sub-domain size < neighbor skin, could lead to lost atoms (src/domain.cpp:966)
Per MPI rank memory allocation (min/avg/max) = 8.619 | 8.62 | 8.625 Mbytes
   Step         PotEng         TotEng           Lx             Ly             Lz           Volume         Press           Pxx            Pyy            Pzz      
        19  -16.129297     -16.129297      3.6041978      3.6041978      3.6041978      46.819402      237325.34      237325.34      237325.34      237325.34    
        20  -16.129297     -16.129297      3.6041978      3.6041978      3.6041978      46.819402      237325.34      237325.34      237325.34      237325.34    
Loop time of 0.00029025 on 8 procs for 1 steps with 4 atoms

Performance: 297.674 ns/day, 0.081 hours/ns, 3445.306 timesteps/s, 13.781 katom-step/s
0.0% CPU use with 8 MPI tasks x 1 OpenMP threads

MPI task timing breakdown:
Section |  min time  |  avg time  |  max time  |%varavg| %total
---------------------------------------------------------------
Pair    | 0.000228   | 0.00023587 | 0.00025    |   0.0 | 81.27
Neigh   | 0          | 0          | 0          |   0.0 |  0.00
Comm    | 1.7e-05    | 2.6625e-05 | 4.2e-05    |   0.0 |  9.17
Output  | 1.2e-05    | 2.325e-05  | 4e-05      |   0.0 |  8.01
Modify  | 0          | 3.75e-07   | 1e-06      |   0.0 |  0.13
Other   |            | 4.125e-06  |            |       |  1.42

Nlocal:            0.5 ave           4 max           0 min
Histogram: 7 0 0 0 0 0 0 0 0 1
Nghost:          499.5 ave         500 max         496 min
Histogram: 1 0 0 0 0 0 0 0 0 7
Neighs:             35 ave         280 max           0 min
Histogram: 7 0 0 0 0 0 0 0 0 1
FullNghs:           70 ave         560 max           0 min
Histogram: 7 0 0 0 0 0 0 0 0 1

Total # of neighbors = 560
Ave neighs/atom = 140
Neighbor list builds = 0
Dangerous builds = 0
variable  natoms equal "count(all)"
variable xlength equal "lx"
variable  volume equal "vol"
variable  etotal equal "etotal"
variable    ecoh equal "pe/v_natoms"
print "${xlength}, ${volume}, ${etotal}, ${ecoh}" append lattice_cohesive_energy.txt screen no

next i
jump SELF loop

change_box all x scale 1.0025 y scale 1.0025 z scale 1.0025 remap
Changing box ...
  orthogonal box = (0.05555734 0.060062587 0.060062587) to (3.6687657 3.6642604 3.6642604)
  orthogonal box = (0.05555734 0.05555734 0.060062587) to (3.6687657 3.6687657 3.6642604)
  orthogonal box = (0.05555734 0.05555734 0.05555734) to (3.6687657 3.6687657 3.6687657)

run 1
WARNING: No fixes with time integration, atoms won't move (src/verlet.cpp:60)
WARNING: Proc sub-domain size < neighbor skin, could lead to lost atoms (src/domain.cpp:966)
Per MPI rank memory allocation (min/avg/max) = 8.619 | 8.62 | 8.625 Mbytes
   Step         PotEng         TotEng           Lx             Ly             Lz           Volume         Press           Pxx            Pyy            Pzz      
        20  -16.179212     -16.179212      3.6132083      3.6132083      3.6132083      47.171426      217166.88      217166.88      217166.88      217166.88    
        21  -16.179212     -16.179212      3.6132083      3.6132083      3.6132083      47.171426      217166.88      217166.88      217166.88      217166.88    
Loop time of 0.000264125 on 8 procs for 1 steps with 4 atoms

Performance: 327.118 ns/day, 0.073 hours/ns, 3786.086 timesteps/s, 15.144 katom-step/s
0.0% CPU use with 8 MPI tasks x 1 OpenMP threads

MPI task timing breakdown:
Section |  min time  |  avg time  |  max time  |%varavg| %total
---------------------------------------------------------------
Pair    | 0.000214   | 0.00021725 | 0.000225   |   0.0 | 82.25
Neigh   | 0          | 0          | 0          |   0.0 |  0.00
Comm    | 1.6e-05    | 2.325e-05  | 3.4e-05    |   0.0 |  8.80
Output  | 1.1e-05    | 2.0125e-05 | 2.9e-05    |   0.0 |  7.62
Modify  | 0          | 0          | 0          |   0.0 |  0.00
Other   |            | 3.5e-06    |            |       |  1.33

Nlocal:            0.5 ave           4 max           0 min
Histogram: 7 0 0 0 0 0 0 0 0 1
Nghost:          499.5 ave         500 max         496 min
Histogram: 1 0 0 0 0 0 0 0 0 7
Neighs:             35 ave         280 max           0 min
Histogram: 7 0 0 0 0 0 0 0 0 1
FullNghs:           70 ave         560 max           0 min
Histogram: 7 0 0 0 0 0 0 0 0 1

Total # of neighbors = 560
Ave neighs/atom = 140
Neighbor list builds = 0
Dangerous builds = 0
variable  natoms equal "count(all)"
variable xlength equal "lx"
variable  volume equal "vol"
variable  etotal equal "etotal"
variable    ecoh equal "pe/v_natoms"
print "${xlength}, ${volume}, ${etotal}, ${ecoh}" append lattice_cohesive_energy.txt screen no

next i
jump SELF loop

change_box all x scale 1.0025 y scale 1.0025 z scale 1.0025 remap
Changing box ...
  orthogonal box = (0.051040829 0.05555734 0.05555734) to (3.6732822 3.6687657 3.6687657)
  orthogonal box = (0.051040829 0.051040829 0.05555734) to (3.6732822 3.6732822 3.6687657)
  orthogonal box = (0.051040829 0.051040829 0.051040829) to (3.6732822 3.6732822 3.6732822)

run 1
WARNING: No fixes with time integration, atoms won't move (src/verlet.cpp:60)
WARNING: Proc sub-domain size < neighbor skin, could lead to lost atoms (src/domain.cpp:966)
Per MPI rank memory allocation (min/avg/max) = 8.619 | 8.62 | 8.625 Mbytes
   Step         PotEng         TotEng           Lx             Ly             Lz           Volume         Press           Pxx            Pyy            Pzz      
        21  -16.225113     -16.225113      3.6222413      3.6222413      3.6222413      47.526097      197671.7       197671.7       197671.7       197671.7     
        22  -16.225113     -16.225113      3.6222413      3.6222413      3.6222413      47.526097      197671.7       197671.7       197671.7       197671.7     
Loop time of 0.000271375 on 8 procs for 1 steps with 4 atoms

Performance: 318.379 ns/day, 0.075 hours/ns, 3684.938 timesteps/s, 14.740 katom-step/s
0.0% CPU use with 8 MPI tasks x 1 OpenMP threads

MPI task timing breakdown:
Section |  min time  |  avg time  |  max time  |%varavg| %total
---------------------------------------------------------------
Pair    | 0.000214   | 0.00021662 | 0.000224   |   0.0 | 79.82
Neigh   | 0          | 0          | 0          |   0.0 |  0.00
Comm    | 1.6e-05    | 2.2625e-05 | 3.3e-05    |   0.0 |  8.34
Output  | 1.1e-05    | 1.975e-05  | 2.7e-05    |   0.0 |  7.28
Modify  | 0          | 1.25e-07   | 1e-06      |   0.0 |  0.05
Other   |            | 1.225e-05  |            |       |  4.51

Nlocal:            0.5 ave           4 max           0 min
Histogram: 7 0 0 0 0 0 0 0 0 1
Nghost:          499.5 ave         500 max         496 min
Histogram: 1 0 0 0 0 0 0 0 0 7
Neighs:             35 ave         280 max           0 min
Histogram: 7 0 0 0 0 0 0 0 0 1
FullNghs:           70 ave         560 max           0 min
Histogram: 7 0 0 0 0 0 0 0 0 1

Total # of neighbors = 560
Ave neighs/atom = 140
Neighbor list builds = 0
Dangerous builds = 0
variable  natoms equal "count(all)"
variable xlength equal "lx"
variable  volume equal "vol"
variable  etotal equal "etotal"
variable    ecoh equal "pe/v_natoms"
print "${xlength}, ${volume}, ${etotal}, ${ecoh}" append lattice_cohesive_energy.txt screen no

next i
jump SELF loop

change_box all x scale 1.0025 y scale 1.0025 z scale 1.0025 remap
Changing box ...
  orthogonal box = (0.046513028 0.051040829 0.051040829) to (3.67781 3.6732822 3.6732822)
  orthogonal box = (0.046513028 0.046513028 0.051040829) to (3.67781 3.67781 3.6732822)
  orthogonal box = (0.046513028 0.046513028 0.046513028) to (3.67781 3.67781 3.67781)

run 1
WARNING: No fixes with time integration, atoms won't move (src/verlet.cpp:60)
WARNING: Proc sub-domain size < neighbor skin, could lead to lost atoms (src/domain.cpp:966)
Per MPI rank memory allocation (min/avg/max) = 8.619 | 8.62 | 8.625 Mbytes
   Step         PotEng         TotEng           Lx             Ly             Lz           Volume         Press           Pxx            Pyy            Pzz      
        22  -16.267084     -16.267084      3.6312969      3.6312969      3.6312969      47.883434      178822.8       178822.8       178822.8       178822.8     
        23  -16.267084     -16.267084      3.6312969      3.6312969      3.6312969      47.883434      178822.8       178822.8       178822.8       178822.8     
Loop time of 0.0002755 on 8 procs for 1 steps with 4 atoms

Performance: 313.612 ns/day, 0.077 hours/ns, 3629.764 timesteps/s, 14.519 katom-step/s
0.0% CPU use with 8 MPI tasks x 1 OpenMP threads

MPI task timing breakdown:
Section |  min time  |  avg time  |  max time  |%varavg| %total
---------------------------------------------------------------
Pair    | 0.000225   | 0.00022788 | 0.000235   |   0.0 | 82.71
Neigh   | 0          | 0          | 0          |   0.0 |  0.00
Comm    | 1.7e-05    | 2.3375e-05 | 3.4e-05    |   0.0 |  8.48
Output  | 1.1e-05    | 1.9375e-05 | 2.7e-05    |   0.0 |  7.03
Modify  | 0          | 0          | 0          |   0.0 |  0.00
Other   |            | 4.875e-06  |            |       |  1.77

Nlocal:            0.5 ave           4 max           0 min
Histogram: 7 0 0 0 0 0 0 0 0 1
Nghost:          499.5 ave         500 max         496 min
Histogram: 1 0 0 0 0 0 0 0 0 7
Neighs:             35 ave         280 max           0 min
Histogram: 7 0 0 0 0 0 0 0 0 1
FullNghs:           70 ave         560 max           0 min
Histogram: 7 0 0 0 0 0 0 0 0 1

Total # of neighbors = 560
Ave neighs/atom = 140
Neighbor list builds = 0
Dangerous builds = 0
variable  natoms equal "count(all)"
variable xlength equal "lx"
variable  volume equal "vol"
variable  etotal equal "etotal"
variable    ecoh equal "pe/v_natoms"
print "${xlength}, ${volume}, ${etotal}, ${ecoh}" append lattice_cohesive_energy.txt screen no

next i
jump SELF loop

change_box all x scale 1.0025 y scale 1.0025 z scale 1.0025 remap
Changing box ...
  orthogonal box = (0.041973907 0.046513028 0.046513028) to (3.6823491 3.67781 3.67781)
  orthogonal box = (0.041973907 0.041973907 0.046513028) to (3.6823491 3.6823491 3.67781)
  orthogonal box = (0.041973907 0.041973907 0.041973907) to (3.6823491 3.6823491 3.6823491)

run 1
WARNING: No fixes with time integration, atoms won't move (src/verlet.cpp:60)
WARNING: Proc sub-domain size < neighbor skin, could lead to lost atoms (src/domain.cpp:966)
Per MPI rank memory allocation (min/avg/max) = 8.619 | 8.62 | 8.625 Mbytes
   Step         PotEng         TotEng           Lx             Ly             Lz           Volume         Press           Pxx            Pyy            Pzz      
        23  -16.305206     -16.305206      3.6403752      3.6403752      3.6403752      48.243459      160603.55      160603.55      160603.55      160603.55    
        24  -16.305206     -16.305206      3.6403752      3.6403752      3.6403752      48.243459      160603.55      160603.55      160603.55      160603.55    
Loop time of 0.000315 on 8 procs for 1 steps with 4 atoms

Performance: 274.286 ns/day, 0.088 hours/ns, 3174.603 timesteps/s, 12.698 katom-step/s
3100.2% CPU use with 8 MPI tasks x 1 OpenMP threads

MPI task timing breakdown:
Section |  min time  |  avg time  |  max time  |%varavg| %total
---------------------------------------------------------------
Pair    | 0.00023    | 0.00024088 | 0.000274   |   0.0 | 76.47
Neigh   | 0          | 0          | 0          |   0.0 |  0.00
Comm    | 1.6e-05    | 3.175e-05  | 6.5e-05    |   0.0 | 10.08
Output  | 1.1e-05    | 3.6875e-05 | 6.1e-05    |   0.0 | 11.71
Modify  | 0          | 3.75e-07   | 1e-06      |   0.0 |  0.12
Other   |            | 5.125e-06  |            |       |  1.63

Nlocal:            0.5 ave           4 max           0 min
Histogram: 7 0 0 0 0 0 0 0 0 1
Nghost:          499.5 ave         500 max         496 min
Histogram: 1 0 0 0 0 0 0 0 0 7
Neighs:             35 ave         280 max           0 min
Histogram: 7 0 0 0 0 0 0 0 0 1
FullNghs:           70 ave         560 max           0 min
Histogram: 7 0 0 0 0 0 0 0 0 1

Total # of neighbors = 560
Ave neighs/atom = 140
Neighbor list builds = 0
Dangerous builds = 0
variable  natoms equal "count(all)"
variable xlength equal "lx"
variable  volume equal "vol"
variable  etotal equal "etotal"
variable    ecoh equal "pe/v_natoms"
print "${xlength}, ${volume}, ${etotal}, ${ecoh}" append lattice_cohesive_energy.txt screen no

next i
jump SELF loop

change_box all x scale 1.0025 y scale 1.0025 z scale 1.0025 remap
Changing box ...
  orthogonal box = (0.037423438 0.041973907 0.041973907) to (3.6868996 3.6823491 3.6823491)
  orthogonal box = (0.037423438 0.037423438 0.041973907) to (3.6868996 3.6868996 3.6823491)
  orthogonal box = (0.037423438 0.037423438 0.037423438) to (3.6868996 3.6868996 3.6868996)

run 1
WARNING: No fixes with time integration, atoms won't move (src/verlet.cpp:60)
WARNING: Proc sub-domain size < neighbor skin, could lead to lost atoms (src/domain.cpp:966)
Per MPI rank memory allocation (min/avg/max) = 8.619 | 8.62 | 8.625 Mbytes
   Step         PotEng         TotEng           Lx             Ly             Lz           Volume         Press           Pxx            Pyy            Pzz      
        24  -16.33956      -16.33956       3.6494761      3.6494761      3.6494761      48.60619       142997.68      142997.68      142997.68      142997.68    
        25  -16.33956      -16.33956       3.6494761      3.6494761      3.6494761      48.60619       142997.68      142997.68      142997.68      142997.68    
Loop time of 0.000265875 on 8 procs for 1 steps with 4 atoms

Performance: 324.965 ns/day, 0.074 hours/ns, 3761.166 timesteps/s, 15.045 katom-step/s
0.0% CPU use with 8 MPI tasks x 1 OpenMP threads

MPI task timing breakdown:
Section |  min time  |  avg time  |  max time  |%varavg| %total
---------------------------------------------------------------
Pair    | 0.000215   | 0.0002175  | 0.000227   |   0.0 | 81.81
Neigh   | 0          | 0          | 0          |   0.0 |  0.00
Comm    | 1.7e-05    | 2.425e-05  | 3.5e-05    |   0.0 |  9.12
Output  | 1.2e-05    | 2.05e-05   | 2.8e-05    |   0.0 |  7.71
Modify  | 0          | 1.25e-07   | 1e-06      |   0.0 |  0.05
Other   |            | 3.5e-06    |            |       |  1.32

Nlocal:            0.5 ave           4 max           0 min
Histogram: 7 0 0 0 0 0 0 0 0 1
Nghost:          499.5 ave         500 max         496 min
Histogram: 1 0 0 0 0 0 0 0 0 7
Neighs:             35 ave         280 max           0 min
Histogram: 7 0 0 0 0 0 0 0 0 1
FullNghs:           70 ave         560 max           0 min
Histogram: 7 0 0 0 0 0 0 0 0 1

Total # of neighbors = 560
Ave neighs/atom = 140
Neighbor list builds = 0
Dangerous builds = 0
variable  natoms equal "count(all)"
variable xlength equal "lx"
variable  volume equal "vol"
variable  etotal equal "etotal"
variable    ecoh equal "pe/v_natoms"
print "${xlength}, ${volume}, ${etotal}, ${ecoh}" append lattice_cohesive_energy.txt screen no

next i
jump SELF loop

change_box all x scale 1.0025 y scale 1.0025 z scale 1.0025 remap
Changing box ...
  orthogonal box = (0.032861592 0.037423438 0.037423438) to (3.6914614 3.6868996 3.6868996)
  orthogonal box = (0.032861592 0.032861592 0.037423438) to (3.6914614 3.6914614 3.6868996)
  orthogonal box = (0.032861592 0.032861592 0.032861592) to (3.6914614 3.6914614 3.6914614)

run 1
WARNING: No fixes with time integration, atoms won't move (src/verlet.cpp:60)
WARNING: Proc sub-domain size < neighbor skin, could lead to lost atoms (src/domain.cpp:966)
Per MPI rank memory allocation (min/avg/max) = 8.619 | 8.62 | 8.625 Mbytes
   Step         PotEng         TotEng           Lx             Ly             Lz           Volume         Press           Pxx            Pyy            Pzz      
        25  -16.370224     -16.370224      3.6585998      3.6585998      3.6585998      48.971649      125989.3       125989.3       125989.3       125989.3     
        26  -16.370224     -16.370224      3.6585998      3.6585998      3.6585998      48.971649      125989.3       125989.3       125989.3       125989.3     
Loop time of 0.0002675 on 8 procs for 1 steps with 4 atoms

Performance: 322.991 ns/day, 0.074 hours/ns, 3738.318 timesteps/s, 14.953 katom-step/s
0.0% CPU use with 8 MPI tasks x 1 OpenMP threads

MPI task timing breakdown:
Section |  min time  |  avg time  |  max time  |%varavg| %total
---------------------------------------------------------------
Pair    | 0.000214   | 0.00021663 | 0.000226   |   0.0 | 80.98
Neigh   | 0          | 0          | 0          |   0.0 |  0.00
Comm    | 1.7e-05    | 2.4125e-05 | 3.6e-05    |   0.0 |  9.02
Output  | 1.1e-05    | 2.0375e-05 | 2.9e-05    |   0.0 |  7.62
Modify  | 0          | 0          | 0          |   0.0 |  0.00
Other   |            | 6.375e-06  |            |       |  2.38

Nlocal:            0.5 ave           4 max           0 min
Histogram: 7 0 0 0 0 0 0 0 0 1
Nghost:          499.5 ave         500 max         496 min
Histogram: 1 0 0 0 0 0 0 0 0 7
Neighs:             35 ave         280 max           0 min
Histogram: 7 0 0 0 0 0 0 0 0 1
FullNghs:           70 ave         560 max           0 min
Histogram: 7 0 0 0 0 0 0 0 0 1

Total # of neighbors = 560
Ave neighs/atom = 140
Neighbor list builds = 0
Dangerous builds = 0
variable  natoms equal "count(all)"
variable xlength equal "lx"
variable  volume equal "vol"
variable  etotal equal "etotal"
variable    ecoh equal "pe/v_natoms"
print "${xlength}, ${volume}, ${etotal}, ${ecoh}" append lattice_cohesive_energy.txt screen no

next i
jump SELF loop

change_box all x scale 1.0025 y scale 1.0025 z scale 1.0025 remap
Changing box ...
  orthogonal box = (0.028288343 0.032861592 0.032861592) to (3.6960347 3.6914614 3.6914614)
  orthogonal box = (0.028288343 0.028288343 0.032861592) to (3.6960347 3.6960347 3.6914614)
  orthogonal box = (0.028288343 0.028288343 0.028288343) to (3.6960347 3.6960347 3.6960347)

run 1
WARNING: No fixes with time integration, atoms won't move (src/verlet.cpp:60)
WARNING: Proc sub-domain size < neighbor skin, could lead to lost atoms (src/domain.cpp:966)
Per MPI rank memory allocation (min/avg/max) = 8.619 | 8.62 | 8.625 Mbytes
   Step         PotEng         TotEng           Lx             Ly             Lz           Volume         Press           Pxx            Pyy            Pzz      
        26  -16.397278     -16.397278      3.6677463      3.6677463      3.6677463      49.339855      109562.87      109562.87      109562.87      109562.87    
        27  -16.397278     -16.397278      3.6677463      3.6677463      3.6677463      49.339855      109562.87      109562.87      109562.87      109562.87    
Loop time of 0.000261625 on 8 procs for 1 steps with 4 atoms

Performance: 330.244 ns/day, 0.073 hours/ns, 3822.265 timesteps/s, 15.289 katom-step/s
0.0% CPU use with 8 MPI tasks x 1 OpenMP threads

MPI task timing breakdown:
Section |  min time  |  avg time  |  max time  |%varavg| %total
---------------------------------------------------------------
Pair    | 0.000211   | 0.00021388 | 0.000222   |   0.0 | 81.75
Neigh   | 0          | 0          | 0          |   0.0 |  0.00
Comm    | 1.6e-05    | 2.325e-05  | 3.4e-05    |   0.0 |  8.89
Output  | 1.1e-05    | 2.0125e-05 | 2.9e-05    |   0.0 |  7.69
Modify  | 0          | 2.5e-07    | 2e-06      |   0.0 |  0.10
Other   |            | 4.125e-06  |            |       |  1.58

Nlocal:            0.5 ave           4 max           0 min
Histogram: 7 0 0 0 0 0 0 0 0 1
Nghost:          499.5 ave         500 max         496 min
Histogram: 1 0 0 0 0 0 0 0 0 7
Neighs:             35 ave         280 max           0 min
Histogram: 7 0 0 0 0 0 0 0 0 1
FullNghs:           70 ave         560 max           0 min
Histogram: 7 0 0 0 0 0 0 0 0 1

Total # of neighbors = 560
Ave neighs/atom = 140
Neighbor list builds = 0
Dangerous builds = 0
variable  natoms equal "count(all)"
variable xlength equal "lx"
variable  volume equal "vol"
variable  etotal equal "etotal"
variable    ecoh equal "pe/v_natoms"
print "${xlength}, ${volume}, ${etotal}, ${ecoh}" append lattice_cohesive_energy.txt screen no

next i
jump SELF loop

change_box all x scale 1.0025 y scale 1.0025 z scale 1.0025 remap
Changing box ...
  orthogonal box = (0.02370366 0.028288343 0.028288343) to (3.7006193 3.6960347 3.6960347)
  orthogonal box = (0.02370366 0.02370366 0.028288343) to (3.7006193 3.7006193 3.6960347)
  orthogonal box = (0.02370366 0.02370366 0.02370366) to (3.7006193 3.7006193 3.7006193)

run 1
WARNING: No fixes with time integration, atoms won't move (src/verlet.cpp:60)
WARNING: Proc sub-domain size < neighbor skin, could lead to lost atoms (src/domain.cpp:966)
Per MPI rank memory allocation (min/avg/max) = 8.619 | 8.62 | 8.625 Mbytes
   Step         PotEng         TotEng           Lx             Ly             Lz           Volume         Press           Pxx            Pyy            Pzz      
        27  -16.420797     -16.420797      3.6769157      3.6769157      3.6769157      49.71083       93703.203      93703.203      93703.203      93703.203    
        28  -16.420797     -16.420797      3.6769157      3.6769157      3.6769157      49.71083       93703.203      93703.203      93703.203      93703.203    
Loop time of 0.00031225 on 8 procs for 1 steps with 4 atoms

Performance: 276.701 ns/day, 0.087 hours/ns, 3202.562 timesteps/s, 12.810 katom-step/s
0.0% CPU use with 8 MPI tasks x 1 OpenMP threads

MPI task timing breakdown:
Section |  min time  |  avg time  |  max time  |%varavg| %total
---------------------------------------------------------------
Pair    | 0.000243   | 0.00024875 | 0.000263   |   0.0 | 79.66
Neigh   | 0          | 0          | 0          |   0.0 |  0.00
Comm    | 1.7e-05    | 2.8e-05    | 4.6e-05    |   0.0 |  8.97
Output  | 1.5e-05    | 2.775e-05  | 4.3e-05    |   0.0 |  8.89
Modify  | 0          | 2.5e-07    | 2e-06      |   0.0 |  0.08
Other   |            | 7.5e-06    |            |       |  2.40

Nlocal:            0.5 ave           4 max           0 min
Histogram: 7 0 0 0 0 0 0 0 0 1
Nghost:          499.5 ave         500 max         496 min
Histogram: 1 0 0 0 0 0 0 0 0 7
Neighs:             35 ave         280 max           0 min
Histogram: 7 0 0 0 0 0 0 0 0 1
FullNghs:           70 ave         560 max           0 min
Histogram: 7 0 0 0 0 0 0 0 0 1

Total # of neighbors = 560
Ave neighs/atom = 140
Neighbor list builds = 0
Dangerous builds = 0
variable  natoms equal "count(all)"
variable xlength equal "lx"
variable  volume equal "vol"
variable  etotal equal "etotal"
variable    ecoh equal "pe/v_natoms"
print "${xlength}, ${volume}, ${etotal}, ${ecoh}" append lattice_cohesive_energy.txt screen no

next i
jump SELF loop

change_box all x scale 1.0025 y scale 1.0025 z scale 1.0025 remap
Changing box ...
  orthogonal box = (0.019107515 0.02370366 0.02370366) to (3.7052155 3.7006193 3.7006193)
  orthogonal box = (0.019107515 0.019107515 0.02370366) to (3.7052155 3.7052155 3.7006193)
  orthogonal box = (0.019107515 0.019107515 0.019107515) to (3.7052155 3.7052155 3.7052155)

run 1
WARNING: No fixes with time integration, atoms won't move (src/verlet.cpp:60)
WARNING: Proc sub-domain size < neighbor skin, could lead to lost atoms (src/domain.cpp:966)
Per MPI rank memory allocation (min/avg/max) = 8.619 | 8.62 | 8.625 Mbytes
   Step         PotEng         TotEng           Lx             Ly             Lz           Volume         Press           Pxx            Pyy            Pzz      
        28  -16.440858     -16.440858      3.686108       3.686108       3.686108       50.084594      78395.452      78395.452      78395.452      78395.452    
        29  -16.440858     -16.440858      3.686108       3.686108       3.686108       50.084594      78395.452      78395.452      78395.452      78395.452    
Loop time of 0.000293 on 8 procs for 1 steps with 4 atoms

Performance: 294.881 ns/day, 0.081 hours/ns, 3412.969 timesteps/s, 13.652 katom-step/s
0.0% CPU use with 8 MPI tasks x 1 OpenMP threads

MPI task timing breakdown:
Section |  min time  |  avg time  |  max time  |%varavg| %total
---------------------------------------------------------------
Pair    | 0.000216   | 0.000227   | 0.00025    |   0.0 | 77.47
Neigh   | 0          | 0          | 0          |   0.0 |  0.00
Comm    | 1.6e-05    | 2.95e-05   | 5.2e-05    |   0.0 | 10.07
Output  | 1.5e-05    | 3.175e-05  | 5.2e-05    |   0.0 | 10.84
Modify  | 0          | 1.25e-07   | 1e-06      |   0.0 |  0.04
Other   |            | 4.625e-06  |            |       |  1.58

Nlocal:            0.5 ave           4 max           0 min
Histogram: 7 0 0 0 0 0 0 0 0 1
Nghost:          499.5 ave         500 max         496 min
Histogram: 1 0 0 0 0 0 0 0 0 7
Neighs:             35 ave         280 max           0 min
Histogram: 7 0 0 0 0 0 0 0 0 1
FullNghs:           70 ave         560 max           0 min
Histogram: 7 0 0 0 0 0 0 0 0 1

Total # of neighbors = 560
Ave neighs/atom = 140
Neighbor list builds = 0
Dangerous builds = 0
variable  natoms equal "count(all)"
variable xlength equal "lx"
variable  volume equal "vol"
variable  etotal equal "etotal"
variable    ecoh equal "pe/v_natoms"
print "${xlength}, ${volume}, ${etotal}, ${ecoh}" append lattice_cohesive_energy.txt screen no

next i
jump SELF loop

change_box all x scale 1.0025 y scale 1.0025 z scale 1.0025 remap
Changing box ...
  orthogonal box = (0.01449988 0.019107515 0.019107515) to (3.7098231 3.7052155 3.7052155)
  orthogonal box = (0.01449988 0.01449988 0.019107515) to (3.7098231 3.7098231 3.7052155)
  orthogonal box = (0.01449988 0.01449988 0.01449988) to (3.7098231 3.7098231 3.7098231)

run 1
WARNING: No fixes with time integration, atoms won't move (src/verlet.cpp:60)
WARNING: Proc sub-domain size < neighbor skin, could lead to lost atoms (src/domain.cpp:966)
Per MPI rank memory allocation (min/avg/max) = 8.619 | 8.62 | 8.625 Mbytes
   Step         PotEng         TotEng           Lx             Ly             Lz           Volume         Press           Pxx            Pyy            Pzz      
        29  -16.457536     -16.457536      3.6953232      3.6953232      3.6953232      50.461168      63625.107      63625.107      63625.107      63625.107    
        30  -16.457536     -16.457536      3.6953232      3.6953232      3.6953232      50.461168      63625.107      63625.107      63625.107      63625.107    
Loop time of 0.000265625 on 8 procs for 1 steps with 4 atoms

Performance: 325.271 ns/day, 0.074 hours/ns, 3764.706 timesteps/s, 15.059 katom-step/s
0.0% CPU use with 8 MPI tasks x 1 OpenMP threads

MPI task timing breakdown:
Section |  min time  |  avg time  |  max time  |%varavg| %total
---------------------------------------------------------------
Pair    | 0.000215   | 0.00021875 | 0.000226   |   0.0 | 82.35
Neigh   | 0          | 0          | 0          |   0.0 |  0.00
Comm    | 1.7e-05    | 2.325e-05  | 3.3e-05    |   0.0 |  8.75
Output  | 1.2e-05    | 1.975e-05  | 2.7e-05    |   0.0 |  7.44
Modify  | 0          | 0          | 0          |   0.0 |  0.00
Other   |            | 3.875e-06  |            |       |  1.46

Nlocal:            0.5 ave           4 max           0 min
Histogram: 7 0 0 0 0 0 0 0 0 1
Nghost:          499.5 ave         500 max         496 min
Histogram: 1 0 0 0 0 0 0 0 0 7
Neighs:             35 ave         280 max           0 min
Histogram: 7 0 0 0 0 0 0 0 0 1
FullNghs:           70 ave         560 max           0 min
Histogram: 7 0 0 0 0 0 0 0 0 1

Total # of neighbors = 560
Ave neighs/atom = 140
Neighbor list builds = 0
Dangerous builds = 0
variable  natoms equal "count(all)"
variable xlength equal "lx"
variable  volume equal "vol"
variable  etotal equal "etotal"
variable    ecoh equal "pe/v_natoms"
print "${xlength}, ${volume}, ${etotal}, ${ecoh}" append lattice_cohesive_energy.txt screen no

next i
jump SELF loop

change_box all x scale 1.0025 y scale 1.0025 z scale 1.0025 remap
Changing box ...
  orthogonal box = (0.0098807261 0.01449988 0.01449988) to (3.7144423 3.7098231 3.7098231)
  orthogonal box = (0.0098807261 0.0098807261 0.01449988) to (3.7144423 3.7144423 3.7098231)
  orthogonal box = (0.0098807261 0.0098807261 0.0098807261) to (3.7144423 3.7144423 3.7144423)

run 1
WARNING: No fixes with time integration, atoms won't move (src/verlet.cpp:60)
WARNING: Proc sub-domain size < neighbor skin, could lead to lost atoms (src/domain.cpp:966)
Per MPI rank memory allocation (min/avg/max) = 8.619 | 8.62 | 8.625 Mbytes
   Step         PotEng         TotEng           Lx             Ly             Lz           Volume         Press           Pxx            Pyy            Pzz      
        30  -16.470904     -16.470904      3.7045615      3.7045615      3.7045615      50.840574      49377.991      49377.991      49377.991      49377.991    
        31  -16.470904     -16.470904      3.7045615      3.7045615      3.7045615      50.840574      49377.991      49377.991      49377.991      49377.991    
Loop time of 0.000279625 on 8 procs for 1 steps with 4 atoms

Performance: 308.985 ns/day, 0.078 hours/ns, 3576.218 timesteps/s, 14.305 katom-step/s
0.0% CPU use with 8 MPI tasks x 1 OpenMP threads

MPI task timing breakdown:
Section |  min time  |  avg time  |  max time  |%varavg| %total
---------------------------------------------------------------
Pair    | 0.000229   | 0.00023163 | 0.000239   |   0.0 | 82.83
Neigh   | 0          | 0          | 0          |   0.0 |  0.00
Comm    | 1.7e-05    | 2.35e-05   | 3.4e-05    |   0.0 |  8.40
Output  | 1.1e-05    | 1.9125e-05 | 2.7e-05    |   0.0 |  6.84
Modify  | 0          | 0          | 0          |   0.0 |  0.00
Other   |            | 5.375e-06  |            |       |  1.92

Nlocal:            0.5 ave           4 max           0 min
Histogram: 7 0 0 0 0 0 0 0 0 1
Nghost:          499.5 ave         500 max         496 min
Histogram: 1 0 0 0 0 0 0 0 0 7
Neighs:             35 ave         280 max           0 min
Histogram: 7 0 0 0 0 0 0 0 0 1
FullNghs:           70 ave         560 max           0 min
Histogram: 7 0 0 0 0 0 0 0 0 1

Total # of neighbors = 560
Ave neighs/atom = 140
Neighbor list builds = 0
Dangerous builds = 0
variable  natoms equal "count(all)"
variable xlength equal "lx"
variable  volume equal "vol"
variable  etotal equal "etotal"
variable    ecoh equal "pe/v_natoms"
print "${xlength}, ${volume}, ${etotal}, ${ecoh}" append lattice_cohesive_energy.txt screen no

next i
jump SELF loop

change_box all x scale 1.0025 y scale 1.0025 z scale 1.0025 remap
Changing box ...
  orthogonal box = (0.0052500242 0.0098807261 0.0098807261) to (3.719073 3.7144423 3.7144423)
  orthogonal box = (0.0052500242 0.0052500242 0.0098807261) to (3.719073 3.719073 3.7144423)
  orthogonal box = (0.0052500242 0.0052500242 0.0052500242) to (3.719073 3.719073 3.719073)

run 1
WARNING: No fixes with time integration, atoms won't move (src/verlet.cpp:60)
WARNING: Proc sub-domain size < neighbor skin, could lead to lost atoms (src/domain.cpp:966)
Per MPI rank memory allocation (min/avg/max) = 8.619 | 8.62 | 8.625 Mbytes
   Step         PotEng         TotEng           Lx             Ly             Lz           Volume         Press           Pxx            Pyy            Pzz      
        31  -16.481034     -16.481034      3.713823       3.713823       3.713823       51.222832      35640.238      35640.238      35640.238      35640.238    
        32  -16.481034     -16.481034      3.713823       3.713823       3.713823       51.222832      35640.238      35640.238      35640.238      35640.238    
Loop time of 0.000263625 on 8 procs for 1 steps with 4 atoms

Performance: 327.738 ns/day, 0.073 hours/ns, 3793.267 timesteps/s, 15.173 katom-step/s
0.0% CPU use with 8 MPI tasks x 1 OpenMP threads

MPI task timing breakdown:
Section |  min time  |  avg time  |  max time  |%varavg| %total
---------------------------------------------------------------
Pair    | 0.000212   | 0.000215   | 0.000223   |   0.0 | 81.56
Neigh   | 0          | 0          | 0          |   0.0 |  0.00
Comm    | 1.8e-05    | 2.4e-05    | 3.3e-05    |   0.0 |  9.10
Output  | 1.2e-05    | 2.05e-05   | 2.9e-05    |   0.0 |  7.78
Modify  | 0          | 0          | 0          |   0.0 |  0.00
Other   |            | 4.125e-06  |            |       |  1.56

Nlocal:            0.5 ave           4 max           0 min
Histogram: 7 0 0 0 0 0 0 0 0 1
Nghost:          499.5 ave         500 max         496 min
Histogram: 1 0 0 0 0 0 0 0 0 7
Neighs:             35 ave         280 max           0 min
Histogram: 7 0 0 0 0 0 0 0 0 1
FullNghs:           70 ave         560 max           0 min
Histogram: 7 0 0 0 0 0 0 0 0 1

Total # of neighbors = 560
Ave neighs/atom = 140
Neighbor list builds = 0
Dangerous builds = 0
variable  natoms equal "count(all)"
variable xlength equal "lx"
variable  volume equal "vol"
variable  etotal equal "etotal"
variable    ecoh equal "pe/v_natoms"
print "${xlength}, ${volume}, ${etotal}, ${ecoh}" append lattice_cohesive_energy.txt screen no

next i
jump SELF loop

change_box all x scale 1.0025 y scale 1.0025 z scale 1.0025 remap
Changing box ...
  orthogonal box = (0.00060774552 0.0052500242 0.0052500242) to (3.7237153 3.719073 3.719073)
  orthogonal box = (0.00060774552 0.00060774552 0.0052500242) to (3.7237153 3.7237153 3.719073)
  orthogonal box = (0.00060774552 0.00060774552 0.00060774552) to (3.7237153 3.7237153 3.7237153)

run 1
WARNING: No fixes with time integration, atoms won't move (src/verlet.cpp:60)
WARNING: Proc sub-domain size < neighbor skin, could lead to lost atoms (src/domain.cpp:966)
Per MPI rank memory allocation (min/avg/max) = 8.619 | 8.62 | 8.625 Mbytes
   Step         PotEng         TotEng           Lx             Ly             Lz           Volume         Press           Pxx            Pyy            Pzz      
        32  -16.487998     -16.487998      3.7231075      3.7231075      3.7231075      51.607965      22398.279      22398.279      22398.279      22398.279    
        33  -16.487998     -16.487998      3.7231075      3.7231075      3.7231075      51.607965      22398.279      22398.279      22398.279      22398.279    
Loop time of 0.00026125 on 8 procs for 1 steps with 4 atoms

Performance: 330.718 ns/day, 0.073 hours/ns, 3827.751 timesteps/s, 15.311 katom-step/s
0.0% CPU use with 8 MPI tasks x 1 OpenMP threads

MPI task timing breakdown:
Section |  min time  |  avg time  |  max time  |%varavg| %total
---------------------------------------------------------------
Pair    | 0.000212   | 0.00021463 | 0.000222   |   0.0 | 82.15
Neigh   | 0          | 0          | 0          |   0.0 |  0.00
Comm    | 1.6e-05    | 2.3125e-05 | 3.3e-05    |   0.0 |  8.85
Output  | 1.1e-05    | 1.9625e-05 | 2.8e-05    |   0.0 |  7.51
Modify  | 0          | 2.5e-07    | 1e-06      |   0.0 |  0.10
Other   |            | 3.625e-06  |            |       |  1.39

Nlocal:            0.5 ave           4 max           0 min
Histogram: 7 0 0 0 0 0 0 0 0 1
Nghost:          499.5 ave         500 max         496 min
Histogram: 1 0 0 0 0 0 0 0 0 7
Neighs:             35 ave         280 max           0 min
Histogram: 7 0 0 0 0 0 0 0 0 1
FullNghs:           70 ave         560 max           0 min
Histogram: 7 0 0 0 0 0 0 0 0 1

Total # of neighbors = 560
Ave neighs/atom = 140
Neighbor list builds = 0
Dangerous builds = 0
variable  natoms equal "count(all)"
variable xlength equal "lx"
variable  volume equal "vol"
variable  etotal equal "etotal"
variable    ecoh equal "pe/v_natoms"
print "${xlength}, ${volume}, ${etotal}, ${ecoh}" append lattice_cohesive_energy.txt screen no

next i
jump SELF loop

change_box all x scale 1.0025 y scale 1.0025 z scale 1.0025 remap
Changing box ...
  orthogonal box = (-0.0040461389 0.00060774552 0.00060774552) to (3.7283691 3.7237153 3.7237153)
  orthogonal box = (-0.0040461389 -0.0040461389 0.00060774552) to (3.7283691 3.7283691 3.7237153)
  orthogonal box = (-0.0040461389 -0.0040461389 -0.0040461389) to (3.7283691 3.7283691 3.7283691)

run 1
WARNING: No fixes with time integration, atoms won't move (src/verlet.cpp:60)
WARNING: Proc sub-domain size < neighbor skin, could lead to lost atoms (src/domain.cpp:966)
Per MPI rank memory allocation (min/avg/max) = 8.619 | 8.62 | 8.625 Mbytes
   Step         PotEng         TotEng           Lx             Ly             Lz           Volume         Press           Pxx            Pyy            Pzz      
        33  -16.491866     -16.491866      3.7324153      3.7324153      3.7324153      51.995993      9638.8825      9638.8825      9638.8825      9638.8825    
        34  -16.491866     -16.491866      3.7324153      3.7324153      3.7324153      51.995993      9638.8825      9638.8825      9638.8825      9638.8825    
Loop time of 0.00026675 on 8 procs for 1 steps with 4 atoms

Performance: 323.899 ns/day, 0.074 hours/ns, 3748.828 timesteps/s, 14.995 katom-step/s
0.0% CPU use with 8 MPI tasks x 1 OpenMP threads

MPI task timing breakdown:
Section |  min time  |  avg time  |  max time  |%varavg| %total
---------------------------------------------------------------
Pair    | 0.000217   | 0.00021925 | 0.000228   |   0.0 | 82.19
Neigh   | 0          | 0          | 0          |   0.0 |  0.00
Comm    | 1.7e-05    | 2.3875e-05 | 3.5e-05    |   0.0 |  8.95
Output  | 1.1e-05    | 2.0125e-05 | 2.9e-05    |   0.0 |  7.54
Modify  | 0          | 0          | 0          |   0.0 |  0.00
Other   |            | 3.5e-06    |            |       |  1.31

Nlocal:            0.5 ave           4 max           0 min
Histogram: 7 0 0 0 0 0 0 0 0 1
Nghost:          499.5 ave         500 max         496 min
Histogram: 1 0 0 0 0 0 0 0 0 7
Neighs:             35 ave         280 max           0 min
Histogram: 7 0 0 0 0 0 0 0 0 1
FullNghs:           70 ave         560 max           0 min
Histogram: 7 0 0 0 0 0 0 0 0 1

Total # of neighbors = 560
Ave neighs/atom = 140
Neighbor list builds = 0
Dangerous builds = 0
variable  natoms equal "count(all)"
variable xlength equal "lx"
variable  volume equal "vol"
variable  etotal equal "etotal"
variable    ecoh equal "pe/v_natoms"
print "${xlength}, ${volume}, ${etotal}, ${ecoh}" append lattice_cohesive_energy.txt screen no

next i
jump SELF loop

change_box all x scale 1.0025 y scale 1.0025 z scale 1.0025 remap
Changing box ...
  orthogonal box = (-0.008711658 -0.0040461389 -0.0040461389) to (3.7330347 3.7283691 3.7283691)
  orthogonal box = (-0.008711658 -0.008711658 -0.0040461389) to (3.7330347 3.7330347 3.7283691)
  orthogonal box = (-0.008711658 -0.008711658 -0.008711658) to (3.7330347 3.7330347 3.7330347)

run 1
WARNING: No fixes with time integration, atoms won't move (src/verlet.cpp:60)
WARNING: Proc sub-domain size < neighbor skin, could lead to lost atoms (src/domain.cpp:966)
Per MPI rank memory allocation (min/avg/max) = 8.619 | 8.62 | 8.625 Mbytes
   Step         PotEng         TotEng           Lx             Ly             Lz           Volume         Press           Pxx            Pyy            Pzz      
        34  -16.492707     -16.492707      3.7417463      3.7417463      3.7417463      52.386939     -2650.8807     -2650.8807     -2650.8807     -2650.8807    
        35  -16.492707     -16.492707      3.7417463      3.7417463      3.7417463      52.386939     -2650.8807     -2650.8807     -2650.8807     -2650.8807    
Loop time of 0.0002645 on 8 procs for 1 steps with 4 atoms

Performance: 326.654 ns/day, 0.073 hours/ns, 3780.718 timesteps/s, 15.123 katom-step/s
0.0% CPU use with 8 MPI tasks x 1 OpenMP threads

MPI task timing breakdown:
Section |  min time  |  avg time  |  max time  |%varavg| %total
---------------------------------------------------------------
Pair    | 0.000213   | 0.00021575 | 0.000225   |   0.0 | 81.57
Neigh   | 0          | 0          | 0          |   0.0 |  0.00
Comm    | 1.6e-05    | 2.325e-05  | 3.3e-05    |   0.0 |  8.79
Output  | 1.1e-05    | 1.9875e-05 | 3e-05      |   0.0 |  7.51
Modify  | 0          | 3.75e-07   | 1e-06      |   0.0 |  0.14
Other   |            | 5.25e-06   |            |       |  1.98

Nlocal:            0.5 ave           4 max           0 min
Histogram: 7 0 0 0 0 0 0 0 0 1
Nghost:          499.5 ave         500 max         496 min
Histogram: 1 0 0 0 0 0 0 0 0 7
Neighs:             35 ave         280 max           0 min
Histogram: 7 0 0 0 0 0 0 0 0 1
FullNghs:           70 ave         560 max           0 min
Histogram: 7 0 0 0 0 0 0 0 0 1

Total # of neighbors = 560
Ave neighs/atom = 140
Neighbor list builds = 0
Dangerous builds = 0
variable  natoms equal "count(all)"
variable xlength equal "lx"
variable  volume equal "vol"
variable  etotal equal "etotal"
variable    ecoh equal "pe/v_natoms"
print "${xlength}, ${volume}, ${etotal}, ${ecoh}" append lattice_cohesive_energy.txt screen no

next i
jump SELF loop

change_box all x scale 1.0025 y scale 1.0025 z scale 1.0025 remap
Changing box ...
  orthogonal box = (-0.013388841 -0.008711658 -0.008711658) to (3.7377118 3.7330347 3.7330347)
  orthogonal box = (-0.013388841 -0.013388841 -0.008711658) to (3.7377118 3.7377118 3.7330347)
  orthogonal box = (-0.013388841 -0.013388841 -0.013388841) to (3.7377118 3.7377118 3.7377118)

run 1
WARNING: No fixes with time integration, atoms won't move (src/verlet.cpp:60)
WARNING: Proc sub-domain size < neighbor skin, could lead to lost atoms (src/domain.cpp:966)
Per MPI rank memory allocation (min/avg/max) = 8.596 | 8.597 | 8.602 Mbytes
   Step         PotEng         TotEng           Lx             Ly             Lz           Volume         Press           Pxx            Pyy            Pzz      
        35  -16.49059      -16.49059       3.7511007      3.7511007      3.7511007      52.780824     -14483.641     -14483.641     -14483.641     -14483.641    
        36  -16.49059      -16.49059       3.7511007      3.7511007      3.7511007      52.780824     -14483.641     -14483.641     -14483.641     -14483.641    
Loop time of 0.00019 on 8 procs for 1 steps with 4 atoms

Performance: 454.737 ns/day, 0.053 hours/ns, 5263.158 timesteps/s, 21.053 katom-step/s
0.0% CPU use with 8 MPI tasks x 1 OpenMP threads

MPI task timing breakdown:
Section |  min time  |  avg time  |  max time  |%varavg| %total
---------------------------------------------------------------
Pair    | 0.000145   | 0.00014675 | 0.000157   |   0.0 | 77.24
Neigh   | 0          | 0          | 0          |   0.0 |  0.00
Comm    | 1.2e-05    | 1.9e-05    | 3e-05      |   0.0 | 10.00
Output  | 1.1e-05    | 2e-05      | 2.9e-05    |   0.0 | 10.53
Modify  | 0          | 1.25e-07   | 1e-06      |   0.0 |  0.07
Other   |            | 4.125e-06  |            |       |  2.17

Nlocal:            0.5 ave           4 max           0 min
Histogram: 7 0 0 0 0 0 0 0 0 1
Nghost:          255.5 ave         256 max         252 min
Histogram: 1 0 0 0 0 0 0 0 0 7
Neighs:           33.5 ave         268 max           0 min
Histogram: 7 0 0 0 0 0 0 0 0 1
FullNghs:           67 ave         536 max           0 min
Histogram: 7 0 0 0 0 0 0 0 0 1

Total # of neighbors = 536
Ave neighs/atom = 134
Neighbor list builds = 0
Dangerous builds = 0
variable  natoms equal "count(all)"
variable xlength equal "lx"
variable  volume equal "vol"
variable  etotal equal "etotal"
variable    ecoh equal "pe/v_natoms"
print "${xlength}, ${volume}, ${etotal}, ${ecoh}" append lattice_cohesive_energy.txt screen no

next i
jump SELF loop

change_box all x scale 1.0025 y scale 1.0025 z scale 1.0025 remap
Changing box ...
  orthogonal box = (-0.018077717 -0.013388841 -0.013388841) to (3.7424007 3.7377118 3.7377118)
  orthogonal box = (-0.018077717 -0.018077717 -0.013388841) to (3.7424007 3.7424007 3.7377118)
  orthogonal box = (-0.018077717 -0.018077717 -0.018077717) to (3.7424007 3.7424007 3.7424007)

run 1
WARNING: No fixes with time integration, atoms won't move (src/verlet.cpp:60)
WARNING: Proc sub-domain size < neighbor skin, could lead to lost atoms (src/domain.cpp:966)
Per MPI rank memory allocation (min/avg/max) = 8.596 | 8.597 | 8.602 Mbytes
   Step         PotEng         TotEng           Lx             Ly             Lz           Volume         Press           Pxx            Pyy            Pzz      
        36  -16.485581     -16.485581      3.7604784      3.7604784      3.7604784      53.17767      -25871.737     -25871.737     -25871.737     -25871.737    
        37  -16.485581     -16.485581      3.7604784      3.7604784      3.7604784      53.17767      -25871.737     -25871.737     -25871.737     -25871.737    
Loop time of 0.000188 on 8 procs for 1 steps with 4 atoms

Performance: 459.574 ns/day, 0.052 hours/ns, 5319.149 timesteps/s, 21.277 katom-step/s
0.0% CPU use with 8 MPI tasks x 1 OpenMP threads

MPI task timing breakdown:
Section |  min time  |  avg time  |  max time  |%varavg| %total
---------------------------------------------------------------
Pair    | 0.000144   | 0.000146   | 0.000156   |   0.0 | 77.66
Neigh   | 0          | 0          | 0          |   0.0 |  0.00
Comm    | 1.2e-05    | 1.8375e-05 | 2.7e-05    |   0.0 |  9.77
Output  | 1.1e-05    | 1.975e-05  | 2.8e-05    |   0.0 | 10.51
Modify  | 0          | 1.25e-07   | 1e-06      |   0.0 |  0.07
Other   |            | 3.75e-06   |            |       |  1.99

Nlocal:            0.5 ave           4 max           0 min
Histogram: 7 0 0 0 0 0 0 0 0 1
Nghost:          255.5 ave         256 max         252 min
Histogram: 1 0 0 0 0 0 0 0 0 7
Neighs:           33.5 ave         268 max           0 min
Histogram: 7 0 0 0 0 0 0 0 0 1
FullNghs:           67 ave         536 max           0 min
Histogram: 7 0 0 0 0 0 0 0 0 1

Total # of neighbors = 536
Ave neighs/atom = 134
Neighbor list builds = 0
Dangerous builds = 0
variable  natoms equal "count(all)"
variable xlength equal "lx"
variable  volume equal "vol"
variable  etotal equal "etotal"
variable    ecoh equal "pe/v_natoms"
print "${xlength}, ${volume}, ${etotal}, ${ecoh}" append lattice_cohesive_energy.txt screen no

next i
jump SELF loop

change_box all x scale 1.0025 y scale 1.0025 z scale 1.0025 remap
Changing box ...
  orthogonal box = (-0.022778315 -0.018077717 -0.018077717) to (3.7471013 3.7424007 3.7424007)
  orthogonal box = (-0.022778315 -0.022778315 -0.018077717) to (3.7471013 3.7471013 3.7424007)
  orthogonal box = (-0.022778315 -0.022778315 -0.022778315) to (3.7471013 3.7471013 3.7471013)

run 1
WARNING: No fixes with time integration, atoms won't move (src/verlet.cpp:60)
WARNING: Proc sub-domain size < neighbor skin, could lead to lost atoms (src/domain.cpp:966)
Per MPI rank memory allocation (min/avg/max) = 8.596 | 8.597 | 8.602 Mbytes
   Step         PotEng         TotEng           Lx             Ly             Lz           Volume         Press           Pxx            Pyy            Pzz      
        37  -16.477747     -16.477747      3.7698796      3.7698796      3.7698796      53.577501     -36827.222     -36827.222     -36827.222     -36827.222    
        38  -16.477747     -16.477747      3.7698796      3.7698796      3.7698796      53.577501     -36827.222     -36827.222     -36827.222     -36827.222    
Loop time of 0.00023575 on 8 procs for 1 steps with 4 atoms

Performance: 366.490 ns/day, 0.065 hours/ns, 4241.782 timesteps/s, 16.967 katom-step/s
0.0% CPU use with 8 MPI tasks x 1 OpenMP threads

MPI task timing breakdown:
Section |  min time  |  avg time  |  max time  |%varavg| %total
---------------------------------------------------------------
Pair    | 0.000164   | 0.00017387 | 0.000194   |   0.0 | 73.75
[...]
Neighs:           33.5 ave         268 max           0 min
Histogram: 7 0 0 0 0 0 0 0 0 1
FullNghs:           67 ave         536 max           0 min
Histogram: 7 0 0 0 0 0 0 0 0 1

Total # of neighbors = 536
Ave neighs/atom = 134
Neighbor list builds = 0
Dangerous builds = 0
variable  natoms equal "count(all)"
variable xlength equal "lx"
variable  volume equal "vol"
variable  etotal equal "etotal"
variable    ecoh equal "pe/v_natoms"
print "${xlength}, ${volume}, ${etotal}, ${ecoh}" append lattice_cohesive_energy.txt screen no

next i
jump SELF loop

change_box all x scale 1.0025 y scale 1.0025 z scale 1.0025 remap
Changing box ...
  orthogonal box = (-0.094714051 -0.089834062 -0.089834062) to (3.8190371 3.8141571 3.8141571)
  orthogonal box = (-0.094714051 -0.094714051 -0.089834062) to (3.8190371 3.8190371 3.8141571)
  orthogonal box = (-0.094714051 -0.094714051 -0.094714051) to (3.8190371 3.8190371 3.8190371)

run 1
WARNING: No fixes with time integration, atoms won't move (src/verlet.cpp:60)
WARNING: Proc sub-domain size < neighbor skin, could lead to lost atoms (src/domain.cpp:966)
Per MPI rank memory allocation (min/avg/max) = 8.596 | 8.597 | 8.602 Mbytes
   Step         PotEng         TotEng           Lx             Ly             Lz           Volume         Press           Pxx            Pyy            Pzz      
        52  -16.063138     -16.063138      3.9137511      3.9137511      3.9137511      59.948678     -156638.65     -156638.65     -156638.65     -156638.65    
        53  -16.063138     -16.063138      3.9137511      3.9137511      3.9137511      59.948678     -156638.65     -156638.65     -156638.65     -156638.65    
Loop time of 0.0001795 on 8 procs for 1 steps with 4 atoms

Performance: 481.337 ns/day, 0.050 hours/ns, 5571.031 timesteps/s, 22.284 katom-step/s
0.0% CPU use with 8 MPI tasks x 1 OpenMP threads

MPI task timing breakdown:
Section |  min time  |  avg time  |  max time  |%varavg| %total
---------------------------------------------------------------
Pair    | 0.000136   | 0.00013787 | 0.000147   |   0.0 | 76.81
Neigh   | 0          | 0          | 0          |   0.0 |  0.00
Comm    | 1.1e-05    | 1.7625e-05 | 2.7e-05    |   0.0 |  9.82
Output  | 1.1e-05    | 1.9625e-05 | 2.8e-05    |   0.0 | 10.93
Modify  | 0          | 1.25e-07   | 1e-06      |   0.0 |  0.07
Other   |            | 4.25e-06   |            |       |  2.37

Nlocal:            0.5 ave           4 max           0 min
Histogram: 7 0 0 0 0 0 0 0 0 1
Nghost:          255.5 ave         256 max         252 min
Histogram: 1 0 0 0 0 0 0 0 0 7
Neighs:           33.5 ave         268 max           0 min
Histogram: 7 0 0 0 0 0 0 0 0 1
FullNghs:           67 ave         536 max           0 min
Histogram: 7 0 0 0 0 0 0 0 0 1

Total # of neighbors = 536
Ave neighs/atom = 134
Neighbor list builds = 0
Dangerous builds = 0
variable  natoms equal "count(all)"
variable xlength equal "lx"
variable  volume equal "vol"
variable  etotal equal "etotal"
variable    ecoh equal "pe/v_natoms"
print "${xlength}, ${volume}, ${etotal}, ${ecoh}" append lattice_cohesive_energy.txt screen no

next i
jump SELF loop

change_box all x scale 1.0025 y scale 1.0025 z scale 1.0025 remap
Changing box ...
  orthogonal box = (-0.09960624 -0.094714051 -0.094714051) to (3.8239292 3.8190371 3.8190371)
  orthogonal box = (-0.09960624 -0.09960624 -0.094714051) to (3.8239292 3.8239292 3.8190371)
  orthogonal box = (-0.09960624 -0.09960624 -0.09960624) to (3.8239292 3.8239292 3.8239292)

run 1
WARNING: No fixes with time integration, atoms won't move (src/verlet.cpp:60)
WARNING: Proc sub-domain size < neighbor skin, could lead to lost atoms (src/domain.cpp:966)
Per MPI rank memory allocation (min/avg/max) = 8.596 | 8.597 | 8.602 Mbytes
   Step         PotEng         TotEng           Lx             Ly             Lz           Volume         Press           Pxx            Pyy            Pzz      
        53  -16.018295     -16.018295      3.9235355      3.9235355      3.9235355      60.399418     -162101.18     -162101.18     -162101.18     -162101.18    
        54  -16.018295     -16.018295      3.9235355      3.9235355      3.9235355      60.399418     -162101.18     -162101.18     -162101.18     -162101.18    
Loop time of 0.000183 on 8 procs for 1 steps with 4 atoms

Performance: 472.131 ns/day, 0.051 hours/ns, 5464.481 timesteps/s, 21.858 katom-step/s
0.0% CPU use with 8 MPI tasks x 1 OpenMP threads

MPI task timing breakdown:
Section |  min time  |  avg time  |  max time  |%varavg| %total
---------------------------------------------------------------
Pair    | 0.000138   | 0.00014075 | 0.000151   |   0.0 | 76.91
Neigh   | 0          | 0          | 0          |   0.0 |  0.00
Comm    | 1.2e-05    | 1.85e-05   | 2.8e-05    |   0.0 | 10.11
Output  | 1.1e-05    | 1.9875e-05 | 2.9e-05    |   0.0 | 10.86
Modify  | 0          | 2.5e-07    | 1e-06      |   0.0 |  0.14
Other   |            | 3.625e-06  |            |       |  1.98

Nlocal:            0.5 ave           4 max           0 min
Histogram: 7 0 0 0 0 0 0 0 0 1
Nghost:          255.5 ave         256 max         252 min
Histogram: 1 0 0 0 0 0 0 0 0 7
Neighs:           33.5 ave         268 max           0 min
Histogram: 7 0 0 0 0 0 0 0 0 1
FullNghs:           67 ave         536 max           0 min
Histogram: 7 0 0 0 0 0 0 0 0 1

Total # of neighbors = 536
Ave neighs/atom = 134
Neighbor list builds = 0
Dangerous builds = 0
variable  natoms equal "count(all)"
variable xlength equal "lx"
variable  volume equal "vol"
variable  etotal equal "etotal"
variable    ecoh equal "pe/v_natoms"
print "${xlength}, ${volume}, ${etotal}, ${ecoh}" append lattice_cohesive_energy.txt screen no

next i
jump SELF loop

change_box all x scale 1.0025 y scale 1.0025 z scale 1.0025 remap
Changing box ...
  orthogonal box = (-0.10451066 -0.09960624 -0.09960624) to (3.8288337 3.8239292 3.8239292)
  orthogonal box = (-0.10451066 -0.10451066 -0.09960624) to (3.8288337 3.8288337 3.8239292)
  orthogonal box = (-0.10451066 -0.10451066 -0.10451066) to (3.8288337 3.8288337 3.8288337)

run 1
WARNING: No fixes with time integration, atoms won't move (src/verlet.cpp:60)
WARNING: Proc sub-domain size < neighbor skin, could lead to lost atoms (src/domain.cpp:966)
Per MPI rank memory allocation (min/avg/max) = 8.596 | 8.597 | 8.602 Mbytes
   Step         PotEng         TotEng           Lx             Ly             Lz           Volume         Press           Pxx            Pyy            Pzz      
        54  -15.971605     -15.971605      3.9333443      3.9333443      3.9333443      60.853547     -167297.76     -167297.76     -167297.76     -167297.76    
        55  -15.971605     -15.971605      3.9333443      3.9333443      3.9333443      60.853547     -167297.76     -167297.76     -167297.76     -167297.76    
Loop time of 0.00017925 on 8 procs for 1 steps with 4 atoms

Performance: 482.008 ns/day, 0.050 hours/ns, 5578.801 timesteps/s, 22.315 katom-step/s
0.0% CPU use with 8 MPI tasks x 1 OpenMP threads

MPI task timing breakdown:
Section |  min time  |  avg time  |  max time  |%varavg| %total
---------------------------------------------------------------
Pair    | 0.000135   | 0.00013725 | 0.000147   |   0.0 | 76.57
Neigh   | 0          | 0          | 0          |   0.0 |  0.00
Comm    | 1.1e-05    | 1.825e-05  | 2.7e-05    |   0.0 | 10.18
Output  | 1.1e-05    | 1.9375e-05 | 2.8e-05    |   0.0 | 10.81
Modify  | 0          | 1.25e-07   | 1e-06      |   0.0 |  0.07
Other   |            | 4.25e-06   |            |       |  2.37

Nlocal:            0.5 ave           4 max           0 min
Histogram: 7 0 0 0 0 0 0 0 0 1
Nghost:          255.5 ave         256 max         252 min
Histogram: 1 0 0 0 0 0 0 0 0 7
Neighs:           33.5 ave         268 max           0 min
Histogram: 7 0 0 0 0 0 0 0 0 1
FullNghs:           67 ave         536 max           0 min
Histogram: 7 0 0 0 0 0 0 0 0 1

Total # of neighbors = 536
Ave neighs/atom = 134
Neighbor list builds = 0
Dangerous builds = 0
variable  natoms equal "count(all)"
variable xlength equal "lx"
variable  volume equal "vol"
variable  etotal equal "etotal"
variable    ecoh equal "pe/v_natoms"
print "${xlength}, ${volume}, ${etotal}, ${ecoh}" append lattice_cohesive_energy.txt screen no

next i
jump SELF loop

change_box all x scale 1.0025 y scale 1.0025 z scale 1.0025 remap
Changing box ...
  orthogonal box = (-0.10942734 -0.10451066 -0.10451066) to (3.8337503 3.8288337 3.8288337)
  orthogonal box = (-0.10942734 -0.10942734 -0.10451066) to (3.8337503 3.8337503 3.8288337)
  orthogonal box = (-0.10942734 -0.10942734 -0.10942734) to (3.8337503 3.8337503 3.8337503)

run 1
WARNING: No fixes with time integration, atoms won't move (src/verlet.cpp:60)
WARNING: Proc sub-domain size < neighbor skin, could lead to lost atoms (src/domain.cpp:966)
Per MPI rank memory allocation (min/avg/max) = 8.596 | 8.597 | 8.602 Mbytes
   Step         PotEng         TotEng           Lx             Ly             Lz           Volume         Press           Pxx            Pyy            Pzz      
        55  -15.923116     -15.923116      3.9431777      3.9431777      3.9431777      61.31109      -172236.21     -172236.21     -172236.21     -172236.21    
        56  -15.923116     -15.923116      3.9431777      3.9431777      3.9431777      61.31109      -172236.21     -172236.21     -172236.21     -172236.21    
Loop time of 0.00018175 on 8 procs for 1 steps with 4 atoms

Performance: 475.378 ns/day, 0.050 hours/ns, 5502.063 timesteps/s, 22.008 katom-step/s
0.0% CPU use with 8 MPI tasks x 1 OpenMP threads

MPI task timing breakdown:
Section |  min time  |  avg time  |  max time  |%varavg| %total
---------------------------------------------------------------
Pair    | 0.000137   | 0.00013913 | 0.000149   |   0.0 | 76.55
Neigh   | 0          | 0          | 0          |   0.0 |  0.00
Comm    | 1.2e-05    | 1.85e-05   | 2.8e-05    |   0.0 | 10.18
Output  | 1.1e-05    | 2e-05      | 2.9e-05    |   0.0 | 11.00
Modify  | 0          | 0          | 0          |   0.0 |  0.00
Other   |            | 4.125e-06  |            |       |  2.27

Nlocal:            0.5 ave           4 max           0 min
Histogram: 7 0 0 0 0 0 0 0 0 1
Nghost:          255.5 ave         256 max         252 min
Histogram: 1 0 0 0 0 0 0 0 0 7
Neighs:           33.5 ave         268 max           0 min
Histogram: 7 0 0 0 0 0 0 0 0 1
FullNghs:           67 ave         536 max           0 min
Histogram: 7 0 0 0 0 0 0 0 0 1

Total # of neighbors = 536
Ave neighs/atom = 134
Neighbor list builds = 0
Dangerous builds = 0
variable  natoms equal "count(all)"
variable xlength equal "lx"
variable  volume equal "vol"
variable  etotal equal "etotal"
variable    ecoh equal "pe/v_natoms"
print "${xlength}, ${volume}, ${etotal}, ${ecoh}" append lattice_cohesive_energy.txt screen no

next i
jump SELF loop

change_box all x scale 1.0025 y scale 1.0025 z scale 1.0025 remap
Changing box ...
  orthogonal box = (-0.11435631 -0.10942734 -0.10942734) to (3.8386793 3.8337503 3.8337503)
  orthogonal box = (-0.11435631 -0.11435631 -0.10942734) to (3.8386793 3.8386793 3.8337503)
  orthogonal box = (-0.11435631 -0.11435631 -0.11435631) to (3.8386793 3.8386793 3.8386793)

run 1
WARNING: No fixes with time integration, atoms won't move (src/verlet.cpp:60)
WARNING: Proc sub-domain size < neighbor skin, could lead to lost atoms (src/domain.cpp:966)
Per MPI rank memory allocation (min/avg/max) = 8.596 | 8.597 | 8.602 Mbytes
   Step         PotEng         TotEng           Lx             Ly             Lz           Volume         Press           Pxx            Pyy            Pzz      
        56  -15.872879     -15.872879      3.9530356      3.9530356      3.9530356      61.772074     -176924.15     -176924.15     -176924.15     -176924.15    
        57  -15.872879     -15.872879      3.9530356      3.9530356      3.9530356      61.772074     -176924.15     -176924.15     -176924.15     -176924.15    
Loop time of 0.000183625 on 8 procs for 1 steps with 4 atoms

Performance: 470.524 ns/day, 0.051 hours/ns, 5445.882 timesteps/s, 21.784 katom-step/s
0.0% CPU use with 8 MPI tasks x 1 OpenMP threads

MPI task timing breakdown:
Section |  min time  |  avg time  |  max time  |%varavg| %total
---------------------------------------------------------------
Pair    | 0.000138   | 0.00014    | 0.00015    |   0.0 | 76.24
Neigh   | 0          | 0          | 0          |   0.0 |  0.00
Comm    | 1.1e-05    | 1.875e-05  | 2.9e-05    |   0.0 | 10.21
Output  | 1.1e-05    | 2.0875e-05 | 3e-05      |   0.0 | 11.37
Modify  | 0          | 1.25e-07   | 1e-06      |   0.0 |  0.07
Other   |            | 3.875e-06  |            |       |  2.11

Nlocal:            0.5 ave           4 max           0 min
Histogram: 7 0 0 0 0 0 0 0 0 1
Nghost:          255.5 ave         256 max         252 min
Histogram: 1 0 0 0 0 0 0 0 0 7
Neighs:           33.5 ave         268 max           0 min
Histogram: 7 0 0 0 0 0 0 0 0 1
FullNghs:           67 ave         536 max           0 min
Histogram: 7 0 0 0 0 0 0 0 0 1

Total # of neighbors = 536
Ave neighs/atom = 134
Neighbor list builds = 0
Dangerous builds = 0
variable  natoms equal "count(all)"
variable xlength equal "lx"
variable  volume equal "vol"
variable  etotal equal "etotal"
variable    ecoh equal "pe/v_natoms"
print "${xlength}, ${volume}, ${etotal}, ${ecoh}" append lattice_cohesive_energy.txt screen no

next i
jump SELF loop

change_box all x scale 1.0025 y scale 1.0025 z scale 1.0025 remap
Changing box ...
  orthogonal box = (-0.11929761 -0.11435631 -0.11435631) to (3.8436206 3.8386793 3.8386793)
  orthogonal box = (-0.11929761 -0.11929761 -0.11435631) to (3.8436206 3.8436206 3.8386793)
  orthogonal box = (-0.11929761 -0.11929761 -0.11929761) to (3.8436206 3.8436206 3.8436206)

run 1
WARNING: No fixes with time integration, atoms won't move (src/verlet.cpp:60)
WARNING: Proc sub-domain size < neighbor skin, could lead to lost atoms (src/domain.cpp:966)
Per MPI rank memory allocation (min/avg/max) = 8.596 | 8.597 | 8.602 Mbytes
   Step         PotEng         TotEng           Lx             Ly             Lz           Volume         Press           Pxx            Pyy            Pzz      
        57  -15.82094      -15.82094       3.9629182      3.9629182      3.9629182      62.236524     -181369.07     -181369.07     -181369.07     -181369.07    
        58  -15.82094      -15.82094       3.9629182      3.9629182      3.9629182      62.236524     -181369.07     -181369.07     -181369.07     -181369.07    
Loop time of 0.000184875 on 8 procs for 1 steps with 4 atoms

Performance: 467.343 ns/day, 0.051 hours/ns, 5409.060 timesteps/s, 21.636 katom-step/s
0.0% CPU use with 8 MPI tasks x 1 OpenMP threads

MPI task timing breakdown:
Section |  min time  |  avg time  |  max time  |%varavg| %total
---------------------------------------------------------------
Pair    | 0.00014    | 0.00014275 | 0.000153   |   0.0 | 77.21
Neigh   | 0          | 0          | 0          |   0.0 |  0.00
Comm    | 1.2e-05    | 1.8625e-05 | 2.8e-05    |   0.0 | 10.07
Output  | 1.1e-05    | 1.9625e-05 | 2.8e-05    |   0.0 | 10.62
Modify  | 0          | 0          | 0          |   0.0 |  0.00
Other   |            | 3.875e-06  |            |       |  2.10

Nlocal:            0.5 ave           4 max           0 min
Histogram: 7 0 0 0 0 0 0 0 0 1
Nghost:          255.5 ave         256 max         252 min
Histogram: 1 0 0 0 0 0 0 0 0 7
Neighs:           33.5 ave         268 max           0 min
Histogram: 7 0 0 0 0 0 0 0 0 1
FullNghs:           67 ave         536 max           0 min
Histogram: 7 0 0 0 0 0 0 0 0 1

Total # of neighbors = 536
Ave neighs/atom = 134
Neighbor list builds = 0
Dangerous builds = 0
variable  natoms equal "count(all)"
variable xlength equal "lx"
variable  volume equal "vol"
variable  etotal equal "etotal"
variable    ecoh equal "pe/v_natoms"
print "${xlength}, ${volume}, ${etotal}, ${ecoh}" append lattice_cohesive_energy.txt screen no

next i
jump SELF loop

change_box all x scale 1.0025 y scale 1.0025 z scale 1.0025 remap
Changing box ...
  orthogonal box = (-0.12425125 -0.11929761 -0.11929761) to (3.8485743 3.8436206 3.8436206)
  orthogonal box = (-0.12425125 -0.12425125 -0.11929761) to (3.8485743 3.8485743 3.8436206)
  orthogonal box = (-0.12425125 -0.12425125 -0.12425125) to (3.8485743 3.8485743 3.8485743)

run 1
Per MPI rank memory allocation (min/avg/max) = 8.596 | 8.597 | 8.602 Mbytes
   Step         PotEng         TotEng           Lx             Ly             Lz           Volume         Press           Pxx            Pyy            Pzz      
WARNING: Too many warnings: 102 vs 100. All future warnings will be suppressed (src/thermo.cpp:466)
        58  -15.767347     -15.767347      3.9728255      3.9728255      3.9728255      62.704466     -185578.25     -185578.25     -185578.25     -185578.25    
        59  -15.767347     -15.767347      3.9728255      3.9728255      3.9728255      62.704466     -185578.25     -185578.25     -185578.25     -185578.25    
Loop time of 0.000191125 on 8 procs for 1 steps with 4 atoms

Performance: 452.060 ns/day, 0.053 hours/ns, 5232.178 timesteps/s, 20.929 katom-step/s
3065.7% CPU use with 8 MPI tasks x 1 OpenMP threads

MPI task timing breakdown:
Section |  min time  |  avg time  |  max time  |%varavg| %total
---------------------------------------------------------------
Pair    | 0.000145   | 0.00014763 | 0.000157   |   0.0 | 77.24
Neigh   | 0          | 0          | 0          |   0.0 |  0.00
Comm    | 1.1e-05    | 1.8e-05    | 2.8e-05    |   0.0 |  9.42
Output  | 1.2e-05    | 2.075e-05  | 2.9e-05    |   0.0 | 10.86
Modify  | 0          | 2.5e-07    | 1e-06      |   0.0 |  0.13
Other   |            | 4.5e-06    |            |       |  2.35

Nlocal:            0.5 ave           4 max           0 min
Histogram: 7 0 0 0 0 0 0 0 0 1
Nghost:          255.5 ave         256 max         252 min
Histogram: 1 0 0 0 0 0 0 0 0 7
Neighs:           33.5 ave         268 max           0 min
Histogram: 7 0 0 0 0 0 0 0 0 1
FullNghs:           67 ave         536 max           0 min
Histogram: 7 0 0 0 0 0 0 0 0 1

Total # of neighbors = 536
Ave neighs/atom = 134
Neighbor list builds = 0
Dangerous builds = 0
variable  natoms equal "count(all)"
variable xlength equal "lx"
variable  volume equal "vol"
variable  etotal equal "etotal"
variable    ecoh equal "pe/v_natoms"
print "${xlength}, ${volume}, ${etotal}, ${ecoh}" append lattice_cohesive_energy.txt screen no

next i
jump SELF loop

print "-------------------------------------------------------------"
-------------------------------------------------------------
print "Show results of 1st step (Running Minimization)"
Show results of 1st step (Running Minimization)
print "The number of atoms = ${natoms};"
The number of atoms = 4;
print "The lattice constant, x (Angstoms) = ${x0};"
The lattice constant, x (Angstoms) = 3.97282550877557;
print "The lattice constant, y (Angstoms) = ${y0};"
The lattice constant, y (Angstoms) = 3.97282550877557;
print "The lattice constant, z (Angstoms) = ${z0};"
The lattice constant, z (Angstoms) = 3.97282550877557;
print "The volume (Angstoms^3) = ${v0};"
The volume (Angstoms^3) = 62.7044657898233;
print "The total energy (eV) = ${etot0};"
The total energy (eV) = -15.7673472142757;
print "The cohesive energy (eV/atom) = ${ecoh0};"
The cohesive energy (eV/atom) = -3.94183680356894;
print "-------------------------------------------------------------"
-------------------------------------------------------------
print "Simulations completed !"
Simulations completed !
Total wall time: 0:00:00
