ITEM: TIMESTEP
0
ITEM: NUMBER OF ATOMS
12000
ITEM: BOX BOUNDS pp pp pp
2.9819635528384936e-01 2.7042803644716486e+01
2.9496029328998752e-01 2.7046039706710182e+01
2.3272948808515679e+00 2.1640070511914354e+02
ITEM: ATOMS id type x y z c_peratom fx fy fz 
242 2 5.63641 5.61425 7.55203 -25.9917 -0.528761 1.10046 0.0897956 
1201 3 5.3785 3.16243 4.82938 -28.7913 3.02248 0.317643 0.762 
1202 3 5.60631 3.07029 10.5356 -29.0434 -0.256698 1.20213 -2.0398 
2041 2 2.81918 5.89568 4.90163 -24.8499 0.236126 -1.35294 -0.116992 
2042 2 2.9195 5.7691 10.1849 -25.0818 0.961377 0.187315 -0.156034 
3002 3 3.02117 3.06619 7.53549 -29.3205 -1.26335 0.645566 0.0206196 
4001 1 1.71857 1.86835 3.54051 -7.56258 -0.76428 -1.39565 2.4917 
4002 1 1.65563 1.62966 8.74683 -7.89976 1.4074 0.808274 2.3596 
5001 1 4.41313 4.26618 6.18938 -7.24315 -0.753916 0.591781 -0.0725902 
6001 1 4.21606 4.64879 3.66034 -8.14584 -0.0540852 -1.81249 -1.09763 
6002 1 4.19626 4.27774 8.7457 -7.37867 0.339119 0.0846531 1.195 
7001 1 1.5868 1.84742 6.30084 -7.4071 -0.0853409 -0.561999 -2.21776 
8001 1 4.1326 1.78995 6.263 -8.13492 1.56341 -1.06854 -0.0911181 
9001 1 1.3144 4.41096 3.53169 -7.72265 0.597009 -0.179868 2.4561 
9002 1 1.6177 4.43366 8.8956 -7.77361 -0.956172 -0.361233 2.34732 
10001 1 1.74275 4.47702 6.34606 -7.55511 -0.749164 1.20968 -1.63089 
11001 1 4.38555 1.73398 3.63561 -8.18041 -1.09067 0.793662 0.346677 
11002 1 4.56742 1.56058 8.87509 -7.93011 -1.52922 0.529707 1.01362 
4201 1 6.94073 2.0231 3.6956 -7.76255 -0.188138 -2.22864 0.885654 
8041 1 4.29044 6.93356 6.0877 -7.72293 0.124659 1.31734 1.58625 
9202 1 6.81333 4.64203 9.13588 -7.07361 -1.44291 -2.12512 0.305239 
202 3 5.59188 0.607911 7.51374 -28.3474 1.21264 -0.821972 -0.489353 
2002 2 2.90378 0.41792 10.1698 -25.3312 -1.05931 -0.135183 1.71605 
2001 2 2.9189 0.391333 5.02592 -24.8604 0.021551 -0.189628 -0.808327 
4202 1 7.12776 1.97747 9.16971 -7.56515 0.100922 -0.491815 -0.417461 
9201 1 7.10751 4.56752 3.87617 -6.87518 -2.10807 -0.038056 -1.01095 
7201 1 6.99233 1.69667 6.36784 -7.3785 -1.25359 0.65311 0.764621 
402 3 10.9626 0.466507 7.56802 -29.3948 -1.32724 -2.21041 1.68274 
10201 1 7.03486 4.35484 6.48681 -6.48102 -0.193157 -2.19087 0.112639 
7241 1 7.09691 6.78328 6.20242 -7.66983 -0.377195 3.30909 0.143816 
442 2 10.907 5.64603 7.58723 -24.7682 -0.531117 1.13509 -0.00610669 
1401 2 10.9885 2.91724 4.97501 -24.5704 -0.94935 0.753908 -1.59792 
1402 3 10.9614 3.03219 10.3468 -27.9575 -0.37015 -0.964564 -1.03009 
2241 3 8.40785 5.65376 4.92828 -29.5969 -0.529884 -0.052329 0.649905 
2242 2 8.10554 5.77951 10.3579 -25.5469 1.89695 1.54819 0.584567 
3202 3 8.4015 2.98518 7.58092 -29.3463 -1.78644 0.313987 0.223866 
4401 1 12.2708 1.61224 3.58892 -7.52219 -0.362938 -0.287033 0.76385 
4402 1 12.1801 1.51953 9.06639 -7.45891 1.60424 1.99061 -0.0850486 
5201 1 9.50597 4.2085 6.10882 -7.86067 1.8966 -0.344992 1.60241 
6201 1 9.63147 4.43692 3.55427 -7.86261 -0.1817 -1.08972 0.235062 
6202 1 9.41698 4.40702 8.93403 -7.77729 1.0442 -0.629487 0.0354037 
7401 1 12.2166 1.58739 6.32205 -8.76043 0.363996 1.45021 -0.506444 
8201 1 9.5289 1.4923 6.28566 -7.85344 1.24335 1.77403 -0.365592 
9401 1 12.2696 4.12456 3.40361 -7.60674 0.458654 0.7959 0.102295 
9402 1 12.0824 4.19747 8.76702 -8.45274 -0.081034 0.606906 2.33545 
10401 1 12.205 4.36558 6.15464 -8.25006 -0.455252 0.219275 -0.249636 
11201 1 9.70514 1.64093 3.62747 -8.42646 -1.10279 0.323093 -0.598912 
11202 1 9.70326 1.70471 8.86246 -7.49991 -0.198991 1.2672 -0.122516 
8241 1 9.68563 6.95643 6.25817 -7.72389 -0.470723 -0.286175 0.493223 
4441 1 12.3825 6.86268 3.30085 -7.69274 -2.13202 -0.800671 1.44185 
3402 2 13.4654 3.01355 7.58014 -25.2238 3.35432 -0.811105 0.110482 
2441 2 13.5281 5.74497 4.78115 -24.8651 0.121493 -0.451597 1.51567 
2201 3 8.30328 0.469397 4.85962 -28.9409 -0.692578 -0.214982 0.491716 
2401 3 13.4646 0.482131 4.86538 -28.6089 2.13906 -1.40809 0.00168034 
2202 3 8.27615 0.53306 10.2256 -28.2227 -0.242304 -0.120304 -0.545581 
3201 2 8.30509 2.92875 2.33974 -24.9519 -0.173121 1.08904 -0.885659 
2442 2 13.7135 5.72627 10.3275 -24.5098 0.587812 -0.719453 -1.17428 
642 2 16.2447 5.68132 7.62044 -25.5798 -0.307997 0.00704613 -2.04322 
1601 3 16.1403 3.11526 4.91091 -28.9312 -0.951564 -0.19649 1.22547 
1602 2 16.3009 2.93167 10.4462 -25.3837 1.55085 0.15768 -3.66412 
2641 3 18.7157 5.64322 4.97493 -28.9178 0.917727 1.51602 0.0616509 
2642 2 19.0544 5.82917 10.1694 -25.3513 -0.122935 -2.04064 1.3847 
3602 2 18.862 3.08081 7.6475 -25.8421 -0.126486 -1.33889 -0.238331 
4601 1 17.2995 1.69723 3.86366 -8.26032 1.69047 0.804109 -1.39441 
4602 1 17.8168 1.7028 9.07513 -7.16728 -1.85949 -1.09891 1.73231 
5401 1 14.7907 4.59122 6.29321 -7.24587 0.233243 -0.809518 -1.11641 
6401 1 14.8818 4.51993 3.64172 -8.00619 0.171119 -1.42713 -1.56255 
6402 1 14.9418 4.42288 8.83854 -7.23132 -2.72517 -0.741666 2.35298 
7601 1 17.5985 1.54605 6.43075 -7.55791 -0.478574 0.243995 0.0585571 
8401 1 14.9388 1.90011 6.14942 -7.45418 -0.935555 -1.13574 -0.549727 
9601 1 17.3535 4.35267 3.6216 -7.94403 1.22907 -0.0171419 0.30878 
9602 1 17.4732 4.30615 8.83652 -6.69212 0.653759 -0.624956 1.36272 
10601 1 17.5087 4.38491 6.20647 -8.08365 0.0652346 -0.558172 -0.75672 
11401 1 14.7629 1.71794 3.61535 -7.4384 0.602479 1.11027 -1.35475 
11402 1 15.0705 1.67451 8.66707 -6.9126 -0.364455 -0.0998318 1.6214 
11601 1 20.1906 1.58095 3.64367 -8.26659 -0.100151 -0.078181 0.12995 
11602 1 20.2814 1.7185 8.93929 -7.22705 1.36682 1.49999 0.782278 
5601 1 20.1634 4.41034 6.4342 -7.7937 0.560308 -0.0351571 -1.89074 
6601 1 20.0327 4.26529 3.81016 -8.50117 0.718785 0.449813 0.440591 
3601 2 18.8018 2.91168 2.60288 -24.3275 -0.374611 1.07156 -2.59165 
6602 1 20.1866 4.35044 8.90901 -7.22466 1.11296 0.255161 1.30599 
8601 1 20.1025 1.60266 6.11757 -8.1167 1.1516 1.27982 1.36458 
2602 3 18.9888 0.499611 10.4433 -29.1457 -0.68651 -1.30333 -2.08415 
4642 1 17.6873 6.81551 8.80123 -7.83885 0.125634 3.68585 0.418279 
2601 3 18.8042 0.361776 5.13204 -28.2586 -0.00377725 -0.455051 -1.11018 
42 2 26.8889 5.73129 7.51917 -25.2862 1.41807 -0.316172 -0.792079 
2 2 26.9303 0.521238 7.52498 -25.3794 -0.222368 -1.12517 1.7226 
802 2 21.4366 0.425595 7.5363 -25.2821 0.681143 -0.089376 1.14331 
1002 2 26.9571 3.1357 10.3341 -24.9478 0.101609 -2.11599 -1.31303 
1001 3 26.9333 2.91691 4.76632 -29.2053 -0.148221 1.53684 0.39024 
842 3 21.633 5.6465 7.55783 -29.1076 -1.34862 1.46834 -0.28674 
1801 3 21.5039 3.06609 4.96097 -28.5398 0.489122 -0.0692262 0.444639 
1802 3 21.7146 3.00487 10.3625 -28.892 -0.711699 0.33848 -1.08179 
2841 3 24.224 5.69018 4.95323 -29.7589 -0.156873 0.0855974 0.211997 
2842 2 24.2259 5.67596 10.0747 -24.9704 0.3986 0.750679 2.98069 
3802 2 24.2172 3.05875 7.61871 -24.9021 0.66693 0.325624 -0.76428 
4801 1 22.9842 1.78926 3.65825 -7.64929 -0.32419 -0.3896 0.595878 
4802 1 22.8994 1.77595 8.9624 -7.60604 0.477019 0.967845 -0.159014 
5801 1 25.5421 4.44741 6.13125 -7.14747 0.630068 -0.867512 1.23818 
6801 1 25.379 4.31518 3.68183 -7.30787 0.324785 0.189948 -2.36758 
6802 1 25.6627 4.38322 8.77189 -7.95212 -0.814724 -0.977213 0.621811 
7801 1 22.8227 1.85329 6.31546 -8.36139 0.0066427 0.0647889 -0.368794 
8801 1 25.7488 1.83348 6.11514 -7.99786 -2.12982 -0.503549 0.708491 
9801 1 22.7588 4.33973 3.89917 -7.52534 -0.833776 1.16182 -1.8974 
9802 1 22.8481 4.48859 8.97873 -8.22776 -0.355071 -1.39888 -1.34467 
10801 1 22.8291 4.5726 6.30451 -7.69595 0.45778 -0.807018 1.53584 
11801 1 25.8761 1.7148 3.47599 -6.89153 -1.0575 0.0746144 0.494325 
11802 1 25.6703 1.69267 8.93039 -7.41315 -0.905424 1.25178 -0.579351 
8841 1 25.4501 6.95811 6.31116 -7.3005 0.0838511 0.760382 0.937527 
11842 1 25.6947 6.92938 9.0194 -8.17289 0.109701 2.11299 -0.744 
801 2 21.6066 0.312937 2.39415 -24.8688 0.517749 0.200242 -0.808873 
2801 2 24.1975 0.397414 5.07566 -25.2568 1.4279 1.05523 -1.79459 
841 3 21.5095 5.64143 2.48625 -28.6102 -0.8296 0.198323 -0.918676 
11041 1 4.29528 7.26117 3.48118 -6.83797 -0.292188 -0.903371 1.60765 
4042 1 1.65759 7.17122 8.90185 -7.99484 -1.35178 0.0344952 0.643952 
4041 1 1.48843 6.99934 3.51956 -8.24656 -0.420762 0.923245 0.749241 
7041 1 1.32449 7.31434 6.28084 -8.33444 1.1978 -1.5882 -0.699008 
11042 1 4.2411 7.12284 8.82343 -7.72868 0.545131 -0.0345546 -0.230375 
282 2 5.51985 11.1205 7.66535 -25.1984 1.14054 -0.645952 -1.85161 
1241 2 5.88532 8.35528 5.09164 -25.4049 -3.13947 0.0924972 -2.28658 
1242 2 5.53199 8.4729 10.1825 -25.2974 0.138125 -0.185422 0.902932 
2081 2 2.66085 11.1047 4.95144 -25.973 2.84489 0.737799 0.546702 
2082 2 2.81612 11.2184 10.2869 -24.9256 0.883707 -1.8693 0.0233813 
3042 3 2.63605 8.46267 7.60192 -28.4762 1.67557 0.803452 -0.0926807 
4081 1 1.61469 12.4476 3.54165 -7.31329 -1.23092 0.57628 0.322596 
4082 1 1.58095 12.4612 8.89651 -7.96403 -0.384557 0.435771 1.5395 
5041 1 4.27871 9.79992 6.1444 -6.8675 -0.397864 -1.05589 0.361527 
6041 1 4.17553 9.86432 3.4989 -6.53756 -0.452755 0.163768 0.16207 
6042 1 3.95574 9.84543 8.73959 -7.76098 -0.287654 -1.53837 1.55648 
7081 1 1.25368 12.492 6.3729 -7.05709 1.05603 -0.326966 -0.723379 
8081 1 4.02386 12.4617 6.33266 -8.16065 1.04412 1.39907 0.034055 
9041 1 1.385 9.70761 3.82382 -7.73187 0.447391 -0.548793 -0.967302 
9042 1 1.15187 9.85098 8.9956 -7.92284 1.02763 -1.55077 1.09295 
10041 1 1.52687 9.82174 6.38711 -7.60081 -0.318646 0.120952 0.527053 
11081 1 4.24927 12.4746 3.56503 -6.68347 0.400582 0.733711 0.760188 
11082 1 4.35427 12.3194 8.98265 -7.90657 -0.0954413 1.44509 1.30177 
4281 1 6.98127 12.4024 3.51878 -7.30223 -0.583178 1.46447 0.541519 
10241 1 6.88865 9.84843 6.35154 -8.11445 0.911423 -1.07882 0.429992 
9242 1 6.83042 9.95602 9.04003 -7.43688 0.0802858 -1.20047 -0.592496 
3041 2 2.81321 8.45499 2.34806 -25.7888 1.85348 -0.446058 -0.57864 
4242 1 7.03178 7.21303 8.8537 -7.81282 -0.195015 1.18796 0.466212 
4241 1 7.01204 7.16566 3.56237 -7.73146 0.776323 -1.50119 -0.334941 
4442 1 12.5346 7.11233 8.94689 -7.45878 -1.8506 -1.31147 -0.210497 
11242 1 9.76348 7.02169 9.08027 -7.85921 0.182595 -0.453319 -0.320851 
1482 2 10.9563 13.6016 10.1492 -26.2886 -0.632015 0.791724 1.09006 
7281 1 6.99152 12.5653 6.22361 -7.75269 -2.36369 0.864005 0.525469 
4282 1 7.28918 12.5046 8.98209 -7.33483 -2.03887 1.47045 -0.68297 
7441 1 12.234 7.21135 6.26637 -8.21032 0.98677 -0.994666 -1.17409 
9241 1 7.00647 9.67947 3.53189 -7.21306 0.0640681 0.501168 1.14096 
11241 1 9.79828 7.16409 3.58428 -7.47705 -1.20942 -1.69919 -0.166921 
482 3 10.8038 11.0295 7.58804 -28.9772 1.01053 0.363179 0.499487 
1441 2 10.9945 8.51354 4.94529 -24.7446 -2.16924 -2.25226 -0.21654 
1442 3 11.0314 8.27914 10.2403 -29.1239 0.11416 1.52433 0.889666 
2281 2 8.25263 11.0808 4.93487 -25.4217 -1.27258 -0.250141 0.0535071 
2282 3 8.40937 11.0564 10.3292 -29.9081 -1.40293 0.113758 -0.47292 
3242 3 8.41088 8.40275 7.55798 -28.4133 -0.859128 -1.15173 0.911804 
4481 1 12.0274 12.2557 3.4461 -7.98088 0.570806 -0.501079 0.243746 
4482 1 12.2777 12.3555 8.87589 -7.60886 1.87975 -0.185261 -1.12801 
5241 1 9.42228 9.52361 6.17606 -7.96279 0.163348 1.67429 -0.148633 
6241 1 9.63161 9.68973 3.54772 -7.69565 0.403897 0.930973 -0.15454 
6242 1 9.57281 9.57794 8.76069 -7.6292 0.338503 -0.284354 0.861855 
7481 1 12.3308 12.3956 6.23069 -7.52771 0.372744 0.454867 -0.893854 
8281 1 9.52335 12.4246 6.34889 -7.8472 1.49045 -0.782015 -0.45271 
9441 1 12.3594 9.56535 3.72023 -8.37729 1.41441 0.886941 -0.374442 
9442 1 12.3053 9.70342 9.16114 -7.2399 -0.893671 0.156591 -0.661451 
10441 1 11.9771 9.93038 6.37044 -8.0302 1.42185 -1.17641 -0.114951 
11281 1 9.48403 12.3509 3.69102 -7.5165 1.10194 0.370524 -0.119997 
11282 1 9.7258 12.0774 8.88109 -7.1925 0.295324 0.756425 1.05911 
3442 2 13.6675 8.47267 7.40706 -24.8982 -1.53511 0.674058 2.96949 
2481 3 13.5782 11.0792 4.85047 -28.6301 -0.647901 1.31926 0.0438238 
2482 3 13.6596 11.1395 10.1352 -29.0851 -0.588492 -1.24296 0.220333 
481 3 10.7591 10.9979 2.3922 -29.1349 -0.0760749 -0.203885 -2.79694 
1481 2 10.9355 13.6663 4.87435 -25.6028 1.31299 0.282478 1.2744 
3482 3 13.761 13.6569 7.6011 -29.3691 -0.989934 1.24633 -0.949948 
8441 1 14.9849 7.217 6.10492 -8.2258 -0.754378 0.178433 -0.401595 
11442 1 15.0237 7.16486 8.80197 -8.09562 0.990855 0.656174 1.03034 
7641 1 17.5807 7.14454 6.19903 -7.8383 -0.442192 -0.399424 0.180293 
681 3 16.1722 11.0235 2.36216 -28.6732 0.464418 -0.0230647 -1.69929 
11641 1 20.0378 6.99477 3.72064 -7.7362 0.979424 -0.744773 -1.26758 
11441 1 14.8073 7.15775 3.37617 -7.89544 1.8846 0.00862726 1.20322 
4641 1 17.4299 7.05253 3.63888 -7.57145 -0.557969 -1.00333 -0.0201802 
682 3 16.181 11.1123 7.41715 -28.6735 0.825221 1.00013 0.813983 
1641 3 16.2065 8.33487 4.98393 -28.5644 1.32472 1.38661 -1.8014 
1642 3 16.2334 8.29238 10.0898 -28.072 0.789802 0.938178 0.948767 
2681 3 18.8762 11.0944 4.99657 -28.5181 0.145036 -0.367348 -0.421007 
2682 2 18.8801 11.1409 10.2398 -25.3114 -0.815639 -0.626702 0.195468 
3642 2 18.9576 8.43356 7.42461 -25.2118 -0.547182 -0.0376353 1.40234 
4681 1 17.3863 12.381 3.52152 -8.43957 -0.557239 -0.50386 0.00919393 
4682 1 17.6544 12.5573 8.89465 -7.45143 -1.14306 -1.96542 -1.03061 
5441 1 14.6981 9.97969 6.13237 -8.36062 0.725455 -1.87112 -0.753032 
6441 1 15.0804 9.94036 3.50683 -7.68059 -1.30659 -0.63444 1.77493 
6442 1 14.8389 9.96686 8.66349 -7.88364 1.38426 0.0726864 -0.189719 
7681 1 17.6438 12.528 6.18141 -7.97865 0.907111 -0.162588 -0.380345 
8481 1 15.1412 12.4522 6.23501 -7.44435 -0.999237 -0.469612 0.21239 
9641 1 17.5939 9.64713 3.89875 -7.64286 0.757347 0.634092 -1.67993 
9642 1 17.6521 9.71648 8.79337 -7.90676 -1.77795 -0.455064 1.57914 
10641 1 17.4769 9.90923 6.31582 -7.86913 -0.0435167 -0.348355 0.109579 
11481 1 14.5609 12.6236 3.73627 -7.84575 2.27961 -1.32774 0.375764 
11482 1 15.0562 12.6484 8.84061 -8.02723 -0.817195 -1.36173 0.64824 
11681 1 20.0611 12.3914 3.67789 -7.95233 0.697984 0.328315 1.1846 
11682 1 20.0909 12.692 9.15852 -8.20473 1.01532 -1.09832 -1.89982 
6642 1 20.1976 9.86745 8.981 -7.93849 0.148709 0.218692 -2.14125 
8681 1 20.2483 12.4614 6.41223 -8.15955 -0.664017 -0.906394 0.159333 
8641 1 20.21 7.19658 6.20945 -6.78413 1.05114 -3.36565 0.0835408 
6641 1 20.2946 9.71214 3.54743 -7.90407 -0.0992702 -0.0661906 0.766315 
5641 1 20.2772 9.5741 6.161 -7.65439 0.23729 4.12804 -0.0851903 
5442 1 14.8956 9.56148 11.2034 -7.55336 0.80561 0.712371 1.35962 
3641 2 18.8074 8.34755 2.38458 -25.3177 0.85302 0.968859 0.39744 
1682 3 16.3653 13.6664 10.2665 -29.419 -0.216297 1.37654 -0.423312 
11841 1 25.4636 6.99086 3.71731 -7.81519 0.689678 -0.0137511 -0.78037 
11642 1 20.4285 6.99574 8.86424 -8.07219 -0.693722 0.940597 0.297678 
7841 1 22.8925 7.18299 6.05188 -7.29157 -0.20186 0.0659052 0.700104 
1041 3 26.9033 8.52179 4.98321 -28.9363 -2.00235 -0.741091 -0.0195072 
1042 3 26.8116 8.42075 10.2441 -28.9949 -0.0159371 0.680261 1.30959 
82 2 26.6786 11.046 7.73529 -25.3484 -0.236862 1.03006 -1.35573 
4841 1 22.7689 7.02948 3.49276 -8.20351 -0.246327 -0.968644 -0.686513 
4842 1 22.9721 7.11533 8.78365 -7.94686 0.557926 -0.315284 0.267675 
882 3 21.5829 11.1378 7.7148 -28.9298 0.807585 -0.527767 -1.56322 
1841 3 21.618 8.40103 4.77024 -29.419 -0.838143 -0.770041 2.17734 
1842 2 21.4511 8.45276 10.2487 -24.9956 2.5428 -0.27255 -0.640851 
2881 3 24.0718 11.0794 4.97953 -29.4304 1.72365 -0.255476 1.22483 
2882 3 24.1194 11.0918 10.3822 -29.0953 0.806077 -0.784827 -0.693368 
3842 3 24.1809 8.32082 7.63085 -29.3065 -0.537894 1.5251 -1.20951 
4881 1 23.0266 12.3383 3.69416 -7.82574 -2.57916 -0.171269 0.51689 
4882 1 22.8846 12.3706 8.83446 -7.84022 -0.938388 1.09881 1.23158 
5841 1 25.5871 9.55124 6.36534 -7.82815 0.204789 0.853093 0.444679 
6841 1 25.5803 9.72448 3.62542 -7.1932 -0.680919 -0.93123 0.215093 
6842 1 25.1853 9.69814 9.12832 -7.51901 1.83779 -1.29204 -1.17429 
7881 1 22.7741 12.5077 6.30668 -7.23394 0.0284224 0.559193 -1.08172 
8881 1 25.4324 12.4202 6.47031 -7.51089 -0.976446 0.182877 0.310451 
9841 1 23.0039 9.64133 3.78149 -7.90481 -1.07463 0.251079 -1.03888 
9842 1 22.7336 9.78051 8.8862 -6.97179 -0.677553 -0.4528 2.19771 
10841 1 22.9759 9.89088 6.45952 -7.03371 -0.212904 0.00880777 -1.65525 
11881 1 25.5892 12.3322 3.84607 -6.72955 0.575905 -0.707457 0.433094 
11882 1 25.4262 12.32 9.1437 -7.93447 1.64537 1.61567 0.536826 
1882 2 21.6143 13.6608 10.2184 -24.3224 1.07332 2.68796 1.08687 
4004 1 1.63398 1.81211 19.6309 -7.90713 -1.17398 0.641536 1.29523 
2003 2 2.85681 0.629102 15.5856 -24.5907 -1.13421 -3.09134 2.08584 
243 3 5.45658 5.72783 13.0689 -29.5026 -0.280276 0.202621 -0.79421 
244 2 5.42134 5.72908 18.4487 -24.9534 1.04494 -0.486942 -1.67498 
1203 3 5.45992 3.21098 15.5655 -28.4224 1.2322 -0.730179 1.36431 
2043 3 2.73701 5.78724 15.7538 -28.939 1.00638 0.772976 -0.715633 
3003 3 2.87032 2.93646 13.0065 -28.6778 -0.0370895 1.20521 -1.22123 
3004 3 2.84116 3.01956 18.204 -28.6516 0.248708 0.495168 1.54684 
4003 1 1.4297 1.87101 14.1946 -8.48423 1.29883 0.394516 1.39985 
5002 1 4.10962 4.41953 11.424 -7.38216 0.685722 0.0478734 0.358763 
5003 1 4.04816 4.55692 16.8082 -8.22 0.953582 -1.36377 -0.163158 
6003 1 4.08985 4.20532 14.0419 -7.66968 1.08519 2.03392 1.20819 
7002 1 1.39056 1.46922 11.6211 -7.36535 2.05861 2.51769 -1.52622 
7003 1 1.46319 1.80193 17.013 -8.02979 1.66011 0.175485 -1.29776 
8002 1 4.06347 1.91168 11.5598 -7.71816 0.333066 -1.4459 -0.207691 
8003 1 4.31564 1.74668 17.0947 -8.36697 -1.73929 0.541177 -1.49971 
9003 1 1.54831 4.70193 14.6352 -7.61322 -0.691935 -1.58557 -0.142748 
9004 1 1.63368 4.53368 19.6993 -7.76375 -0.153978 0.384124 1.33699 
10002 1 1.45327 4.11943 12.0495 -8.24774 -0.644138 0.45216 -2.09022 
10003 1 1.48337 4.30717 17.1792 -7.5601 0.322277 0.151087 -0.347493 
11003 1 4.13545 1.81108 14.2779 -8.47222 1.56948 -0.84447 0.661926 
6004 1 4.15681 4.25025 19.5456 -8.12473 0.743079 -0.637699 0.865835 
11004 1 4.11024 1.50662 19.7331 -7.63554 0.609201 1.19199 0.858632 
10203 1 6.7763 4.29992 17.152 -7.23356 -1.2082 3.58575 -0.615273 
9204 1 6.84467 4.43924 19.8146 -7.77458 -0.84307 0.483125 0.994658 
4243 1 6.62541 6.93713 14.4698 -7.53022 0.387262 -0.238435 -0.363119 
7203 1 6.91036 1.94384 17.0008 -6.67004 0.885784 -2.91109 -0.821411 
7202 1 6.80744 1.97107 11.7913 -8.17906 -0.738621 -2.61857 -0.106757 
4204 1 6.76467 1.86084 19.6261 -7.76587 -0.308928 -1.94159 0.869388 
7242 1 6.82061 6.96179 11.8724 -6.89324 1.27212 2.36576 -0.956923 
7043 1 1.52978 6.95902 16.9616 -7.93397 -1.02328 -0.464415 0.573395 
9203 1 6.75925 4.30975 14.356 -7.58357 -0.89959 -0.407061 0.746691 
10202 1 6.90137 4.56722 11.8022 -7.236 -0.842536 -2.23758 -0.391349 
203 2 5.71084 0.301407 13.1237 -24.798 -1.60974 0.460634 -1.08721 
204 2 5.53443 0.383558 18.4682 -25.4258 -0.845356 -0.909421 -1.10711 
403 3 10.7997 0.472235 13.0386 -28.4603 0.875185 -1.39144 -0.165561 
6204 1 9.4884 4.37388 20.0207 -7.43358 -1.51784 1.17002 -1.41048 
4203 1 7.11226 1.49598 14.3647 -7.71682 -2.21187 0.732933 -0.207473 
4444 1 12.1684 6.95651 19.5791 -7.26787 0.846717 0.732259 -0.011425 
443 2 10.9495 5.63538 12.9337 -24.8606 0.307141 1.12092 1.75209 
444 3 10.8887 5.69733 18.427 -29.2048 -1.13119 0.91257 0.245037 
1403 2 10.9631 3.0388 15.8408 -24.6652 -1.6539 1.76814 -2.11238 
2243 2 8.12358 5.79638 15.7765 -25.6097 -0.759854 -1.18783 0.397208 
3203 2 8.31307 3.09772 12.9469 -25.1815 -1.71693 1.07167 2.49682 
3204 2 8.17045 3.09769 18.5382 -25.8486 0.86932 0.371005 -1.22334 
4403 1 12.3485 1.69668 14.2268 -7.90056 -0.506762 0.203437 1.79109 
4404 1 12.2446 1.71452 19.5124 -7.76096 -0.84299 -0.516907 -0.523148 
5202 1 9.58352 4.51941 11.7815 -8.40542 0.322568 -0.617549 -2.1579 
5203 1 9.4506 4.34684 17.1472 -7.16564 0.566854 1.65205 0.983873 
6203 1 9.37227 4.48548 14.5359 -7.22223 2.06194 -0.821753 -1.5771 
7402 1 12.3368 1.39836 11.7558 -7.51704 -1.78965 0.645531 -0.395047 
7403 1 12.4227 1.74569 16.9243 -8.71024 -0.414634 -0.46542 -1.31321 
8202 1 9.42314 1.91275 11.4467 -8.76733 1.79354 -1.48084 0.908414 
8203 1 9.7574 1.89273 17.2662 -8.15812 -0.415139 -3.20549 0.299071 
9403 1 12.2711 4.31204 14.3539 -7.84728 -0.67522 -1.08702 0.639812 
9404 1 11.9861 4.29825 19.5556 -7.09542 1.52915 -0.109031 1.2657 
10402 1 12.3186 4.11262 11.6105 -8.49248 0.452498 0.582352 -0.372271 
10403 1 12.1027 4.59131 17.0529 -8.38559 1.65228 -0.513558 -1.33258 
11203 1 9.54767 1.83468 14.3825 -8.1421 2.77862 -0.111358 -0.0767906 
11204 1 9.51381 1.64597 20.1483 -7.58194 -0.512732 -0.111555 -2.47031 
3404 2 13.5144 3.09515 18.1776 -24.4958 1.10852 0.773796 2.38512 
2443 3 13.5939 5.69589 15.7423 -28.6391 -0.527053 1.68132 -1.34106 
7442 1 12.344 6.89627 11.5656 -7.96893 -1.12596 -0.197169 -0.982308 
4443 1 12.3294 6.81374 14.0783 -7.12884 -0.0681633 0.999389 2.20668 
2403 3 13.6224 0.443352 15.6062 -28.6944 0.524067 -0.951967 -0.719771 
2203 3 8.25786 0.488786 15.6997 -28.494 -0.358112 -0.215743 0.155883 
603 3 16.4284 0.483025 12.9438 -28.8551 -1.50923 -1.0947 0.739889 
3403 3 13.7093 3.06345 13.152 -28.232 -0.694077 -1.44059 -1.2451 
643 2 16.3622 5.84893 12.974 -25.1303 0.889008 -0.617322 0.711245 
644 3 16.2143 5.77767 18.3507 -28.7556 0.192085 0.44061 1.11706 
1603 2 16.3921 3.22915 15.7776 -24.6891 0.0431209 -1.83565 -2.27355 
2643 2 18.9893 5.95784 15.744 -24.7137 0.491496 -0.800006 0.481661 
3603 2 19.1563 3.14264 13.0566 -25.1909 -1.40103 0.0142868 -0.267929 
3604 2 18.9948 3.11767 18.3472 -25.1986 0.122244 0.853707 1.34393 
4603 1 17.7642 1.94283 14.6414 -7.56395 0.454905 -0.456431 -0.77257 
5402 1 15.2589 4.43075 11.5549 -8.06151 -2.29419 -0.0751616 0.981045 
5403 1 14.9196 4.33632 16.9079 -8.47921 -1.7439 2.04547 0.165615 
6403 1 14.8706 4.34268 14.2114 -7.89348 0.911728 -0.537736 0.669586 
7602 1 17.6217 1.76937 11.9195 -8.16664 -0.181206 0.10449 -0.569965 
7603 1 17.8163 1.54104 17.2393 -7.62009 -0.949205 0.739701 -0.187261 
8402 1 14.9791 1.59912 11.5958 -7.95828 -0.2768 -0.012424 -0.0729908 
8403 1 15.1566 1.76283 16.8398 -7.67866 -1.2583 -1.18291 0.695743 
9603 1 17.6305 4.64566 14.3841 -8.14667 0.287704 -0.198851 -0.176494 
9604 1 17.489 4.55971 19.6495 -7.49767 0.150921 -2.27019 0.852075 
10602 1 17.9507 4.41308 11.4864 -7.27006 -0.441927 -0.656405 1.57277 
10603 1 17.5445 4.52169 17.1018 -8.1339 1.34639 -0.352139 -0.530498 
11403 1 15.0974 1.54322 14.2547 -7.43535 -0.593867 1.95343 -0.167471 
11404 1 14.9672 1.57849 19.5281 -8.26499 -1.41699 1.84058 0.536074 
6404 1 14.8185 4.519 19.5388 -7.86222 -0.826563 -0.923859 0.0536273 
11604 1 20.2472 1.78454 19.7962 -7.80485 0.569665 0.125814 -1.33129 
6604 1 20.2402 4.49952 19.7161 -7.14673 0.416686 -0.997212 0.601775 
8602 1 20.1345 1.53927 11.7695 -8.24023 1.58833 1.98293 -1.39572 
8603 1 20.3311 1.88831 17.009 -7.78688 1.13462 -0.77372 0.230986 
11443 1 14.9322 6.96038 14.4786 -7.42807 0.988313 0.36767 -0.40116 
4604 1 17.5653 1.53699 19.8063 -7.67765 0.389789 1.04535 1.00759 
2603 3 18.9176 0.401025 15.8593 -29.1316 0.556861 -0.0870753 -1.46765 
2803 2 24.2128 0.44691 15.6885 -25.44 0.796555 0.933824 -0.18132 
1003 3 27.038 3.1489 15.7674 -29.1422 -1.82141 0.0875025 -0.731005 
44 3 26.9112 5.7605 18.3169 -28.6083 1.65762 0.655524 0.290806 
4804 1 22.9952 1.77373 19.9878 -7.91536 -0.77499 0.119644 -0.972458 
43 2 26.9341 5.67893 12.9842 -25.1464 -0.809463 0.904526 0.442782 
5602 1 20.5935 4.34925 11.5923 -7.52965 -1.16268 0.561915 0.400753 
5603 1 20.3725 4.63096 17.1228 -7.79841 -0.259607 0.0555955 -1.22236 
11603 1 20.4119 1.73619 14.3062 -7.07267 -1.49063 0.318898 0.658616 
6804 1 25.8128 4.42688 19.7736 -8.08608 -0.774225 1.61275 -2.26368 
6603 1 20.3816 4.49544 14.2831 -7.99921 0.314412 0.271906 0.59602 
9804 1 23.1158 4.70501 19.754 -7.95042 -1.12096 -1.44506 -2.15207 
843 3 21.649 5.95565 12.9076 -28.7251 0.296046 -1.68084 0.573087 
844 3 21.8234 6.06729 18.2952 -29.0961 -1.05244 -1.08182 0.293525 
1803 2 21.6697 3.28274 15.7251 -25.574 0.446409 -1.45101 -0.341452 
2843 3 24.4281 5.78118 15.6182 -29.284 -1.37872 -0.552992 0.452862 
3803 2 24.3187 2.83793 12.9834 -25.4072 -0.731123 2.1473 -0.293912 
3804 2 24.4325 3.27019 18.4253 -25.0915 -0.654003 -0.9863 -0.424 
4803 1 22.7989 1.63952 14.2399 -7.36627 2.40862 1.59317 0.47751 
5802 1 25.4632 4.35491 11.4325 -7.81397 2.1836 0.653896 1.61989 
5803 1 25.7371 4.6479 16.969 -8.01029 -0.404525 -0.423138 1.16495 
6803 1 25.6736 4.30288 14.3925 -7.23179 1.39082 1.85029 -1.63349 
7802 1 22.9669 1.57678 11.5425 -7.7903 -0.942179 0.498371 0.455708 
7803 1 23.1108 1.89626 17.21 -7.69532 -1.52727 -1.27252 -0.305919 
8802 1 25.6715 1.59302 11.5407 -7.6189 -1.38164 0.571151 1.95312 
8803 1 25.6519 1.82179 17.0131 -7.37084 0.338451 0.0679755 1.54909 
9803 1 23.1724 4.40877 14.4709 -7.23321 -1.39581 0.681445 -2.07542 
10802 1 23.0205 4.10212 11.586 -6.79559 -0.0144854 0.997976 0.884316 
10803 1 23.1176 4.44364 16.9671 -7.36288 -0.13508 1.19874 2.04374 
11803 1 25.5994 1.87226 14.4833 -7.45057 -0.0828303 -2.24676 -1.60288 
11804 1 25.5985 1.85382 19.8125 -7.63754 0.727488 -1.26826 -1.02819 
7842 1 23.0593 6.91616 11.5903 -7.78578 -0.716109 0.434815 -1.1957 
4 2 26.8962 0.466454 18.4916 -25.4014 0.800925 -0.601286 -1.00351 
804 2 21.8092 0.46551 18.5046 -24.8314 -1.95472 0.377609 0.00305302 
803 3 21.5181 0.500434 12.8747 -29.0916 0.99808 -1.45268 1.81625 
3 3 26.9985 0.550713 12.94 -28.5925 -1.1177 -1.79121 0.525212 
4084 1 1.69163 12.7096 19.6837 -7.88222 1.7033 -0.479877 0.418091 
9044 1 1.51718 10.0668 19.9199 -7.94953 -0.303734 -0.216375 -0.43984 
8042 1 4.35024 7.01299 11.5247 -7.37596 -1.0217 1.21989 0.336489 
8043 1 4.01567 7.16552 16.8713 -7.71289 1.04345 0.703425 1.01989 
4244 1 6.83497 7.05055 19.8242 -7.7287 -0.46266 0.0612777 -0.238114 
4044 1 1.73322 7.26295 19.7946 -7.63907 -1.78529 0.876013 -0.574702 
4043 1 1.35045 7.22191 14.1717 -7.50039 -0.418146 -0.792279 1.27227 
11043 1 3.93807 7.03774 14.3149 -7.48296 0.387395 -0.60618 -0.795544 
7042 1 1.74074 7.03957 11.7168 -7.50646 -0.626039 -2.46096 -2.32801 
7243 1 6.63865 7.18224 16.9896 -7.8917 0.672682 -0.855281 1.85891 
11044 1 4.15218 7.02476 19.6165 -8.00949 1.26855 1.24095 0.382814 
283 2 5.6296 11.0238 12.9707 -25.3194 -0.029328 -0.155778 -0.254713 
284 3 5.52644 11.111 18.4751 -28.7061 1.08643 -0.162965 -1.26898 
1243 3 5.44893 8.46266 15.7228 -29.0319 1.06053 -1.3173 0.0910405 
2083 2 3.05977 10.9408 15.6988 -24.9714 -1.7179 1.13574 -0.4109 
3043 3 2.71096 8.2935 12.924 -29.0741 1.14431 1.09704 0.380614 
3044 3 3.03313 8.42582 18.2638 -28.4948 -0.663976 -0.827301 1.53641 
4083 1 1.56022 12.4489 14.3341 -7.46395 1.81271 0.17241 0.912168 
5042 1 4.10735 9.90032 11.6483 -8.00009 -0.540312 -0.803145 -0.732781 
5043 1 4.36816 9.81517 17.1388 -8.35634 -0.164598 -0.494798 -1.66158 
6043 1 4.50961 9.67331 14.335 -7.946 -1.37256 -0.770378 0.576167 
7082 1 1.60419 12.2657 11.7582 -8.01821 0.113572 2.02945 -1.78436 
7083 1 1.53016 12.1746 17.0306 -7.05849 0.297257 -0.611848 -0.529918 
8082 1 4.20059 12.7715 11.7275 -7.32395 0.290035 -0.645229 -0.817095 
8083 1 4.05175 12.4725 16.9595 -7.98942 1.50437 0.21091 1.39941 
9043 1 1.70431 9.72437 14.378 -7.84237 0.562045 0.512595 0.350713 
10042 1 1.26686 9.55894 11.6438 -7.04726 1.69136 0.788291 0.0645738 
10043 1 1.70598 9.50081 17.1822 -8.37365 -0.865892 1.09812 -0.575849 
11083 1 4.39351 12.2448 14.3578 -7.86726 -0.957133 1.02549 -0.0676767 
6044 1 4.14537 9.8674 19.5775 -8.3762 0.0975937 -0.483506 2.17142 
84 3 0.316907 11.0862 18.1553 -29.3448 -1.59137 1.23728 1.42636 
4284 1 6.82084 12.4048 19.4585 -7.39099 1.2 0.0358646 0.649963 
10243 1 6.95924 9.83178 17.3459 -7.23169 -1.35414 0.338246 0.436655 
10242 1 6.87366 9.71492 11.5905 -7.23008 0.618546 -2.084 1.85267 
11084 1 4.36118 12.504 19.6455 -8.36047 -1.71934 -0.904174 -0.132834 
9244 1 6.80344 9.64787 19.98 -7.99671 0.435419 0.856324 -1.63659 
7282 1 6.79553 12.1654 11.5533 -7.08547 0.957597 1.46416 0.556719 
7283 1 6.8576 12.3742 16.8565 -7.58281 -0.0816 0.502271 1.40504 
3483 2 13.6229 13.6489 13.0324 -25.4053 -0.345266 0.0872621 -1.13759 
4484 1 12.2673 12.4933 19.6382 -8.22578 0.979434 0.273746 1.24483 
7443 1 12.2608 7.26891 16.8834 -7.30881 0.0761188 -0.4967 -0.354906 
8243 1 9.44643 7.03809 17.0967 -7.75573 0.509316 -0.0342334 0.701963 
11244 1 9.47762 7.13101 19.794 -7.3059 0.125547 0.355917 -0.759242 
4283 1 7.04021 12.2965 14.3731 -7.87027 0.322955 0.432246 -1.42711 
8242 1 9.55999 7.33693 11.788 -7.456 0.77746 -1.90872 -0.921683 
11243 1 9.57497 7.09398 14.4803 -7.88638 0.39484 -0.584204 0.101582 
9243 1 7.08879 9.45082 14.7149 -7.43266 -1.03986 1.66958 -0.407823 
11284 1 9.5358 12.4491 19.6605 -7.55653 0.0334319 0.621541 -0.926295 
6244 1 9.73326 9.90412 19.6244 -8.31091 -2.14401 -2.34022 0.880826 
483 2 10.969 11.0208 12.9821 -25.4539 -0.221781 0.0910625 -0.183323 
484 2 10.9886 11.1202 18.3802 -24.9148 -0.555882 1.01931 -1.41259 
1443 3 10.811 8.39475 15.605 -29.092 1.15564 0.17846 0.951173 
2283 3 8.23757 11.0478 15.9144 -29.4345 -0.454646 -0.210516 -1.34617 
3243 2 8.21808 8.29399 13.2553 -25.3444 -1.46099 0.348585 -2.62156 
3244 2 8.15023 8.37236 18.4629 -25.2734 0.32007 0.0369111 -0.510005 
4483 1 12.3934 12.2452 14.3002 -8.57043 0.106202 -0.0165357 0.894161 
5242 1 9.66088 9.9075 11.5851 -7.19769 -0.280094 0.416094 -1.22639 
5243 1 9.39399 9.69429 16.8381 -7.30351 2.07651 -0.430024 1.11238 
6243 1 9.55477 9.71617 14.2416 -7.52391 2.06844 1.02998 0.477252 
7482 1 12.2277 12.2065 11.4198 -7.59014 0.797185 -0.43012 1.34777 
7483 1 12.2709 12.5863 17.0551 -8.24287 0.0830571 -1.12684 -1.2705 
8282 1 9.47469 12.6067 11.5151 -7.33222 -0.0100306 -1.31691 1.09767 
8283 1 9.54443 12.4218 16.953 -7.87268 0.771382 0.783538 0.25933 
9443 1 12.4357 9.46403 14.4266 -7.36197 -0.915551 1.18777 0.9138 
10442 1 12.2881 9.57645 11.8781 -7.15312 -0.755168 0.602264 -1.73865 
10443 1 12.13 9.89499 16.9901 -7.84103 0.681107 0.268594 0.303587 
11283 1 9.72318 12.4183 14.2718 -7.75057 0.402377 0.274845 0.488464 
9444 1 12.3099 9.74975 19.8487 -7.75003 1.04507 0.442481 -0.613312 
3443 2 13.6287 8.31242 12.9318 -25.6245 1.22575 -0.477524 1.46878 
3283 3 8.33057 13.646 13.1632 -29.1033 0.124649 -0.122964 -1.83016 
11684 1 20.2571 12.5389 19.6194 -7.06679 0.78881 0.391828 1.81 