LAMMPS (22 Dec 2022)
  using 1 OpenMP thread(s) per MPI task
Loaded 1 plugins from C:\Program Files\LAMMPS 64-bit 23Jun2022\plugins
Loaded 0 plugins from C:\Program Files\LAMMPS 64-bit 23Jun2022-MPI\plugins
Loaded 1 plugins from C:\Program Files\LAMMPS 64-bit 22Dec2022-MSMPI\plugins
Loaded 1 plugins from C:\Program Files\LAMMPS 64-bit 28Mar2023-MPI\plugins
#------------------------------------------------------------------------------------------
# LAMMPS 64-bit 22Dec2022-MSMPI
#------------------------------------------------------------------------------------------
clear
  using 1 OpenMP thread(s) per MPI task
Loaded 1 plugins from C:\Program Files\LAMMPS 64-bit 23Jun2022\plugins
Loaded 0 plugins from C:\Program Files\LAMMPS 64-bit 23Jun2022-MPI\plugins
Loaded 1 plugins from C:\Program Files\LAMMPS 64-bit 22Dec2022-MSMPI\plugins
Loaded 1 plugins from C:\Program Files\LAMMPS 64-bit 28Mar2023-MPI\plugins
#echo both
# ---------- Initializing Simulation ---------------------------------
units metal
dimension 3
boundary p p p
atom_style atomic
atom_modify map array

read_data ./../../TiB2.data
Reading data file ...
  triclinic box = (0 0 0) to (3.0351103 2.6284826 3.223208) with tilt (-1.5175551 0 0)
WARNING: Triclinic box skew is large. LAMMPS will run inefficiently. (src/domain.cpp:220)
  2 by 2 by 2 MPI processor grid
  reading atoms ...
  3 atoms
  read_data CPU = 0.001 seconds

replicate 1 1 1
Replication is creating a 1x1x1 = 1 times larger system...
  triclinic box = (0 0 0) to (3.0351103 2.6284826 3.223208) with tilt (-1.5175551 0 0)
WARNING: Triclinic box skew is large. LAMMPS will run inefficiently. (src/domain.cpp:220)
  2 by 2 by 2 MPI processor grid
  3 atoms
  replicate CPU = 0.000 seconds

# ---------- Defining the Interatomic Potential ---------------------
pair_style meam
pair_coeff * * ./../../library.meam B Ti ./../../BTi.meam B Ti

# ---------- Running Minimization -------------------------------------
fix 1 all box/relax iso 0.0 vmax 0.001

thermo 10
thermo_style custom step pe etotal lx ly lz vol press pxx pyy pzz

min_style cg
minimize 1e-25 1e-25 5000 10000
Neighbor list info ...
  update: every = 1 steps, delay = 0 steps, check = yes
  max neighbors/atom: 2000, page size: 100000
  master list distance cutoff = 7
  ghost atom cutoff = 7
  binsize = 3.5, bins = 2 1 1
  2 neighbor lists, perpetual/occasional/extra = 2 0 0
  (1) pair meam, perpetual
      attributes: full, newton on
      pair build: full/bin/atomonly
      stencil: full/bin/3d
      bin: standard
  (2) pair meam, perpetual, half/full from (1)
      attributes: half, newton on
      pair build: halffull/newton
      stencil: none
      bin: none
WARNING: Proc sub-domain size < neighbor skin, could lead to lost atoms (src/domain.cpp:966)
Per MPI rank memory allocation (min/avg/max) = 9.723 | 9.724 | 9.724 Mbytes
   Step         PotEng         TotEng           Lx             Ly             Lz           Volume         Press           Pxx            Pyy            Pzz      
         0  -19.644281     -19.644281      3.0351103      2.6284826      3.223208       25.713898     -5179.1635      15728.159      15728.168     -46993.817    
         6  -19.644359     -19.644359      3.0332115      2.6268382      3.2211916      25.665669     -1.7250382e-07  21181.638      21181.638     -42363.276    
Loop time of 0.00271025 on 8 procs for 6 steps with 3 atoms

0.0% CPU use with 8 MPI tasks x 1 OpenMP threads

Minimization stats:
  Stopping criterion = energy tolerance
  Energy initial, next-to-last, final = 
     -19.6442809021934  -19.6443589803145  -19.6443589803145
  Force two-norm initial, final = 0.24936669 4.8849338e-11
  Force max component initial, final = 0.24936669 2.9661273e-11
  Final line search alpha, max atom move = 1 2.9661273e-11
  Iterations, force evaluations = 6 12

MPI task timing breakdown:
Section |  min time  |  avg time  |  max time  |%varavg| %total
---------------------------------------------------------------
Pair    | 0.001773   | 0.0018206  | 0.001871   |   0.1 | 67.18
Neigh   | 0          | 0          | 0          |   0.0 |  0.00
Comm    | 0.000312   | 0.00036362 | 0.000426   |   0.0 | 13.42
Output  | 0          | 0          | 0          |   0.0 |  0.00
Modify  | 0          | 0          | 0          |   0.0 |  0.00
Other   |            | 0.000526   |            |       | 19.41

Nlocal:          0.375 ave           1 max           0 min
Histogram: 5 0 0 0 0 0 0 0 0 3
Nghost:        482.125 ave         485 max         479 min
Histogram: 1 3 0 0 0 0 0 0 2 2
Neighs:         31.875 ave          89 max           0 min
Histogram: 5 0 0 0 0 0 0 0 0 3
FullNghs:        63.75 ave         178 max           0 min
Histogram: 5 0 0 0 0 0 0 0 0 3

Total # of neighbors = 510
Ave neighs/atom = 170
Neighbor list builds = 0
Dangerous builds = 0

variable  natoms equal "count(all)"
variable      x0 equal "lx"
variable      y0 equal "ly"
variable      z0 equal "lz"
variable      v0 equal "vol"
variable   etot0 equal "etotal"
variable   ecoh0 equal "pe/v_natoms"

unfix 1
write_data ./../step2_elastic/data.in
System init for write_data ...
WARNING: Proc sub-domain size < neighbor skin, could lead to lost atoms (src/domain.cpp:966)

# ---------- For Equation of States -------------------------------------
change_box all x scale 0.94 y scale 0.94 z scale 0.94 remap
Changing box ...
WARNING: Triclinic box skew is large. LAMMPS will run inefficiently. (src/domain.cpp:220)
  triclinic box = (0.091945723 0.00082218504 0.0010082142) to (2.9431646 2.6276604 3.2221998) with tilt (-1.5166058 0 0)
WARNING: Triclinic box skew is large. LAMMPS will run inefficiently. (src/domain.cpp:220)
  triclinic box = (0.091945723 0.079627332 0.0010082142) to (2.9431646 2.5488553 3.2221998) with tilt (-1.5166058 0 0)
WARNING: Triclinic box skew is large. LAMMPS will run inefficiently. (src/domain.cpp:220)
  triclinic box = (0.091945723 0.079627332 0.097643961) to (2.9431646 2.5488553 3.125564) with tilt (-1.5166058 0 0)
run 1
WARNING: No fixes with time integration, atoms won't move (src/verlet.cpp:60)
WARNING: Proc sub-domain size < neighbor skin, could lead to lost atoms (src/domain.cpp:966)
Per MPI rank memory allocation (min/avg/max) = 8.63 | 8.632 | 8.634 Mbytes
   Step         PotEng         TotEng           Lx             Ly             Lz           Volume         Press           Pxx            Pyy            Pzz      
         6  -18.739516     -18.739516      2.8512188      2.4692279      3.0279201      21.317494      746763.73      799054.25      814728.18      626508.74    
         7  -18.739516     -18.739516      2.8512188      2.4692279      3.0279201      21.317494      746763.73      799054.25      814728.18      626508.74    
Loop time of 0.00031675 on 8 procs for 1 steps with 3 atoms

Performance: 272.770 ns/day, 0.088 hours/ns, 3157.064 timesteps/s, 9.471 katom-step/s
0.0% CPU use with 8 MPI tasks x 1 OpenMP threads

MPI task timing breakdown:
Section |  min time  |  avg time  |  max time  |%varavg| %total
---------------------------------------------------------------
Pair    | 0.000218   | 0.00022975 | 0.000248   |   0.0 | 72.53
Neigh   | 0          | 0          | 0          |   0.0 |  0.00
Comm    | 2.8e-05    | 4.275e-05  | 6.3e-05    |   0.0 | 13.50
Output  | 1.6e-05    | 3.35e-05   | 6e-05      |   0.0 | 10.58
Modify  | 0          | 5e-07      | 2e-06      |   0.0 |  0.16
Other   |            | 1.025e-05  |            |       |  3.24

Nlocal:          0.375 ave           1 max           0 min
Histogram: 5 0 0 0 0 0 0 0 0 3
Nghost:        602.125 ave         605 max         599 min
Histogram: 1 3 0 0 0 0 0 0 2 2
Neighs:          38.25 ave         103 max           0 min
Histogram: 5 0 0 0 0 0 0 0 0 3
FullNghs:         76.5 ave         205 max           0 min
Histogram: 5 0 0 0 0 0 0 0 0 3

Total # of neighbors = 612
Ave neighs/atom = 204
Neighbor list builds = 0
Dangerous builds = 0
print "# Lattice constant (Angstroms), Volume (Angstrom), Total energy (eV), Cohesive energy (eV/atom)" file lattice_cohesive_energy.txt screen no


# Loop over lattice constants
variable i loop 49 # Number of steps
label loop

change_box all x scale 1.0025 y scale 1.0025 z scale 1.0025 remap
Changing box ...
WARNING: Triclinic box skew is large. LAMMPS will run inefficiently. (src/domain.cpp:220)
  triclinic box = (0.0883817 0.079627332 0.097643961) to (2.9467286 2.5488553 3.125564) with tilt (-1.5166058 0 0)
WARNING: Triclinic box skew is large. LAMMPS will run inefficiently. (src/domain.cpp:220)
  triclinic box = (0.0883817 0.076540797 0.097643961) to (2.9467286 2.5519418 3.125564) with tilt (-1.5166058 0 0)
WARNING: Triclinic box skew is large. LAMMPS will run inefficiently. (src/domain.cpp:220)
  triclinic box = (0.0883817 0.076540797 0.093859061) to (2.9467286 2.5519418 3.1293489) with tilt (-1.5166058 0 0)

run 1
WARNING: No fixes with time integration, atoms won't move (src/verlet.cpp:60)
WARNING: Proc sub-domain size < neighbor skin, could lead to lost atoms (src/domain.cpp:966)
Per MPI rank memory allocation (min/avg/max) = 8.63 | 8.632 | 8.634 Mbytes
   Step         PotEng         TotEng           Lx             Ly             Lz           Volume         Press           Pxx            Pyy            Pzz      
         7  -18.815136     -18.815136      2.8583469      2.475401       3.0354899      21.477775      706267.81      757164.53      771266.73      590372.16    
         8  -18.815136     -18.815136      2.8583469      2.475401       3.0354899      21.477775      706267.81      757164.53      771266.73      590372.16    
Loop time of 0.000300375 on 8 procs for 1 steps with 3 atoms

Performance: 287.640 ns/day, 0.083 hours/ns, 3329.172 timesteps/s, 9.988 katom-step/s
0.0% CPU use with 8 MPI tasks x 1 OpenMP threads

MPI task timing breakdown:
Section |  min time  |  avg time  |  max time  |%varavg| %total
---------------------------------------------------------------
Pair    | 0.000205   | 0.000215   | 0.000233   |   0.0 | 71.58
Neigh   | 0          | 0          | 0          |   0.0 |  0.00
Comm    | 2.7e-05    | 4.1625e-05 | 6.2e-05    |   0.0 | 13.86
Output  | 1.5e-05    | 3.275e-05  | 5.8e-05    |   0.0 | 10.90
Modify  | 0          | 5e-07      | 2e-06      |   0.0 |  0.17
Other   |            | 1.05e-05   |            |       |  3.50

Nlocal:          0.375 ave           1 max           0 min
Histogram: 5 0 0 0 0 0 0 0 0 3
Nghost:        569.625 ave         570 max         569 min
Histogram: 3 0 0 0 0 0 0 0 0 5
Neighs:          38.25 ave         103 max           0 min
Histogram: 5 0 0 0 0 0 0 0 0 3
FullNghs:         76.5 ave         205 max           0 min
Histogram: 5 0 0 0 0 0 0 0 0 3

Total # of neighbors = 612
Ave neighs/atom = 204
Neighbor list builds = 0
Dangerous builds = 0
variable  natoms equal "count(all)"
variable xlength equal "lx"
variable  volume equal "vol"
variable  etotal equal "etotal"
variable    ecoh equal "pe/v_natoms"
print "${xlength}, ${volume}, ${etotal}, ${ecoh}" append lattice_cohesive_energy.txt screen no

next i
jump SELF loop

change_box all x scale 1.0025 y scale 1.0025 z scale 1.0025 remap
Changing box ...
WARNING: Triclinic box skew is large. LAMMPS will run inefficiently. (src/domain.cpp:220)
  triclinic box = (0.084808766 0.076540797 0.093859061) to (2.9503015 2.5519418 3.1293489) with tilt (-1.5166058 0 0)
WARNING: Triclinic box skew is large. LAMMPS will run inefficiently. (src/domain.cpp:220)
  triclinic box = (0.084808766 0.073446546 0.093859061) to (2.9503015 2.5550361 3.1293489) with tilt (-1.5166058 0 0)
WARNING: Triclinic box skew is large. LAMMPS will run inefficiently. (src/domain.cpp:220)
  triclinic box = (0.084808766 0.073446546 0.090064699) to (2.9503015 2.5550361 3.1331433) with tilt (-1.5166058 0 0)

run 1
WARNING: No fixes with time integration, atoms won't move (src/verlet.cpp:60)
WARNING: Proc sub-domain size < neighbor skin, could lead to lost atoms (src/domain.cpp:966)
Per MPI rank memory allocation (min/avg/max) = 8.63 | 8.632 | 8.634 Mbytes
   Step         PotEng         TotEng           Lx             Ly             Lz           Volume         Press           Pxx            Pyy            Pzz      
         8  -18.887138     -18.887138      2.8654927      2.4815895      3.0430786      21.639261      666758.99      716274.07      728912.11      555090.8     
         9  -18.887138     -18.887138      2.8654927      2.4815895      3.0430786      21.639261      666758.99      716274.07      728912.11      555090.8     
Loop time of 0.000295375 on 8 procs for 1 steps with 3 atoms

Performance: 292.510 ns/day, 0.082 hours/ns, 3385.527 timesteps/s, 10.157 katom-step/s
0.0% CPU use with 8 MPI tasks x 1 OpenMP threads

MPI task timing breakdown:
Section |  min time  |  avg time  |  max time  |%varavg| %total
---------------------------------------------------------------
Pair    | 0.000205   | 0.00021375 | 0.000231   |   0.0 | 72.37
Neigh   | 0          | 0          | 0          |   0.0 |  0.00
Comm    | 2.5e-05    | 3.9875e-05 | 5.9e-05    |   0.0 | 13.50
Output  | 1.5e-05    | 3.1375e-05 | 5.5e-05    |   0.0 | 10.62
Modify  | 0          | 3.75e-07   | 1e-06      |   0.0 |  0.13
Other   |            | 1e-05      |            |       |  3.39

Nlocal:          0.375 ave           1 max           0 min
Histogram: 5 0 0 0 0 0 0 0 0 3
Nghost:        569.625 ave         570 max         569 min
Histogram: 3 0 0 0 0 0 0 0 0 5
Neighs:          38.25 ave         103 max           0 min
Histogram: 5 0 0 0 0 0 0 0 0 3
FullNghs:         76.5 ave         205 max           0 min
Histogram: 5 0 0 0 0 0 0 0 0 3

Total # of neighbors = 612
Ave neighs/atom = 204
Neighbor list builds = 0
Dangerous builds = 0
variable  natoms equal "count(all)"
variable xlength equal "lx"
variable  volume equal "vol"
variable  etotal equal "etotal"
variable    ecoh equal "pe/v_natoms"
print "${xlength}, ${volume}, ${etotal}, ${ecoh}" append lattice_cohesive_energy.txt screen no

next i
jump SELF loop

change_box all x scale 1.0025 y scale 1.0025 z scale 1.0025 remap
Changing box ...
WARNING: Triclinic box skew is large. LAMMPS will run inefficiently. (src/domain.cpp:220)
  triclinic box = (0.0812269 0.073446546 0.090064699) to (2.9538834 2.5550361 3.1331433) with tilt (-1.5166058 0 0)
WARNING: Triclinic box skew is large. LAMMPS will run inefficiently. (src/domain.cpp:220)
  triclinic box = (0.0812269 0.070344559 0.090064699) to (2.9538834 2.558138 3.1331433) with tilt (-1.5166058 0 0)
WARNING: Triclinic box skew is large. LAMMPS will run inefficiently. (src/domain.cpp:220)
  triclinic box = (0.0812269 0.070344559 0.086260851) to (2.9538834 2.558138 3.1369471) with tilt (-1.5166058 0 0)

run 1
WARNING: No fixes with time integration, atoms won't move (src/verlet.cpp:60)
WARNING: Proc sub-domain size < neighbor skin, could lead to lost atoms (src/domain.cpp:966)
Per MPI rank memory allocation (min/avg/max) = 8.63 | 8.632 | 8.634 Mbytes
   Step         PotEng         TotEng           Lx             Ly             Lz           Volume         Press           Pxx            Pyy            Pzz      
         9  -18.955567     -18.955567      2.8726565      2.4877935      3.0506863      21.801962      628221.12      676366.16      687644.05      520653.14    
        10  -18.955567     -18.955567      2.8726565      2.4877935      3.0506863      21.801962      628221.12      676366.16      687644.05      520653.14    
Loop time of 0.00032325 on 8 procs for 1 steps with 3 atoms

Performance: 267.285 ns/day, 0.090 hours/ns, 3093.581 timesteps/s, 9.281 katom-step/s
0.0% CPU use with 8 MPI tasks x 1 OpenMP threads

MPI task timing breakdown:
Section |  min time  |  avg time  |  max time  |%varavg| %total
---------------------------------------------------------------
Pair    | 0.00023    | 0.00024538 | 0.000261   |   0.0 | 75.91
Neigh   | 0          | 0          | 0          |   0.0 |  0.00
Comm    | 2.6e-05    | 3.8375e-05 | 6.2e-05    |   0.0 | 11.87
Output  | 1.5e-05    | 2.925e-05  | 5.5e-05    |   0.0 |  9.05
Modify  | 0          | 0          | 0          |   0.0 |  0.00
Other   |            | 1.025e-05  |            |       |  3.17

Nlocal:          0.375 ave           1 max           0 min
Histogram: 5 0 0 0 0 0 0 0 0 3
Nghost:        569.625 ave         570 max         569 min
Histogram: 3 0 0 0 0 0 0 0 0 5
Neighs:          38.25 ave         103 max           0 min
Histogram: 5 0 0 0 0 0 0 0 0 3
FullNghs:         76.5 ave         205 max           0 min
Histogram: 5 0 0 0 0 0 0 0 0 3

Total # of neighbors = 612
Ave neighs/atom = 204
Neighbor list builds = 0
Dangerous builds = 0
variable  natoms equal "count(all)"
variable xlength equal "lx"
variable  volume equal "vol"
variable  etotal equal "etotal"
variable    ecoh equal "pe/v_natoms"
print "${xlength}, ${volume}, ${etotal}, ${ecoh}" append lattice_cohesive_energy.txt screen no

next i
jump SELF loop

change_box all x scale 1.0025 y scale 1.0025 z scale 1.0025 remap
Changing box ...
WARNING: Triclinic box skew is large. LAMMPS will run inefficiently. (src/domain.cpp:220)
  triclinic box = (0.07763608 0.070344559 0.086260851) to (2.9574742 2.558138 3.1369471) with tilt (-1.5166058 0 0)
WARNING: Triclinic box skew is large. LAMMPS will run inefficiently. (src/domain.cpp:220)
  triclinic box = (0.07763608 0.067234817 0.086260851) to (2.9574742 2.5612478 3.1369471) with tilt (-1.5166058 0 0)
WARNING: Triclinic box skew is large. LAMMPS will run inefficiently. (src/domain.cpp:220)
  triclinic box = (0.07763608 0.067234817 0.082447493) to (2.9574742 2.5612478 3.1407605) with tilt (-1.5166058 0 0)

run 1
WARNING: No fixes with time integration, atoms won't move (src/verlet.cpp:60)
WARNING: Proc sub-domain size < neighbor skin, could lead to lost atoms (src/domain.cpp:966)
Per MPI rank memory allocation (min/avg/max) = 8.63 | 8.632 | 8.634 Mbytes
   Step         PotEng         TotEng           Lx             Ly             Lz           Volume         Press           Pxx            Pyy            Pzz      
        10  -19.020465     -19.020465      2.8798381      2.494013       3.058313       21.965886      590638.41      637424.98      647442.59      487047.65    
        11  -19.020465     -19.020465      2.8798381      2.494013       3.058313       21.965886      590638.41      637424.98      647442.59      487047.65    
Loop time of 0.00030175 on 8 procs for 1 steps with 3 atoms

Performance: 286.330 ns/day, 0.084 hours/ns, 3314.002 timesteps/s, 9.942 katom-step/s
0.0% CPU use with 8 MPI tasks x 1 OpenMP threads

MPI task timing breakdown:
Section |  min time  |  avg time  |  max time  |%varavg| %total
---------------------------------------------------------------
Pair    | 0.000208   | 0.00021913 | 0.000235   |   0.0 | 72.62
Neigh   | 0          | 0          | 0          |   0.0 |  0.00
Comm    | 2.8e-05    | 4.2e-05    | 6.2e-05    |   0.0 | 13.92
Output  | 1.5e-05    | 3.1875e-05 | 5.5e-05    |   0.0 | 10.56
Modify  | 0          | 0          | 0          |   0.0 |  0.00
Other   |            | 8.75e-06   |            |       |  2.90

Nlocal:          0.375 ave           1 max           0 min
Histogram: 5 0 0 0 0 0 0 0 0 3
Nghost:        569.625 ave         570 max         569 min
Histogram: 3 0 0 0 0 0 0 0 0 5
Neighs:          38.25 ave         103 max           0 min
Histogram: 5 0 0 0 0 0 0 0 0 3
FullNghs:         76.5 ave         205 max           0 min
Histogram: 5 0 0 0 0 0 0 0 0 3

Total # of neighbors = 612
Ave neighs/atom = 204
Neighbor list builds = 0
Dangerous builds = 0
variable  natoms equal "count(all)"
variable xlength equal "lx"
variable  volume equal "vol"
variable  etotal equal "etotal"
variable    ecoh equal "pe/v_natoms"
print "${xlength}, ${volume}, ${etotal}, ${ecoh}" append lattice_cohesive_energy.txt screen no

next i
jump SELF loop

change_box all x scale 1.0025 y scale 1.0025 z scale 1.0025 remap
Changing box ...
WARNING: Triclinic box skew is large. LAMMPS will run inefficiently. (src/domain.cpp:220)
  triclinic box = (0.074036282 0.067234817 0.082447493) to (2.961074 2.5612478 3.1407605) with tilt (-1.5166058 0 0)
WARNING: Triclinic box skew is large. LAMMPS will run inefficiently. (src/domain.cpp:220)
  triclinic box = (0.074036282 0.064117301 0.082447493) to (2.961074 2.5643653 3.1407605) with tilt (-1.5166058 0 0)
WARNING: Triclinic box skew is large. LAMMPS will run inefficiently. (src/domain.cpp:220)
  triclinic box = (0.074036282 0.064117301 0.078624601) to (2.961074 2.5643653 3.1445834) with tilt (-1.5166058 0 0)

run 1
WARNING: No fixes with time integration, atoms won't move (src/verlet.cpp:60)
WARNING: Proc sub-domain size < neighbor skin, could lead to lost atoms (src/domain.cpp:966)
Per MPI rank memory allocation (min/avg/max) = 8.63 | 8.632 | 8.634 Mbytes
   Step         PotEng         TotEng           Lx             Ly             Lz           Volume         Press           Pxx            Pyy            Pzz      
        11  -19.081876     -19.081876      2.8870377      2.500248       3.0659588      22.131042      553994.87      599434.22      608287.55      454262.86    
        12  -19.081876     -19.081876      2.8870377      2.500248       3.0659588      22.131042      553994.87      599434.22      608287.55      454262.86    
Loop time of 0.0003005 on 8 procs for 1 steps with 3 atoms

Performance: 287.521 ns/day, 0.083 hours/ns, 3327.787 timesteps/s, 9.983 katom-step/s
0.0% CPU use with 8 MPI tasks x 1 OpenMP threads

MPI task timing breakdown:
Section |  min time  |  avg time  |  max time  |%varavg| %total
---------------------------------------------------------------
Pair    | 0.000207   | 0.00021787 | 0.000234   |   0.0 | 72.50
Neigh   | 0          | 0          | 0          |   0.0 |  0.00
Comm    | 2.7e-05    | 4.1625e-05 | 6.2e-05    |   0.0 | 13.85
Output  | 1.5e-05    | 3.1875e-05 | 5.5e-05    |   0.0 | 10.61
Modify  | 0          | 2.5e-07    | 1e-06      |   0.0 |  0.08
Other   |            | 8.875e-06  |            |       |  2.95

Nlocal:          0.375 ave           1 max           0 min
Histogram: 5 0 0 0 0 0 0 0 0 3
Nghost:        569.625 ave         570 max         569 min
Histogram: 3 0 0 0 0 0 0 0 0 5
Neighs:          38.25 ave         103 max           0 min
Histogram: 5 0 0 0 0 0 0 0 0 3
FullNghs:         76.5 ave         205 max           0 min
Histogram: 5 0 0 0 0 0 0 0 0 3

Total # of neighbors = 612
Ave neighs/atom = 204
Neighbor list builds = 0
Dangerous builds = 0
variable  natoms equal "count(all)"
variable xlength equal "lx"
variable  volume equal "vol"
variable  etotal equal "etotal"
variable    ecoh equal "pe/v_natoms"
print "${xlength}, ${volume}, ${etotal}, ${ecoh}" append lattice_cohesive_energy.txt screen no

next i
jump SELF loop

change_box all x scale 1.0025 y scale 1.0025 z scale 1.0025 remap
Changing box ...
WARNING: Triclinic box skew is large. LAMMPS will run inefficiently. (src/domain.cpp:220)
  triclinic box = (0.070427485 0.064117301 0.078624601) to (2.9646828 2.5643653 3.1445834) with tilt (-1.5166058 0 0)
WARNING: Triclinic box skew is large. LAMMPS will run inefficiently. (src/domain.cpp:220)
  triclinic box = (0.070427485 0.060991991 0.078624601) to (2.9646828 2.5674906 3.1445834) with tilt (-1.5166058 0 0)
WARNING: Triclinic box skew is large. LAMMPS will run inefficiently. (src/domain.cpp:220)
  triclinic box = (0.070427485 0.060991991 0.074792153) to (2.9646828 2.5674906 3.1484158) with tilt (-1.5166058 0 0)

run 1
WARNING: No fixes with time integration, atoms won't move (src/verlet.cpp:60)
WARNING: Proc sub-domain size < neighbor skin, could lead to lost atoms (src/domain.cpp:966)
Per MPI rank memory allocation (min/avg/max) = 8.63 | 8.632 | 8.634 Mbytes
   Step         PotEng         TotEng           Lx             Ly             Lz           Volume         Press           Pxx            Pyy            Pzz      
        12  -19.139843     -19.139843      2.8942553      2.5064986      3.0736237      22.29744       518274.98      562378.4       570159.24      422287.3     
        13  -19.139843     -19.139843      2.8942553      2.5064986      3.0736237      22.29744       518274.98      562378.4       570159.24      422287.3     
Loop time of 0.000295125 on 8 procs for 1 steps with 3 atoms

Performance: 292.757 ns/day, 0.082 hours/ns, 3388.395 timesteps/s, 10.165 katom-step/s
0.0% CPU use with 8 MPI tasks x 1 OpenMP threads

MPI task timing breakdown:
Section |  min time  |  avg time  |  max time  |%varavg| %total
---------------------------------------------------------------
Pair    | 0.000202   | 0.00021363 | 0.000229   |   0.0 | 72.38
Neigh   | 0          | 0          | 0          |   0.0 |  0.00
Comm    | 2.6e-05    | 4.0375e-05 | 6e-05      |   0.0 | 13.68
Output  | 1.5e-05    | 3.1375e-05 | 5.4e-05    |   0.0 | 10.63
Modify  | 0          | 3.75e-07   | 1e-06      |   0.0 |  0.13
Other   |            | 9.375e-06  |            |       |  3.18

Nlocal:          0.375 ave           1 max           0 min
Histogram: 5 0 0 0 0 0 0 0 0 3
Nghost:        539.625 ave         540 max         539 min
Histogram: 3 0 0 0 0 0 0 0 0 5
Neighs:             38 ave         102 max           0 min
Histogram: 5 0 0 0 0 0 0 0 0 3
FullNghs:           76 ave         203 max           0 min
Histogram: 5 0 0 0 0 0 0 0 0 3

Total # of neighbors = 608
Ave neighs/atom = 202.66667
Neighbor list builds = 0
Dangerous builds = 0
variable  natoms equal "count(all)"
variable xlength equal "lx"
variable  volume equal "vol"
variable  etotal equal "etotal"
variable    ecoh equal "pe/v_natoms"
print "${xlength}, ${volume}, ${etotal}, ${ecoh}" append lattice_cohesive_energy.txt screen no

next i
jump SELF loop

change_box all x scale 1.0025 y scale 1.0025 z scale 1.0025 remap
Changing box ...
WARNING: Triclinic box skew is large. LAMMPS will run inefficiently. (src/domain.cpp:220)
  triclinic box = (0.066809666 0.060991991 0.074792153) to (2.9683006 2.5674906 3.1484158) with tilt (-1.5166058 0 0)
WARNING: Triclinic box skew is large. LAMMPS will run inefficiently. (src/domain.cpp:220)
  triclinic box = (0.066809666 0.057858868 0.074792153) to (2.9683006 2.5706237 3.1484158) with tilt (-1.5166058 0 0)
WARNING: Triclinic box skew is large. LAMMPS will run inefficiently. (src/domain.cpp:220)
  triclinic box = (0.066809666 0.057858868 0.070950123) to (2.9683006 2.5706237 3.1522579) with tilt (-1.5166058 0 0)

run 1
WARNING: No fixes with time integration, atoms won't move (src/verlet.cpp:60)
WARNING: Proc sub-domain size < neighbor skin, could lead to lost atoms (src/domain.cpp:966)
Per MPI rank memory allocation (min/avg/max) = 8.63 | 8.632 | 8.634 Mbytes
   Step         PotEng         TotEng           Lx             Ly             Lz           Volume         Press           Pxx            Pyy            Pzz      
        13  -19.194409     -19.194409      2.9014909      2.5127649      3.0813078      22.465089      483463.22      526241.75      533038.4       391109.51    
        14  -19.194409     -19.194409      2.9014909      2.5127649      3.0813078      22.465089      483463.22      526241.75      533038.4       391109.51    
Loop time of 0.000492875 on 8 procs for 1 steps with 3 atoms

Performance: 175.298 ns/day, 0.137 hours/ns, 2028.912 timesteps/s, 6.087 katom-step/s
792.5% CPU use with 8 MPI tasks x 1 OpenMP threads

MPI task timing breakdown:
Section |  min time  |  avg time  |  max time  |%varavg| %total
---------------------------------------------------------------
Pair    | 0.000201   | 0.00026662 | 0.000432   |   0.0 | 54.10
Neigh   | 0          | 0          | 0          |   0.0 |  0.00
Comm    | 2.6e-05    | 0.0001125  | 0.000259   |   0.0 | 22.83
Output  | 1.5e-05    | 0.00010412 | 0.000253   |   0.0 | 21.13
Modify  | 0          | 1.25e-07   | 1e-06      |   0.0 |  0.03
Other   |            | 9.5e-06    |            |       |  1.93

Nlocal:          0.375 ave           1 max           0 min
Histogram: 5 0 0 0 0 0 0 0 0 3
Nghost:        539.625 ave         540 max         539 min
Histogram: 3 0 0 0 0 0 0 0 0 5
Neighs:          37.75 ave         101 max           0 min
Histogram: 5 0 0 0 0 0 0 0 0 3
FullNghs:         75.5 ave         202 max           0 min
Histogram: 5 0 0 0 0 0 0 0 0 3

Total # of neighbors = 604
Ave neighs/atom = 201.33333
Neighbor list builds = 0
Dangerous builds = 0
variable  natoms equal "count(all)"
variable xlength equal "lx"
variable  volume equal "vol"
variable  etotal equal "etotal"
variable    ecoh equal "pe/v_natoms"
print "${xlength}, ${volume}, ${etotal}, ${ecoh}" append lattice_cohesive_energy.txt screen no

next i
jump SELF loop

change_box all x scale 1.0025 y scale 1.0025 z scale 1.0025 remap
Changing box ...
WARNING: Triclinic box skew is large. LAMMPS will run inefficiently. (src/domain.cpp:220)
  triclinic box = (0.063182802 0.057858868 0.070950123) to (2.9719275 2.5706237 3.1522579) with tilt (-1.5166058 0 0)
WARNING: Triclinic box skew is large. LAMMPS will run inefficiently. (src/domain.cpp:220)
  triclinic box = (0.063182802 0.054717912 0.070950123) to (2.9719275 2.5737647 3.1522579) with tilt (-1.5166058 0 0)
WARNING: Triclinic box skew is large. LAMMPS will run inefficiently. (src/domain.cpp:220)
  triclinic box = (0.063182802 0.054717912 0.067098489) to (2.9719275 2.5737647 3.1561095) with tilt (-1.5166058 0 0)

run 1
WARNING: No fixes with time integration, atoms won't move (src/verlet.cpp:60)
WARNING: Proc sub-domain size < neighbor skin, could lead to lost atoms (src/domain.cpp:966)
Per MPI rank memory allocation (min/avg/max) = 8.63 | 8.632 | 8.634 Mbytes
   Step         PotEng         TotEng           Lx             Ly             Lz           Volume         Press           Pxx            Pyy            Pzz      
        14  -19.245617     -19.245617      2.9087447      2.5190468      3.089011       22.633999      449544.3       491008.95      496905.84      360718.12    
        15  -19.245617     -19.245617      2.9087447      2.5190468      3.089011       22.633999      449544.3       491008.95      496905.84      360718.12    
Loop time of 0.00029475 on 8 procs for 1 steps with 3 atoms

Performance: 293.130 ns/day, 0.082 hours/ns, 3392.706 timesteps/s, 10.178 katom-step/s
0.0% CPU use with 8 MPI tasks x 1 OpenMP threads

MPI task timing breakdown:
Section |  min time  |  avg time  |  max time  |%varavg| %total
---------------------------------------------------------------
Pair    | 0.000202   | 0.00021313 | 0.000229   |   0.0 | 72.31
Neigh   | 0          | 0          | 0          |   0.0 |  0.00
Comm    | 2.7e-05    | 4.075e-05  | 6e-05      |   0.0 | 13.83
Output  | 1.6e-05    | 3.2125e-05 | 5.6e-05    |   0.0 | 10.90
Modify  | 0          | 1.25e-07   | 1e-06      |   0.0 |  0.04
Other   |            | 8.625e-06  |            |       |  2.93

Nlocal:          0.375 ave           1 max           0 min
Histogram: 5 0 0 0 0 0 0 0 0 3
Nghost:        539.625 ave         540 max         539 min
Histogram: 3 0 0 0 0 0 0 0 0 5
Neighs:           37.5 ave         101 max           0 min
Histogram: 5 0 0 0 0 0 0 0 0 3
FullNghs:           75 ave         202 max           0 min
Histogram: 5 0 0 0 0 0 0 0 0 3

Total # of neighbors = 600
Ave neighs/atom = 200
Neighbor list builds = 0
Dangerous builds = 0
variable  natoms equal "count(all)"
variable xlength equal "lx"
variable  volume equal "vol"
variable  etotal equal "etotal"
variable    ecoh equal "pe/v_natoms"
print "${xlength}, ${volume}, ${etotal}, ${ecoh}" append lattice_cohesive_energy.txt screen no

next i
jump SELF loop

change_box all x scale 1.0025 y scale 1.0025 z scale 1.0025 remap
Changing box ...
WARNING: Triclinic box skew is large. LAMMPS will run inefficiently. (src/domain.cpp:220)
  triclinic box = (0.059546871 0.054717912 0.067098489) to (2.9755634 2.5737647 3.1561095) with tilt (-1.5166058 0 0)
WARNING: Triclinic box skew is large. LAMMPS will run inefficiently. (src/domain.cpp:220)
  triclinic box = (0.059546871 0.051569103 0.067098489) to (2.9755634 2.5769135 3.1561095) with tilt (-1.5166058 0 0)
WARNING: Triclinic box skew is large. LAMMPS will run inefficiently. (src/domain.cpp:220)
  triclinic box = (0.059546871 0.051569103 0.063237225) to (2.9755634 2.5769135 3.1599708) with tilt (-1.5166058 0 0)

run 1
WARNING: No fixes with time integration, atoms won't move (src/verlet.cpp:60)
WARNING: Proc sub-domain size < neighbor skin, could lead to lost atoms (src/domain.cpp:966)
Per MPI rank memory allocation (min/avg/max) = 8.63 | 8.632 | 8.634 Mbytes
   Step         PotEng         TotEng           Lx             Ly             Lz           Volume         Press           Pxx            Pyy            Pzz      
        15  -19.293511     -19.293511      2.9160165      2.5253444      3.0967336      22.804179      416503.12      456665         461742.55      331101.81    
        16  -19.293511     -19.293511      2.9160165      2.5253444      3.0967336      22.804179      416503.12      456665         461742.55      331101.81    
Loop time of 0.0002925 on 8 procs for 1 steps with 3 atoms

Performance: 295.385 ns/day, 0.081 hours/ns, 3418.803 timesteps/s, 10.256 katom-step/s
0.0% CPU use with 8 MPI tasks x 1 OpenMP threads

MPI task timing breakdown:
Section |  min time  |  avg time  |  max time  |%varavg| %total
---------------------------------------------------------------
Pair    | 0.000201   | 0.00021225 | 0.000227   |   0.0 | 72.56
Neigh   | 0          | 0          | 0          |   0.0 |  0.00
Comm    | 2.6e-05    | 3.95e-05   | 5.8e-05    |   0.0 | 13.50
Output  | 1.5e-05    | 3.0875e-05 | 5.3e-05    |   0.0 | 10.56
Modify  | 0          | 5e-07      | 2e-06      |   0.0 |  0.17
Other   |            | 9.375e-06  |            |       |  3.21

Nlocal:          0.375 ave           1 max           0 min
Histogram: 5 0 0 0 0 0 0 0 0 3
Nghost:        539.625 ave         540 max         539 min
Histogram: 3 0 0 0 0 0 0 0 0 5
Neighs:           37.5 ave         101 max           0 min
Histogram: 5 0 0 0 0 0 0 0 0 3
FullNghs:           75 ave         202 max           0 min
Histogram: 5 0 0 0 0 0 0 0 0 3

Total # of neighbors = 600
Ave neighs/atom = 200
Neighbor list builds = 0
Dangerous builds = 0
variable  natoms equal "count(all)"
variable xlength equal "lx"
variable  volume equal "vol"
variable  etotal equal "etotal"
variable    ecoh equal "pe/v_natoms"
print "${xlength}, ${volume}, ${etotal}, ${ecoh}" append lattice_cohesive_energy.txt screen no

next i
jump SELF loop

change_box all x scale 1.0025 y scale 1.0025 z scale 1.0025 remap
Changing box ...
WARNING: Triclinic box skew is large. LAMMPS will run inefficiently. (src/domain.cpp:220)
  triclinic box = (0.05590185 0.051569103 0.063237225) to (2.9792084 2.5769135 3.1599708) with tilt (-1.5166058 0 0)
WARNING: Triclinic box skew is large. LAMMPS will run inefficiently. (src/domain.cpp:220)
  triclinic box = (0.05590185 0.048412423 0.063237225) to (2.9792084 2.5800702 3.1599708) with tilt (-1.5166058 0 0)
WARNING: Triclinic box skew is large. LAMMPS will run inefficiently. (src/domain.cpp:220)
  triclinic box = (0.05590185 0.048412423 0.059366308) to (2.9792084 2.5800702 3.1638417) with tilt (-1.5166058 0 0)

run 1
WARNING: No fixes with time integration, atoms won't move (src/verlet.cpp:60)
WARNING: Proc sub-domain size < neighbor skin, could lead to lost atoms (src/domain.cpp:966)
Per MPI rank memory allocation (min/avg/max) = 8.63 | 8.632 | 8.634 Mbytes
   Step         PotEng         TotEng           Lx             Ly             Lz           Volume         Press           Pxx            Pyy            Pzz      
        16  -19.338133     -19.338133      2.9233066      2.5316578      3.1044754      22.975638      384324.56      423194.73      427529.64      302249.31    
        17  -19.338133     -19.338133      2.9233066      2.5316578      3.1044754      22.975638      384324.56      423194.73      427529.64      302249.31    
Loop time of 0.000259 on 8 procs for 1 steps with 3 atoms

Performance: 333.591 ns/day, 0.072 hours/ns, 3861.004 timesteps/s, 11.583 katom-step/s
0.0% CPU use with 8 MPI tasks x 1 OpenMP threads

MPI task timing breakdown:
Section |  min time  |  avg time  |  max time  |%varavg| %total
---------------------------------------------------------------
Pair    | 0.00019    | 0.00019425 | 0.000206   |   0.0 | 75.00
Neigh   | 0          | 0          | 0          |   0.0 |  0.00
Comm    | 2.3e-05    | 3.35e-05   | 4.5e-05    |   0.0 | 12.93
Output  | 1.4e-05    | 2.4875e-05 | 3.8e-05    |   0.0 |  9.60
Modify  | 0          | 2.5e-07    | 1e-06      |   0.0 |  0.10
Other   |            | 6.125e-06  |            |       |  2.36

Nlocal:          0.375 ave           1 max           0 min
Histogram: 5 0 0 0 0 0 0 0 0 3
Nghost:        539.625 ave         540 max         539 min
Histogram: 3 0 0 0 0 0 0 0 0 5
Neighs:           37.5 ave         101 max           0 min
Histogram: 5 0 0 0 0 0 0 0 0 3
FullNghs:           75 ave         202 max           0 min
Histogram: 5 0 0 0 0 0 0 0 0 3

Total # of neighbors = 600
Ave neighs/atom = 200
Neighbor list builds = 0
Dangerous builds = 0
variable  natoms equal "count(all)"
variable xlength equal "lx"
variable  volume equal "vol"
variable  etotal equal "etotal"
variable    ecoh equal "pe/v_natoms"
print "${xlength}, ${volume}, ${etotal}, ${ecoh}" append lattice_cohesive_energy.txt screen no

next i
jump SELF loop

change_box all x scale 1.0025 y scale 1.0025 z scale 1.0025 remap
Changing box ...
WARNING: Triclinic box skew is large. LAMMPS will run inefficiently. (src/domain.cpp:220)
  triclinic box = (0.052247717 0.048412423 0.059366308) to (2.9828626 2.5800702 3.1638417) with tilt (-1.5166058 0 0)
WARNING: Triclinic box skew is large. LAMMPS will run inefficiently. (src/domain.cpp:220)
  triclinic box = (0.052247717 0.04524785 0.059366308) to (2.9828626 2.5832348 3.1638417) with tilt (-1.5166058 0 0)
WARNING: Triclinic box skew is large. LAMMPS will run inefficiently. (src/domain.cpp:220)
  triclinic box = (0.052247717 0.04524785 0.055485714) to (2.9828626 2.5832348 3.1677223) with tilt (-1.5166058 0 0)

run 1
WARNING: No fixes with time integration, atoms won't move (src/verlet.cpp:60)
WARNING: Proc sub-domain size < neighbor skin, could lead to lost atoms (src/domain.cpp:966)
Per MPI rank memory allocation (min/avg/max) = 8.63 | 8.632 | 8.634 Mbytes
   Step         PotEng         TotEng           Lx             Ly             Lz           Volume         Press           Pxx            Pyy            Pzz      
        17  -19.379528     -19.379528      2.9306148      2.5379869      3.1122366      23.148386      352994.02      390583.72      394248.96      274149.39    
        18  -19.379528     -19.379528      2.9306148      2.5379869      3.1122366      23.148386      352994.02      390583.72      394248.96      274149.39    
Loop time of 0.000256 on 8 procs for 1 steps with 3 atoms

Performance: 337.500 ns/day, 0.071 hours/ns, 3906.250 timesteps/s, 11.719 katom-step/s
0.0% CPU use with 8 MPI tasks x 1 OpenMP threads

MPI task timing breakdown:
Section |  min time  |  avg time  |  max time  |%varavg| %total
---------------------------------------------------------------
Pair    | 0.000188   | 0.00019263 | 0.000204   |   0.0 | 75.24
Neigh   | 0          | 0          | 0          |   0.0 |  0.00
Comm    | 2.2e-05    | 3.275e-05  | 4.3e-05    |   0.0 | 12.79
Output  | 1.3e-05    | 2.4e-05    | 3.7e-05    |   0.0 |  9.38
Modify  | 0          | 3.75e-07   | 1e-06      |   0.0 |  0.15
Other   |            | 6.25e-06   |            |       |  2.44

Nlocal:          0.375 ave           1 max           0 min
Histogram: 5 0 0 0 0 0 0 0 0 3
Nghost:        539.625 ave         540 max         539 min
Histogram: 3 0 0 0 0 0 0 0 0 5
Neighs:             37 ave          99 max           0 min
Histogram: 5 0 0 0 0 0 0 0 0 3
FullNghs:           74 ave         198 max           0 min
Histogram: 5 0 0 0 0 0 0 0 0 3

Total # of neighbors = 592
Ave neighs/atom = 197.33333
Neighbor list builds = 0
Dangerous builds = 0
variable  natoms equal "count(all)"
variable xlength equal "lx"
variable  volume equal "vol"
variable  etotal equal "etotal"
variable    ecoh equal "pe/v_natoms"
print "${xlength}, ${volume}, ${etotal}, ${ecoh}" append lattice_cohesive_energy.txt screen no

next i
jump SELF loop

change_box all x scale 1.0025 y scale 1.0025 z scale 1.0025 remap
Changing box ...
WARNING: Triclinic box skew is large. LAMMPS will run inefficiently. (src/domain.cpp:220)
  triclinic box = (0.048584449 0.04524785 0.055485714) to (2.9865258 2.5832348 3.1677223) with tilt (-1.5166058 0 0)
WARNING: Triclinic box skew is large. LAMMPS will run inefficiently. (src/domain.cpp:220)
  triclinic box = (0.048584449 0.042075367 0.055485714) to (2.9865258 2.5864072 3.1677223) with tilt (-1.5166058 0 0)
WARNING: Triclinic box skew is large. LAMMPS will run inefficiently. (src/domain.cpp:220)
  triclinic box = (0.048584449 0.042075367 0.051595418) to (2.9865258 2.5864072 3.1716126) with tilt (-1.5166058 0 0)

run 1
WARNING: No fixes with time integration, atoms won't move (src/verlet.cpp:60)
WARNING: Proc sub-domain size < neighbor skin, could lead to lost atoms (src/domain.cpp:966)
Per MPI rank memory allocation (min/avg/max) = 8.63 | 8.632 | 8.634 Mbytes
   Step         PotEng         TotEng           Lx             Ly             Lz           Volume         Press           Pxx            Pyy            Pzz      
        18  -19.417737     -19.417737      2.9379414      2.5443319      3.1200172      23.322434      322496.72      358817.12      361882.19      246790.84    
        19  -19.417737     -19.417737      2.9379414      2.5443319      3.1200172      23.322434      322496.72      358817.12      361882.19      246790.84    
Loop time of 0.000256625 on 8 procs for 1 steps with 3 atoms

Performance: 336.678 ns/day, 0.071 hours/ns, 3896.736 timesteps/s, 11.690 katom-step/s
0.0% CPU use with 8 MPI tasks x 1 OpenMP threads

MPI task timing breakdown:
Section |  min time  |  avg time  |  max time  |%varavg| %total
---------------------------------------------------------------
Pair    | 0.000189   | 0.00019275 | 0.000204   |   0.0 | 75.11
Neigh   | 0          | 0          | 0          |   0.0 |  0.00
Comm    | 2.1e-05    | 3.3e-05    | 4.5e-05    |   0.0 | 12.86
Output  | 1.4e-05    | 2.4625e-05 | 3.9e-05    |   0.0 |  9.60
Modify  | 0          | 3.75e-07   | 1e-06      |   0.0 |  0.15
Other   |            | 5.875e-06  |            |       |  2.29

Nlocal:          0.375 ave           1 max           0 min
Histogram: 5 0 0 0 0 0 0 0 0 3
Nghost:        539.625 ave         540 max         539 min
Histogram: 3 0 0 0 0 0 0 0 0 5
Neighs:             37 ave          99 max           0 min
Histogram: 5 0 0 0 0 0 0 0 0 3
FullNghs:           74 ave         198 max           0 min
Histogram: 5 0 0 0 0 0 0 0 0 3

Total # of neighbors = 592
Ave neighs/atom = 197.33333
Neighbor list builds = 0
Dangerous builds = 0
variable  natoms equal "count(all)"
variable xlength equal "lx"
variable  volume equal "vol"
variable  etotal equal "etotal"
variable    ecoh equal "pe/v_natoms"
print "${xlength}, ${volume}, ${etotal}, ${ecoh}" append lattice_cohesive_energy.txt screen no

next i
jump SELF loop

change_box all x scale 1.0025 y scale 1.0025 z scale 1.0025 remap
Changing box ...
WARNING: Triclinic box skew is large. LAMMPS will run inefficiently. (src/domain.cpp:220)
  triclinic box = (0.044912022 0.042075367 0.051595418) to (2.9901983 2.5864072 3.1716126) with tilt (-1.5166058 0 0)
WARNING: Triclinic box skew is large. LAMMPS will run inefficiently. (src/domain.cpp:220)
  triclinic box = (0.044912022 0.038894952 0.051595418) to (2.9901983 2.5895877 3.1716126) with tilt (-1.5166058 0 0)
WARNING: Triclinic box skew is large. LAMMPS will run inefficiently. (src/domain.cpp:220)
  triclinic box = (0.044912022 0.038894952 0.047695397) to (2.9901983 2.5895877 3.1755126) with tilt (-1.5166058 0 0)

run 1
WARNING: No fixes with time integration, atoms won't move (src/verlet.cpp:60)
WARNING: Proc sub-domain size < neighbor skin, could lead to lost atoms (src/domain.cpp:966)
Per MPI rank memory allocation (min/avg/max) = 8.63 | 8.632 | 8.634 Mbytes
   Step         PotEng         TotEng           Lx             Ly             Lz           Volume         Press           Pxx            Pyy            Pzz      
        19  -19.452806     -19.452806      2.9452862      2.5506927      3.1278172      23.49779       292818.18      327880.77      330411.3       220162.47    
        20  -19.452806     -19.452806      2.9452862      2.5506927      3.1278172      23.49779       292818.18      327880.77      330411.3       220162.47    
Loop time of 0.000258625 on 8 procs for 1 steps with 3 atoms

Performance: 334.074 ns/day, 0.072 hours/ns, 3866.602 timesteps/s, 11.600 katom-step/s
0.0% CPU use with 8 MPI tasks x 1 OpenMP threads

MPI task timing breakdown:
Section |  min time  |  avg time  |  max time  |%varavg| %total
---------------------------------------------------------------
Pair    | 0.00019    | 0.00019475 | 0.000206   |   0.0 | 75.30
Neigh   | 0          | 0          | 0          |   0.0 |  0.00
Comm    | 2.1e-05    | 3.2625e-05 | 4.4e-05    |   0.0 | 12.61
Output  | 1.4e-05    | 2.475e-05  | 3.7e-05    |   0.0 |  9.57
Modify  | 0          | 1.25e-07   | 1e-06      |   0.0 |  0.05
Other   |            | 6.375e-06  |            |       |  2.46

Nlocal:          0.375 ave           1 max           0 min
Histogram: 5 0 0 0 0 0 0 0 0 3
Nghost:        539.625 ave         540 max         539 min
Histogram: 3 0 0 0 0 0 0 0 0 5
Neighs:             37 ave          99 max           0 min
Histogram: 5 0 0 0 0 0 0 0 0 3
FullNghs:           74 ave         198 max           0 min
Histogram: 5 0 0 0 0 0 0 0 0 3

Total # of neighbors = 592
Ave neighs/atom = 197.33333
Neighbor list builds = 0
Dangerous builds = 0
variable  natoms equal "count(all)"
variable xlength equal "lx"
variable  volume equal "vol"
variable  etotal equal "etotal"
variable    ecoh equal "pe/v_natoms"
print "${xlength}, ${volume}, ${etotal}, ${ecoh}" append lattice_cohesive_energy.txt screen no

next i
jump SELF loop

change_box all x scale 1.0025 y scale 1.0025 z scale 1.0025 remap
Changing box ...
WARNING: Triclinic box skew is large. LAMMPS will run inefficiently. (src/domain.cpp:220)
  triclinic box = (0.041230414 0.038894952 0.047695397) to (2.9938799 2.5895877 3.1755126) with tilt (-1.5166058 0 0)
WARNING: Triclinic box skew is large. LAMMPS will run inefficiently. (src/domain.cpp:220)
  triclinic box = (0.041230414 0.035706586 0.047695397) to (2.9938799 2.592776 3.1755126) with tilt (-1.5166058 0 0)
WARNING: Triclinic box skew is large. LAMMPS will run inefficiently. (src/domain.cpp:220)
  triclinic box = (0.041230414 0.035706586 0.043785625) to (2.9938799 2.592776 3.1794224) with tilt (-1.5166058 0 0)

run 1
WARNING: No fixes with time integration, atoms won't move (src/verlet.cpp:60)
WARNING: Proc sub-domain size < neighbor skin, could lead to lost atoms (src/domain.cpp:966)
Per MPI rank memory allocation (min/avg/max) = 8.63 | 8.632 | 8.634 Mbytes
   Step         PotEng         TotEng           Lx             Ly             Lz           Volume         Press           Pxx            Pyy            Pzz      
        20  -19.484776     -19.484776      2.9526495      2.5570694      3.1356367      23.674464      263944.01      297760.4       299818.43      194253.2     
        21  -19.484776     -19.484776      2.9526495      2.5570694      3.1356367      23.674464      263944.01      297760.4       299818.43      194253.2     
Loop time of 0.000284 on 8 procs for 1 steps with 3 atoms

Performance: 304.225 ns/day, 0.079 hours/ns, 3521.127 timesteps/s, 10.563 katom-step/s
0.0% CPU use with 8 MPI tasks x 1 OpenMP threads

MPI task timing breakdown:
Section |  min time  |  avg time  |  max time  |%varavg| %total
---------------------------------------------------------------
Pair    | 0.000198   | 0.00021112 | 0.000226   |   0.0 | 74.34
Neigh   | 0          | 0          | 0          |   0.0 |  0.00
Comm    | 2.3e-05    | 3.7625e-05 | 6.2e-05    |   0.0 | 13.25
Output  | 1.4e-05    | 2.7875e-05 | 5.5e-05    |   0.0 |  9.82
Modify  | 0          | 1.25e-07   | 1e-06      |   0.0 |  0.04
Other   |            | 7.25e-06   |            |       |  2.55

Nlocal:          0.375 ave           1 max           0 min
Histogram: 5 0 0 0 0 0 0 0 0 3
Nghost:        539.625 ave         540 max         539 min
Histogram: 3 0 0 0 0 0 0 0 0 5
Neighs:             37 ave          99 max           0 min
Histogram: 5 0 0 0 0 0 0 0 0 3
FullNghs:           74 ave         198 max           0 min
Histogram: 5 0 0 0 0 0 0 0 0 3

Total # of neighbors = 592
Ave neighs/atom = 197.33333
Neighbor list builds = 0
Dangerous builds = 0
variable  natoms equal "count(all)"
variable xlength equal "lx"
variable  volume equal "vol"
variable  etotal equal "etotal"
variable    ecoh equal "pe/v_natoms"
print "${xlength}, ${volume}, ${etotal}, ${ecoh}" append lattice_cohesive_energy.txt screen no

next i
jump SELF loop

change_box all x scale 1.0025 y scale 1.0025 z scale 1.0025 remap
Changing box ...
WARNING: Triclinic box skew is large. LAMMPS will run inefficiently. (src/domain.cpp:220)
  triclinic box = (0.037539602 0.035706586 0.043785625) to (2.9975707 2.592776 3.1794224) with tilt (-1.5166058 0 0)
WARNING: Triclinic box skew is large. LAMMPS will run inefficiently. (src/domain.cpp:220)
  triclinic box = (0.037539602 0.032510249 0.043785625) to (2.9975707 2.5959724 3.1794224) with tilt (-1.5166058 0 0)
WARNING: Triclinic box skew is large. LAMMPS will run inefficiently. (src/domain.cpp:220)
  triclinic box = (0.037539602 0.032510249 0.039866079) to (2.9975707 2.5959724 3.1833419) with tilt (-1.5166058 0 0)

run 1
WARNING: No fixes with time integration, atoms won't move (src/verlet.cpp:60)
WARNING: Proc sub-domain size < neighbor skin, could lead to lost atoms (src/domain.cpp:966)
Per MPI rank memory allocation (min/avg/max) = 8.63 | 8.632 | 8.634 Mbytes
   Step         PotEng         TotEng           Lx             Ly             Lz           Volume         Press           Pxx            Pyy            Pzz      
        21  -19.513691     -19.513691      2.9600311      2.5634621      3.1434758      23.852467      235860.04      268441.97      270086.18      169051.98    
        22  -19.513691     -19.513691      2.9600311      2.5634621      3.1434758      23.852467      235860.04      268441.97      270086.18      169051.98    
Loop time of 0.00025225 on 8 procs for 1 steps with 3 atoms

Performance: 342.517 ns/day, 0.070 hours/ns, 3964.321 timesteps/s, 11.893 katom-step/s
0.0% CPU use with 8 MPI tasks x 1 OpenMP threads

MPI task timing breakdown:
Section |  min time  |  avg time  |  max time  |%varavg| %total
---------------------------------------------------------------
Pair    | 0.000186   | 0.0001895  | 0.0002     |   0.0 | 75.12
Neigh   | 0          | 0          | 0          |   0.0 |  0.00
Comm    | 2.2e-05    | 3.2375e-05 | 4.3e-05    |   0.0 | 12.83
Output  | 1.3e-05    | 2.3625e-05 | 3.6e-05    |   0.0 |  9.37
Modify  | 0          | 1.25e-07   | 1e-06      |   0.0 |  0.05
Other   |            | 6.625e-06  |            |       |  2.63

Nlocal:          0.375 ave           1 max           0 min
Histogram: 5 0 0 0 0 0 0 0 0 3
Nghost:        539.625 ave         540 max         539 min
Histogram: 3 0 0 0 0 0 0 0 0 5
Neighs:           36.5 ave          98 max           0 min
Histogram: 5 0 0 0 0 0 0 0 0 3
FullNghs:           73 ave         195 max           0 min
Histogram: 5 0 0 0 0 0 0 0 0 3

Total # of neighbors = 584
Ave neighs/atom = 194.66667
Neighbor list builds = 0
Dangerous builds = 0
variable  natoms equal "count(all)"
variable xlength equal "lx"
variable  volume equal "vol"
variable  etotal equal "etotal"
variable    ecoh equal "pe/v_natoms"
print "${xlength}, ${volume}, ${etotal}, ${ecoh}" append lattice_cohesive_energy.txt screen no

next i
jump SELF loop

change_box all x scale 1.0025 y scale 1.0025 z scale 1.0025 remap
Changing box ...
WARNING: Triclinic box skew is large. LAMMPS will run inefficiently. (src/domain.cpp:220)
  triclinic box = (0.033839563 0.032510249 0.039866079) to (3.0012707 2.5959724 3.1833419) with tilt (-1.5166058 0 0)
WARNING: Triclinic box skew is large. LAMMPS will run inefficiently. (src/domain.cpp:220)
  triclinic box = (0.033839563 0.029305922 0.039866079) to (3.0012707 2.5991767 3.1833419) with tilt (-1.5166058 0 0)
WARNING: Triclinic box skew is large. LAMMPS will run inefficiently. (src/domain.cpp:220)
  triclinic box = (0.033839563 0.029305922 0.035936734) to (3.0012707 2.5991767 3.1872713) with tilt (-1.5166058 0 0)

run 1
WARNING: No fixes with time integration, atoms won't move (src/verlet.cpp:60)
WARNING: Proc sub-domain size < neighbor skin, could lead to lost atoms (src/domain.cpp:966)
Per MPI rank memory allocation (min/avg/max) = 8.63 | 8.632 | 8.634 Mbytes
   Step         PotEng         TotEng           Lx             Ly             Lz           Volume         Press           Pxx            Pyy            Pzz      
        22  -19.539595     -19.539595      2.9674312      2.5698708      3.1513345      24.031808      208552.37      239911.87      241197.42      144547.83    
        23  -19.539595     -19.539595      2.9674312      2.5698708      3.1513345      24.031808      208552.37      239911.87      241197.42      144547.83    
Loop time of 0.00025675 on 8 procs for 1 steps with 3 atoms

Performance: 336.514 ns/day, 0.071 hours/ns, 3894.839 timesteps/s, 11.685 katom-step/s
0.0% CPU use with 8 MPI tasks x 1 OpenMP threads

MPI task timing breakdown:
Section |  min time  |  avg time  |  max time  |%varavg| %total
---------------------------------------------------------------
Pair    | 0.000186   | 0.00019012 | 0.000201   |   0.0 | 74.05
Neigh   | 0          | 0          | 0          |   0.0 |  0.00
Comm    | 2e-05      | 3.2375e-05 | 4.4e-05    |   0.0 | 12.61
Output  | 1.3e-05    | 2.45e-05   | 4e-05      |   0.0 |  9.54
Modify  | 0          | 0          | 0          |   0.0 |  0.00
Other   |            | 9.75e-06   |            |       |  3.80

Nlocal:          0.375 ave           1 max           0 min
Histogram: 5 0 0 0 0 0 0 0 0 3
Nghost:        539.625 ave         540 max         539 min
Histogram: 3 0 0 0 0 0 0 0 0 5
Neighs:           36.5 ave          98 max           0 min
Histogram: 5 0 0 0 0 0 0 0 0 3
FullNghs:           73 ave         195 max           0 min
Histogram: 5 0 0 0 0 0 0 0 0 3

Total # of neighbors = 584
Ave neighs/atom = 194.66667
Neighbor list builds = 0
Dangerous builds = 0
variable  natoms equal "count(all)"
variable xlength equal "lx"
variable  volume equal "vol"
variable  etotal equal "etotal"
variable    ecoh equal "pe/v_natoms"
print "${xlength}, ${volume}, ${etotal}, ${ecoh}" append lattice_cohesive_energy.txt screen no

next i
jump SELF loop

change_box all x scale 1.0025 y scale 1.0025 z scale 1.0025 remap
Changing box ...
WARNING: Triclinic box skew is large. LAMMPS will run inefficiently. (src/domain.cpp:220)
  triclinic box = (0.030130275 0.029305922 0.035936734) to (3.00498 2.5991767 3.1872713) with tilt (-1.5166058 0 0)
WARNING: Triclinic box skew is large. LAMMPS will run inefficiently. (src/domain.cpp:220)
  triclinic box = (0.030130275 0.026093583 0.035936734) to (3.00498 2.602389 3.1872713) with tilt (-1.5166058 0 0)
WARNING: Triclinic box skew is large. LAMMPS will run inefficiently. (src/domain.cpp:220)
  triclinic box = (0.030130275 0.026093583 0.031997566) to (3.00498 2.602389 3.1912104) with tilt (-1.5166058 0 0)

run 1
WARNING: No fixes with time integration, atoms won't move (src/verlet.cpp:60)
WARNING: Proc sub-domain size < neighbor skin, could lead to lost atoms (src/domain.cpp:966)
Per MPI rank memory allocation (min/avg/max) = 8.63 | 8.632 | 8.634 Mbytes
   Step         PotEng         TotEng           Lx             Ly             Lz           Volume         Press           Pxx            Pyy            Pzz      
        23  -19.562529     -19.562529      2.9748497      2.5762954      3.1592129      24.212497      182006.98      212156.21      213134.94      120729.8     
        24  -19.562529     -19.562529      2.9748497      2.5762954      3.1592129      24.212497      182006.98      212156.21      213134.94      120729.8     
Loop time of 0.000259125 on 8 procs for 1 steps with 3 atoms

Performance: 333.430 ns/day, 0.072 hours/ns, 3859.141 timesteps/s, 11.577 katom-step/s
0.0% CPU use with 8 MPI tasks x 1 OpenMP threads

MPI task timing breakdown:
Section |  min time  |  avg time  |  max time  |%varavg| %total
---------------------------------------------------------------
Pair    | 0.000188   | 0.00019438 | 0.000204   |   0.0 | 75.01
Neigh   | 0          | 0          | 0          |   0.0 |  0.00
Comm    | 2.3e-05    | 3.3875e-05 | 4.4e-05    |   0.0 | 13.07
Output  | 1.3e-05    | 2.425e-05  | 3.7e-05    |   0.0 |  9.36
Modify  | 0          | 1.25e-07   | 1e-06      |   0.0 |  0.05
Other   |            | 6.5e-06    |            |       |  2.51

Nlocal:          0.375 ave           1 max           0 min
Histogram: 5 0 0 0 0 0 0 0 0 3
Nghost:        539.625 ave         540 max         539 min
Histogram: 3 0 0 0 0 0 0 0 0 5
Neighs:             36 ave          97 max           0 min
Histogram: 5 0 0 0 0 0 0 0 0 3
FullNghs:           72 ave         193 max           0 min
Histogram: 5 0 0 0 0 0 0 0 0 3

Total # of neighbors = 576
Ave neighs/atom = 192
Neighbor list builds = 0
Dangerous builds = 0
variable  natoms equal "count(all)"
variable xlength equal "lx"
variable  volume equal "vol"
variable  etotal equal "etotal"
variable    ecoh equal "pe/v_natoms"
print "${xlength}, ${volume}, ${etotal}, ${ecoh}" append lattice_cohesive_energy.txt screen no

next i
jump SELF loop

change_box all x scale 1.0025 y scale 1.0025 z scale 1.0025 remap
Changing box ...
WARNING: Triclinic box skew is large. LAMMPS will run inefficiently. (src/domain.cpp:220)
  triclinic box = (0.026411712 0.026093583 0.031997566) to (3.0086986 2.602389 3.1912104) with tilt (-1.5166058 0 0)
WARNING: Triclinic box skew is large. LAMMPS will run inefficiently. (src/domain.cpp:220)
  triclinic box = (0.026411712 0.022873214 0.031997566) to (3.0086986 2.6056094 3.1912104) with tilt (-1.5166058 0 0)
WARNING: Triclinic box skew is large. LAMMPS will run inefficiently. (src/domain.cpp:220)
  triclinic box = (0.026411712 0.022873214 0.02804855) to (3.0086986 2.6056094 3.1951594) with tilt (-1.5166058 0 0)

run 1
WARNING: No fixes with time integration, atoms won't move (src/verlet.cpp:60)
WARNING: Proc sub-domain size < neighbor skin, could lead to lost atoms (src/domain.cpp:966)
Per MPI rank memory allocation (min/avg/max) = 8.63 | 8.632 | 8.634 Mbytes
   Step         PotEng         TotEng           Lx             Ly             Lz           Volume         Press           Pxx            Pyy            Pzz      
        24  -19.582539     -19.582539      2.9822869      2.5827362      3.1671109      24.394546      156210.21      185161.76      185881.94      97586.939    
        25  -19.582539     -19.582539      2.9822869      2.5827362      3.1671109      24.394546      156210.21      185161.76      185881.94      97586.939    
Loop time of 0.000264125 on 8 procs for 1 steps with 3 atoms

Performance: 327.118 ns/day, 0.073 hours/ns, 3786.086 timesteps/s, 11.358 katom-step/s
0.0% CPU use with 8 MPI tasks x 1 OpenMP threads

MPI task timing breakdown:
Section |  min time  |  avg time  |  max time  |%varavg| %total
---------------------------------------------------------------
Pair    | 0.000196   | 0.00019925 | 0.00021    |   0.0 | 75.44
Neigh   | 0          | 0          | 0          |   0.0 |  0.00
Comm    | 2.2e-05    | 3.3125e-05 | 4.4e-05    |   0.0 | 12.54
Output  | 1.3e-05    | 2.45e-05   | 3.7e-05    |   0.0 |  9.28
Modify  | 0          | 1.25e-07   | 1e-06      |   0.0 |  0.05
Other   |            | 7.125e-06  |            |       |  2.70

Nlocal:          0.375 ave           1 max           0 min
Histogram: 5 0 0 0 0 0 0 0 0 3
Nghost:        539.625 ave         540 max         539 min
Histogram: 3 0 0 0 0 0 0 0 0 5
Neighs:           34.5 ave          93 max           0 min
Histogram: 5 0 0 0 0 0 0 0 0 3
FullNghs:           69 ave         185 max           0 min
Histogram: 5 0 0 0 0 0 0 0 0 3

Total # of neighbors = 552
Ave neighs/atom = 184
Neighbor list builds = 0
Dangerous builds = 0
variable  natoms equal "count(all)"
variable xlength equal "lx"
variable  volume equal "vol"
variable  etotal equal "etotal"
variable    ecoh equal "pe/v_natoms"
print "${xlength}, ${volume}, ${etotal}, ${ecoh}" append lattice_cohesive_energy.txt screen no

next i
jump SELF loop

change_box all x scale 1.0025 y scale 1.0025 z scale 1.0025 remap
Changing box ...
WARNING: Triclinic box skew is large. LAMMPS will run inefficiently. (src/domain.cpp:220)
  triclinic box = (0.022683854 0.022873214 0.02804855) to (3.0124264 2.6056094 3.1951594) with tilt (-1.5166058 0 0)
  triclinic box = (0.022683854 0.019644794 0.02804855) to (3.0124264 2.6088378 3.1951594) with tilt (-1.5166058 0 0)
  triclinic box = (0.022683854 0.019644794 0.024089661) to (3.0124264 2.6088378 3.1991183) with tilt (-1.5166058 0 0)

run 1
Per MPI rank memory allocation (min/avg/max) = 8.63 | 8.632 | 8.634 Mbytes
   Step         PotEng         TotEng           Lx             Ly             Lz           Volume         Press           Pxx            Pyy            Pzz      
WARNING: Too many warnings: 104 vs 100. All future warnings will be suppressed (src/thermo.cpp:466)
        25  -19.599666     -19.599666      2.9897426      2.589193       3.1750287      24.577962      131148.42      158915.01      159421.81      75108.439    
        26  -19.599666     -19.599666      2.9897426      2.589193       3.1750287      24.577962      131148.42      158915.01      159421.81      75108.439    
Loop time of 0.00025 on 8 procs for 1 steps with 3 atoms

Performance: 345.600 ns/day, 0.069 hours/ns, 4000.000 timesteps/s, 12.000 katom-step/s
0.0% CPU use with 8 MPI tasks x 1 OpenMP threads

MPI task timing breakdown:
Section |  min time  |  avg time  |  max time  |%varavg| %total
---------------------------------------------------------------
Pair    | 0.000182   | 0.00018875 | 0.000199   |   0.0 | 75.50
Neigh   | 0          | 0          | 0          |   0.0 |  0.00
Comm    | 2.1e-05    | 3.1625e-05 | 4e-05      |   0.0 | 12.65
Output  | 1.3e-05    | 2.4e-05    | 3.5e-05    |   0.0 |  9.60
Modify  | 0          | 0          | 0          |   0.0 |  0.00
Other   |            | 5.625e-06  |            |       |  2.25

Nlocal:          0.375 ave           1 max           0 min
Histogram: 5 0 0 0 0 0 0 0 0 3
Nghost:        539.625 ave         540 max         539 min
Histogram: 3 0 0 0 0 0 0 0 0 5
Neighs:           33.5 ave          90 max           0 min
Histogram: 5 0 0 0 0 0 0 0 0 3
FullNghs:           67 ave         179 max           0 min
Histogram: 5 0 0 0 0 0 0 0 0 3

Total # of neighbors = 536
Ave neighs/atom = 178.66667
Neighbor list builds = 0
Dangerous builds = 0
variable  natoms equal "count(all)"
variable xlength equal "lx"
variable  volume equal "vol"
variable  etotal equal "etotal"
variable    ecoh equal "pe/v_natoms"
print "${xlength}, ${volume}, ${etotal}, ${ecoh}" append lattice_cohesive_energy.txt screen no

next i
jump SELF loop

change_box all x scale 1.0025 y scale 1.0025 z scale 1.0025 remap
Changing box ...
  triclinic box = (0.018946676 0.019644794 0.024089661) to (3.0161636 2.6088378 3.1991183) with tilt (-1.5166058 0 0)
  triclinic box = (0.018946676 0.016408302 0.024089661) to (3.0161636 2.6120743 3.1991183) with tilt (-1.5166058 0 0)
  triclinic box = (0.018946676 0.016408302 0.020120876) to (3.0161636 2.6120743 3.2030871) with tilt (-1.5166058 0 0)

run 1
Per MPI rank memory allocation (min/avg/max) = 8.63 | 8.632 | 8.634 Mbytes
   Step         PotEng         TotEng           Lx             Ly             Lz           Volume         Press           Pxx            Pyy            Pzz      
        26  -19.613953     -19.613953      2.9972169      2.595666       3.1829662      24.762758      106808.32      133402.99      133738.44      53283.538    
        27  -19.613953     -19.613953      2.9972169      2.595666       3.1829662      24.762758      106808.32      133402.99      133738.44      53283.538    
Loop time of 0.000251625 on 8 procs for 1 steps with 3 atoms

Performance: 343.368 ns/day, 0.070 hours/ns, 3974.168 timesteps/s, 11.923 katom-step/s
0.0% CPU use with 8 MPI tasks x 1 OpenMP threads

MPI task timing breakdown:
Section |  min time  |  avg time  |  max time  |%varavg| %total
---------------------------------------------------------------
Pair    | 0.000184   | 0.00018825 | 0.0002     |   0.0 | 74.81
Neigh   | 0          | 0          | 0          |   0.0 |  0.00
Comm    | 2.2e-05    | 3.275e-05  | 4.3e-05    |   0.0 | 13.02
Output  | 1.3e-05    | 2.4375e-05 | 3.7e-05    |   0.0 |  9.69
Modify  | 0          | 0          | 0          |   0.0 |  0.00
Other   |            | 6.25e-06   |            |       |  2.48

Nlocal:          0.375 ave           1 max           0 min
Histogram: 5 0 0 0 0 0 0 0 0 3
Nghost:        539.625 ave         540 max         539 min
Histogram: 3 0 0 0 0 0 0 0 0 5
Neighs:             33 ave          89 max           0 min
Histogram: 5 0 0 0 0 0 0 0 0 3
FullNghs:           66 ave         178 max           0 min
Histogram: 5 0 0 0 0 0 0 0 0 3

Total # of neighbors = 528
Ave neighs/atom = 176
Neighbor list builds = 0
Dangerous builds = 0
variable  natoms equal "count(all)"
variable xlength equal "lx"
variable  volume equal "vol"
variable  etotal equal "etotal"
variable    ecoh equal "pe/v_natoms"
print "${xlength}, ${volume}, ${etotal}, ${ecoh}" append lattice_cohesive_energy.txt screen no

next i
jump SELF loop

change_box all x scale 1.0025 y scale 1.0025 z scale 1.0025 remap
Changing box ...
  triclinic box = (0.015200154 0.016408302 0.020120876) to (3.0199101 2.6120743 3.2030871) with tilt (-1.5166058 0 0)
  triclinic box = (0.015200154 0.01316372 0.020120876) to (3.0199101 2.6153189 3.2030871) with tilt (-1.5166058 0 0)
  triclinic box = (0.015200154 0.01316372 0.016142168) to (3.0199101 2.6153189 3.2070658) with tilt (-1.5166058 0 0)

run 1
Per MPI rank memory allocation (min/avg/max) = 8.63 | 8.632 | 8.634 Mbytes
   Step         PotEng         TotEng           Lx             Ly             Lz           Volume         Press           Pxx            Pyy            Pzz      
        27  -19.625444     -19.625444      3.00471        2.6021552      3.1909237      24.948944      83176.668      108612.79      108815.67      32101.541    
        28  -19.625444     -19.625444      3.00471        2.6021552      3.1909237      24.948944      83176.668      108612.79      108815.67      32101.541    
Loop time of 0.000249625 on 8 procs for 1 steps with 3 atoms

Performance: 346.119 ns/day, 0.069 hours/ns, 4006.009 timesteps/s, 12.018 katom-step/s
0.0% CPU use with 8 MPI tasks x 1 OpenMP threads

MPI task timing breakdown:
Section |  min time  |  avg time  |  max time  |%varavg| %total
---------------------------------------------------------------
Pair    | 0.000182   | 0.0001875  | 0.000198   |   0.0 | 75.11
Neigh   | 0          | 0          | 0          |   0.0 |  0.00
Comm    | 2.2e-05    | 3.2625e-05 | 4.3e-05    |   0.0 | 13.07
Output  | 1.3e-05    | 2.375e-05  | 3.6e-05    |   0.0 |  9.51
Modify  | 0          | 1.25e-07   | 1e-06      |   0.0 |  0.05
Other   |            | 5.625e-06  |            |       |  2.25

Nlocal:          0.375 ave           1 max           0 min
Histogram: 5 0 0 0 0 0 0 0 0 3
Nghost:        539.625 ave         540 max         539 min
Histogram: 3 0 0 0 0 0 0 0 0 5
Neighs:          32.25 ave          89 max           0 min
Histogram: 5 0 0 0 0 0 0 0 0 3
FullNghs:         64.5 ave         178 max           0 min
Histogram: 5 0 0 0 0 0 0 0 0 3

Total # of neighbors = 516
Ave neighs/atom = 172
Neighbor list builds = 0
Dangerous builds = 0
variable  natoms equal "count(all)"
variable xlength equal "lx"
variable  volume equal "vol"
variable  etotal equal "etotal"
variable    ecoh equal "pe/v_natoms"
print "${xlength}, ${volume}, ${etotal}, ${ecoh}" append lattice_cohesive_energy.txt screen no

next i
jump SELF loop

change_box all x scale 1.0025 y scale 1.0025 z scale 1.0025 remap
Changing box ...
  triclinic box = (0.011444267 0.01316372 0.016142168) to (3.023666 2.6153189 3.2070658) with tilt (-1.5166058 0 0)
  triclinic box = (0.011444267 0.0099110259 0.016142168) to (3.023666 2.6185716 3.2070658) with tilt (-1.5166058 0 0)
  triclinic box = (0.011444267 0.0099110259 0.012153513) to (3.023666 2.6185716 3.2110545) with tilt (-1.5166058 0 0)

run 1
Per MPI rank memory allocation (min/avg/max) = 8.63 | 8.632 | 8.634 Mbytes
   Step         PotEng         TotEng           Lx             Ly             Lz           Volume         Press           Pxx            Pyy            Pzz      
        28  -19.634181     -19.634181      3.0122217      2.6086606      3.198901       25.136529      60240.256      84531.43       84637.556      11551.781    
        29  -19.634181     -19.634181      3.0122217      2.6086606      3.198901       25.136529      60240.256      84531.43       84637.556      11551.781    
Loop time of 0.000255375 on 8 procs for 1 steps with 3 atoms

Performance: 338.326 ns/day, 0.071 hours/ns, 3915.810 timesteps/s, 11.747 katom-step/s
0.0% CPU use with 8 MPI tasks x 1 OpenMP threads

MPI task timing breakdown:
Section |  min time  |  avg time  |  max time  |%varavg| %total
---------------------------------------------------------------
Pair    | 0.000185   | 0.00018962 | 0.0002     |   0.0 | 74.25
Neigh   | 0          | 0          | 0          |   0.0 |  0.00
Comm    | 2.4e-05    | 3.35e-05   | 4.3e-05    |   0.0 | 13.12
Output  | 1.4e-05    | 2.4875e-05 | 3.6e-05    |   0.0 |  9.74
Modify  | 0          | 5e-07      | 2e-06      |   0.0 |  0.20
Other   |            | 6.875e-06  |            |       |  2.69

Nlocal:          0.375 ave           1 max           0 min
Histogram: 5 0 0 0 0 0 0 0 0 3
Nghost:        539.625 ave         540 max         539 min
Histogram: 3 0 0 0 0 0 0 0 0 5
Neighs:          32.25 ave          89 max           0 min
Histogram: 5 0 0 0 0 0 0 0 0 3
FullNghs:         64.5 ave         178 max           0 min
Histogram: 5 0 0 0 0 0 0 0 0 3

Total # of neighbors = 516
Ave neighs/atom = 172
Neighbor list builds = 0
Dangerous builds = 0
variable  natoms equal "count(all)"
variable xlength equal "lx"
variable  volume equal "vol"
variable  etotal equal "etotal"
variable    ecoh equal "pe/v_natoms"
print "${xlength}, ${volume}, ${etotal}, ${ecoh}" append lattice_cohesive_energy.txt screen no

next i
jump SELF loop

change_box all x scale 1.0025 y scale 1.0025 z scale 1.0025 remap
Changing box ...
  triclinic box = (0.0076789898 0.0099110259 0.012153513) to (3.0274313 2.6185716 3.2110545) with tilt (-1.5166058 0 0)
  triclinic box = (0.0076789898 0.0066502002 0.012153513) to (3.0274313 2.6218324 3.2110545) with tilt (-1.5166058 0 0)
  triclinic box = (0.0076789898 0.0066502002 0.008154887) to (3.0274313 2.6218324 3.2150531) with tilt (-1.5166058 0 0)

run 1
Per MPI rank memory allocation (min/avg/max) = 8.63 | 8.632 | 8.634 Mbytes
   Step         PotEng         TotEng           Lx             Ly             Lz           Volume         Press           Pxx            Pyy            Pzz      
        29  -19.640207     -19.640207      3.0197523      2.6151822      3.2068982      25.325525      37986.209      61146.506      61188.487     -8376.365     
        30  -19.640207     -19.640207      3.0197523      2.6151822      3.2068982      25.325525      37986.209      61146.506      61188.487     -8376.365     
Loop time of 0.0002565 on 8 procs for 1 steps with 3 atoms

Performance: 336.842 ns/day, 0.071 hours/ns, 3898.635 timesteps/s, 11.696 katom-step/s
0.0% CPU use with 8 MPI tasks x 1 OpenMP threads

MPI task timing breakdown:
Section |  min time  |  avg time  |  max time  |%varavg| %total
---------------------------------------------------------------
Pair    | 0.000187   | 0.00019113 | 0.000202   |   0.0 | 74.51
Neigh   | 0          | 0          | 0          |   0.0 |  0.00
Comm    | 2.1e-05    | 3.325e-05  | 4.4e-05    |   0.0 | 12.96
Output  | 1.4e-05    | 2.5125e-05 | 3.7e-05    |   0.0 |  9.80
Modify  | 0          | 1.25e-07   | 1e-06      |   0.0 |  0.05
Other   |            | 6.875e-06  |            |       |  2.68

Nlocal:          0.375 ave           1 max           0 min
Histogram: 5 0 0 0 0 0 0 0 0 3
Nghost:        539.625 ave         540 max         539 min
Histogram: 3 0 0 0 0 0 0 0 0 5
Neighs:          32.25 ave          89 max           0 min
Histogram: 5 0 0 0 0 0 0 0 0 3
FullNghs:         64.5 ave         178 max           0 min
Histogram: 5 0 0 0 0 0 0 0 0 3

Total # of neighbors = 516
Ave neighs/atom = 172
Neighbor list builds = 0
Dangerous builds = 0
variable  natoms equal "count(all)"
variable xlength equal "lx"
variable  volume equal "vol"
variable  etotal equal "etotal"
variable    ecoh equal "pe/v_natoms"
print "${xlength}, ${volume}, ${etotal}, ${ecoh}" append lattice_cohesive_energy.txt screen no

next i
jump SELF loop

change_box all x scale 1.0025 y scale 1.0025 z scale 1.0025 remap
Changing box ...
  triclinic box = (0.0039042994 0.0066502002 0.008154887) to (3.031206 2.6218324 3.2150531) with tilt (-1.5166058 0 0)
  triclinic box = (0.0039042994 0.0033812225 0.008154887) to (3.031206 2.6251014 3.2150531) with tilt (-1.5166058 0 0)
  triclinic box = (0.0039042994 0.0033812225 0.0041462642) to (3.031206 2.6251014 3.2190617) with tilt (-1.5166058 0 0)

run 1
Per MPI rank memory allocation (min/avg/max) = 8.63 | 8.632 | 8.634 Mbytes
   Step         PotEng         TotEng           Lx             Ly             Lz           Volume         Press           Pxx            Pyy            Pzz      
        30  -19.643565     -19.643565      3.0273017      2.6217202      3.2149155      25.515941      16401.683      38445.336      38453.108     -27693.393    
        31  -19.643565     -19.643565      3.0273017      2.6217202      3.2149155      25.515941      16401.683      38445.336      38453.108     -27693.393    
Loop time of 0.00024975 on 8 procs for 1 steps with 3 atoms

Performance: 345.946 ns/day, 0.069 hours/ns, 4004.004 timesteps/s, 12.012 katom-step/s
0.0% CPU use with 8 MPI tasks x 1 OpenMP threads

MPI task timing breakdown:
Section |  min time  |  avg time  |  max time  |%varavg| %total
---------------------------------------------------------------
Pair    | 0.000183   | 0.00018712 | 0.000198   |   0.0 | 74.92
Neigh   | 0          | 0          | 0          |   0.0 |  0.00
Comm    | 2.2e-05    | 3.2e-05    | 4.2e-05    |   0.0 | 12.81
Output  | 1.3e-05    | 2.4e-05    | 3.6e-05    |   0.0 |  9.61
Modify  | 0          | 0          | 0          |   0.0 |  0.00
Other   |            | 6.625e-06  |            |       |  2.65

Nlocal:          0.375 ave           1 max           0 min
Histogram: 5 0 0 0 0 0 0 0 0 3
Nghost:        539.625 ave         540 max         539 min
Histogram: 3 0 0 0 0 0 0 0 0 5
Neighs:          32.25 ave          89 max           0 min
Histogram: 5 0 0 0 0 0 0 0 0 3
FullNghs:         64.5 ave         178 max           0 min
Histogram: 5 0 0 0 0 0 0 0 0 3

Total # of neighbors = 516
Ave neighs/atom = 172
Neighbor list builds = 0
Dangerous builds = 0
variable  natoms equal "count(all)"
variable xlength equal "lx"
variable  volume equal "vol"
variable  etotal equal "etotal"
variable    ecoh equal "pe/v_natoms"
print "${xlength}, ${volume}, ${etotal}, ${ecoh}" append lattice_cohesive_energy.txt screen no

next i
jump SELF loop

change_box all x scale 1.0025 y scale 1.0025 z scale 1.0025 remap
Changing box ...
  triclinic box = (0.00012017231 0.0033812225 0.0041462642) to (3.0349901 2.6251014 3.2190617) with tilt (-1.5166058 0 0)
  triclinic box = (0.00012017231 0.00010407227 0.0041462642) to (3.0349901 2.6283785 3.2190617) with tilt (-1.5166058 0 0)
  triclinic box = (0.00012017231 0.00010407227 0.00012761986) to (3.0349901 2.6283785 3.2230804) with tilt (-1.5166058 0 0)

run 1
Per MPI rank memory allocation (min/avg/max) = 8.63 | 8.632 | 8.634 Mbytes
   Step         PotEng         TotEng           Lx             Ly             Lz           Volume         Press           Pxx            Pyy            Pzz      
        31  -19.644297     -19.644297      3.0348699      2.6282745      3.2229528      25.70779      -4525.8565      16415.789      16416.379     -46409.738    
        32  -19.644297     -19.644297      3.0348699      2.6282745      3.2229528      25.70779      -4525.8565      16415.789      16416.379     -46409.738    
Loop time of 0.000245125 on 8 procs for 1 steps with 3 atoms

Performance: 352.473 ns/day, 0.068 hours/ns, 4079.551 timesteps/s, 12.239 katom-step/s
0.0% CPU use with 8 MPI tasks x 1 OpenMP threads

MPI task timing breakdown:
Section |  min time  |  avg time  |  max time  |%varavg| %total
---------------------------------------------------------------
Pair    | 0.000178   | 0.00018225 | 0.000194   |   0.0 | 74.35
Neigh   | 0          | 0          | 0          |   0.0 |  0.00
Comm    | 1.9e-05    | 3.175e-05  | 4.4e-05    |   0.0 | 12.95
Output  | 1.4e-05    | 2.475e-05  | 3.9e-05    |   0.0 | 10.10
Modify  | 0          | 1.25e-07   | 1e-06      |   0.0 |  0.05
Other   |            | 6.25e-06   |            |       |  2.55

Nlocal:          0.375 ave           1 max           0 min
Histogram: 5 0 0 0 0 0 0 0 0 3
Nghost:        482.125 ave         485 max         479 min
Histogram: 1 3 0 0 0 0 0 0 2 2
Neighs:         31.875 ave          89 max           0 min
Histogram: 5 0 0 0 0 0 0 0 0 3
FullNghs:        63.75 ave         178 max           0 min
Histogram: 5 0 0 0 0 0 0 0 0 3

Total # of neighbors = 510
Ave neighs/atom = 170
Neighbor list builds = 0
Dangerous builds = 0
variable  natoms equal "count(all)"
variable xlength equal "lx"
variable  volume equal "vol"
variable  etotal equal "etotal"
variable    ecoh equal "pe/v_natoms"
print "${xlength}, ${volume}, ${etotal}, ${ecoh}" append lattice_cohesive_energy.txt screen no

next i
jump SELF loop

change_box all x scale 1.0025 y scale 1.0025 z scale 1.0025 remap
Changing box ...
  triclinic box = (-0.0036734151 0.00010407227 0.00012761986) to (3.0387837 2.6283785 3.2230804) with tilt (-1.5166058 0 0)
  triclinic box = (-0.0036734151 -0.0031812708 0.00012761986) to (3.0387837 2.6316639 3.2230804) with tilt (-1.5166058 0 0)
[...]
Neigh   | 0          | 0          | 0          |   0.0 |  0.00
Comm    | 1.9e-05    | 3.7625e-05 | 6.9e-05    |   0.0 | 12.05
Output  | 1.7e-05    | 3.1875e-05 | 6.6e-05    |   0.0 | 10.21
Modify  | 0          | 0          | 0          |   0.0 |  0.00
Other   |            | 8.625e-06  |            |       |  2.76

Nlocal:          0.375 ave           1 max           0 min
Histogram: 5 0 0 0 0 0 0 0 0 3
Nghost:        482.125 ave         485 max         479 min
Histogram: 1 3 0 0 0 0 0 0 2 2
Neighs:         28.125 ave          77 max           0 min
Histogram: 5 0 0 0 0 0 0 0 0 3
FullNghs:        56.25 ave         154 max           0 min
Histogram: 5 0 0 0 0 0 0 0 0 3

Total # of neighbors = 450
Ave neighs/atom = 150
Neighbor list builds = 0
Dangerous builds = 0
variable  natoms equal "count(all)"
variable xlength equal "lx"
variable  volume equal "vol"
variable  etotal equal "etotal"
variable    ecoh equal "pe/v_natoms"
print "${xlength}, ${volume}, ${etotal}, ${ecoh}" append lattice_cohesive_energy.txt screen no

next i
jump SELF loop

change_box all x scale 1.0025 y scale 1.0025 z scale 1.0025 remap
Changing box ...
  triclinic box = (-0.069634978 -0.056877862 -0.069747154) to (3.1047453 2.6853605 3.2929552) with tilt (-1.5166058 0 0)
  triclinic box = (-0.069634978 -0.06030566 -0.069747154) to (3.1047453 2.6887883 3.2929552) with tilt (-1.5166058 0 0)
  triclinic box = (-0.069634978 -0.06030566 -0.073950532) to (3.1047453 2.6887883 3.2971585) with tilt (-1.5166058 0 0)

run 1
Per MPI rank memory allocation (min/avg/max) = 8.63 | 8.632 | 8.634 Mbytes
   Step         PotEng         TotEng           Lx             Ly             Lz           Volume         Press           Pxx            Pyy            Pzz      
        49  -19.256254     -19.256254      3.1743802      2.7490939      3.3711091      29.418554     -282403.23     -278438.13     -276708.17     -292063.38    
        50  -19.256254     -19.256254      3.1743802      2.7490939      3.3711091      29.418554     -282403.23     -278438.13     -276708.17     -292063.38    
Loop time of 0.00031175 on 8 procs for 1 steps with 3 atoms

Performance: 277.145 ns/day, 0.087 hours/ns, 3207.698 timesteps/s, 9.623 katom-step/s
0.0% CPU use with 8 MPI tasks x 1 OpenMP threads

MPI task timing breakdown:
Section |  min time  |  avg time  |  max time  |%varavg| %total
---------------------------------------------------------------
Pair    | 0.000212   | 0.00023125 | 0.000253   |   0.0 | 74.18
Neigh   | 0          | 0          | 0          |   0.0 |  0.00
Comm    | 2.1e-05    | 3.9125e-05 | 7.3e-05    |   0.0 | 12.55
Output  | 1.6e-05    | 3.2375e-05 | 6.9e-05    |   0.0 | 10.38
Modify  | 0          | 1.25e-07   | 1e-06      |   0.0 |  0.04
Other   |            | 8.875e-06  |            |       |  2.85

Nlocal:          0.375 ave           1 max           0 min
Histogram: 5 0 0 0 0 0 0 0 0 3
Nghost:        482.125 ave         485 max         479 min
Histogram: 1 3 0 0 0 0 0 0 2 2
Neighs:         28.125 ave          77 max           0 min
Histogram: 5 0 0 0 0 0 0 0 0 3
FullNghs:        56.25 ave         154 max           0 min
Histogram: 5 0 0 0 0 0 0 0 0 3

Total # of neighbors = 450
Ave neighs/atom = 150
Neighbor list builds = 0
Dangerous builds = 0
variable  natoms equal "count(all)"
variable xlength equal "lx"
variable  volume equal "vol"
variable  etotal equal "etotal"
variable    ecoh equal "pe/v_natoms"
print "${xlength}, ${volume}, ${etotal}, ${ecoh}" append lattice_cohesive_energy.txt screen no

next i
jump SELF loop

change_box all x scale 1.0025 y scale 1.0025 z scale 1.0025 remap
Changing box ...
  triclinic box = (-0.073602954 -0.06030566 -0.073950532) to (3.1087132 2.6887883 3.2971585) with tilt (-1.5166058 0 0)
  triclinic box = (-0.073602954 -0.063742028 -0.073950532) to (3.1087132 2.6922246 3.2971585) with tilt (-1.5166058 0 0)
  triclinic box = (-0.073602954 -0.063742028 -0.078164418) to (3.1087132 2.6922246 3.3013724) with tilt (-1.5166058 0 0)

run 1
Per MPI rank memory allocation (min/avg/max) = 8.63 | 8.632 | 8.634 Mbytes
   Step         PotEng         TotEng           Lx             Ly             Lz           Volume         Press           Pxx            Pyy            Pzz      
        50  -19.215008     -19.215008      3.1823162      2.7559667      3.3795368      29.639746     -293053.05     -289855.01     -288051.79     -301252.36    
        51  -19.215008     -19.215008      3.1823162      2.7559667      3.3795368      29.639746     -293053.05     -289855.01     -288051.79     -301252.36    
Loop time of 0.000404625 on 8 procs for 1 steps with 3 atoms

Performance: 213.531 ns/day, 0.112 hours/ns, 2471.424 timesteps/s, 7.414 katom-step/s
0.0% CPU use with 8 MPI tasks x 1 OpenMP threads

MPI task timing breakdown:
Section |  min time  |  avg time  |  max time  |%varavg| %total
---------------------------------------------------------------
Pair    | 0.000223   | 0.00026263 | 0.000345   |   0.0 | 64.91
Neigh   | 0          | 0          | 0          |   0.0 |  0.00
Comm    | 1.9e-05    | 6.9375e-05 | 0.000151   |   0.0 | 17.15
Output  | 1.7e-05    | 6.325e-05  | 0.000149   |   0.0 | 15.63
Modify  | 0          | 2.5e-07    | 1e-06      |   0.0 |  0.06
Other   |            | 9.125e-06  |            |       |  2.26

Nlocal:          0.375 ave           1 max           0 min
Histogram: 5 0 0 0 0 0 0 0 0 3
Nghost:        482.125 ave         485 max         479 min
Histogram: 1 3 0 0 0 0 0 0 2 2
Neighs:         27.125 ave          75 max           0 min
Histogram: 5 0 0 0 0 0 0 0 0 3
FullNghs:        54.25 ave         150 max           0 min
Histogram: 5 0 0 0 0 0 0 0 0 3

Total # of neighbors = 434
Ave neighs/atom = 144.66667
Neighbor list builds = 0
Dangerous builds = 0
variable  natoms equal "count(all)"
variable xlength equal "lx"
variable  volume equal "vol"
variable  etotal equal "etotal"
variable    ecoh equal "pe/v_natoms"
print "${xlength}, ${volume}, ${etotal}, ${ecoh}" append lattice_cohesive_energy.txt screen no

next i
jump SELF loop

change_box all x scale 1.0025 y scale 1.0025 z scale 1.0025 remap
Changing box ...
  triclinic box = (-0.077580849 -0.063742028 -0.078164418) to (3.1126911 2.6922246 3.3013724) with tilt (-1.5166058 0 0)
  triclinic box = (-0.077580849 -0.067186986 -0.078164418) to (3.1126911 2.6956696 3.3013724) with tilt (-1.5166058 0 0)
  triclinic box = (-0.077580849 -0.067186986 -0.082388839) to (3.1126911 2.6956696 3.3055968) with tilt (-1.5166058 0 0)

run 1
Per MPI rank memory allocation (min/avg/max) = 8.63 | 8.632 | 8.634 Mbytes
   Step         PotEng         TotEng           Lx             Ly             Lz           Volume         Press           Pxx            Pyy            Pzz      
        51  -19.171955     -19.171955      3.190272       2.7628566      3.3879857      29.8626       -303267.79     -300816.92     -298953.25     -310033.21    
        52  -19.171955     -19.171955      3.190272       2.7628566      3.3879857      29.8626       -303267.79     -300816.92     -298953.25     -310033.21    
Loop time of 0.000354375 on 8 procs for 1 steps with 3 atoms

Performance: 243.810 ns/day, 0.098 hours/ns, 2821.869 timesteps/s, 8.466 katom-step/s
1102.3% CPU use with 8 MPI tasks x 1 OpenMP threads

MPI task timing breakdown:
Section |  min time  |  avg time  |  max time  |%varavg| %total
---------------------------------------------------------------
Pair    | 0.000209   | 0.00022812 | 0.000252   |   0.0 | 64.37
Neigh   | 0          | 0          | 0          |   0.0 |  0.00
Comm    | 2e-05      | 3.8375e-05 | 7.3e-05    |   0.0 | 10.83
Output  | 1.6e-05    | 3.2125e-05 | 6.9e-05    |   0.0 |  9.07
Modify  | 0          | 3.75e-07   | 1e-06      |   0.0 |  0.11
Other   |            | 5.538e-05  |            |       | 15.63

Nlocal:          0.375 ave           1 max           0 min
Histogram: 5 0 0 0 0 0 0 0 0 3
Nghost:        482.125 ave         485 max         479 min
Histogram: 1 3 0 0 0 0 0 0 2 2
Neighs:         26.375 ave          73 max           0 min
Histogram: 5 0 0 0 0 0 0 0 0 3
FullNghs:        52.75 ave         146 max           0 min
Histogram: 5 0 0 0 0 0 0 0 0 3

Total # of neighbors = 422
Ave neighs/atom = 140.66667
Neighbor list builds = 0
Dangerous builds = 0
variable  natoms equal "count(all)"
variable xlength equal "lx"
variable  volume equal "vol"
variable  etotal equal "etotal"
variable    ecoh equal "pe/v_natoms"
print "${xlength}, ${volume}, ${etotal}, ${ecoh}" append lattice_cohesive_energy.txt screen no

next i
jump SELF loop

change_box all x scale 1.0025 y scale 1.0025 z scale 1.0025 remap
Changing box ...
  triclinic box = (-0.081568689 -0.067186986 -0.082388839) to (3.116679 2.6956696 3.3055968) with tilt (-1.5166058 0 0)
  triclinic box = (-0.081568689 -0.070640557 -0.082388839) to (3.116679 2.6991232 3.3055968) with tilt (-1.5166058 0 0)
  triclinic box = (-0.081568689 -0.070640557 -0.086623821) to (3.116679 2.6991232 3.3098318) with tilt (-1.5166058 0 0)

run 1
Per MPI rank memory allocation (min/avg/max) = 8.623 | 8.624 | 8.626 Mbytes
   Step         PotEng         TotEng           Lx             Ly             Lz           Volume         Press           Pxx            Pyy            Pzz      
        52  -19.127137     -19.127137      3.1982477      2.7697637      3.3964556      30.08713      -313057.01     -311333.21     -309423.13     -318414.69    
        53  -19.127137     -19.127137      3.1982477      2.7697637      3.3964556      30.08713      -313057.01     -311333.21     -309423.13     -318414.69    
Loop time of 0.00023475 on 8 procs for 1 steps with 3 atoms

Performance: 368.051 ns/day, 0.065 hours/ns, 4259.851 timesteps/s, 12.780 katom-step/s
0.0% CPU use with 8 MPI tasks x 1 OpenMP threads

MPI task timing breakdown:
Section |  min time  |  avg time  |  max time  |%varavg| %total
---------------------------------------------------------------
Pair    | 0.000168   | 0.00017275 | 0.000181   |   0.0 | 73.59
Neigh   | 0          | 0          | 0          |   0.0 |  0.00
Comm    | 2.1e-05    | 3.1875e-05 | 4.3e-05    |   0.0 | 13.58
Output  | 1.3e-05    | 2.35e-05   | 3.7e-05    |   0.0 | 10.01
Modify  | 0          | 1.25e-07   | 1e-06      |   0.0 |  0.05
Other   |            | 6.5e-06    |            |       |  2.77

Nlocal:          0.375 ave           1 max           0 min
Histogram: 5 0 0 0 0 0 0 0 0 3
Nghost:        452.125 ave         455 max         449 min
Histogram: 1 3 0 0 0 0 0 0 2 2
Neighs:         25.875 ave          71 max           0 min
Histogram: 5 0 0 0 0 0 0 0 0 3
FullNghs:        51.75 ave         142 max           0 min
Histogram: 5 0 0 0 0 0 0 0 0 3

Total # of neighbors = 414
Ave neighs/atom = 138
Neighbor list builds = 0
Dangerous builds = 0
variable  natoms equal "count(all)"
variable xlength equal "lx"
variable  volume equal "vol"
variable  etotal equal "etotal"
variable    ecoh equal "pe/v_natoms"
print "${xlength}, ${volume}, ${etotal}, ${ecoh}" append lattice_cohesive_energy.txt screen no

next i
jump SELF loop

change_box all x scale 1.0025 y scale 1.0025 z scale 1.0025 remap
Changing box ...
  triclinic box = (-0.085566498 -0.070640557 -0.086623821) to (3.1206768 2.6991232 3.3098318) with tilt (-1.5166058 0 0)
  triclinic box = (-0.085566498 -0.074102761 -0.086623821) to (3.1206768 2.7025854 3.3098318) with tilt (-1.5166058 0 0)
  triclinic box = (-0.085566498 -0.074102761 -0.090869391) to (3.1206768 2.7025854 3.3140774) with tilt (-1.5166058 0 0)

run 1
Per MPI rank memory allocation (min/avg/max) = 8.623 | 8.624 | 8.626 Mbytes
   Step         PotEng         TotEng           Lx             Ly             Lz           Volume         Press           Pxx            Pyy            Pzz      
        53  -19.080591     -19.080591      3.2062433      2.7766881      3.4049468      30.313348     -322430.2      -321413.36     -319471.84     -326405.41    
        54  -19.080591     -19.080591      3.2062433      2.7766881      3.4049468      30.313348     -322430.2      -321413.36     -319471.84     -326405.41    
Loop time of 0.000234 on 8 procs for 1 steps with 3 atoms

Performance: 369.231 ns/day, 0.065 hours/ns, 4273.504 timesteps/s, 12.821 katom-step/s
0.0% CPU use with 8 MPI tasks x 1 OpenMP threads

MPI task timing breakdown:
Section |  min time  |  avg time  |  max time  |%varavg| %total
---------------------------------------------------------------
Pair    | 0.000168   | 0.00017238 | 0.000181   |   0.0 | 73.66
Neigh   | 0          | 0          | 0          |   0.0 |  0.00
Comm    | 1.9e-05    | 3.125e-05  | 4.2e-05    |   0.0 | 13.35
Output  | 1.3e-05    | 2.375e-05  | 3.6e-05    |   0.0 | 10.15
Modify  | 0          | 5e-07      | 1e-06      |   0.0 |  0.21
Other   |            | 6.125e-06  |            |       |  2.62

Nlocal:          0.375 ave           1 max           0 min
Histogram: 5 0 0 0 0 0 0 0 0 3
Nghost:        452.125 ave         455 max         449 min
Histogram: 1 3 0 0 0 0 0 0 2 2
Neighs:         25.875 ave          71 max           0 min
Histogram: 5 0 0 0 0 0 0 0 0 3
FullNghs:        51.75 ave         142 max           0 min
Histogram: 5 0 0 0 0 0 0 0 0 3

Total # of neighbors = 414
Ave neighs/atom = 138
Neighbor list builds = 0
Dangerous builds = 0
variable  natoms equal "count(all)"
variable xlength equal "lx"
variable  volume equal "vol"
variable  etotal equal "etotal"
variable    ecoh equal "pe/v_natoms"
print "${xlength}, ${volume}, ${etotal}, ${ecoh}" append lattice_cohesive_energy.txt screen no

next i
jump SELF loop

change_box all x scale 1.0025 y scale 1.0025 z scale 1.0025 remap
Changing box ...
  triclinic box = (-0.089574303 -0.074102761 -0.090869391) to (3.1246846 2.7025854 3.3140774) with tilt (-1.5166058 0 0)
  triclinic box = (-0.089574303 -0.077573622 -0.090869391) to (3.1246846 2.7060562 3.3140774) with tilt (-1.5166058 0 0)
  triclinic box = (-0.089574303 -0.077573622 -0.095125574) to (3.1246846 2.7060562 3.3183336) with tilt (-1.5166058 0 0)

run 1
Per MPI rank memory allocation (min/avg/max) = 8.623 | 8.624 | 8.626 Mbytes
   Step         PotEng         TotEng           Lx             Ly             Lz           Volume         Press           Pxx            Pyy            Pzz      
        54  -19.032355     -19.032355      3.2142589      2.7836298      3.4134591      30.541267     -331396.67     -331066.56     -329109.6      -334013.84    
        55  -19.032355     -19.032355      3.2142589      2.7836298      3.4134591      30.541267     -331396.67     -331066.56     -329109.6      -334013.84    
Loop time of 0.000237 on 8 procs for 1 steps with 3 atoms

Performance: 364.557 ns/day, 0.066 hours/ns, 4219.409 timesteps/s, 12.658 katom-step/s
0.0% CPU use with 8 MPI tasks x 1 OpenMP threads

MPI task timing breakdown:
Section |  min time  |  avg time  |  max time  |%varavg| %total
---------------------------------------------------------------
Pair    | 0.000173   | 0.0001775  | 0.000184   |   0.0 | 74.89
Neigh   | 0          | 0          | 0          |   0.0 |  0.00
Comm    | 2.1e-05    | 3.15e-05   | 4e-05      |   0.0 | 13.29
Output  | 1.3e-05    | 2.2e-05    | 3.3e-05    |   0.0 |  9.28
Modify  | 0          | 2.5e-07    | 1e-06      |   0.0 |  0.11
Other   |            | 5.75e-06   |            |       |  2.43

Nlocal:          0.375 ave           1 max           0 min
Histogram: 5 0 0 0 0 0 0 0 0 3
Nghost:        452.125 ave         455 max         449 min
Histogram: 1 3 0 0 0 0 0 0 2 2
Neighs:         25.375 ave          69 max           0 min
Histogram: 5 0 0 0 0 0 0 0 0 3
FullNghs:        50.75 ave         138 max           0 min
Histogram: 5 0 0 0 0 0 0 0 0 3

Total # of neighbors = 406
Ave neighs/atom = 135.33333
Neighbor list builds = 0
Dangerous builds = 0
variable  natoms equal "count(all)"
variable xlength equal "lx"
variable  volume equal "vol"
variable  etotal equal "etotal"
variable    ecoh equal "pe/v_natoms"
print "${xlength}, ${volume}, ${etotal}, ${ecoh}" append lattice_cohesive_energy.txt screen no

next i
jump SELF loop

change_box all x scale 1.0025 y scale 1.0025 z scale 1.0025 remap
Changing box ...
  triclinic box = (-0.093592126 -0.077573622 -0.095125574) to (3.1287024 2.7060562 3.3183336) with tilt (-1.5166058 0 0)
  triclinic box = (-0.093592126 -0.081053159 -0.095125574) to (3.1287024 2.7095358 3.3183336) with tilt (-1.5166058 0 0)
  triclinic box = (-0.093592126 -0.081053159 -0.099392398) to (3.1287024 2.7095358 3.3226004) with tilt (-1.5166058 0 0)

run 1
Per MPI rank memory allocation (min/avg/max) = 8.623 | 8.624 | 8.626 Mbytes
   Step         PotEng         TotEng           Lx             Ly             Lz           Volume         Press           Pxx            Pyy            Pzz      
        55  -18.982469     -18.982469      3.2222945      2.7905889      3.4219928      30.770899     -339965.55     -340301.84     -338346.43     -341248.39    
        56  -18.982469     -18.982469      3.2222945      2.7905889      3.4219928      30.770899     -339965.55     -340301.84     -338346.43     -341248.39    
Loop time of 0.000268625 on 8 procs for 1 steps with 3 atoms

Performance: 321.638 ns/day, 0.075 hours/ns, 3722.662 timesteps/s, 11.168 katom-step/s
0.0% CPU use with 8 MPI tasks x 1 OpenMP threads

MPI task timing breakdown:
Section |  min time  |  avg time  |  max time  |%varavg| %total
---------------------------------------------------------------
Pair    | 0.000171   | 0.00018538 | 0.000215   |   0.0 | 69.01
Neigh   | 0          | 0          | 0          |   0.0 |  0.00
Comm    | 2.2e-05    | 4.3375e-05 | 7.3e-05    |   0.0 | 16.15
Output  | 1.4e-05    | 3.3625e-05 | 6.6e-05    |   0.0 | 12.52
Modify  | 0          | 1.25e-07   | 1e-06      |   0.0 |  0.05
Other   |            | 6.125e-06  |            |       |  2.28

Nlocal:          0.375 ave           1 max           0 min
Histogram: 5 0 0 0 0 0 0 0 0 3
Nghost:        452.125 ave         455 max         449 min
Histogram: 1 3 0 0 0 0 0 0 2 2
Neighs:         25.375 ave          69 max           0 min
Histogram: 5 0 0 0 0 0 0 0 0 3
FullNghs:        50.75 ave         138 max           0 min
Histogram: 5 0 0 0 0 0 0 0 0 3

Total # of neighbors = 406
Ave neighs/atom = 135.33333
Neighbor list builds = 0
Dangerous builds = 0
variable  natoms equal "count(all)"
variable xlength equal "lx"
variable  volume equal "vol"
variable  etotal equal "etotal"
variable    ecoh equal "pe/v_natoms"
print "${xlength}, ${volume}, ${etotal}, ${ecoh}" append lattice_cohesive_energy.txt screen no

next i
jump SELF loop

print "-------------------------------------------------------------"
-------------------------------------------------------------
print "Show results of 1st step (Running Minimization)"
Show results of 1st step (Running Minimization)
print "The number of atoms = ${natoms};"
The number of atoms = 3;
print "The lattice constant, x (Angstoms) = ${x0};"
The lattice constant, x (Angstoms) = 3.22229453231778;
print "The lattice constant, y (Angstoms) = ${y0};"
The lattice constant, y (Angstoms) = 2.79058892349761;
print "The lattice constant, z (Angstoms) = ${z0};"
The lattice constant, z (Angstoms) = 3.42199279655925;
print "The volume (Angstoms^3) = ${v0};"
The volume (Angstoms^3) = 30.7708994758593;
print "The total energy (eV) = ${etot0};"
The total energy (eV) = -18.9824690588632;
print "The cohesive energy (eV/atom) = ${ecoh0};"
The cohesive energy (eV/atom) = -6.32748968628772;
print "-------------------------------------------------------------"
-------------------------------------------------------------
print "Simulations completed !"
Simulations completed !
Total wall time: 0:00:00
