 # Voronoi polycrystal with 2 grains
  
       41916  atoms
           2  atom types
 
      0.000000000000      21.720000000000  xlo xhi
      0.000000000000     145.702000000000  ylo yhi
      0.000000000000     145.702000000000  zlo zhi
 
Masses
 
            1   12.01100000             # C
            2   28.08500000             # Si
 
Atoms # atomic
 
         1    1        9.685212332400      58.208083045840      35.091080947900
         2    2       15.159662312400     132.352846868880     135.691341564220
         3    2       12.969882320400     130.224912869480       2.545090481560
         4    2        4.210762135200     138.585054678200     119.764543753680
         5    1        0.926092147200     141.304404751760      21.241769276280
         6    1       18.444332300400     110.193804823520     107.300122306960
         7    2        8.590322336400      51.333907853460      93.450790237060
         8    2        2.020982143200       0.733153522740      17.086829052880
         9    2        6.400542344400     125.377571972740      65.559786344080
        10    2       15.159662312400     130.917384936800       0.467683021720
        11    1        9.685212332400      56.823147653320      32.321201420740
        12    1       16.254552308400     112.271212283360     106.607651696660
        13    1        0.926092147200     139.919467902220      18.471891206140
        14    1       11.874992324400     130.275442323080     139.846159397940
        15    1        3.115872139200      54.745709596060      66.252192845500
        16    1        3.115872139200      73.492954269880     128.766701027120
        17    2        2.020982143200       2.118094743340      12.932014133200
        18    1        7.495432340400      58.900555113160      33.013673488060
        19    2        2.020982143200     141.996878276100      15.702016050040
        20    2       10.780102328400      53.411315313300      92.758319626760
        21    1        0.926092147200       0.040684369460      15.701889289300
        22    1       14.064772316400     132.352849782920     139.153687330620
        23    2        2.020982143200     144.766756346240      14.317080657520
        24    2        6.400542344400      71.415545353020     125.996825871020
        25    2        6.400542344400     140.662462138040     119.072071686360
        26    1        7.495432340400      51.333910767500      96.913136003460
        27    1       14.064772316400     129.582971712780     137.768751938100
        28    2       17.349442304400      40.254407229060     101.760431732580
        29    2        2.020982143200       0.733159350820      10.162136063060
        30    2       19.539222296400     110.193801909480     103.837776540560
        31    1        0.926092147200     142.689345972360      17.086955813620
        32    1        9.685212332400     121.273305447920      98.990482268460
        33    2        4.210762135200     127.454979432580      66.252258411400
        34    2       10.780102328400      58.900558027200      29.551326264640
        35    2       19.539222296400      42.331814688900     101.067959665260
        36    2        2.020982143200       3.503037420960       8.777200670540
        37    2        4.210762135200     126.070044040060      63.482378884240
        38    2       19.539222296400      43.666224998880      40.630821060960
        39    1        7.495432340400     123.350712907760      98.298010201140
        40    1       11.874992324400     126.762567103080       2.545087567520
        41    2        6.400542344400     128.147450042880      64.174850951560
        42    1        9.685212332400      53.411318227340      96.220665393160
        43    2        4.210762135200      73.492951355840     125.304355260720
        44    1       11.874992324400     131.660377715600     137.076279870780
        45    2       10.780102328400     121.273302533880      95.528135045040
        46    1        3.115872139200     123.992633666180      66.252254040340
        47    2        4.210762135200      70.723073285700     123.919419868200
        48    2        8.590322336400      60.977965487040      30.243798331960
        49    1        5.305652348400      56.823117055900      66.944663455800
        50    1        5.305652348400     126.070041126020      66.944726107660
        51    2        2.020982143200     140.662456309960     112.147380153560
        52    2        8.590322336400      59.593028637500      27.473920261820
        53    1       14.064772316400     128.839974562920       3.237558177820
        54    2        8.590322336400     128.839946879540      34.398674446480
        55    1       14.064772316400     127.455037713380       0.467680107680
        56    2       10.780102328400      61.670436097340      28.166390872120
        57    2       17.349442304400     112.271209369320     103.145305930260
        58    1        3.115872139200     138.585057592240     123.226889520080
        59    2        8.590322336400     127.455010030000      31.628796376340
        60    1        0.926092147200     141.304410579840      14.317077743480
        61    1        5.305652348400     140.662465052080     122.534418909780
        62    1       16.254552308400      39.511407165160      42.708225606760
        63    2       17.349442304400     109.501331299180     101.760369080720
        64    2        6.400542344400      72.800480745540     123.226947800880
        65    2       10.780102328400     129.532417489840      32.321266986640
        66    2        2.020982143200     143.381820953720      11.547202587380
        67    1        7.495432340400      57.515618263620      30.243795417920
        68    1       11.874992324400     129.532445173220       1.160150717980
        69    1        3.115872139200      70.723076199740     127.381765634600
        70    1       16.254552308400      40.254410143100     105.222777498980
        71    1        0.926092147200     144.074288649980      12.932140893940
        72    1        5.305652348400     124.685104276480      64.174848037520
        73    2       15.159662312400     129.582967341720     134.306404714680
        74    1        9.685212332400      59.593025723460      30.936266028220
        75    2       12.969882320400     109.450774162200      71.791995610420
        76    1        9.685212332400      50.641440157200      94.835730000640
        77    1       11.874992324400      62.413455102500     137.076342522640
        78    1       18.444332300400      42.331817602940     104.530305431660
        79    2        2.020982143200     142.047391702480     109.377502083420
        80    2        2.020982143200       0.783697546540     142.616151115640
        81    1        5.305652348400      55.438180206360      64.174785385660
        82    1        0.926092147200       1.425627047080      11.547075826640
        83    1        5.305652348400     137.892586981940     121.149482060240
        84    1        3.115872139200     126.762511736320      64.867318647820
        85    1        5.305652348400      72.800483659580     126.689295024300
        86    1        7.495432340400      52.718846160020      94.143257933320
        87    1        9.685212332400      58.208090330940      28.166387958080
        88    2       15.159662312400     111.528181622040      72.484466220720
        89    1        3.115872139200     139.969994441780     120.457011449940
        90    1       18.444332300400      39.561939532800     103.145370039140
        91    1       18.444332300400      41.588814625000      43.400696217060
        92    2       19.539222296400     111.578738759020     101.067898470420
        93    2       10.780102328400      50.641437243160      91.373382777220
        94    1       16.254552308400      41.639346992640     102.452899428840
        95    2        8.590322336400      52.718843245980      90.680912166920
        96    1        7.495432340400     125.377599656120      34.398671532440
        97    2       19.539222296400      39.561936618760      99.683024272740
        98    2        6.400542344400     137.892584067900     117.687136293840
        99    2        8.590322336400      49.948965175840      89.295976774400
       100    1       18.444332300400      40.203879232480      40.630818146920
       101    1        0.926092147200     142.047394616520     112.839847849820
       102    1       18.444332300400     108.065860624980      44.785694261440
       103    1        3.115872139200      57.515587666200      64.867257452980
       104    1       16.254552308400     109.501334213220     105.222714847120
       105    1        7.495432340400      60.285496333760      28.858858568380
       106    2       17.349442304400      41.639342621580      98.990552205420
       107    2        6.400542344400     126.762514650360      61.404972881420
       108    1       14.064772316400     108.065835855640      72.484463306680
       109    2        4.210762135200     139.969991527740     116.994665683540
       110    1        5.305652348400      70.030605589440     125.304358174760
       111    1       16.254552308400      42.281285235300      41.323288757220
       112    2        4.210762135200     128.839922110200      62.097443491720
       113    1        0.926092147200       0.040691654560       8.777197756500
       114    2        6.400542344400      57.515590580240      61.404910229560
       115    2       12.969882320400     131.660374801560     133.613934104380
       116    2       19.539222296400      42.281288149340      37.860942990820
       117    2       15.159662312400     110.143246229520      69.714588150580
       118    2        2.020982143200       2.118102028440       6.007322600400
       119    1       18.444332300400     111.578741673060     104.530244236820
       120    2        4.210762135200      59.592998040080      62.097382296880
       121    2       17.349442304400      44.358695609180      38.553413601120
       122    2        4.210762135200     127.454985260660      59.327565421580
       123    1       16.254552308400     110.143266627800      45.478164871740
       124    1        9.685212332400     127.455007115960      35.091142142740
       125    1       11.874992324400      60.285521103100       1.160089523140
       126    2        4.210762135200      58.208062647560      59.327504226740
       127    2        2.020982143200       6.323453686820     145.386023357700
       128    2       10.780102328400      60.285500704820      25.396512801980
       129    2        6.400542344400     129.532392720500      60.020036031880
       130    2       10.780102328400      52.026372635680      88.603504707080
       131    2       17.349442304400      42.973760216660      35.783535530980
       132    2        6.400542344400      60.285468650380      60.019974837040
       133    2       17.349442304400      38.869464551440      97.605616812900
       134    2       12.969882320400     128.890496731420     132.228998711860
       135    1        9.685212332400     126.070071723440      32.321264072600
       136    2       19.539222296400      40.946872011280      96.913146202600
       137    2        4.210762135200     137.200113457600     115.609728834000
       138    1        3.115872139200      72.108013049280     124.611887564460
       139    2       12.969882320400     112.220652232340      70.407060217900
       140    2        8.590322336400      62.362906707640      26.088983412280
       141    2        2.020982143200       4.887980098580       4.622385750860
       142    2        6.400542344400      70.030602675400     121.842012408360
       143    1       16.254552308400      38.869468922500     101.067962579300
       144    2       19.539222296400      45.051166219480      36.476007598300
       145    2        6.400542344400     139.277519460420     114.917258223700
       146    1        3.115872139200      56.130652273680      62.097377925820
       147    1       18.444332300400     108.808863602920     103.145308844300
       148    2       15.159662312400     130.967904191260     131.536526644540
       149    2        8.590322336400      60.977971315120      23.319105342140
       150    1        5.305652348400      58.208058276500      62.789849993140
       151    1        0.926092147200     142.689353257460      10.162262823800
       152    1        0.926092147200     139.277516546380     111.454912457300
       153    2       12.969882320400      40.203850092080      71.791934415580
       154    2       10.780102328400      63.055378774960      24.011577409460
       155    1        3.115872139200     125.377574886780      62.097440577680
       156    2        2.020982143200     139.277513632340     107.992565233880
       157    1        5.305652348400      56.823122883980      60.019971923000
       158    1        3.115872139200     137.200116371640     119.072076057420
       159    1        7.495432340400      49.948968089880      92.758322540800
       160    2        2.020982143200     140.662450481880     105.222687163740
       161    2        4.210762135200      72.108010135240     121.149541798060
       162    1        7.495432340400     128.147479183280      33.013734682900
       163    1        3.115872139200      58.900530343820      60.712442533300
       164    1       11.874992324400     128.890499645460     135.691344478260
       165    1        7.495432340400      58.900560941240      26.088980498240
       166    2       15.159662312400      60.336044728620     134.306467366540
       167    2       10.780102328400     128.147482097320      29.551388916500
       168    1        0.926092147200     140.662453395920     108.685034387160
       169    2        4.210762135200      69.338132065100     119.764604948520
       170    1       18.444332300400      40.946874925320     100.375491969000
       171    1        9.685212332400      60.977968401080      26.781452565560
       172    1        5.305652348400     127.454982346620      62.789911187980
       173    1       16.254552308400      40.896349842780      38.553410687080
       174    2        2.020982143200       3.553575616680     144.001087965180
       175    2       12.969882320400      62.413450731440     133.613996756240
       176    1       16.254552308400     110.886269605740     102.452836776980
       177    1        5.305652348400     139.277523831480     118.379603990100
       178    2        6.400542344400      71.415538067920     119.072134338220
       179    1        0.926092147200     137.892575325780     107.300097537620
       180    2        8.590322336400     130.224888100140      30.243859526800
       181    2        2.020982143200       4.938511009200     141.231208438020
       182    2        2.020982143200     137.892572411740     103.837751771220
       183    1        9.685212332400      59.593031551540      24.011573038400
       184    1        5.305652348400     136.507644304320     116.994668597580
       185    1        3.115872139200      69.338134979140     123.226950714920
       186    1       18.444332300400      42.973757302620      39.245882754400
       187    2       12.969882320400     110.835716839820      67.637180690740
       188    1        7.495432340400      61.670439011380      24.704045105720
       189    1        0.926092147200       2.810569724700       7.392260906960
       190    1        3.115872139200     138.585051764160     116.302196530260
       191    2        2.020982143200     139.277507804260     101.067873701080
       192    1       18.444332300400      41.588820453080      36.476003227240
       193    1        9.685212332400      52.026375549720      92.065851930500
       194    2        2.020982143200     144.766763631340       7.392387667700
       195    1        5.305652348400     126.070046954100      60.020033117840
       196    2        6.400542344400      58.900533257860      57.250096766900
       197    2        8.590322336400     123.350709993720      94.835664434740
       198    1       14.064772316400     130.967907105300     134.998873867960
       199    2       12.969882320400      59.643572661300     132.229059906700
       200    1        9.685212332400      49.256497479580      90.680915080960
       201    2        4.210762135200      60.977940717700      57.942567377200
       202    2        8.590322336400     128.839952707620      27.473981456660
       203    1       14.064772316400     128.198029035160     133.613937018420
       204    2       10.780102328400      61.670441925420      21.241697882300
       205    1        0.926092147200     144.074294478060       6.007449361140
       206    1        0.926092147200     139.277510718300     104.530219467480
       207    2       15.159662312400     112.913124299660      68.329652758060
       208    2       19.539222296400     108.808860688880      99.682961620880
       209    2       19.539222296400     110.143269541840      42.015819105340
       210    1        7.495432340400      51.333904939420      89.988444470660
       211    2        2.020982143200     128.147444214800      71.099542484360
       212    1       16.254552308400      43.666227912920      37.168475294560
       213    1       11.874992324400     130.275436495000     132.921466408120
       214    1        5.305652348400      71.415540981960     122.534480104620
       215    1       11.874992324400     108.758306465940      70.407055846840
       216    2        8.590322336400      63.747849385260      21.934169949620
       217    2       17.349442304400     110.886266691700      98.990491010580
       218    2       19.539222296400      43.666230826960      33.706128071140
       219    2        6.400542344400     136.507641390280     113.532322831180
       220    1        5.305652348400      68.645662911820     121.149544712100
       221    1        0.926092147200       1.425632875160       4.622382836820
       222    2       10.780102328400      49.256494565540      87.218569314560
       223    1        0.926092147200       4.938513923240     144.693555661440
       224    2       15.159662312400     128.198026121120     130.151591252020
       225    1        3.115872139200     128.147454413940      60.712505185160
       226    2       17.349442304400     108.116388621560      97.605555618060
       227    1       14.064772316400     110.835713925780      71.099527914160
       228    2        4.210762135200      59.593003868160      55.172689307060
       229    2        2.020982143200       3.503043249040       1.852507680720
       230    2       12.969882320400     130.275433580960     129.459120641720
       231    2        8.590322336400      62.362913992740      19.164291879480
       232    1       14.064772316400     109.450777076240      68.329649844020
       233    1        0.926092147200       2.168635853100     143.308618811900
       234    2       17.349442304400      45.743638286800      34.398600138460
       235    1        3.115872139200      70.723070371660     120.457072644780
       236    2        4.210762135200     138.585048850120     112.839850763860
       237    2        8.590322336400     120.580831923580      93.450729042220
       238    1        0.926092147200     136.507632648160     103.145284074960
       239    2       15.159662312400      42.281257551920      72.484405025880
       240    1       18.444332300400      38.176996855180      98.990556576480
       241    2       19.539222296400     110.193796081400      96.913083550740
       242    2        6.400542344400      68.645659997780     117.687197488680
       243    2       15.159662312400      61.720980121140     131.536589296400
       244    2       12.969882320400     127.505554053800     128.074183792180
       245    2       17.349442304400     112.220677001680      42.708289715640
       246    2       10.780102328400     122.658237926400      92.758256974900
       247    2       10.780102328400     130.917360167460      28.166452066960
       248    2        6.400542344400     128.147457327980      57.250157961740
       249    2        6.400542344400      61.670411328000      55.865159917360
       250    2       10.780102328400      64.440319995560      19.856762489780
       251    2        8.590322336400      51.333902025380      86.526097247240
       252    2       15.159662312400     129.582961513640     127.381713181880
       253    1       14.064772316400      38.818911785520      72.484402111840
       254    2        4.210762135200      70.723067457620     116.994726878380
       255    2        4.210762135200     135.815170779980     111.454915371340
       256    2        2.020982143200     130.917322284940      69.714607091840
       257    1       11.874992324400     111.528184536080      69.022120454320
       258    2        2.020982143200       2.168632939060     139.846273045500
       259    2       17.349442304400     110.835741609160      39.938411645500
       260    2       17.349442304400      44.358701437260      31.628722068320
       261    1        7.495432340400      60.285503618860      21.934167035580
       262    1       11.874992324400      59.643575575340     135.691405673100
       263    1       16.254552308400     108.116391535600     101.067901384460
       264    1        0.926092147200     128.839911911060      72.484482247940
       265    1       11.874992324400     127.505558424860     131.536531015600
       266    2       19.539222296400      46.436108897100      32.321192678620
       267    1       16.254552308400      40.254404315020      98.298084509160
       268    2        2.020982143200     136.507629734120      99.682936851540
       269    2        2.020982143200       3.553569788600     137.076394975360
       270    2        4.210762135200      67.953189387480     115.609791485860
       271    1       14.064772316400     129.582964427680     130.844058948280
       272    1       16.254552308400      42.281292520400      34.398597224420
       273    2       19.539222296400      38.176993941140      95.528209353060
       274    2        4.210762135200     130.224863330800      57.942630029060
       275    1        9.685212332400      62.362909621680      22.626637645880
       276    1        3.115872139200      57.515593494280      57.942564463160
       277    2        6.400542344400      70.030596847320     114.917319418540
       278    1       14.064772316400     126.813086357540     129.459123555760
       279    1       18.444332300400      44.358698523220      35.091067834720
       280    2        8.590322336400      48.564023955240      85.141161854720
       281    2       15.159662312400     111.528187450120      65.559774687920
       282    1        9.685212332400      60.977974229160      19.856759575740
       283    1        0.926092147200     127.454976518540      69.714604177800
       284    1        7.495432340400     120.580834837620      96.913074808620
       285    2       10.780102328400      50.641429958060      84.448691244420
       286    2       15.159662312400      40.896322159400      69.714526955740
       287    1       14.064772316400      61.720983035180     134.998935062800
       288    1        5.305652348400      59.593000954120      58.635035073460
       289    2       17.349442304400      40.254401400980      94.835738742760
       290    2       12.969882320400     113.605594909960      66.252245298220
       291    2        2.020982143200     129.532386892420      66.944729021700
       292    1        7.495432340400      48.564026869280      88.603507621120
       293    2        4.210762135200     128.839927938280      55.172750501900
       294    2        2.020982143200     137.892565126640      96.913058781400
       295    1       18.444332300400     110.193798995440     100.375430774160
       296    2       17.349442304400      37.484523330840      93.450803350240
       297    2        2.020982143200     132.302264962560      65.559792172160
       298    1        9.685212332400      50.641432872100      87.911037010820
       299    1        3.115872139200      67.953192301520     119.072137252260
       300    1        5.305652348400      58.208065561600      55.865157003320
       301    1        7.495432340400      63.055381689000      20.549230186040
       302    2       19.539222296400     112.913149069000      40.630883712820
       303    2        6.400542344400     130.917335398120      55.865222569220
       304    1        0.926092147200     130.224854588680      68.329667328260
       305    1       18.444332300400     107.423920925300      98.990493924620
       306    1        0.926092147200     137.892568040680     100.375406004820
       307    1        9.685212332400      47.871554801960      86.526101618300
       308    1       14.064772316400      58.951104965040     133.613999670280
       309    1       18.444332300400      42.973763130700      32.321189764580
       310    1        9.685212332400     122.658242297460      96.220604198320
       311    1       16.254552308400     109.501328385140      98.298023314320
       312    1       11.874992324400     128.890493817380     128.766651488440
       313    1        3.115872139200      60.285471564420      56.557629070640
       314    2       10.780102328400      63.055384603040      17.086884419640
       315    1        3.115872139200     126.762517564400      57.942625658000
       316    2       12.969882320400     112.220659517440      63.482367228080
       317    1       16.254552308400      45.051170590540      33.013660374880
       318    2       19.539222296400     107.423918011260      95.528148158220
       319    2        6.400542344400      60.285475935480      53.095281847220
       320    2       19.539222296400      39.561930790680      92.758331282920
       321    2       12.969882320400      42.973728162220      70.406997566040
       322    2        8.590322336400      65.132792062880      17.779355029940
       323    1        0.926092147200     135.122689970540      98.990469155280
       324    2       19.539222296400      45.051173504580      29.551314608480
       325    1        9.685212332400     119.888362770300      94.835667348780
       326    2        6.400542344400     137.892578239820     110.762443304020
       327    1       16.254552308400     108.758331235280      42.708286801600
       328    2       15.159662312400     126.813083443500     125.996776332340
       329    1       11.874992324400      61.028512424880     132.921527602960
       330    2        8.590322336400      63.747855213340      15.009476959800
       331    1       16.254552308400      37.484526244880      96.913149116640
       332    1        5.305652348400      70.030599761360     118.379666641960
       333    1        0.926092147200     128.839919196160      65.559789258120
       334    2       15.159662312400     114.298065520260      64.174837838380
       335    2       12.969882320400      41.588792769700      67.637119495900
       336    1        7.495432340400     126.762542333740      30.243856612760
       337    1       18.444332300400      39.561933704720      96.220678506340
       338    1        3.115872139200     135.815173694020     114.917261137740
       339    2       17.349442304400      47.128579507400      30.243785218780
       340    1       18.444332300400     110.835738695120      43.400757411900
       341    2        2.020982143200     135.122687056500      95.528123388880
       342    2       12.969882320400     128.890490903340     125.304305722040
       343    1        9.685212332400     128.839949793580      30.936327223060
       344    2        2.020982143200     130.917328113020      62.789914102020
       345    1        7.495432340400     121.965770230140      94.143196738480
       346    1        0.926092147200       3.553572702640     140.538740741760
       347    2       15.159662312400      43.666200229540      68.329590106200
       348    1       18.444332300400      36.792055634580      94.835741656800
       349    2        2.020982143200     136.507623906040      92.758245318740
       350    2       17.349442304400      45.743644114880      27.473907148640
       351    1        0.926092147200       0.783694632500     139.153805349240
       352    1       11.874992324400     110.143249143560      66.252242384180
       353    1       18.444332300400     109.450801845580      40.630879341760
       354    2       17.349442304400     109.501325471100      94.835677547920
       355    2       10.780102328400      65.825262673180      15.701949027120
       356    2        4.210762135200      62.362881938300      53.787753914540
       357    1        9.685212332400     127.455012944040      28.166449152920
       358    1       16.254552308400      38.869461637400      94.143271046500
       359    1        5.305652348400      67.260721691220     116.994729792420
       360    2       17.349442304400     106.731447400960      93.450740698380
       361    1        5.305652348400     128.839925024240      58.635097725320
       362    2       19.539222296400      47.821051574720      28.166379215960
       363    1       11.874992324400      39.511382395820      70.406994652000
       364    1        0.926092147200     136.507626820080      96.220591085140
       365    1        7.495432340400     129.532420403880      28.858921220240
       366    2        4.210762135200      60.977946545780      51.017875844400
       367    1       16.254552308400     111.528209305420      41.323351409080
       368    2       10.780102328400     119.888359856260      91.373321582380
       369    1        7.495432340400      61.670444839460      17.779352115900
       370    2       19.539222296400      36.792051263520      91.373395890400