ITEM: TIMESTEP
0
ITEM: NUMBER OF ATOMS
8640
ITEM: BOX BOUNDS xy xz yz pp pp pp
-6.1267755718789729e-02 2.1651667755719163e+01 0.0000000000000000e+00
-7.0553539473907634e-02 2.1660953539473677e+01 0.0000000000000000e+00
-1.5446011195325582e+00 2.0762460111953308e+02 0.0000000000000000e+00
ITEM: ATOMS id type x y z c_peratom fx fy fz 
6 1 0.872978 0.84751 0.854401 -7.91672 -0.62005 1.86237 0.552458 
222 1 0.754619 0.757583 6.10334 -7.25923 0.629073 0.814215 -0.360751 
438 1 0.792706 0.999512 11.1924 -7.88901 0.359952 -1.58128 1.33697 
42 1 0.761749 4.39825 0.838077 -7.69724 -0.66474 1.58351 0.543636 
258 1 0.795105 4.52807 6.0016 -7.55918 -0.181772 -1.23183 1.42459 
474 1 0.739156 4.46485 11.1549 -7.72036 1.10235 -0.672892 1.59172 
78 1 0.955742 8.03178 0.759082 -7.65153 0.102162 1.21853 -0.5344 
294 1 0.993487 8.09147 5.97554 -7.71428 -1.12215 0.311331 -0.229749 
510 1 0.965239 8.01349 11.1218 -7.8143 -0.44738 1.11005 1.70796 
114 1 0.892936 11.7301 0.786698 -7.51863 -0.368544 -0.79939 -0.0163796 
330 1 0.951162 11.8015 5.88318 -7.17127 0.502967 -0.367169 -0.117297 
546 1 0.754945 11.5083 11.254 -7.76467 -0.0679667 1.40922 -0.85975 
150 1 0.847057 15.418 0.793573 -8.01584 0.578956 -0.0934487 -0.127191 
366 1 0.714616 15.3684 5.97406 -8.34845 -0.610452 -0.780041 0.409424 
582 1 0.855239 15.3675 11.2661 -7.69195 -1.12028 -0.0272235 -0.448673 
186 1 0.773808 18.8915 0.899068 -7.46107 0.393296 0.325749 -0.959201 
402 1 1.02115 18.9727 6.04342 -8.01321 0.8484 -0.0557855 0.0353919 
618 1 0.65976 18.9634 11.2 -8.07373 -0.0467186 -0.655517 1.34511 
12 1 4.27047 0.944587 0.72089 -7.93159 1.32116 -0.20929 0.631249 
228 1 4.47455 0.936126 6.03658 -8.04357 0.134649 -0.350084 1.08657 
444 1 4.38568 0.668899 11.2281 -8.06828 0.574848 1.16486 0.556089 
48 1 4.47782 4.47674 0.786022 -7.96115 0.240002 -0.664689 0.0351888 
264 1 4.39924 4.47118 6.002 -7.84525 0.845268 -0.684253 1.7823 
480 1 4.51967 4.53381 11.2403 -7.64367 -0.324942 -0.221324 0.828128 
84 1 4.58852 7.94063 0.875777 -8.01084 -1.87474 -0.424713 1.09535 
300 1 4.50603 8.08265 6.16467 -8.05618 0.28834 0.605567 -0.348746 
516 1 4.52794 8.15534 11.3108 -7.21018 -0.264554 0.40994 -0.606999 
120 1 4.51649 11.7965 0.953385 -7.79307 0.759337 -1.27388 -1.85397 
336 1 4.51388 11.657 6.13783 -8.3734 0.277946 0.48925 -0.702502 
552 1 4.36067 11.7743 11.2603 -8.02064 0.0809385 0.272726 0.864345 
156 1 4.42882 15.271 0.775081 -7.92436 -0.589029 0.636335 -0.171252 
372 1 4.60335 15.3148 6.0842 -7.89975 -0.608779 -0.198539 -0.546645 
588 1 4.25257 15.2645 11.3734 -7.77851 0.646282 -0.272777 -1.32079 
192 1 4.30342 18.958 0.821571 -7.57846 -0.0178972 0.160761 0.904321 
408 1 4.44718 18.9691 6.1227 -8.16665 -0.703815 -0.664367 0.209939 
624 1 4.40463 18.9118 11.2658 -7.89608 -0.0799723 0.444036 1.38233 
18 1 8.02176 0.638183 0.918468 -8.42813 -0.489128 0.640195 0.141369 
234 1 8.12643 1.01898 6.08354 -8.37637 -1.36139 -1.58618 0.225668 
450 1 7.86339 0.88501 11.4605 -7.76398 -0.760514 -0.727225 -1.64058 
54 1 8.10727 4.52772 0.772491 -7.88203 -0.782479 -0.422961 -0.0299256 
270 1 8.01145 4.47898 6.2189 -7.99772 1.32951 -0.964963 -2.24119 
486 1 8.02142 4.61524 11.1781 -7.68442 0.219598 -1.21065 0.854432 
90 1 8.18739 8.01782 0.895017 -7.75581 -0.462169 0.726016 -0.655257 
306 1 8.16268 8.07368 6.11555 -8.10707 0.68712 0.691527 0.153309 
522 1 8.15247 8.33203 11.2691 -8.00231 -0.262238 -0.376218 0.464131 
126 1 7.86661 11.7197 0.68456 -7.54676 -0.546087 -1.25662 1.15858 
342 1 8.24252 11.7052 6.12898 -8.44029 -0.281818 -0.172027 -1.12318 
558 1 8.1573 11.703 11.2129 -8.07845 0.596084 -0.290172 0.887396 
162 1 8.10334 15.4596 0.940297 -8.12541 0.343639 0.473583 -0.453244 
378 1 8.06267 15.3073 6.04683 -7.62007 0.458039 1.35782 0.474159 
594 1 7.8718 15.4341 11.1896 -7.81556 0.666258 0.272156 0.25303 
198 1 8.05272 19.0345 0.691242 -7.62135 -0.890445 0.299421 1.23194 
414 1 7.92195 19.0051 5.97029 -7.48117 -0.110115 0.341196 0.434812 
630 1 8.11049 18.8455 11.2099 -8.22247 -0.377873 -0.134843 0.228772 
5 1 0.965223 1.00499 3.54839 -8.02087 0.231814 -0.543484 -0.719279 
221 1 0.795732 1.1703 8.66682 -7.16459 1.08553 -0.366494 -0.644566 
437 1 0.959971 0.720579 13.8323 -7.21778 -0.148078 0.515623 -1.51007 
41 1 0.832381 4.55054 3.47037 -7.66767 -0.42381 1.2751 -0.702782 
257 1 0.943175 4.56373 8.68313 -7.70295 -1.02902 0.21436 -1.06096 
473 1 0.879945 4.64424 13.8126 -7.99873 -0.164147 -0.403184 -0.397909 
77 1 0.868596 8.22926 3.30881 -7.57711 -1.16565 -1.65919 0.80299 
293 1 0.879312 8.01148 8.54768 -7.38503 -0.83583 0.614873 -0.215454 
509 1 0.938537 8.00346 13.8784 -7.83427 -1.82122 -0.254713 -0.889696 
113 1 0.727745 11.9589 3.3106 -7.19916 0.408949 -0.569176 0.155518 
329 1 0.755846 11.74 8.45021 -7.45015 0.303816 0.42316 1.66997 
545 1 0.98009 11.6481 13.8361 -7.58165 -0.361531 0.291316 0.245656 
149 1 0.859592 15.2519 3.38373 -8.11597 -0.460964 0.171085 0.484914 
365 1 0.931655 15.3996 8.58657 -8.05991 -0.967505 0.458056 0.720041 
581 1 0.743215 15.1836 13.919 -7.64651 -0.0443133 0.398004 -0.262136 
185 1 0.892636 18.8932 3.44831 -8.15782 0.331142 0.578721 0.858443 
401 1 0.825017 19.1355 8.69025 -7.74939 0.0603847 -0.249428 -0.58974 
617 1 0.84561 19.0531 13.9008 -8.06195 -0.0770112 -0.033035 -0.900642 
11 1 4.51462 0.814418 3.53622 -7.9685 -0.0250763 0.577963 -1.67152 
227 1 4.61151 0.888487 8.70677 -7.91683 -0.273597 0.183647 -0.514515 
443 1 4.49434 0.77275 13.8258 -7.15111 -0.880866 0.42808 -0.0194285 
47 1 4.46431 4.61271 3.48462 -7.40337 0.291659 0.466628 -1.6443 
263 1 4.54944 4.79694 8.68582 -7.29342 0.189372 -1.87633 -1.61868 
479 1 4.54027 4.52089 13.8762 -8.38761 -1.02042 -0.875903 0.979989 
83 1 4.4576 8.18554 3.57066 -8.39018 0.64702 0.0549141 -0.754672 
299 1 4.50414 8.33559 8.7253 -7.39488 -0.608634 0.129846 -0.694179 
515 1 4.57565 8.06799 13.8545 -7.3577 0.220902 -0.397501 1.10504 
119 1 4.48353 11.707 3.3846 -7.31285 0.0651287 -1.64836 1.63766 
335 1 4.54153 11.6406 8.71446 -7.81331 -0.181656 0.837566 -0.768869 
551 1 4.37408 11.746 14.0167 -7.84669 0.553788 -0.261823 -0.750189 
155 1 4.48508 15.2777 3.42468 -7.54006 -0.354617 0.323939 -0.294113 
371 1 4.35631 15.2944 8.66005 -7.81696 0.85227 -1.07544 1.0743 
587 1 4.30058 15.4174 13.8166 -7.26375 0.620901 -0.708109 1.51212 
191 1 4.37151 18.7609 3.56794 -7.75415 0.466174 1.27403 -1.3016 
407 1 4.33143 19.0761 8.68765 -7.55312 1.02267 0.0877737 -0.363943 
623 1 4.58493 18.9762 14.0804 -8.63212 -1.30536 -1.35488 0.272228 
17 1 8.04496 0.848993 3.55051 -8.61245 -1.30963 0.504225 -0.565605 
233 1 8.02839 0.933535 8.70507 -8.29658 -0.315652 -0.154162 0.292017 
449 1 8.22577 0.827268 14.0002 -7.74342 0.00523427 -0.971698 0.81969 
53 1 7.9963 4.45978 3.41623 -8.24745 1.67928 0.250661 0.726698 
269 1 8.0203 4.75917 8.67066 -7.50719 0.373639 -0.254377 -0.0213071 
485 1 8.02462 4.40433 13.8055 -7.50627 0.381545 0.1852 -0.229023 
89 1 8.11392 8.2581 3.49871 -8.30954 0.00256089 0.107724 0.277212 
305 1 8.30157 8.2071 8.78578 -8.14675 -0.246651 0.266984 -1.45774 
521 1 8.14851 8.18939 13.8462 -8.48499 1.36749 -0.102456 1.3625 
125 1 8.11556 11.6748 3.4613 -8.18617 -0.22116 0.460198 -0.137964 
341 1 8.08483 11.8984 8.66744 -7.83524 0.67551 -0.617509 -0.620818 
557 1 8.07923 12.0149 13.7926 -7.86816 -0.445264 -1.67525 -0.150301 
161 1 8.0837 15.3687 3.57498 -7.84724 0.314787 0.353706 -1.41884 
377 1 8.12072 15.3615 8.59466 -7.9811 -0.76178 0.854253 0.444365 
593 1 8.05008 15.1776 13.8357 -7.52959 0.882922 0.267849 -0.724125 
197 1 7.95298 19.0073 3.3946 -7.50337 0.778076 -0.230226 -1.20635 
413 1 8.03913 18.7249 8.56456 -8.06348 -2.61961 0.792225 0.89032 
629 1 8.05022 18.9438 13.8567 -8.01873 -0.491258 -0.560844 0.264766 
2 2 0.768975 2.71331 -0.0883621 -29.3308 -0.324663 -0.563954 -0.751569 
218 2 0.856764 2.60456 5.1695 -29.9397 0.448433 0.487283 -0.825796 
434 2 0.954957 2.69404 10.2487 -29.5108 -1.44109 0.376033 -1.44604 
650 2 0.933827 2.69729 15.5804 -29.5083 0.689738 -1.66511 -0.0056637 
38 2 0.83929 6.33763 -0.185205 -29.2084 -0.637412 -1.35643 -0.467785 
254 2 0.859581 6.22581 5.17334 -29.3914 0.180269 1.07158 -0.761158 
470 2 0.766443 6.28199 10.1844 -30.0018 1.23884 -0.397285 -0.842809 
686 2 0.765118 6.31631 15.4712 -29.4662 0.564474 0.460107 -0.685446 
74 2 0.937656 9.93691 -0.332477 -29.2345 0.101279 -0.276755 1.78654 
290 2 0.926575 9.95154 4.98571 -29.5611 -1.07996 0.30005 0.721296 
506 2 0.831305 9.80962 10.2824 -29.3674 0.0892391 -0.000328403 -1.29564 
722 2 0.884238 9.81986 15.4089 -29.2643 0.591453 1.45908 -1.19686 
110 2 0.808156 13.6032 -0.149045 -29.3815 0.927279 -1.04228 0.375188 
326 2 0.766933 13.6088 4.9719 -29.6858 1.23166 -1.74809 -0.713301 
542 2 0.816099 13.3599 10.2307 -29.224 0.193834 0.964646 0.0201965 
758 2 0.846079 13.464 15.4485 -29.4239 -0.707892 -0.0112153 0.0881846 
146 2 0.908999 17.0394 -0.319208 -29.2058 -1.32472 1.95154 0.913557 
362 2 0.839498 17.1283 5.06447 -28.9656 1.07671 1.07647 0.0891732 
578 2 0.799143 17.0956 10.3004 -29.1668 0.476048 0.451165 -0.738022 
794 2 0.814254 17.2118 15.6042 -29.0841 -1.20961 -0.889384 -1.43939 
182 2 0.701987 20.8186 -0.119043 -29.4996 1.0115 -1.12442 -0.4046 
398 2 0.992021 20.7417 5.06739 -29.2894 -1.62669 0.798622 0.480912 
614 2 0.734109 20.772 10.269 -29.443 1.83704 0.730898 -0.347961 
830 2 0.893647 20.7233 15.3376 -29.8022 -0.205885 1.50291 0.699526 
8 2 4.38254 2.6693 -0.380916 -28.9435 -0.138766 0.447856 1.44356 
224 2 4.54498 2.64884 5.06554 -29.2143 -1.48822 0.966509 -1.21364 
440 2 4.43882 2.6384 10.5059 -28.9761 0.853935 0.167861 -1.32628 
656 2 4.54795 2.73424 15.4669 -29.1563 -0.0567374 -2.13166 0.0403634 
44 2 4.30935 6.237 -0.154546 -28.842 1.48923 -0.612648 -0.627034 
260 2 4.54885 6.26316 5.0753 -29.5505 -1.41266 0.0177652 0.0609166 
476 2 4.55123 6.415 10.2224 -30.4138 -0.956341 -0.335398 0.473352 
692 2 4.5067 6.18316 15.6403 -29.1622 -0.627882 2.01701 -1.56614 
80 2 4.53549 9.72851 -0.070174 -29.0773 0.160484 1.65862 -0.00132994 
296 2 4.5106 9.82611 5.04383 -28.855 -0.677392 0.836424 -0.287548 
512 2 4.52148 10.0001 10.1794 -29.8518 -0.582931 -1.14056 0.519755 
728 2 4.41581 9.86094 15.4229 -29.5337 -0.0758838 0.649866 -0.149769 
116 2 4.36292 13.4295 -0.224089 -29.5857 1.47016 0.857876 0.149195 
332 2 4.51957 13.4986 4.99252 -29.403 -1.48372 0.0669963 -0.504451 
548 2 4.41907 13.5095 10.3391 -29.1933 0.667682 0.73663 -1.04162 
764 2 4.40543 13.5308 15.5796 -29.3577 0.482383 -0.705905 -1.19526 
152 2 4.49338 17.2168 -0.219823 -29.4234 -0.448367 -0.73004 -0.0632877 
368 2 4.47612 17.1002 5.02223 -29.5621 0.708061 0.0714527 0.0583847 
584 2 4.40665 17.0613 10.3941 -29.3657 -0.642522 0.0966641 -0.795608 
800 2 4.45699 17.1802 15.5296 -28.0859 -0.44158 -0.359174 -1.01077 
188 2 4.3476 20.8298 -0.347606 -29.2822 -0.129513 -0.477601 1.99484 
404 2 4.49607 20.7528 5.14789 -28.9793 -0.313885 0.0914043 -0.743396 
620 2 4.51763 20.686 10.2074 -29.3322 -2.31662 -0.154251 -0.251061 
836 2 4.50581 20.7311 15.6051 -29.437 -0.626128 0.899335 -0.950327 
14 2 8.07402 2.69403 -0.160204 -28.7797 -0.214981 -0.855755 -0.898103 
230 2 8.0697 2.72119 4.90134 -28.5994 -0.444565 0.352486 1.26154 
446 2 7.94397 2.67919 10.3186 -29.2257 0.911749 0.40837 0.469703 
662 2 8.10253 2.62782 15.5669 -29.6576 0.0497101 -0.809962 -1.89466 
50 2 8.07228 6.23171 -0.337631 -29.3184 0.259131 0.629866 1.35429 
266 2 8.06869 6.31464 5.11083 -28.9268 0.691564 -0.558077 -0.109556 
482 2 8.12445 6.39753 10.198 -29.3942 -0.833129 0.0956524 0.422145 
698 2 8.06822 6.19053 15.5741 -28.8476 0.266638 0.221997 -0.473875 
86 2 8.11821 9.88405 -0.0876091 -29.1369 -0.998337 -0.0767198 -0.39598 
302 2 8.26883 9.94618 5.08368 -28.7082 -1.16084 -0.677116 -0.481412 
518 2 8.18033 10.052 10.1045 -28.81 -0.379809 -0.602931 0.410724 
734 2 8.08749 9.84713 15.4348 -28.6276 -0.326308 0.693942 0.141584 
122 2 8.02838 13.6445 -0.0785872 -29.6359 0.906594 -0.870638 -0.778052 
338 2 8.07479 13.63 4.99167 -29.1408 -0.0837421 -0.819178 -0.0510546 
554 2 8.13573 13.6063 10.173 -29.7224 -0.297337 -0.119349 0.84248 
770 2 8.13066 13.4877 15.3393 -30.1369 -0.861841 -0.118188 0.686015 
158 2 8.05274 17.1794 -0.215146 -29.0543 1.20253 1.01967 -0.153145 
374 2 8.14694 17.1208 5.02826 -29.7033 -1.49851 1.02565 0.335592 
590 2 7.94388 17.1758 10.1431 -28.833 0.315617 -1.16082 -0.153606 
806 2 8.00229 17.1329 15.5571 -29.1714 0.917064 0.0530914 -0.752588 
194 2 7.94441 20.8539 -0.505722 -29.2076 1.29254 -0.880481 1.31576 
410 2 8.04281 20.8534 5.02918 -28.8941 0.26734 -1.27382 0.0214003 
626 2 7.87866 20.734 10.3294 -28.655 2.42703 0.766115 0.428042 
842 2 8.13285 20.8222 15.4476 -29.2173 -0.776456 0.0334874 0.256694 
1 2 2.65882 0.838056 2.37574 -29.2955 0.73047 1.46883 0.409298 
217 2 2.72442 0.785513 7.69753 -29.4292 -1.02662 1.83338 1.23709 
433 2 2.71898 0.72411 12.7853 -29.4888 -0.236242 0.47135 1.25521 
37 2 2.65094 4.50187 2.47485 -29.4441 0.126363 -1.14636 1.07071 
253 2 2.73065 4.43877 7.74655 -29.7609 -0.0163898 1.07394 -0.432971 
469 2 2.66482 4.54245 12.8915 -28.7589 0.131351 0.126934 -0.332885 
73 2 2.59519 8.004 2.4064 -29.0753 0.730927 1.15227 0.7177 
289 2 2.70546 8.23597 7.58023 -29.9102 -0.175227 -2.41461 1.11856 
505 2 2.76347 8.07952 12.8137 -30.1053 0.138782 -0.0152407 -0.00869751 
109 2 2.61545 11.7255 2.3893 -30.2485 0.0853045 -0.184427 0.346774 
325 2 2.77707 11.7066 7.60547 -29.4847 -1.59796 0.822586 0.241237 
541 2 2.73961 11.7048 12.7469 -29.5216 -0.924362 0.0139192 1.2069 
145 2 2.61813 15.3915 2.28436 -29.4886 0.801173 -1.8644 1.43962 
361 2 2.70394 15.2987 7.68369 -28.9131 -0.39265 -0.2599 -0.0392335 
577 2 2.52965 15.4296 13.0042 -29.6748 -0.317359 -1.76954 -1.52896 
181 2 2.65422 18.9525 2.41776 -29.3919 0.238491 0.550079 -0.430025 
397 2 2.65281 18.831 7.60027 -29.4279 -0.486563 1.75344 1.22072 
613 2 2.67759 18.9081 12.9255 -28.783 0.121468 0.898366 -0.35285 
7 2 6.27324 0.724741 2.39003 -28.2809 -0.917481 0.645332 -0.312033 
223 2 6.30955 0.894587 7.57012 -28.4161 -0.292802 0.462635 0.879197 
439 2 6.25371 0.669218 12.9116 -29.6958 0.783638 1.71673 0.438886 
43 2 6.32573 4.43443 2.28396 -29.2172 -1.44865 0.169015 0.840881 
259 2 6.27706 4.45734 7.55549 -29.2142 -0.0795838 1.44292 1.53877 
475 2 6.20838 4.51679 12.9024 -29.396 1.61777 0.538491 -1.10984 
79 2 6.28108 8.02082 2.53775 -28.9113 0.309977 -0.22631 -0.927785 
295 2 6.45354 8.09423 7.68363 -29.2981 -1.12012 -0.0819152 0.45347 
511 2 6.38191 8.1614 13.01 -29.4841 -1.44373 -0.419367 -1.86734 
115 2 6.27922 11.7868 2.46356 -29.4565 -0.199637 -0.284075 -0.79449 
331 2 6.42118 11.636 7.54071 -28.9389 -1.44706 1.70036 1.2811 
547 2 6.29383 11.7285 12.8579 -29.1567 -0.724365 1.29304 0.958232 
151 2 6.20498 15.4348 2.34747 -29.3465 0.371086 -0.649873 1.29753 
367 2 6.27664 15.2896 7.49426 -29.4162 -0.0475272 0.626127 1.49862 
583 2 6.22207 15.3005 12.9679 -29.8319 -0.414081 -0.558193 -0.803883 
187 2 6.22887 18.9915 2.39531 -29.1421 -0.685212 -0.619891 0.176272 
403 2 6.18432 18.9332 7.70219 -29.1898 -0.521138 -0.569973 -1.36118 
619 2 6.21815 18.8525 12.9315 -28.6859 0.73214 0.849842 -0.458243 
13 2 9.72495 0.772246 2.35672 -29.3437 1.00305 0.263576 -0.86398 
229 2 9.85814 0.866362 7.57951 -28.7329 -0.594606 -0.655456 0.0494389 
445 2 9.90649 0.850963 12.8167 -28.8442 -0.766619 0.316221 0.497121 
49 2 9.8492 4.43635 2.40495 -29.1276 0.320347 1.41911 -1.02729 
265 2 9.87701 4.44334 7.72548 -29.1213 -1.38871 0.336625 -0.811909 
481 2 9.90425 4.5322 12.8107 -29.0846 -1.12989 -1.5998 0.114279 
85 2 9.88904 8.1785 2.42342 -29.3108 0.199932 -0.883551 -1.11052 
301 2 10.1162 8.09891 7.59868 -28.5367 -1.27741 -0.628242 0.0779303 
517 2 9.92372 8.1262 12.6826 -28.3909 -0.193752 0.6443 0.965311 
121 2 9.9039 11.7082 2.58355 -28.7062 0.772638 0.789543 -1.73954 
337 2 9.85066 11.741 7.50694 -29.286 1.79663 0.661455 1.17035 
553 2 9.93439 11.7068 12.819 -29.0545 0.197344 1.27178 -0.350476 
157 2 9.89808 15.3496 2.33959 -29.1791 -0.541484 0.205345 -0.0905886 
373 2 9.9292 15.3862 7.67464 -29.4394 -0.131069 0.284001 -0.446021 
589 2 9.87654 15.2772 12.905 -29.5198 -0.0906754 1.17243 -0.0111448 
193 2 9.88755 19.0161 2.52068 -29.4875 -0.660782 -0.0519855 -1.38237 
409 2 9.70506 18.9455 7.67142 -29.6708 2.29175 0.834643 -1.22192 
625 2 9.91745 18.9883 12.7628 -29.2752 -0.814161 -0.624247 0.965569 
412 1 9.77443 20.717 6.50357 -8 -0.318506 1.31126 0.27344 
219 1 2.72521 2.86392 4.10466 -7.39374 -0.0663388 -1.08077 -0.134454 
435 1 2.76367 2.82904 9.30723 -8.02208 1.31532 -0.426736 -0.45322 
651 1 2.78311 2.55707 14.5638 -7.83602 -1.00874 1.6852 -0.919888 
39 1 2.59233 6.00976 -1.17675 -7.68545 0.385549 2.00013 0.12946 
255 1 2.62958 6.44941 4.16219 -7.64617 0.148619 -0.294453 -1.8294 
471 1 2.7329 6.39781 9.30351 -6.82419 -0.610442 0.336516 -0.350339 
687 1 2.73236 6.29051 14.5254 -7.47042 0.277258 -0.497958 0.0544039 
75 1 2.81745 10.0618 -1.18999 -8.01839 -0.527575 -0.433758 -0.534357 
291 1 2.51152 9.97456 3.9585 -7.69358 2.43053 0.837739 -0.0750733 
507 1 2.52092 9.99252 9.14165 -7.67562 0.746718 0.0894401 0.585327 
723 1 2.71669 9.71667 14.2583 -7.5416 -0.146774 0.985157 1.61901 
628 1 9.68026 20.8193 11.7631 -8.16558 0.629747 -0.0829155 0.663309 
327 1 2.74915 13.4163 3.84009 -7.06007 -0.647561 0.968443 2.1782 
543 1 2.62061 13.3995 9.23388 -8.03284 0.343018 -0.13809 -0.356482 
759 1 2.60976 13.5441 14.5554 -7.56693 0.829574 0.420716 -0.840561 
147 1 2.66773 17.1539 -1.1426 -7.87945 0.224634 -0.633408 -0.626637 
363 1 2.69733 16.98 4.14274 -7.64283 -1.41801 -0.0589568 -0.161807 
579 1 2.66548 17.3106 9.31315 -7.60149 -0.822034 -0.993825 0.172733 
795 1 2.593 17.1352 14.3517 -8.23115 -0.194042 1.12731 2.05505 
183 1 2.4961 20.7953 -1.02422 -7.85763 0.964259 -0.573767 -1.99783 
399 1 2.71066 20.7703 4.03249 -8.09637 -0.0955258 -0.43671 0.367161 
615 1 2.5914 20.9464 9.16198 -7.32552 -0.0600498 0.519497 1.8388 
831 1 2.7248 20.7608 14.3919 -7.59922 0.685116 -1.46756 0.525714 
9 1 6.11445 2.67831 -1.47549 -8.27251 1.70938 1.36416 0.660307 
225 1 6.2286 2.75525 3.96023 -8.11175 0.503768 -0.955095 -0.822898 
441 1 6.27104 2.80301 9.29288 -8.02208 -0.543822 -0.0103421 -0.454565 
657 1 6.28165 2.43354 14.4927 -7.43407 0.131553 1.01676 0.315812 
45 1 6.218 6.15422 -1.28566 -8.22513 -0.594152 0.562851 0.0306144 
261 1 6.31857 6.27628 4.01464 -7.97949 0.271903 1.46573 -0.226603 
477 1 6.2337 6.5505 9.17113 -7.60869 2.05076 0.719254 0.408375 
693 1 6.38764 6.26582 14.4716 -7.7991 -0.416108 0.387549 0.723861 
81 1 6.20326 9.90212 -1.29001 -7.76494 0.121953 0.848369 0.828726 
297 1 6.34382 10.0438 4.19837 -7.85217 -0.571272 -0.737059 -0.918808 
513 1 6.34746 9.97577 9.22485 -7.80879 1.34507 -0.189483 0.818195 
729 1 6.27168 9.96239 14.4656 -8.03832 1.09142 0.218745 0.071408 
117 1 6.36456 13.6175 -1.16327 -7.60016 -0.829377 0.448368 -0.104576 
333 1 6.21464 13.4492 3.98588 -7.81616 1.55464 0.118111 0.204011 
549 1 6.34533 13.5125 9.33561 -7.4422 -1.9247 1.02886 -1.25385 
765 1 6.15009 13.6143 14.4567 -7.36698 -0.667037 -0.433134 -0.259078 
159 1 9.98106 17.254 -1.34293 -8.01409 -0.79677 -0.748805 -0.911119 
369 1 6.24431 17.0936 3.9548 -7.56041 0.637867 0.0270267 -0.222639 
585 1 6.02306 17.0736 9.12803 -8.01997 1.47595 0.753795 1.00372 
801 1 6.21641 16.9137 14.3642 -8.29083 0.822424 2.0812 1.98028 
189 1 6.08454 20.7636 -1.31529 -8.15109 1.47735 0.544827 -0.771386 
405 1 6.22153 20.6734 3.94712 -8.24679 -0.222617 1.10327 0.452865 
621 1 6.26654 20.6 9.24051 -8.35371 1.04696 0.263234 -0.792395 
837 1 6.24826 20.8213 14.2737 -7.57415 1.40456 -0.760693 1.40936 
15 1 9.84424 2.5742 -1.14912 -7.87058 0.0963802 0.393396 -1.35613 
231 1 9.85292 2.76026 4.00238 -8.2296 -0.39094 0.94216 -1.06699 
447 1 9.78773 2.85282 9.2123 -7.96724 -0.312698 -0.979207 -1.32085 
663 1 9.88913 2.73106 14.3088 -7.72482 0.935845 -0.364219 0.406001 
153 1 6.22549 17.2367 -1.28201 -8.10049 2.00119 -0.28395 -0.00146344 
267 1 9.9001 6.39616 4.07389 -8.11771 -0.662159 -0.439992 -0.474347 
483 1 10.0047 6.42031 9.29699 -8.13248 0.270346 -0.0964434 -0.329016 
699 1 9.9545 6.11121 14.6408 -7.99964 -0.732808 -0.533123 -0.722043 
87 1 9.85323 9.82622 -1.13643 -7.92072 -1.0745 -0.381919 -1.49935 
303 1 10.0535 10.0965 3.94258 -8.65698 -0.0490485 -0.983674 0.443338 
519 1 9.94551 10.2494 9.10928 -7.89421 -0.52018 -0.81573 0.0637537 
735 1 9.86349 10.1593 14.2629 -8.4653 -0.137961 -0.884483 -0.117535 
123 1 10.0081 13.5643 -1.22346 -7.5584 -1.16493 0.711906 0.701611 
339 1 9.84973 13.6008 3.9139 -8.16265 0.334224 -0.805003 0.561148 
555 1 9.9556 13.6846 9.23068 -7.82787 0.200546 -0.610972 -0.659768 
771 1 9.9847 13.439 14.4639 -7.6675 0.881454 0.260788 -1.04713 
111 1 2.69748 13.6543 -1.2414 -7.59238 -1.63242 0.37915 0.53569 
375 1 9.82791 17.4265 4.03255 -8.02494 1.24867 -1.55324 -1.06582 
591 1 9.88064 17.3046 9.24676 -7.73959 0.399113 -1.00918 0.958801 
807 1 9.80854 17.0273 14.4085 -7.55879 -1.03671 0.0136906 0.67976 
195 1 9.84714 21.0351 -1.17626 -7.39724 0.932381 0.191239 -0.710586 
411 1 9.79079 20.7878 3.86054 -7.77275 -0.626874 -0.813708 1.15819 
627 1 9.67568 20.7535 9.18048 -7.90486 -0.083952 0.54341 0.0195559 
843 1 9.91573 20.6323 14.4694 -8.12891 0.714891 0.402356 -0.374982 
4 1 2.63145 2.78184 1.44441 -7.52884 -0.0788065 -0.791765 0.419316 
220 1 2.4733 2.6232 6.70195 -7.82065 1.05831 0.0513919 0.338824 
436 1 2.68464 2.61081 11.8456 -8.44471 0.268079 1.15339 1.12174 
40 1 2.55527 6.18881 1.43031 -8.43296 0.892629 0.829211 0.21095 
256 1 2.70168 6.20864 6.66624 -7.1306 -0.170083 0.639731 0.940049 
472 1 2.73578 6.28533 11.8383 -7.47916 -0.353412 -0.716059 0.926434 
76 1 2.74442 9.80917 1.37333 -7.89105 0.440529 0.257229 -0.243907 
292 1 2.66403 9.94379 6.60005 -7.94919 0.646924 0.181041 -1.12967 
508 1 2.72247 9.96178 11.776 -7.44943 -0.384251 -1.15912 -0.916987 
112 1 2.60725 13.4577 1.34483 -7.49341 -0.155865 1.64663 -1.12829 
328 1 2.6794 13.6657 6.56869 -7.96914 0.365698 -1.12707 -0.440368 
544 1 2.3754 13.4751 11.8038 -7.59236 0.997105 -0.346083 0.851314 
148 1 2.63015 17.1708 1.48946 -7.81763 0.383591 -0.516641 -0.441991 
364 1 2.60222 17.0417 6.75428 -8.04567 0.517958 0.160645 -1.22544 
580 1 2.5846 17.1712 11.8993 -7.81981 -0.48477 0.719463 -0.707377 
184 1 2.59084 20.88 1.48259 -7.44448 0.0191321 -2.13833 0.476934 
400 1 2.7091 20.9401 6.7213 -7.76296 0.423798 -2.76292 -2.44646 
616 1 2.58406 20.7031 11.8174 -7.90528 -0.923332 -0.69498 -0.386351 
10 1 6.34535 2.64744 1.23032 -8.48745 0.0838621 -0.958517 0.233097 
226 1 6.21358 2.73829 6.57838 -8.28968 0.0408893 -1.05103 0.216275 
442 1 6.09846 2.67738 11.9629 -7.92907 -0.0213871 -0.417846 -0.809779 
46 1 6.28699 6.21374 1.42164 -7.52627 0.340737 0.568535 -0.299436 
262 1 6.37543 6.34228 6.53905 -7.9613 -1.01128 -0.355333 0.44414 
478 1 6.30978 6.40389 11.9042 -7.4922 0.522513 -0.109292 -0.692895 
82 1 6.25217 9.71644 1.34578 -8.10415 0.511751 1.45043 1.34681 
298 1 6.48215 9.89898 6.72731 -7.98729 -0.235445 -0.74735 -0.901416 
514 1 6.15829 10.0604 11.9958 -7.60887 0.684971 -1.04945 -1.67574 
118 1 6.40398 13.6828 1.4402 -7.54022 -0.552583 -0.932512 0.155276 
334 1 6.38801 13.5308 6.54561 -8.12954 -0.664888 -1.60592 0.595093 
550 1 6.19128 13.4789 11.8717 -7.64495 -0.0659792 0.474408 0.117065 
154 1 6.15973 17.1278 1.30886 -8.32731 0.369032 1.41203 -0.093999 
370 1 6.27342 17.1252 6.58255 -7.58036 0.101936 0.550026 -0.054672 
586 1 6.0973 17.1733 11.8515 -8.03853 0.368533 -0.415862 -0.767965 
190 1 6.00856 20.7041 1.30407 -7.99601 0.529099 1.11115 0.345061 
406 1 6.16811 20.8267 6.68104 -8.42994 0.993779 0.441467 -0.818529 
622 1 6.25439 20.6457 11.7875 -8.10146 0.0383419 -0.535395 -0.489472 
16 1 9.6908 2.70494 1.37222 -7.9623 -0.152054 -0.764318 0.911191 
232 1 9.97344 2.59813 6.52712 -7.97969 0.194016 1.68776 0.940546 
448 1 9.71829 2.50407 11.6485 -7.91634 1.42984 0.961854 1.14407 
52 1 9.88587 6.2822 1.40682 -7.21131 0.426743 0.691009 0.796159 
268 1 9.94992 6.22967 6.63751 -7.97601 0.618266 0.670418 0.3695 
484 1 9.82725 6.34453 11.9575 -8.40546 0.17932 -0.804035 -0.761167 
88 1 9.9144 10.0293 1.35341 -7.74686 -1.71854 0.429262 1.37653 
304 1 10.064 9.82333 6.5549 -8.24681 -1.14985 -0.17491 -0.282816 
520 1 10.2043 9.87412 11.6623 -8.25861 -1.71279 1.12968 1.01574 
124 1 9.64558 13.3675 1.37308 -7.9343 1.34903 0.578222 0.225621 
340 1 9.84866 13.6003 6.58829 -7.79692 0.525259 0.243248 -0.183717 
556 1 9.81889 13.6858 11.8445 -7.71434 -0.677937 -1.76383 -0.288682 
160 1 9.88321 17.2641 1.25584 -7.54977 -0.551985 0.467692 1.6028 
376 1 9.82345 17.2508 6.62143 -7.66358 -0.474664 -1.86207 -0.108133 
592 1 10.0846 17.1162 11.9208 -7.72508 -0.452389 -0.413734 -1.25145 
196 1 10.102 20.7632 1.33291 -7.30305 -1.36483 -0.96511 0.807794 
51 1 9.96518 6.29269 -1.24594 -7.95053 -0.494213 1.20333 -0.334058 
3 1 2.48307 2.48543 -1.15097 -8.17164 0.882877 0.480767 -0.980265 
654 1 0.884216 0.82487 16.405 -7.14773 0.126434 -1.19286 0.608692 
870 1 0.735961 0.882291 21.6006 -7.99959 -0.113089 0.342715 0.616784 
1086 1 0.914763 0.912812 26.7904 -7.80888 -0.28141 -0.469691 -0.316578 
1302 1 0.68559 1.00796 32.0475 -8.01369 -0.093998 -0.10854 0.343743 
690 1 0.729246 4.50688 16.3807 -7.9505 -0.27276 -0.303587 0.813505 
906 1 0.964038 4.47353 21.6302 -7.45422 -0.916074 0.738413 -0.0981818 
1122 1 0.659248 4.52511 26.9037 -7.94609 1.59868 0.963763 0.163671 
1338 1 0.81539 4.43792 32.2102 -7.96061 -0.523776 0.0131772 0.567271 
726 1 0.65371 8.23895 16.4716 -8.03964 -0.411006 -1.51077 0.424877 
942 1 0.931102 8.17299 21.6877 -8.19528 -0.598915 -1.55983 0.380041 
1158 1 0.635681 8.23647 26.9061 -7.97292 0.961531 0.310169 0.192663 
1374 1 0.507015 8.12641 31.9722 -7.84004 -0.0875608 0.188592 0.555338 
762 1 0.879492 11.6469 16.4581 -7.9367 -0.920598 0.796773 0.331219 
978 1 0.884328 11.6317 21.6183 -7.27045 0.398756 0.761202 0.379679 
1194 1 0.73641 11.8517 26.7449 -8.21091 -0.27443 -1.42796 0.57855 
1410 1 0.928171 11.745 31.9698 -8.09741 -1.29659 0.418875 1.28497 
798 1 0.849295 15.257 16.4705 -7.70168 0.774313 0.73879 0.342465 
1014 1 1.0701 15.408 21.6591 -7.59233 -1.2422 0.594556 -0.712872 
1230 1 0.782184 15.3061 26.8007 -7.48035 0.0313899 0.346538 0.530104 
1446 1 0.87864 15.4647 32.2474 -7.83776 -0.00320269 -0.409958 -1.09964 
834 1 0.575156 19.0222 16.4787 -8.01818 0.112924 0.0466522 0.98851 
1050 1 1.11674 18.8653 21.6901 -8.13444 0.137444 1.17502 1.32705 
1266 1 0.520924 19.0934 26.7825 -7.28498 1.24446 0.0258359 0.733784 
1482 1 0.50934 19.0047 31.9366 -7.6917 0.505242 1.00435 0.804281 
660 1 4.47751 0.815201 16.5521 -7.90701 -0.0772143 1.27997 0.954473 
876 1 4.68732 0.944831 21.8327 -7.61132 -0.482428 -0.586709 0.497803 
1092 1 4.28348 0.910609 27.0144 -7.37667 0.583028 -0.0512622 -0.60355 
1308 1 4.349 0.650208 32.3494 -7.56416 0.0338063 2.79359 -1.62821 
696 1 4.34527 4.43605 16.5158 -8.18778 -0.156109 0.0364607 -0.00370546 
912 1 4.51183 4.38459 21.7793 -7.94109 1.10754 0.831779 -0.209331 
1128 1 4.30193 4.71436 27.0157 -7.774 0.46377 -1.38685 0.434905 
1344 1 4.32044 4.53884 32.1778 -8.24415 0.113567 0.84479 0.188644 
732 1 4.292 8.12568 16.4874 -7.56001 -0.192937 -1.11171 -0.792825 
948 1 4.4673 7.96983 21.5121 -7.57708 -0.123357 1.62735 1.60907 
1164 1 4.32701 8.17314 26.822 -7.54646 -0.78847 0.48403 0.779142 
1380 1 4.37963 7.9442 32.2479 -8.4304 -0.0798852 0.330957 -0.345149 
768 1 4.3865 11.747 16.6354 -7.87373 0.258395 -0.583634 -0.450925 
984 1 4.33529 11.7922 21.7596 -8.21159 2.145 0.422102 -0.496973 
1200 1 4.37134 11.8378 26.8609 -7.85401 0.755053 0.350771 0.464787 
1416 1 4.40337 11.6727 32.2771 -7.93753 0.327497 0.163513 -2.36618 
804 1 4.6169 15.3912 16.4435 -8.62422 -1.64348 0.702738 0.515898 
1020 1 4.65418 15.3488 21.5578 -8.07325 -0.624539 -1.91104 0.715052 
1236 1 4.18711 15.5125 27.089 -7.93564 2.07589 -0.360979 -1.52903 
1452 1 4.33023 15.3671 32.1469 -7.73117 -0.595072 0.0387854 0.754694 
840 1 4.43678 18.8364 16.7553 -8.34179 0.69753 -0.395732 -1.72218 
1056 1 4.52425 19.1382 21.8194 -7.92431 -0.827645 0.308053 -0.888646 
1272 1 4.44257 18.8933 27.0127 -7.98918 0.227761 0.867076 -0.0216904 
1488 1 4.35418 19.195 32.2403 -7.70732 -0.517098 -1.36119 1.11278 
666 1 8.00174 0.87792 16.6985 -7.75055 0.42398 -0.342371 -1.2148 
882 1 8.37431 1.03375 21.8506 -7.69286 -2.49583 -0.89277 -1.349 
1098 1 7.75271 0.946452 27.0046 -7.97535 1.26455 0.209436 -0.0594254 
1314 1 7.96607 0.912079 32.1372 -7.64908 0.561816 1.16455 1.3496 
702 1 7.87685 4.36311 16.391 -7.71707 0.761066 2.24469 0.721371 
918 1 8.30774 4.4737 21.6906 -7.98405 -1.38513 0.256978 -1.05212 
1134 1 7.85277 4.50016 26.9673 -7.89367 0.0424487 0.263849 -0.519682 
1350 1 7.96031 4.42091 32.2809 -8.03976 0.619272 -0.031467 -1.02015 
738 1 7.94904 8.03984 16.5512 -8.34915 0.00200602 -0.0913783 -0.583535 
954 1 7.93912 8.10216 21.7724 -7.4426 0.929355 1.02884 -0.168202 
1170 1 7.98712 8.24048 26.8993 -7.53309 1.03126 -0.0893255 0.209065 
1386 1 8.28533 8.07087 32.1087 -7.99317 -1.06363 1.31945 -0.40961 
774 1 7.8819 11.64 16.449 -7.68061 0.8482 -0.500451 -0.937661 
990 1 8.17226 11.712 21.5379 -7.70904 -0.83441 -0.455691 0.504565 
1206 1 7.98905 11.7014 26.9134 -8.07431 0.442535 0.526933 -1.76162 
1422 1 8.01402 11.7829 31.8766 -7.73004 -1.56872 -2.29099 1.31762 
810 1 8.05905 15.2347 16.3545 -7.64096 0.461861 1.14036 1.52063 
1026 1 8.01451 15.4843 21.8319 -8.21435 -0.0308508 0.437225 -0.939798 
1242 1 8.02133 15.2241 27.0769 -7.89719 1.12709 0.869301 -0.0901304 
1458 1 7.92177 15.4304 32.278 -7.76459 0.141211 0.299828 1.21666 
846 1 8.03724 19.0525 16.5253 -7.82554 0.750668 0.0988402 -0.73362 
1062 1 7.97928 18.9532 21.6422 -8.0184 1.17163 -1.13917 1.35736 
1278 1 8.03059 19.039 26.9736 -7.22575 0.0355045 0.550899 -1.02275 
1494 1 7.86748 18.9942 32.0777 -7.51096 -0.0795725 -1.33218 -0.0296181 
653 1 0.911294 1.02761 19.0422 -7.85623 -0.409466 -0.127592 0.586651 
869 1 0.851839 0.557057 24.2122 -8.50648 -0.445155 0.449766 -0.53083 
1085 1 0.743219 0.917474 29.3728 -8.05651 0.804262 0.159316 1.28727 
689 1 0.805334 4.48459 19.0616 -7.58609 0.931778 -0.877311 -0.932797 
905 1 0.904852 4.25979 24.2046 -8.09058 -1.60144 0.535332 1.09696 
1121 1 0.689399 4.45355 29.6498 -8.05012 1.01701 -0.113391 -1.05908 