ITEM: TIMESTEP
0
ITEM: NUMBER OF ATOMS
6000
ITEM: BOX BOUNDS pp pp pp
-2.9396555410682801e-01 2.7634965554106941e+01
-3.1745566186771335e-01 2.7658455661867649e+01
-1.2394540743287266e+00 1.1060345407432814e+02
ITEM: ATOMS id type x y z c_peratom fx fy fz 
122 2 5.24467 5.29011 4.39168 -24.2866 -0.615257 1.09388 0.323052 
601 2 5.33682 2.30228 1.68689 -24.3531 -0.147919 1.49873 0.0984594 
602 2 5.14552 2.18007 7.08428 -24.335 -0.178313 -0.806116 -0.3886 
1021 2 2.40576 5.32498 0.896175 -24.2039 -2.23957 -0.52921 4.96435 
1022 2 2.3633 5.23789 6.83955 -23.8007 0.258964 0.214667 0.0374156 
1502 2 2.23794 2.17414 4.41826 -23.9889 0.0405542 -0.92536 -0.933711 
2001 1 1.15559 1.08992 -0.00985838 -7.55775 0.466371 1.06635 -0.00723257 
2002 1 0.777013 0.501274 5.94038 -8.22223 -0.563041 1.51012 -1.55355 
2501 1 3.68837 3.81277 1.83106 -7.24708 0.368904 -1.35634 0.217468 
3001 1 3.28342 4.67805 -0.870618 -8.01687 0.259838 -3.27256 -3.03117 
3002 1 3.66473 3.71207 5.10547 -7.79404 -1.17035 1.34945 0.902546 
3501 1 1.10453 0.846399 2.75477 -7.98629 -0.116639 0.369222 1.10204 
4001 1 4.00507 0.720756 2.61821 -7.50114 0.708902 2.12102 0.388004 
4501 1 0.675039 3.95075 0.151385 -8.20233 0.958268 0.200954 -0.198595 
4502 1 0.877387 3.57043 5.64836 -7.72323 2.41118 -1.49697 1.83026 
5001 1 0.910872 3.49101 3.17103 -7.62684 0.506071 -0.470136 -2.01519 
5501 1 3.86024 1.21712 -0.270371 -7.23693 0.310339 -0.362816 3.8473 
5502 1 3.71212 0.903975 5.46084 -7.4229 0.0421737 0.187551 -0.305865 
4021 1 4.03095 6.43945 2.98696 -7.55337 -0.0701824 0.175712 -1.37786 
2022 1 1.10998 6.48951 5.41184 -7.38402 2.07099 -0.668229 0.388592 
3521 1 0.843137 6.27407 2.72498 -7.62023 -0.106338 0.945721 -0.754881 
1001 2 2.58723 -0.285943 1.26792 -25.1351 -1.70588 1.11038 1.96025 
2102 1 6.46391 0.870254 5.64653 -8.2794 1.0581 0.932863 1.58606 
2101 1 6.51836 1.45152 0.0377836 -8.11184 0.244084 -2.50357 3.37077 
5101 1 6.56111 3.92668 3.31186 -7.83006 0.0211723 -0.19907 -2.91888 
4602 1 6.12665 3.83547 5.77713 -8.02426 1.76409 -0.726481 3.51786 
4601 1 6.55074 4.0427 0.383212 -6.9522 -1.46619 0.0672152 0.28186 
501 2 -0.201972 2.47568 1.53828 -24.5014 -0.0692498 -2.79456 0.52322 
4002 1 3.53742 0.844981 8.03217 -7.36084 -0.0366896 2.34555 1.83535 
22 2 -0.208998 4.91733 4.40002 -25.5296 -3.3561 2.93741 -0.102137 
3601 1 6.80919 1.09384 2.98462 -7.94642 -0.0495599 -0.778278 -0.997634 
222 2 10.5785 5.27647 4.39636 -25.2984 1.60903 -0.977574 0.0654457 
701 2 10.5217 2.58754 1.55641 -24.4416 3.30437 -4.05076 -2.16899 
702 2 10.8053 2.281 7.22537 -25.2363 0.168056 -0.340138 1.40035 
1121 2 8.0533 5.21928 1.41901 -24.7728 -0.281948 0.857934 0.998214 
1122 2 7.9137 5.22454 7.13539 -23.985 -0.389735 0.8194 1.46708 
1602 2 7.74922 2.56077 4.63106 -24.7286 1.40634 -2.30559 -1.74533 
2201 1 12.1937 1.06887 0.208395 -7.62445 0.729333 0.418063 1.01465 
2202 1 12.0868 0.873846 6.05489 -7.38729 -0.153478 -0.971798 -0.155924 
2601 1 9.54986 3.66169 2.96658 -7.3653 -1.65976 1.18632 1.57954 
3101 1 9.14692 3.63189 0.159923 -8.17183 0.288262 1.77441 0.859075 
3102 1 8.83916 4.26048 5.47627 -8.14613 1.11981 -0.550176 1.39601 
3701 1 12.6019 0.54871 3.30206 -7.42858 0.167488 -0.113345 -1.05225 
4101 1 9.70649 0.921829 3.32473 -6.46338 0.233874 -0.367118 -1.12141 
4701 1 11.8856 3.82535 -0.365443 -7.23293 -0.114827 0.038592 3.40357 
4702 1 11.7846 3.60658 5.69673 -7.46553 -0.325848 0.807685 -0.306079 
5201 1 12.6067 3.28303 2.4517 -7.55769 -2.67907 0.472504 -0.543937 
5601 1 9.45506 0.862667 0.480879 -7.54646 -0.776616 -0.540864 0.0731166 
5602 1 9.26388 1.20071 6.04736 -6.57286 -0.954369 1.77682 -2.90578 
2222 1 12.2565 6.4002 5.48885 -7.41792 0.391984 1.01673 1.27999 
2221 1 12.1233 6.5538 0.451422 -7.007 -0.0465615 0.445298 -1.16235 
3721 1 12.1349 6.34814 2.98699 -7.0088 1.39935 0.445411 -0.0856491 
1701 2 13.5301 2.72379 -1.19475 -25.8859 -0.154828 -3.26608 -3.43603 
4121 1 9.54916 6.20583 2.77529 -6.61571 0.285424 1.49044 -2.05269 
1221 2 13.6138 5.19637 1.48092 -25.679 -1.19253 1.05694 1.76858 
1702 2 13.6197 2.3483 4.10578 -24.5098 -0.837016 1.25539 0.574351 
1222 2 13.58 5.15745 6.97782 -24.9802 -0.529919 1.69833 0.0420648 
2021 1 0.867035 6.69427 0.0648132 -7.86554 -0.978977 -0.165941 -1.35703 
5521 1 3.54361 6.94079 0.156874 -8.19824 2.73727 2.97904 -0.426638 
5522 1 3.88317 6.88284 5.56792 -7.6571 0.0868281 -1.79877 1.01249 
2121 1 6.47705 6.75728 -0.269767 -7.91346 0.136738 1.03937 0.646025 
522 2 -0.0971849 7.98637 7.1609 -26.2275 -4.37498 -0.00488678 -2.15518 
1541 2 2.47083 13.5482 -1.13495 -26.6387 0.70937 1.61172 0.0579809 
142 2 5.09593 10.2458 4.34213 -23.7005 1.51631 2.87294 -0.481304 
621 2 5.26099 7.96971 1.26238 -24.506 1.48299 0.934426 0.792748 
622 2 5.3309 8.19079 7.30009 -25.3197 -0.379243 -1.44239 0.212642 
1041 2 2.39562 10.5479 1.76114 -24.3651 2.78788 4.47453 -3.74536 
1042 2 2.30757 10.6509 7.22376 -24.2777 1.86186 0.436773 0.590262 
1522 2 2.5262 7.90784 4.05283 -24.2302 -0.718684 -3.10104 2.72514 
2041 1 1.33057 12.4071 0.489393 -7.676 -2.04696 -1.50322 -0.436281 
2042 1 1.03922 12.0084 5.57125 -7.91767 1.62594 -1.39841 4.65331 
2521 1 3.97652 9.0412 2.75168 -8.51591 0.181422 0.562637 1.60512 
3021 1 4.00838 9.80693 0.205392 -7.55312 -1.20371 -0.974082 -1.88122 
3022 1 3.97019 9.50692 6.03442 -7.77439 -1.94839 0.0277306 -0.763935 
3541 1 1.01231 12.1976 3.14198 -7.37602 -0.198288 -0.618843 -1.08717 
4041 1 3.75695 11.8234 2.99619 -7.74471 0.869358 0.225959 1.58717 
4521 1 1.19722 9.43984 0.100435 -8.18264 0.859295 0.721515 1.32757 
4522 1 1.15898 9.20615 5.86814 -7.47333 1.06438 1.28382 -0.70082 
5021 1 1.38724 9.4035 3.07211 -7.7649 -3.43981 -1.64688 1.49386 
5541 1 4.04871 12.7399 0.274415 -6.04208 -0.0133903 -1.77338 -0.394689 
5542 1 4.22526 12.1924 5.76729 -7.89806 -1.55411 -0.435025 -0.952074 
4621 1 6.64017 9.5845 0.170826 -7.73933 0.704248 -1.79697 -0.928397 
4622 1 6.58671 9.35094 5.84786 -7.63268 0.635146 1.55041 -0.63306 
1542 2 2.5215 13.249 4.52293 -24.6796 0.305461 1.95676 -1.42225 
41 2 -0.220738 10.8207 -0.919468 -24.1016 -0.47128 1.78691 -1.57867 
642 2 5.43577 13.6472 6.84511 -24.7827 0.393601 -0.121738 1.93236 
542 2 -0.22168 13.5391 7.25232 -24.461 -1.67978 -0.993894 0.47255 
2122 1 6.72706 6.81996 5.615 -7.58111 -0.853771 -2.37719 0.224266 
3621 1 7.14335 6.92911 2.55315 -7.16543 -3.09969 -0.319523 -0.137945 
2141 1 6.76638 12.1355 -0.100452 -6.7743 1.19677 0.760416 -0.6959 
3641 1 6.74971 12.5454 2.64424 -7.75708 -0.0495676 -0.254938 0.774066 
2142 1 7.16025 12.178 5.63933 -7.06279 -0.485814 0.89262 -0.166788 
5121 1 6.77404 9.57302 2.9139 -7.62664 -0.996475 0.800568 0.929856 
5622 1 9.48354 6.99186 5.37043 -7.27246 0.59917 -2.38424 1.65053 
5621 1 9.34352 6.68592 -0.0935909 -8.23152 -0.558241 -0.0704972 -0.0850468 
242 2 10.9668 10.8913 4.34059 -24.9577 -0.13573 -4.15416 -2.36809 
721 2 10.9822 8.00336 1.83456 -24.7272 -0.175014 -1.83327 -0.895184 
722 2 10.8494 8.00053 6.80189 -25.8591 0.239719 0.235759 2.19391 
1141 2 7.9649 10.9861 1.42673 -24.9722 -0.320028 0.68872 1.2956 
1142 2 8.12207 10.9241 7.23239 -24.9098 -0.994789 -2.35765 -2.91954 
1622 2 7.9941 8.18296 4.32499 -25.8925 -0.0997987 0.20199 -0.200086 
2241 1 12.4465 12.2548 0.32802 -8.80981 -1.75273 0.00218068 -0.463453 
2242 1 12.5982 12.4149 6.07839 -7.48234 0.633462 0.165181 -1.98326 
2621 1 9.54044 9.09059 3.09614 -7.28618 1.48495 1.75593 -1.687 
3121 1 9.37622 9.65693 0.250549 -8.40832 2.75043 1.39788 1.00399 
3122 1 9.47093 9.49599 5.71018 -6.02026 -1.73114 1.31611 -0.479101 
3741 1 12.0939 12.3125 3.1356 -8.19316 1.44282 0.452779 -0.898128 
4141 1 9.40672 12.2145 3.08424 -7.47538 -0.0550409 -0.0480297 -2.30704 
4721 1 12.4299 9.27352 0.168513 -8.11547 -3.07552 2.39652 0.635022 
4722 1 12.0299 9.36909 5.55633 -7.43574 3.05862 0.0456867 0.544336 
5221 1 12.437 9.39954 2.96318 -8.14614 -1.0786 -0.0802365 -0.426497 
5641 1 9.47031 12.704 0.00298509 -7.4666 0.93754 -1.34228 0.205643 
5642 1 10.067 12.0687 5.662 -6.58444 -3.63965 2.17903 2.70713 
1621 2 8.27651 8.46879 -1.05421 -23.2987 -2.58457 -2.09113 -2.17908 
742 2 10.8308 13.5006 6.99398 -25.2962 0.943263 3.52851 1.05708 
1241 2 13.575 10.8591 1.63239 -24.5834 1.76696 0.0702674 1.30037 
241 2 11.2915 10.9478 -1.2173 -23.0995 -2.18026 -1.26455 0.54465 
4 2 -0.232015 -0.19117 15.4455 -25.4352 0.592086 -2.3113 0.186135 
3602 1 6.09336 0.773597 8.57473 -7.02986 1.47843 0.465151 -0.0114966 
5524 1 3.78751 6.59472 16.7551 -8.15027 2.15728 -0.615654 0.425346 
2104 1 6.67012 1.06908 16.9995 -7.54933 1.59416 -0.0835214 0.476724 
3004 1 4.41109 3.84647 16.4575 -7.81269 -1.61555 -1.72665 1.52006 
123 2 5.31773 5.07464 9.75112 -24.9617 1.51805 0.710874 1.05233 
124 2 5.55178 5.4162 15.6937 -24.7432 1.24028 0.374743 -3.22916 
603 2 5.66346 2.65383 13.1052 -25.1235 3.04764 -3.55128 -2.84321 
1023 2 2.67775 5.01845 12.6446 -24.5205 1.34426 2.48216 -2.3204 
1503 2 2.65321 2.25547 9.65898 -24.5205 -0.686737 1.2471 1.03571 
1504 2 2.55374 2.35506 15.3969 -24.9186 1.06299 0.513961 0.369405 
2003 1 0.82053 0.824649 11.3262 -7.08825 1.97932 0.927209 1.58774 
2502 1 4.10793 3.74018 8.34824 -8.35732 -1.96689 0.0249155 -2.07056 
2503 1 4.00463 3.57545 13.7039 -7.2367 -4.35812 1.74426 2.16959 
3003 1 4.12811 3.68344 10.9076 -7.09351 -1.58447 1.62824 1.2151 
3502 1 0.992886 1.06954 8.70676 -7.52917 -0.506604 0.573524 -1.44539 
3503 1 1.37939 0.918294 14.1583 -7.39238 0.807947 1.03931 -0.0568934 
4003 1 4.17857 0.971496 14.1042 -7.13116 -0.560061 0.138415 -0.182817 
4503 1 1.17848 3.65843 11.0104 -7.96694 0.576557 0.409792 0.279179 
5002 1 0.814784 3.94237 8.13672 -7.45524 3.95987 -1.8994 -0.114299 
5003 1 1.25 4.09728 13.8834 -8.34589 -2.01073 -2.61258 1.03996 
5503 1 3.62024 1.02365 11.1477 -7.5866 0.334466 -3.61095 -0.200245 
2004 1 1.33032 1.02471 17.0196 -7.62146 -2.20531 0.165716 -0.969839 
3622 1 6.53538 6.38736 8.45796 -7.80922 1.1395 1.07093 -1.40766 
23 2 -0.138455 5.01547 9.67401 -25.2869 -2.12539 1.44233 1.59668 
5504 1 3.92267 1.14458 16.8968 -7.81641 -0.0119891 0.19142 -0.433758 
24 2 0.127242 5.59363 15.1879 -24.0823 -2.73581 -2.02491 0.832821 
4023 1 4.47276 6.24126 13.7977 -7.56139 -0.805219 0.183334 1.61781 
2024 1 1.25693 6.39904 16.8936 -7.88771 -0.485102 1.72566 -0.115902 
503 2 -0.281997 2.46777 12.6 -24.4314 2.21049 2.14431 -3.23581 
3522 1 1.06255 6.49715 8.22238 -7.70047 0.971042 0.107577 1.52886 
4504 1 1.41655 3.80624 16.7793 -6.99021 0.17582 -0.649459 -1.17993 
104 2 5.2207 -0.235609 15.5643 -25.7688 1.63199 -1.54622 0.269812 
2224 1 12.475 6.64991 16.6912 -7.27131 -2.78859 -5.1201 1.22942 
2204 1 12.3192 1.27489 17.1196 -6.44513 0.123636 -1.36553 1.13861 
204 2 11.1111 -0.240866 15.6437 -26.767 0.100684 -2.3302 0.313791 
3723 1 12.4176 6.42022 13.6537 -7.24183 -0.770464 1.45549 1.40065 
4704 1 12.2233 3.77 17.0087 -7.29483 0.655354 2.10419 -0.0264687 
3603 1 7.00242 1.21192 14.3514 -7.08767 0.577771 1.82696 -0.64096 
5102 1 6.95036 3.71786 8.73362 -7.49711 -0.810269 -0.352289 -1.2578 
4603 1 6.87665 3.71729 11.6173 -6.70734 1.56734 1.50012 -0.536679 
5103 1 6.83606 4.19722 14.3069 -7.09258 0.161437 -1.93284 -1.13725 
2103 1 6.71536 1.13233 11.5063 -7.24992 0.442652 -0.687414 -0.470505 
223 2 11.0791 5.22398 9.88945 -25.071 -0.994915 0.680488 -0.650554 
224 2 11.0505 5.0335 15.6328 -24.4935 -1.68266 3.64736 0.838458 
703 2 11.1098 2.66523 13.082 -24.567 -1.73424 -2.43898 -3.11838 
1123 2 8.39929 5.47588 12.7478 -25.2083 -1.76951 -2.15657 0.53977 
1603 2 8.29008 2.35326 9.99168 -25.147 -1.84084 2.09134 0.367586 
1604 2 8.41423 2.6919 15.591 -25.2953 -1.28357 -2.60752 1.12405 
2203 1 12.2691 1.10366 11.923 -6.87699 0.653474 0.0489922 -0.108314 
2602 1 9.57753 3.76584 8.70294 -7.18752 0.318454 -0.19344 -1.57495 
2603 1 9.6127 3.98276 14.3514 -7.95649 0.402343 -2.06972 -2.27338 
3103 1 9.84832 4.10977 11.4066 -7.18521 -0.475392 -0.802116 1.51459 
3702 1 12.0193 0.792659 8.91502 -7.01865 0.821956 2.03864 -1.39484 
3703 1 12.6599 0.918726 14.716 -6.67257 1.82125 1.66562 -3.06034 
4102 1 9.14149 1.02313 8.35641 -6.95423 0.0384508 1.26267 3.81686 
4103 1 9.97686 1.15883 14.4043 -6.55391 -0.942097 3.12868 -3.03554 
4703 1 12.5546 3.67428 11.4093 -8.21855 -1.0488 1.95903 1.12829 
5202 1 12.219 3.64525 8.68472 -8.13343 0.195208 1.49451 -2.20442 
5203 1 12.3775 3.89381 14.3027 -8.72635 1.3603 -0.0466133 -1.08778 
5603 1 9.69279 1.26422 11.2193 -7.64321 -1.47083 -0.437872 1.20019 
4122 1 9.53924 6.49703 8.36556 -7.93256 -0.899242 -0.268936 -0.541579 
5604 1 9.74286 0.928209 16.8257 -6.27518 -2.64664 1.80066 2.72618 
3104 1 9.63052 3.91508 17.0922 -6.85362 1.41204 -0.0365476 -0.852322 
4123 1 9.82196 6.42663 14.1318 -6.98604 1.10477 3.10273 0.0476202 
3722 1 12.2077 6.51665 8.13804 -6.90205 0.2155 -0.975282 0.262665 
2123 1 6.76736 6.55239 11.1348 -7.30241 1.27818 0.207946 1.40121 
4604 1 7.22175 4.18122 16.8416 -7.01115 -2.94913 -1.35087 0.28609 
1703 2 13.6523 2.66846 9.89436 -24.4745 1.96779 -3.95956 -0.826111 
1704 2 13.6276 2.77181 15.6288 -24.4489 2.16948 -4.29893 1.81506 
203 2 10.9513 -0.298206 10.3172 -25.3799 0.130464 -1.69833 0.0999493 
3024 1 3.82744 9.32936 17.1437 -7.43221 -0.894167 0.477838 -0.0772677 
44 2 -0.257509 10.8227 15.6147 -25.3681 0.0896842 -0.211658 -0.147773 
4524 1 0.977618 9.17824 16.8349 -7.36459 1.11937 1.88978 -2.26579 
2044 1 1.21578 12.1884 16.7439 -6.82039 -0.0566485 -0.84989 0.472791 
2124 1 6.51478 6.76296 17.0702 -8.57442 0.831896 2.0287 1.72641 
543 2 -0.204193 13.4621 12.6849 -25.385 -0.605112 2.14613 2.64784 
4022 1 3.87282 6.77423 8.5028 -7.66618 -0.538621 -0.712803 -0.13667 
3523 1 1.55912 6.72693 13.9462 -7.72372 -0.226835 -0.770096 0.991541 
5544 1 3.83707 12.2173 16.9467 -7.31342 1.1169 0.578328 0.928297 
2023 1 1.43413 6.73037 11.3602 -7.06723 -0.06887 -1.40268 -1.24452 
43 2 -0.198954 10.8284 9.94615 -24.9957 -0.415673 -0.254782 -0.468174 
5523 1 4.13608 7.06749 11.3013 -7.00696 1.27454 -5.82234 -0.226705 
143 2 5.29667 10.9941 9.95573 -25.0499 2.55329 -1.50387 -0.132896 
144 2 5.31261 10.9498 15.8541 -25.228 -2.49583 -2.54346 -4.01095 
623 2 5.46296 7.86843 12.713 -24.9945 1.26334 2.73096 0.986296 
1043 2 2.41242 10.9031 12.7169 -25.0606 3.72113 -2.6604 2.29626 
1523 2 2.77558 7.97709 10.1382 -24.6672 -2.98882 3.83259 -2.8806 
1524 2 2.63923 7.89655 15.4573 -24.8239 0.123744 3.3083 -0.00781626 
2043 1 1.34493 12.2385 11.5705 -7.61999 -0.879983 1.48842 -3.56016 
2522 1 4.14147 9.67659 8.7393 -7.38343 -2.38917 -2.45495 -0.654933 
2523 1 4.18612 9.27929 14.3732 -6.75253 0.743264 -1.21443 0.502233 
3023 1 3.85747 9.50505 11.6279 -6.70373 0.34596 1.37675 -0.614219 
3542 1 1.24818 12.2465 8.55924 -8.16863 -1.53338 -1.25436 -0.527679 
3543 1 1.37882 12.4165 14.1363 -7.68088 -3.26133 -1.74323 -2.36393 
4042 1 3.90651 12.2667 8.82111 -6.34197 -0.247568 0.505886 -4.14056 
4043 1 3.9754 12.1852 14.3407 -6.23032 -0.322428 -0.69271 -1.38466 
4523 1 1.16376 9.46796 11.1988 -7.82925 0.44718 0.990171 0.689423 
5022 1 1.08079 9.37933 8.63171 -7.7778 1.15427 -0.396588 -0.327096 
5023 1 1.39635 9.34459 14.1517 -7.2243 -0.946935 1.6781 -0.706801 
5543 1 4.21371 12.2652 11.1806 -7.03476 -0.799662 2.10294 4.96947 
2144 1 6.60386 12.3353 16.6998 -7.45204 0.805032 -0.504618 2.3426 
3643 1 6.5883 12.7027 13.7984 -7.55347 2.54137 -1.34018 0.622016 
3642 1 6.64078 12.5841 8.3565 -7.89166 0.168336 -1.57943 -0.307701 
523 2 -0.193375 8.26244 12.3988 -25.1696 1.05528 -3.55972 0.0584767 
4624 1 6.3923 9.58758 17.3695 -7.7406 0.95932 0.027026 -0.909976 
2622 1 9.41449 9.28786 8.19391 -7.40355 0.181768 0.545397 2.26635 
4724 1 12.0044 9.04442 16.885 -7.97026 0.435712 3.71112 -1.2471 
5122 1 6.73971 9.24652 8.68808 -7.48361 1.02734 1.2073 0.629964 
2623 1 9.59076 9.59522 14.096 -7.57038 1.48474 -2.315 -0.248179 
743 2 10.9422 13.2404 12.4204 -24.4763 1.36279 3.69285 2.19627 
3124 1 9.21084 9.54537 17.0363 -7.82838 0.791243 2.24204 0.22292 
2244 1 11.9923 12.1998 17.0283 -7.49054 -0.240291 -1.34668 -1.41679 
5643 1 9.62631 12.293 11.1171 -7.62185 -0.0246401 -1.10257 -1.33691 
2243 1 12.4624 12.2255 11.2203 -6.81726 -0.731434 -1.08235 2.5144 
5624 1 9.48549 6.88088 17.044 -8.22284 -0.000769307 -0.358185 -0.382616 
5123 1 7.05966 9.77735 14.5968 -7.14781 -1.91045 0.881371 0.221298 
5644 1 9.21187 12.8147 16.6708 -7.32768 0.15029 -2.99221 -0.632263 
2143 1 7.13242 12.2154 10.9133 -7.54978 -2.58318 -0.0551999 1.15068 
3623 1 7.22324 6.74328 14.4407 -7.46099 -1.58698 1.65153 -1.85289 
4723 1 12.2512 9.3141 11.4489 -7.24561 -0.232639 1.99521 -2.28151 
3123 1 9.39029 9.39623 11.0105 -7.5826 1.29935 0.280295 0.608599 
4623 1 6.81124 9.51596 11.8285 -7.06987 -2.0894 -1.36459 -0.948749 
1623 2 8.44183 7.82135 9.75283 -24.5882 -2.84266 0.979279 -0.217158 
4143 1 9.38584 12.1683 13.8706 -7.52078 1.31308 2.20211 0.537115 
1143 2 7.88299 11.0817 12.7509 -25.2629 1.32334 -0.767377 0.608083 
5623 1 9.60173 6.68547 11.2888 -8.25498 1.00799 0.952607 0.0165142 
1624 2 8.05911 8.25202 15.7657 -24.3663 0.356606 -0.487196 -0.357419 
723 2 10.8471 8.12903 12.7451 -24.7521 0.389174 -0.825836 -0.606508 
5223 1 12.4825 9.30964 13.8082 -7.56918 0.0830145 0.0208448 3.85721 
2223 1 12.602 6.69131 10.9316 -7.32328 -0.664433 -1.80732 -0.365166 
243 2 10.6991 10.7739 9.80695 -24.7897 2.42099 -0.30992 -0.909335 
3743 1 12.2323 12.0321 14.332 -8.03795 0.178573 -0.126344 -1.79583 
3742 1 12.5683 11.9007 8.74085 -6.18617 -1.85144 0.0728562 -1.26173 
244 2 10.8637 10.7872 15.4799 -23.9758 -1.54496 0.185933 0.696208 
5222 1 12.128 9.27276 8.58885 -7.0145 0.568579 0.212137 -0.120001 
4142 1 9.39958 12.2476 8.30251 -8.54901 1.47677 0.726166 1.94459 
1724 2 13.3834 7.79389 15.3257 -24.367 4.12862 2.83067 -2.91034 
125 2 5.06538 5.09969 21.0612 -24.7923 0.727077 1.85866 -0.397267 
604 2 5.4213 2.44558 18.0134 -24.7681 -1.19005 1.67752 1.77523 
605 2 5.1391 2.36677 23.7184 -25.5013 0.795325 2.07204 1.38553 
1024 2 2.69363 5.22516 18.234 -25.5218 -2.28852 -0.723416 0.52689 
1025 2 2.61499 5.41796 24.1285 -24.6553 2.49241 -2.88191 0.486762 
1505 2 2.50045 2.19329 21.1578 -24.3874 0.489503 1.30188 -0.862589 
2005 1 1.3888 0.926608 22.6025 -7.05624 -1.89299 0.359727 -0.37461 
2504 1 3.96065 3.82498 19.3403 -7.77774 1.76512 -0.941805 0.772661 
2505 1 4.03504 3.62901 25.2831 -6.54661 -0.555967 1.26462 0.114823 
3005 1 3.68467 4.03227 22.3875 -7.5742 -0.66986 -1.8015 -0.00747872 
3504 1 1.0665 1.08061 19.7464 -8.24119 0.00663517 -0.772081 0.265054 
3505 1 1.17608 1.0324 25.3348 -7.20681 0.526647 -0.303532 1.35306 
4004 1 4.25181 0.905805 19.7052 -7.52573 -4.16862 0.827118 -2.02041 
4005 1 4.00267 1.06123 25.1058 -7.8466 -1.09429 -1.82861 1.55158 
4505 1 1.14321 3.60214 22.4652 -8.05378 -0.176371 -0.272578 0.217406 
5004 1 1.24002 3.71428 19.4947 -7.0554 -0.530966 0.387891 1.59831 
5005 1 1.38552 3.65693 25.3606 -7.73197 -0.318163 2.43337 0.250002 
5505 1 3.89056 0.792345 22.4747 -7.92879 0.448949 0.671378 -0.695825 
2105 1 6.54671 1.16633 22.5261 -7.22458 0.881771 -1.42856 -0.14278 
4605 1 6.26802 3.84517 22.3886 -7.46542 2.41384 0.421362 -0.837596 
3525 1 1.27784 6.62829 25.5752 -7.83432 -0.598927 -0.686525 -1.91061 
126 2 5.68686 5.44683 26.6183 -26.0735 -1.4773 -1.62178 1.9736 
5105 1 6.67747 4.00676 25.1349 -6.58506 0.790978 0.742866 0.0389412 
3604 1 6.52006 1.89572 19.8449 -6.7759 0.467805 -2.88928 -0.778117 
2025 1 1.18446 6.42131 22.867 -8.17651 1.07239 1.9818 0.242928 
4024 1 3.96268 6.52474 19.674 -7.35378 3.09637 0.483869 -0.195223 
4025 1 3.97465 6.60589 25.5207 -7.35688 1.14256 -1.94855 -2.77558 
3524 1 1.69669 6.43525 19.9817 -6.19599 -3.44152 -0.880011 1.36348 
25 2 0.210606 5.18127 21.3838 -24.5553 -1.96122 0.202801 -4.32293 
106 2 5.17998 -0.215145 26.6038 -24.6085 2.24058 -1.30131 0.336072 
504 2 -0.24634 2.4247 18.361 -25.0325 2.00958 1.69437 -1.6493 
105 2 5.30731 -0.223821 21.0721 -24.5131 2.814 -1.51774 1.39415 
505 2 0.0530984 2.55029 24.0696 -24.6494 -2.15091 -2.70298 -0.24805 
1105 2 8.02512 -0.151607 23.9799 -24.5594 -0.467698 -1.03701 -2.53196 
3605 1 6.73441 0.978875 25.2429 -7.74165 -0.96812 1.34554 1.85846 
5104 1 7.06488 4.33888 19.5764 -7.01464 -2.9551 1.47005 1.35601 
225 2 11.063 5.27107 21.0676 -25.2701 -3.02251 0.84275 -1.14799 
704 2 11.0115 2.5403 18.4743 -26.2102 -2.11213 -1.41368 -0.597654 
705 2 10.9196 2.4153 23.711 -24.6028 -1.12977 0.32172 0.778787 
1124 2 8.11128 5.64275 18.2353 -24.7747 1.86977 -2.07346 1.23939 
1125 2 8.17919 5.50102 23.7074 -24.4606 1.35334 -2.20192 2.6014 
1605 2 8.02283 2.85503 20.9533 -25.4535 2.16403 -0.811942 1.81372 
2205 1 12.1929 0.705327 22.6741 -7.66044 -2.45844 2.19798 -1.56181 
2604 1 9.61285 3.9592 19.6812 -6.60504 -0.284026 -0.554685 1.51484 
2605 1 9.38491 3.84388 25.5142 -6.73911 1.29049 0.06375 -1.66153 
3105 1 9.50366 3.94434 22.5252 -7.73809 -1.42586 1.01502 0.354094 
3704 1 12.2862 1.04938 19.7969 -7.58801 -0.378854 0.295634 1.34028 
3705 1 12.351 1.30099 25.2626 -7.58835 -3.41788 -1.46738 -0.336139 
4104 1 9.51571 0.906722 19.6457 -6.83552 -1.0138 0.434715 -0.899743 
4105 1 9.53058 0.953669 25.2294 -8.14577 0.389655 2.78404 -0.917111 
4705 1 12.1409 3.85052 22.37 -8.27187 1.19465 -1.64309 0.108395 
5204 1 12.1261 3.96004 19.7039 -7.11262 3.47353 -0.552232 0.517784 
5205 1 12.4991 4.00348 24.9333 -7.1101 -3.57856 -3.03025 3.62108 
5605 1 9.34705 1.31321 22.2614 -7.14307 0.583312 -1.2181 1.65508 
3724 1 12.4097 6.65423 19.3065 -7.61503 -1.26333 1.54875 2.48884 
3725 1 12.5519 6.6597 24.9052 -7.84161 -1.48482 1.81929 1.98901 
2225 1 12.4261 6.62036 22.1 -7.80768 1.80254 1.19459 0.56829 
226 2 11.0344 5.44276 26.6669 -25.3887 -2.57105 -0.945634 -2.00451 
1705 2 13.4844 2.24283 21.3461 -24.3764 -0.115329 -0.2672 -1.23643 
1204 2 13.6054 -0.13049 18.3816 -26.1508 -0.365763 -0.639666 -1.71588 
1225 2 13.5376 5.1816 23.6952 -24.6245 4.88663 1.67329 -2.2639 
1706 2 13.5053 2.36171 26.6772 -25.0943 2.36085 2.81294 0.0537157 
206 2 10.7431 -0.193136 26.6229 -24.8104 0.418932 -1.00261 2.19282 
46 2 -0.189847 11.112 26.664 -24.637 -0.647233 -1.5456 0.858693 
3624 1 6.55233 7.11174 20.1033 -7.22441 -0.673339 -2.35852 -2.06997 
5525 1 4.02149 6.72476 22.7153 -7.4697 -0.93695 0.150306 -0.503195 
145 2 5.57264 11.3347 21.0467 -24.3127 -2.99628 -5.3673 2.1262 
624 2 5.1213 7.98323 18.4791 -24.9538 0.0292458 2.26709 0.684663 
625 2 5.56842 8.23334 23.8942 -25.5267 0.01025 -0.567617 -0.131917 
1044 2 2.5199 10.9219 18.2433 -25.6119 -1.5101 -1.53769 0.817158 
1045 2 2.60882 10.7755 24.0781 -23.7661 1.20398 0.212937 -3.14414 
1525 2 2.77506 8.16801 21.3811 -25.27 0.987354 -1.87642 -3.70407 
2045 1 1.26562 12.1118 22.2595 -7.22455 0.0219871 -0.575469 0.629922 
2524 1 3.93428 9.59246 20.0461 -6.82173 0.81834 -0.00942505 -1.22421 
2525 1 4.54468 9.23766 25.4341 -7.60907 -2.4257 2.95697 1.81196 
3025 1 4.06246 9.4543 22.7196 -7.25859 -1.77891 1.19925 1.41947 
3544 1 0.821222 11.9353 19.6049 -7.08725 1.91873 -0.044065 -0.483464 
3545 1 0.971202 11.9736 24.8686 -8.21914 -0.407985 0.73442 3.06489 
4044 1 3.69867 12.3474 19.5753 -7.78373 1.32924 -0.191503 0.104303 
4045 1 3.70181 12.5069 25.0328 -7.92604 -1.06698 -3.65209 0.756847 
4525 1 1.26066 9.28663 22.3142 -8.27756 -2.04802 0.885153 2.6542 
5024 1 1.33459 9.00187 19.4343 -6.22902 0.585417 1.4495 0.974727 
5025 1 1.6278 9.20376 25.3295 -8.31694 -0.951234 2.31357 -3.18138 
5545 1 4.15156 12.4422 22.28 -7.65636 -0.150186 -0.998765 0.977873 
3645 1 6.37356 12.3688 25.5359 -6.93569 0.582446 0.892609 1.22205 
3644 1 6.63283 12.5525 19.7609 -8.66114 1.27608 -0.949477 -2.18946 
1526 2 2.82404 8.04425 26.5671 -24.8602 0.789023 -0.242888 4.90145 
525 2 0.0430771 8.11608 24.1021 -24.5133 -1.45579 0.602017 -1.13914 
1545 2 2.59522 13.4497 21.1582 -24.8543 -1.61925 2.38655 -0.487838 
524 2 -0.0364648 7.90458 18.1556 -25.3621 -1.81745 -0.758813 1.42718 
3625 1 6.80414 6.98417 25.4667 -7.74578 -0.718595 -1.9076 -1.48323 
2125 1 6.72209 6.74303 22.8171 -7.53634 1.5622 -0.230535 -1.905 
1244 2 13.4274 10.7192 18.0373 -24.5864 1.65664 1.61597 -0.209154 
5625 1 9.84512 6.74113 22.4243 -7.41009 -1.91731 -0.163413 0.924875 
4125 1 9.56116 6.79765 25.1061 -7.35 0.444 -0.696386 0.018466 
4124 1 9.46023 6.70741 19.89 -7.93123 -0.167897 0.359878 -1.71562 
5124 1 6.79479 9.6958 19.9478 -6.97796 0.417152 2.15885 -1.00487 
2145 1 6.83216 12.2284 22.7441 -7.91034 0.935129 0.743633 -1.60622 
5125 1 7.38619 9.66604 25.1701 -6.66315 -0.363492 0.357172 -0.682788 
4625 1 6.70819 9.55247 22.5077 -7.1847 1.52368 0.0500955 -0.224931 
245 2 11.1666 10.9717 20.8624 -25.8085 -3.22798 0.238669 1.62505 
724 2 10.8164 7.97183 18.5023 -24.7449 0.191797 1.6447 -0.596192 
725 2 11.1528 8.08547 23.7263 -24.9903 -1.11062 -0.22472 0.118155 
1144 2 7.83 11.0597 18.3414 -24.3661 2.26447 -0.284838 0.227644 
1145 2 8.33321 10.8333 23.4775 -25.0487 0.725471 0.197954 3.0172 
1625 2 8.10249 8.16576 21.0986 -25.3546 1.17895 1.49016 0.977663 
2245 1 12.2638 12.5993 22.3302 -6.77832 1.4788 -0.657264 0.457531 
2624 1 9.56766 9.53152 19.8001 -6.94263 0.274043 -0.349002 -1.94122 
2625 1 10.0654 9.53389 25.0414 -7.02714 -0.356573 0.547979 -0.20094 
3125 1 9.58644 9.57167 22.2924 -6.90712 -0.0693465 -2.22387 0.818238 
3744 1 12.3511 12.254 19.6454 -6.86587 2.24952 0.881756 -0.491277 
3745 1 12.1172 12.3265 25.1081 -7.60858 0.342982 0.430428 -1.44176 
4144 1 9.46818 12.4734 19.5975 -6.9675 -1.15654 -0.376514 -1.42578 
4145 1 9.44789 12.4726 25.0026 -7.90714 -1.08473 0.279391 0.263467 
4725 1 12.2877 9.53163 22.3801 -8.58104 2.56278 0.420262 1.1075 
5224 1 12.3695 9.62758 19.6155 -8.0448 -0.000416943 -2.59803 0.197377 
5225 1 12.6922 9.53083 25.598 -6.865 0.730919 -0.0375189 -3.0393 
5645 1 9.83552 12.1251 22.204 -7.04782 -3.32507 1.96304 1.54302 
1746 2 13.59 13.6559 26.4546 -25.382 0.163974 -0.318241 1.41588 
1626 2 8.10834 8.17014 26.6189 -25.3667 2.99223 0.284862 1.12893 
246 2 10.8019 11.1192 26.4345 -26.035 0.121968 -1.95399 1.78644 
1245 2 13.5334 11.0071 23.9563 -24.346 0.374124 -0.196117 -0.500261 
1506 2 2.62109 2.22078 26.7403 -24.9001 0.0503739 3.50906 -2.61346 
27 2 -0.0753701 5.26676 31.9499 -24.5675 -1.74325 2.21026 1.74676 
107 2 5.35643 -0.0985013 32.1899 -25.5961 0.240975 -0.577377 0.316476 
506 2 0.0107953 2.5227 29.6589 -25.0093 -0.573767 -1.21857 -0.434726 
26 2 0.0367793 5.24733 26.8815 -25.0128 1.66813 -0.903947 -1.5291 
127 2 5.4558 5.25012 32.1161 -25.5571 -1.11638 -0.543532 0.152372 
606 2 5.42706 2.49843 29.3556 -25.6851 0.0797624 1.5101 1.67818 
607 2 5.13995 2.2589 35.1515 -25.3739 0.504035 4.14504 -0.850512 
1026 2 2.76524 5.39881 29.5479 -25.7736 0.977413 -1.16719 -1.60968 
1027 2 2.41012 5.02476 35.159 -25.0702 2.2123 3.05553 -2.22692 
1507 2 2.49348 2.52474 32.3944 -24.8119 0.756266 -0.0974868 -0.646995 
2006 1 1.36566 1.28822 28.2509 -8.29141 -0.594669 -2.90407 0.278966 
2007 1 1.03891 1.46908 33.9174 -7.7389 2.08996 -2.90143 -1.01138 
2506 1 4.15821 3.81443 30.9232 -6.91581 -1.29843 1.69613 0.900075 
3006 1 4.58094 4.26555 28.3027 -6.14246 -1.45653 -0.231205 -0.62183 
3007 1 3.7867 3.6425 33.8915 -7.7104 -1.62106 0.58043 -0.268369 
3506 1 1.05506 1.01718 31.0813 -7.67142 3.1088 4.79333 -1.93526 
4006 1 3.86053 1.29217 31.0475 -7.35724 -0.384157 -1.79512 -0.707937 
4506 1 1.83701 3.88587 28.1672 -6.72912 -0.407227 0.0496498 -0.697373 
4507 1 0.71988 3.83622 33.3803 -7.5287 1.7444 1.50321 1.61358 
5006 1 1.3258 3.80658 30.8499 -7.97656 1.11344 0.96948 0.246279 
5506 1 4.12701 1.28223 27.9847 -8.69838 0.709755 -1.26129 0.548617 
5507 1 4.05655 0.911481 33.9105 -7.73317 -1.64574 -0.647015 -1.13594 
2026 1 1.27225 6.57155 28.1054 -7.43475 0.907502 1.82871 1.43019 
3526 1 1.09468 6.62504 30.7145 -7.88894 0.976978 0.781368 0.899549 
4607 1 6.50316 3.51905 33.3716 -7.23603 1.0028 0.855266 0.589775 
5527 1 3.92638 6.58263 33.5736 -7.49983 0.358598 0.536373 -0.179201 
2127 1 6.56355 6.3748 33.6987 -7.46187 0.355224 -0.304189 2.17342 
7 2 -0.146718 -0.0996966 32.2457 -24.3153 -3.30477 -4.30558 4.52635 
1007 2 2.19044 -0.314282 35.0473 -23.9687 3.26899 2.95283 2.84723 
1107 2 8.2803 -0.141404 34.9894 -25.2213 -3.10407 -2.02536 1.35634 
1606 2 8.15228 2.39832 26.7745 -25.0774 1.82043 0.396495 -2.79344 
2126 1 7.01234 6.52145 28.2893 -6.80981 -0.508484 -0.206047 -0.665285 
2106 1 7.15436 0.921419 28.1329 -7.35632 -3.74017 1.39492 -1.87291 
4606 1 6.96969 3.63777 27.9798 -7.14081 0.431701 0.947586 0.410847 
2107 1 7.01277 0.849603 33.3569 -7.50447 0.734628 0.510175 1.28303 
5106 1 6.83085 3.95842 30.6407 -7.55924 0.825272 0.480571 1.69722 
3606 1 6.7027 1.35483 30.8487 -7.61569 0.84882 -0.525703 -0.60364 
227 2 10.7541 5.28191 32.4296 -23.6528 0.851138 0.927739 -1.07563 
706 2 10.9419 2.58904 29.514 -24.7134 2.19804 2.25867 -1.79585 
707 2 10.592 2.60276 34.921 -23.4733 3.33833 -2.77087 2.41478 
1126 2 8.25219 5.10456 29.5257 -24.993 -0.25451 0.783803 -3.48552 
1127 2 7.95745 5.20815 35.0778 -24.6273 -0.80092 0.961601 1.96067 
1607 2 8.16715 2.46584 32.263 -23.7113 -1.38773 0.716847 -0.814672 
2206 1 12.3563 1.16519 28.1587 -8.06785 -0.595523 -0.21453 0.839626 
2207 1 12.3334 1.23602 34.0346 -7.26123 0.746747 -0.193126 0.868211 
2606 1 9.68351 4.0436 30.9786 -8.7379 -1.23157 -1.16631 0.626152 
3106 1 9.74551 4.03017 28.092 -6.92977 -1.35066 -0.561581 1.79453 
3107 1 9.36031 3.9297 33.9236 -9.27689 -1.63171 0.859657 -2.46913 
3706 1 12.6067 1.34817 31.1837 -7.84584 -4.07938 -3.20183 -4.50114 
4106 1 9.6594 1.24967 30.6404 -8.79795 0.649283 1.03224 5.1448 
4706 1 12.2625 4.10002 27.7652 -6.74893 1.62021 -2.5985 0.0530882 
4707 1 12.1351 3.77235 33.2279 -7.57611 -0.163773 -0.172522 0.959951 
5206 1 12.4261 4.10776 30.4261 -7.08711 -1.78284 -1.4089 1.88474 
5606 1 9.65705 1.23725 28.2064 -7.65438 0.878185 0.166281 -2.7816 
5607 1 9.79014 1.04181 33.4773 -8.73774 -4.12165 4.1807 2.7277 
2226 1 12.1814 6.67019 28.0753 -7.70303 2.21949 2.61635 -0.769458 
1106 2 8.33153 0.0507921 29.6096 -24.3203 -1.70435 -5.02602 -1.18868 
2227 1 11.9893 6.36214 33.9037 -8.19474 0.869585 1.02008 0.285858 
1226 2 13.597 5.47447 29.3997 -25.1442 0.769741 -0.125842 0.127763 
1207 2 13.5108 -0.212282 35.2851 -24.5953 -0.232396 -0.484039 -2.06826 
1227 2 13.456 4.8965 35.1677 -24.5951 0.766986 3.39735 -2.48357 
207 2 10.7679 -0.143595 32.1992 -24.2188 5.5971 -2.92546 -0.567159 