# LAMMPS data file written by OVITO Basic 3.8.4

2 atoms
2 atom types

0.0 3.02 xlo xhi
0.0 3.02 ylo yhi
0.0 3.02 zlo zhi

Masses

1 58.6934  # Ni
2 178.490  # Hf

Atoms  # atomic

1 1 0.0 0.0 0.0
2 2 1.51 1.51 1.51
