# LAMMPS data file written by OVITO Basic 3.8.4

4 atoms
2 atom types

0.0 4.289 xlo xhi
0.0 4.289 ylo yhi
0.0 4.289 zlo zhi

Masses

1 47.880   # Ti
2 178.490  # Hf

Atoms  # atomic

1 1 0.0 2.1445 2.1445
2 1 2.1445 2.1445 0.0
3 1 2.1445 0.0 2.1445
4 2 0.0 0.0 0.0
