ITEM: TIMESTEP
0
ITEM: NUMBER OF ATOMS
9000
ITEM: BOX BOUNDS pp pp pp
-4.4827170980253506e-01 1.8422271709802914e+01
-4.8244897904147876e-01 1.8456448979041134e+01
-5.0836174704417090e+00 3.1602761747045520e+02
ITEM: ATOMS id type x y z c_peratom fx fy fz 
362 3 3.77172 3.35995 -0.252587 -26.4592 -1.4551 -2.04965 -0.233855 
422 3 3.46723 7.5631 -0.18861 -28.4589 0.422069 1.65228 -1.23308 
662 2 7.05276 3.50445 -0.34188 -23.8981 1.42255 4.46889 1.28025 
722 3 7.37862 6.97879 0.319279 -27.2932 -1.91899 1.8846 -1.91216 
1501 3 2.15307 1.33005 -2.39745 -27.725 -2.96152 0.080419 -0.393355 
1561 3 1.88339 5.2646 -2.735 -28.6125 -0.662074 -1.1113 -3.06848 
1801 3 5.34286 1.7249 -2.90248 -28.3094 0.708044 -0.601334 -0.1464 
1861 3 5.53755 5.87282 -3.1823 -29.5417 0.193581 -0.787482 1.01698 
8101 1 3.83626 5.14336 -3.89031 -6.56935 -0.702884 1.86216 1.56013 
5221 1 6.69645 7.79427 -3.52627 -7.33272 0.329257 1.8219 0.91968 
6061 1 2.23711 3.37167 -2.02364 -8.40155 -0.0614733 0.229245 1.91234 
4801 1 3.47676 1.72341 -4.10443 -8.38921 -0.228217 -0.873937 0.907697 
3661 1 2.14239 6.73669 -1.39523 -7.7511 0.223191 -0.968359 0.906125 
6361 1 3.45149 4.94207 0.957633 -8.11133 -1.98715 0.598939 -2.02117 
4620 1 4.83991 7.23109 -1.7609 -7.10018 -1.46023 -2.32795 -1.48465 
6001 1 3.80864 1.22673 -1.34952 -8.38902 3.74924 1.06028 -2.24131 
7861 1 1.74718 6.9488 -3.82333 -7.04466 0.754611 1.55005 -1.20886 
8041 1 1.90214 7.50192 1.03588 -7.40863 -2.34659 -0.0616498 0.66431 
6722 1 4.95183 3.73909 -1.77507 -7.8622 0.883091 0.251766 3.24537 
6782 1 6.94306 5.60523 -1.19481 -7.77206 -0.994363 -1.75114 1.30701 
6480 1 7.3036 5.31866 -3.82409 -8.03383 3.3338 -1.22581 -0.571353 
5340 1 1.5032 -0.177787 -3.97749 -8.48517 0.294067 -0.456145 0.935901 
5342 1 6.78724 1.67914 -1.14549 -8.07447 1.49067 -1.50737 -4.04474 
7264 1 1.95037 1.26188 -0.00447686 -6.58483 0.595427 4.13161 5.22471 
7621 1 0.261039 5.03442 -0.983891 -8.22715 0.467552 -4.06527 -0.749692 
62 2 0.103399 3.07584 0.439991 -23.8847 0.297845 -0.178305 -2.82921 
8520 1 7.35655 1.23577 -3.75806 -8.43438 1.03648 0.410593 0.646013 
3962 1 8.8705 7.11258 -1.12321 -8.73095 2.12325 2.50414 2.3682 
5461 1 6.31597 8.772 -0.440334 -6.54872 1.74541 0.156009 -1.3965 
602 3 7.59375 0.0154559 0.0990936 -28.1165 -3.82222 -0.804151 -2.24179 
8820 1 1.903 4.16636 -4.73114 -6.16885 -1.64326 -0.385523 2.2928 
4681 1 -0.347727 1.61729 -1.07727 -6.90613 -1.72865 0.931834 -1.66057 
4142 1 7.68544 2.40468 1.39561 -7.28345 0.865104 -2.60636 1.80616 
3542 1 4.72869 7.30038 1.16388 -8.36456 3.37025 -2.2467 1.73677 
7622 1 8.8187 3.53678 -1.89538 -9.02174 0.778455 -0.201493 -0.210322 
122 3 0.113288 6.56377 -0.176005 -26.9772 -0.475011 5.13375 1.33838 
3481 1 5.09016 -0.39541 -3.72411 -7.87842 -0.3968 0.650342 1.27836 
7561 1 1.2806 -0.309011 -1.38591 -7.57861 0.0104143 -6.21051 -3.1046 
302 2 3.59446 -0.237604 0.27429 -24.6038 -0.828903 -1.08099 0.306549 
7501 1 5.55113 3.36903 -4.06412 -7.2546 2.31602 -1.16525 -3.16497 
2 2 -0.114461 -0.446153 0.23188 -24.309 -1.63321 1.97286 0.125043 
4861 1 0.362661 8.83948 -1.5297 -7.84888 -5.97647 -2.89151 4.54794 
3662 1 5.29878 3.30695 1.12348 -8.35352 0.105263 1.12856 0.644127 
5460 1 5.66736 0.259986 0.43951 -6.77644 -0.416538 -1.59071 2.71058 
2161 3 9.30447 5.64127 -2.41011 -26.6711 -3.4322 -2.04732 -0.953673 
5101 1 9.01513 4.63278 0.508397 -8.02451 1.78254 1.61898 -0.031204 
2101 3 9.18298 1.5092 -2.63851 -26.6803 -0.623127 1.1392 -2.41955 
3302 1 11.0407 5.17892 -4.17757 -8.94116 -1.77029 0.894776 1.90488 
2221 3 9.60547 8.94103 -2.38876 -26.8959 -2.49986 2.73627 1.01118 
6720 1 9.45855 7.30091 -3.49527 -8.68956 1.08492 -0.171704 -0.548684 
4200 1 12.4859 7.3045 -4.24937 -8.80763 4.06886 -0.753974 1.88725 
7262 1 15.1851 2.05866 -1.45182 -7.93347 -0.493549 0.547358 0.246407 
7381 1 12.9765 1.21722 -0.232202 -7.76996 -1.15743 0.703734 0.831332 
8940 1 14.5612 0.965925 -4.0195 -7.27209 -1.92426 1.56998 0.579157 
5161 1 11.1619 5.60691 -1.3277 -9.83277 -1.63112 -0.887693 -0.597428 
8161 1 15.8823 4.8097 -1.4357 -7.15592 -1.14045 -2.52754 -0.908375 
962 2 11.0556 3.44554 -0.397295 -23.6276 -0.576229 1.36697 3.25841 
1022 2 10.9399 6.96934 0.358243 -23.1747 2.40131 1.35181 1.24019 
1262 3 14.8341 3.69725 -0.269399 -27.8656 -0.389765 -1.03434 1.46755 
1322 2 15.0168 7.23175 -0.234702 -24.6046 -4.20966 0.804646 4.18617 
2401 2 13.1729 1.69429 -2.58226 -24.8917 0.0635549 -1.51211 -0.341895 
2461 3 12.6918 5.29269 -3.01335 -27.0735 1.41235 -0.287854 -1.80703 
2701 2 16.7682 1.42869 -2.91186 -24.7957 -0.419624 1.81758 0.450599 
2761 3 16.3665 5.11337 -3.2801 -27.2105 1.44372 0.872697 1.66006 
8761 1 12.9176 3.71026 -1.85487 -8.73696 1.38656 0.732571 0.730874 
8160 1 16.3789 7.6137 -4.13606 -8.13352 0.51165 -1.37035 -1.30241 
5402 1 10.3693 1.58398 0.699808 -7.83277 2.65745 0.754691 -2.25515 
6961 1 15.7509 3.17571 -3.99115 -7.9743 0.90874 1.36396 0.22573 
6602 1 13.0908 7.36428 0.994439 -7.37326 0.359332 -1.44791 -1.36877 
4261 1 18.1843 5.72195 -3.90067 -7.82461 -0.801408 -0.908409 0.00898342 
8522 1 13.6215 6.49418 -1.84566 -7.9906 -0.562989 1.23638 1.47305 
8881 1 16.7333 6.92045 -1.07483 -7.00935 8.46694 1.32856 -2.99325 
7321 1 12.8586 3.70153 0.890479 -7.76015 1.54562 -1.62274 -1.2167 
2521 3 12.9841 8.69512 -2.54673 -28.17 -0.918217 2.63993 -0.43386 
8581 1 11.1897 8.62848 -1.09374 -8.78219 -0.490433 -1.50577 -0.909257 
5641 1 11.0912 1.96792 -1.91183 -8.29771 -2.94323 -0.747992 1.62284 
7382 1 14.9103 5.22848 1.18149 -8.03316 0.994639 -0.701093 -0.584666 
7980 1 18.2124 2.83293 -3.71944 -7.53955 1.22909 -0.220238 -0.0886278 
8580 1 14.6071 5.4493 -4.17266 -8.41055 -0.333878 0.697986 0.838075 
7322 1 14.9779 1.59512 1.37555 -8.81363 0.260422 0.930313 -1.01452 
8462 1 14.8479 8.65008 -2.14299 -7.55696 1.08461 1.10473 2.31614 
6902 1 9.02448 -0.224449 1.20584 -8.20705 0.901033 -3.79929 0.908684 
4440 1 11.3678 0.978276 -3.96204 -7.53645 0.234302 1.11281 -0.18407 
902 3 11.0719 -0.210999 -0.520511 -27.46 2.18013 0.0572071 0.976902 
4501 1 16.5552 -0.107041 -1.51134 -7.47933 0.587853 -3.03727 1.39274 
1202 3 14.847 -0.122641 0.167691 -28.3448 -0.329462 -0.55577 -4.03604 
3841 1 9.11724 -0.0800982 -1.40493 -9.22567 0.0355917 1.85999 -0.996916 
8701 1 16.6715 -0.282832 -4.21815 -7.60428 4.23845 -0.674925 0.112888 
8702 1 17.0178 3.49899 1.09173 -7.7957 -1.86628 0.930237 1.34204 
8821 1 12.7856 3.41883 -4.72174 -8.09001 2.7494 -0.831599 1.42257 
4141 1 9.48658 2.89941 -4.50957 -8.71054 -1.55445 -0.478876 0.581465 
1021 3 10.8469 7.39439 -5.01025 -27.8142 -3.2425 -0.115729 -4.63562 
1621 2 1.79024 9.52536 -2.65245 -24.0737 5.02844 0.160239 -4.76237 
1921 3 5.51871 9.28924 -2.53724 -29.0801 0.227064 -2.82857 0.646334 
6181 1 0.088092 9.16628 -4.11125 -7.77189 0.0342268 1.10369 1.68253 
6122 1 3.65873 9.42403 -1.39959 -8.13004 -3.23692 0.832733 1.55374 
8762 1 -0.147098 9.47062 1.46572 -8.49529 3.69642 1.35425 -2.59731 
7021 1 8.93066 11.8476 -4.67698 -9.20271 -1.68911 -2.42345 -3.05311 
5041 1 3.74631 9.28238 -3.99358 -7.84832 -1.58043 -0.598878 -0.00626246 
7500 1 1.8941 11.5592 -3.60129 -8.08054 2.24712 0.0355321 -4.53169 
7921 1 6.71249 17.5244 -1.48622 -7.35364 0.647026 0.562971 -0.64376 
6301 1 6.748 16.2447 -3.80956 -8.20989 2.15779 1.78194 -0.104871 
7922 1 7.14879 12.8476 -0.995679 -8.8999 -0.0766592 0.123821 0.733293 
7801 1 3.21672 16.4576 -3.90821 -8.85382 -1.55421 0.657511 -2.43764 
6540 1 7.55575 10.5095 -2.75879 -7.85578 -1.71034 0.00320599 -4.80516 
7681 1 3.24612 12.8818 -1.34988 -8.94972 2.27638 3.13766 -2.06458 
482 3 3.39932 11.28 -0.0924058 -27.8622 2.18146 -2.32036 -0.821378 
542 3 3.50632 14.9872 -0.48949 -27.8054 0.970434 0.276102 3.32487 
782 3 7.16894 11.1365 0.0587081 -28.4978 -0.334373 -3.18778 0.768631 
842 3 7.08096 14.4906 0.499132 -27.6939 0.186272 1.68299 -0.432339 
1681 3 1.41261 13.1988 -2.79772 -26.0602 -1.63145 -1.39604 3.198 
1741 3 1.50965 16.8093 -2.61072 -26.7968 -0.855987 2.04785 -1.96894 
1981 3 5.22014 12.7578 -2.71487 -26.3165 0.399783 2.60516 0.875333 
2041 3 5.33599 16.5543 -2.58579 -28.4978 -1.85954 1.08711 0.731635 
3781 1 4.5647 14.679 -2.97287 -8.34868 -3.4655 -2.62365 -1.30118 
4740 1 1.60662 15.2733 -1.48681 -9.70819 1.26637 -2.23829 -0.506848 
5281 1 2.14899 12.2111 0.930352 -8.0545 -0.215707 -0.603326 2.61428 
7142 1 5.58218 14.9625 -0.809628 -7.74526 0.650812 1.03839 -0.187124 
7741 1 4.73002 11.866 -4.58307 -9.23533 0.67903 2.12859 1.37809 
6303 1 3.58512 17.157 -1.43489 -8.55489 -0.311699 -0.556291 0.316221 
5282 1 5.3746 11.1442 -1.77199 -8.3678 -0.77706 1.13891 0.651747 
7081 1 1.35907 11.2915 -1.34481 -7.691 -0.571811 -1.15492 2.04618 
541 3 3.14315 14.5157 -5.04569 -25.6449 2.33641 4.2047 -0.414116 
8222 1 5.2224 11.2214 1.05862 -7.47388 0.394518 3.01966 -2.6342 
242 3 -0.179852 14.7654 -0.169407 -27.6599 -0.386877 -0.112943 2.21596 
8042 1 4.60123 14.0167 1.24598 -7.21784 -1.07694 -2.14685 -2.11503 
5881 1 3.46564 9.523 1.4244 -7.12708 -2.5628 1.36557 -1.85032 
5220 1 6.82684 13.5576 -3.77649 -8.79193 2.04207 -3.14295 0.219832 
6959 1 -0.405626 12.3617 -4.31377 -8.54784 -0.934794 2.59657 1.38616 
6840 1 8.68857 16.3129 -0.320045 -7.54477 -0.359279 1.47397 1.69539 
2341 2 8.72017 16.8025 -2.51048 -24.5718 -1.32104 -1.0932 -0.45005 
2281 2 8.66704 12.5931 -2.66722 -24.0727 1.88496 -0.901912 1.3306 
5522 1 1.72544 15.0068 1.14311 -7.83807 0.29982 -0.551084 -1.63853 
182 2 -0.276408 11.3268 0.0504005 -23.501 -0.983098 -2.02084 -1.08959 
6182 1 -0.346431 13.3772 -1.73453 -8.76683 -0.292378 1.25869 0.369323 
7202 1 -0.436493 16.7051 -3.79061 -7.58063 1.11576 0.75991 1.1899 
4382 1 -0.232418 13.0713 1.17194 -8.23532 -0.264485 0.972593 -0.641095 
6242 1 -0.289386 16.5114 1.59174 -8.5604 -4.03784 0.74458 -1.81133 
3840 1 1.18276 14.5834 -4.26263 -9.5784 2.00681 -1.34381 1.09664 
5222 1 7.26666 9.59204 1.56624 -6.97333 2.49722 -0.779828 -0.545842 
6541 1 3.92807 16.6748 1.14975 -7.5357 0.227494 1.63844 0.453299 
1201 3 14.7986 18.3023 -5.07383 -29.3553 -0.387537 0.80475 -1.75549 
3961 1 13.0029 18.4541 -2.01726 -7.76254 -0.525278 -0.456056 0.809501 
8521 1 13.4903 10.3714 -3.8141 -6.82579 -0.162488 0.0632605 -0.352191 
2821 3 17.0718 9.0012 -2.60648 -28.6523 -0.887516 0.18214 0.319161 
4262 1 14.1331 9.62277 1.36513 -7.36778 2.12696 1.52182 -0.648327 
4022 1 11.1854 9.05331 1.49239 -8.11658 -2.08994 1.18471 -0.821578 
8401 1 10.7288 17.0082 -1.75043 -8.51944 2.97839 -0.488787 -1.46787 
5399 1 9.07742 18.1494 -4.24216 -8.57241 -0.157632 2.13064 0.517298 
4441 1 16.366 10.476 -3.73558 -6.69359 -0.0948001 1.60885 -2.30932 
6000 1 15.0851 16.8701 -0.655536 -7.35548 -1.3457 -0.790949 -0.590875 
6481 1 10.7997 13.0955 -3.99795 -7.47033 1.24202 1.98762 -0.790018 
8641 1 9.48756 15.5105 -4.21894 -7.33375 -0.334348 -0.193611 1.12998 
3421 1 14.6182 12.8322 -4.10905 -8.39776 3.05693 -0.190732 -0.032381 
3782 1 9.05644 10.6152 -1.10839 -7.39578 0.603887 -1.28036 2.35638 
3002 1 18.1723 16.4189 -1.13262 -8.63928 1.08221 2.05078 0.0624584 
5821 1 17.023 11.2394 -1.51276 -7.90252 -0.318831 -0.453913 1.84056 
5401 1 14.7461 17.0079 -3.57476 -7.74206 1.24169 -1.87727 2.18343 
5521 1 13.133 14.7668 -3.55901 -7.35172 -0.716796 -0.664489 2.55447 
1082 3 10.8993 10.8725 0.0724486 -28.0957 2.56221 -0.665559 -2.01443 
1142 3 10.5728 15.2588 -0.435186 -27.6508 0.675559 -0.753753 -0.866318 
1382 3 14.8155 10.795 -0.162227 -28.3909 -0.0588988 1.22924 -0.0338032 
1442 3 14.5925 14.5878 -0.220741 -28.6193 0.330503 -0.0830597 0.222884 
2581 2 12.8126 12.519 -2.93598 -25.0413 -0.296152 -1.11426 0.919499 
2641 3 12.9125 16.6425 -2.8658 -28.0873 -1.20379 -0.190767 -0.397243 
2881 2 16.6362 12.8151 -3.08015 -24.6425 -0.460537 -0.624305 1.27021 
2941 3 16.5647 16.6736 -2.31162 -28.4682 -1.06066 0.904864 -1.11589 
5702 1 14.4345 12.5953 -1.14568 -7.71953 0.403039 0.72973 -1.55801 
4559 1 15.7875 14.7227 -1.97086 -7.92513 0.925366 -0.511415 -1.3968 
9000 1 10.9743 11.4392 -2.27433 -6.83601 -1.17088 1.59019 -0.0275322 
4680 1 9.28423 14.4093 -1.68576 -7.29174 -0.116569 -0.864376 -3.43172 
8582 1 12.9042 10.5573 -1.16628 -7.01756 1.83009 -0.873181 2.12676 
8402 1 16.7605 14.5243 -4.67953 -8.3471 -0.0287434 -0.60042 1.26069 
4381 1 11.7147 12.5311 1.12765 -7.48169 -2.06279 -0.999198 -0.4817 
3361 1 16.3787 9.16343 0.127564 -7.53929 -0.531051 0.706702 -0.18614 
5341 1 11.2664 16.6704 0.764819 -8.11611 -2.18587 1.98434 1.53546 
5582 1 14.2869 12.806 1.43459 -7.00199 2.22977 1.47854 -1.31225 
3004 1 12.3535 14.8539 -0.729013 -7.9549 3.66016 -0.868937 -1.84461 
6662 1 12.1286 17.3331 -4.59209 -6.63427 -0.787924 1.61708 1.35056 
4922 1 9.38 14.1814 0.732593 -7.71254 -2.03804 2.86188 -4.06276 
5581 1 11.1327 9.31228 -3.69518 -8.23513 -1.95868 0.0259185 -0.111701 
3722 1 9.26368 11.421 1.17468 -8.15479 -0.800432 -3.2181 -0.60884 
3902 1 13.2509 18.0602 1.16565 -7.58217 1.31198 1.26516 1.11228 
4202 1 16.6855 14.8557 0.587726 -7.86038 0.111725 -1.58849 1.29058 
6002 1 16.434 18.2486 1.30091 -8.66137 0.966861 0.420647 0.850493 
3903 1 16.4788 11.5811 1.39713 -8.21129 0.107772 -2.92413 -2.84146 
1081 3 10.9191 11.0803 -4.93563 -26.9986 1.05076 -1.22268 0.909909 
5102 1 6.90184 5.84012 1.96502 -8.68569 0.371679 0.275496 -0.108915 
4502 1 3.89496 1.21544 2.22247 -8.05956 -5.74127 -2.60893 -2.54328 
2223 3 8.96649 8.85221 7.99467 -29.6322 2.09068 0.373195 -2.76488 
4621 1 -0.434621 1.38454 1.69827 -7.93993 0.615736 -2.96366 0.349295 
1563 3 1.6023 5.18937 7.79721 -29.5005 -0.0263682 -0.510779 1.06087 
8461 1 2.88922 2.74477 4.10877 -8.03237 -1.20464 0.373725 0.598201 
8221 1 1.42854 7.14702 4.17643 -6.86867 -1.2073 -0.458413 -1.07546 
3601 1 7.58492 5.00729 6.8478 -7.97895 -2.39175 0.921619 -1.01478 
8341 1 1.49398 3.33671 1.97205 -8.4145 0.866309 0.940847 0.759641 
7682 1 3.40263 5.82915 4.02742 -7.35438 0.430828 -2.85663 -1.64013 
363 2 3.86455 2.78537 6.05885 -24.2762 -0.224173 4.41199 2.77696 
423 3 3.87288 7.30233 5.39468 -29.1078 -0.700479 -1.95694 -1.34994 
663 3 7.81542 3.09975 5.72921 -28.0864 0.0114835 2.08411 1.54992 
723 3 7.58665 6.59772 5.35977 -27.9056 1.289 1.13812 0.704276 
1502 3 1.96187 1.30154 3.02602 -27.5353 -3.08172 0.570579 -0.990579 
1562 3 1.59573 4.65549 3.67625 -27.7983 1.47131 1.06483 0.309358 
1802 2 5.60511 1.85466 3.00455 -24.2591 1.53527 3.93535 -1.29533 
1862 2 4.81199 5.48672 2.45324 -23.2872 1.50931 -0.776807 2.68136 
3723 1 5.78115 3.01068 7.37868 -7.94078 -1.54345 -0.348904 0.443265 
8162 1 5.34908 3.74105 4.72183 -6.85766 1.56808 0.51561 -2.0409 
3422 1 8.3305 4.53001 4.16132 -8.06628 -0.145987 1.0331 0.406685 
3663 1 4.50564 5.6239 6.8568 -7.39622 0.074992 0.858348 -0.00230176 
4682 1 5.71657 7.08185 4.31745 -8.15846 1.88563 -0.1796 -0.966038 
3843 1 7.7676 1.47058 7.32004 -7.67867 -1.33422 1.33536 -4.88231 
3062 1 -0.363273 4.81496 4.13597 -8.06929 1.89401 0.332537 1.07349 
4263 1 7.33953 1.76219 4.16911 -8.59844 3.4719 3.12774 -0.275097 
1922 2 5.40894 8.90597 2.453 -24.998 0.303271 2.43928 -0.032977 
6123 1 2.41981 7.38229 6.68955 -8.02189 -1.914 -0.522926 2.63414 
7924 1 3.24188 0.969938 7.4235 -8.50229 -0.0453014 -1.98774 -1.72091 
3362 1 1.70156 4.49264 5.81012 -7.8305 0.260259 -1.35447 0.152446 
5042 1 -0.0102008 2.45097 7.23659 -7.0557 0.971387 -1.14715 1.33578 
4982 1 1.53981 0.239849 4.85256 -8.73984 2.59125 -1.43793 0.474048 
6183 1 6.8489 7.7191 6.86601 -7.74146 -1.77448 -0.739119 0.457954 
4503 1 -0.255367 5.79207 6.85473 -7.80169 -1.14031 0.702018 -0.0219898 
123 3 -0.0544416 7.22324 5.29232 -27.8369 0.332117 -0.457294 0.992216 
3064 1 -0.0090587 2.14578 4.2319 -6.95099 0.661928 -0.204985 -0.781643 
7323 1 -0.119457 8.6464 7.30652 -8.70049 1.70968 -1.65052 -2.30096 
3063 1 3.62228 8.63164 3.7417 -7.43559 -0.606401 1.39337 0.887635 
4863 1 4.85068 1.18278 5.03008 -8.02097 -0.96629 -0.97763 0.8129 
6243 1 0.353295 -0.271944 7.65153 -6.97383 2.30362 -0.879107 -2.59249 
6842 1 6.01516 -0.234792 3.31754 -7.20864 2.03166 0.00210228 -1.45893 
603 2 7.31858 0.043908 5.25948 -24.2232 -0.0802027 -5.52084 3.10248 
6004 1 5.65335 -0.413154 6.86023 -8.2093 -0.0327476 1.13582 0.386528 
303 3 3.52296 -0.217804 5.65937 -26.8779 1.24644 -2.6711 -0.47583 
3123 1 2.67646 3.18979 8.13463 -6.60124 0.336865 -0.661869 -1.67872 
5162 1 15.3751 6.35366 7.26852 -7.44195 -0.0812035 -0.91928 -1.18628 
5761 1 18.4061 5.96002 1.73685 -7.83583 1.8532 0.690552 -1.99664 
3121 1 15.6891 7.31176 2.30918 -6.98072 1.2647 1.7185 -0.190718 
5642 1 11.6591 5.55618 2.08933 -6.85049 -3.76503 3.4129 -2.06275 
2403 3 13.0618 1.41935 8.1343 -28.038 -2.09345 -0.640395 1.82145 
7563 1 9.77832 1.91493 4.94668 -8.16921 -0.323554 -1.61837 -0.178583 
2162 3 9.31058 5.52592 2.6551 -27.4341 1.60024 -3.4897 1.59348 
3963 1 9.56253 7.03062 6.81889 -6.89645 -0.884083 -1.94913 1.24763 
63 3 18.366 3.27206 5.70649 -28.0987 -0.78234 1.28189 -0.893921 
5462 1 9.16986 7.25023 1.66197 -9.7908 -0.189291 1.13693 -0.919047 
6962 1 11.3386 5.52668 4.6209 -6.80453 0.593991 -0.714389 0.66437 
6241 1 16.434 3.32213 4.13998 -8.06664 2.2279 -0.513298 -1.71897 
2102 2 9.43249 1.31146 2.69126 -24.7278 0.409946 2.82083 0.687041 
7022 1 13.3112 7.38272 3.81719 -8.05805 -0.695527 -1.29499 0.206309 
3842 1 10.7451 3.20743 2.72169 -6.63374 -1.93312 -1.62226 1.31457 
6604 1 9.82225 4.11259 6.63992 -7.1788 1.32966 -0.791212 -1.98232 
5943 1 13.0141 3.98011 6.7956 -8.70042 0.798704 -0.931946 -0.82297 
6783 1 13.1247 3.47359 3.84587 -7.64962 0.561579 -1.00711 0.416234 
8822 1 14.5401 1.57925 6.81756 -9.59586 1.21679 -0.0263134 -0.969326 
8463 1 14.9291 5.32341 4.23037 -7.80662 -0.419834 1.0539 0.394327 
5701 1 16.9819 6.92612 4.71954 -7.27155 0.114954 -0.689696 0.849334 
963 2 11.2344 3.45604 5.06818 -24.5369 0.726373 1.05164 0.00713854 
1023 3 11.3625 7.40109 5.1989 -29.4783 -1.31987 0.655976 1.8062 
1263 2 14.8163 3.46116 5.43875 -23.5842 -3.91504 0.307128 -0.329005 
1323 3 15.0435 7.64344 5.34135 -29.1066 -0.0137874 -1.51067 0.217958 
2402 2 12.9381 1.68175 2.01163 -23.9926 -2.40667 1.57671 1.31233 
2462 3 13.5615 5.48236 2.6116 -29.2173 -2.38123 0.272135 0.972061 
2702 2 16.5569 1.60833 2.80243 -24.2175 2.87735 -1.59915 1.2455 
2762 2 16.8259 5.28487 2.88602 -24.8941 -3.27419 1.155 0.41619 
6003 1 14.6657 1.42387 4.02005 -8.41953 -0.455025 -1.60668 0.742125 
2522 3 13.0883 8.96661 2.80666 -28.5529 -1.25676 1.52506 -1.05607 
8102 1 11.1431 1.74806 7.49951 -6.9641 1.02945 -0.491518 -1.31822 
8282 1 12.8017 7.01153 6.59509 -7.09509 1.19211 -0.40478 -2.6219 
4803 1 16.4017 3.61849 6.79555 -9.00159 1.30081 0.225746 2.39036 
6723 1 9.49895 7.10308 4.31754 -7.60999 -2.85758 0.465246 -2.81103 
2163 3 9.25687 5.22626 8.09848 -29.007 0.497487 0.449061 1.72447 
4862 1 17.2259 0.683837 6.19226 -7.59172 -2.98384 0.548935 1.27681 
1203 3 14.5938 -0.0492733 5.46133 -26.3596 2.3743 -2.77042 -1.99165 
4144 1 11.7375 0.283894 3.16797 -7.99897 0.305744 1.8978 0.93707 
5103 1 12.9102 -0.465628 6.39059 -8.91728 -0.259006 0.272112 -0.368502 
2703 3 16.5738 1.32732 8.02871 -27.8817 2.09309 1.22538 1.41222 
2463 3 12.9249 5.47238 8.11896 -28.0346 -0.666627 0.733134 0.126469 
2043 2 5.28444 16.638 7.79405 -24.6814 -0.780289 -1.09255 2.28832 
4860 1 1.5448 18.2244 1.95203 -8.79848 1.46101 2.15104 -0.54094 
5941 1 5.47906 14.8899 3.35876 -7.44571 0.845938 0.418239 2.40148 
1683 2 1.87314 13.017 8.11081 -24.4705 -0.942593 -0.198057 -1.42104 
8223 1 7.23027 13.0502 2.08797 -8.03515 0.312219 0.114961 -2.53289 
7981 1 7.14234 16.6952 1.63688 -8.06225 0.31674 -0.816486 -1.18185 
1743 2 1.34594 16.4423 8.07741 -25.0625 2.37262 1.79515 1.73877 
2343 3 8.97935 16.7828 8.25981 -28.3106 2.17976 2.30967 -0.405028 
3363 1 1.62779 10.064 5.95836 -7.38566 2.52426 -3.08701 1.91642 
1923 3 5.36601 9.05289 7.94716 -27.2579 2.54315 -0.429332 0.601362 
8882 1 7.71138 9.26759 3.88064 -6.96186 -1.67645 -0.599747 0.835912 
4743 1 4.27998 9.14935 6.22398 -8.51189 0.407384 0.440872 0.222096 
1623 3 1.93767 9.04456 7.95592 -27.5237 -1.59663 -0.163263 -0.924409 
7982 1 -0.116619 9.05803 3.96716 -7.84755 -0.508211 -0.850522 0.607585 
3423 1 3.76822 12.6089 6.59665 -7.04632 -0.0525057 -0.999533 1.43308 
243 3 -0.132173 14.3752 5.65166 -27.9983 3.16651 1.67146 -4.98118 
5583 1 5.90446 10.8143 7.1997 -7.81773 0.734942 1.24771 -1.52144 
4383 1 1.19403 12.3806 5.68352 -7.25413 -2.60538 3.49186 0.925506 
1622 3 1.61345 9.04533 2.61044 -28.6737 1.80419 -2.41223 0.675069 
4742 1 4.07086 17.043 4.22778 -7.29488 -3.47178 0.0404917 -0.634772 
6543 1 3.23354 16.9799 6.70297 -7.7773 0.506099 2.53718 0.878676 
6422 1 3.72408 12.8532 3.96084 -8.12952 -1.85649 0.672676 -0.688921 
8942 1 6.52009 12.6481 4.61501 -7.03898 -0.172757 0.705178 0.038494 
7743 1 7.41977 15.6448 7.4846 -7.63859 1.25571 1.82453 1.1422 
6482 1 5.24083 10.8612 3.49054 -7.87826 0.551043 -2.2524 2.84534 
7502 1 6.49839 16.7999 5.01365 -7.1539 2.76879 -0.395606 0.240139 
483 2 3.59267 10.9216 4.94388 -24.563 -2.23199 -0.582137 2.6248 
543 2 3.59664 14.8738 5.06385 -24.9181 2.31357 0.931925 2.04638 
783 3 7.07395 10.8564 5.25738 -28.0715 1.63244 -0.325908 0.445647 
843 2 7.22125 14.739 5.22593 -25.4315 0.371003 -1.03384 0.434815 
1682 3 1.68243 13.0308 2.73064 -28.075 -2.69668 -1.08958 -0.917462 
1742 3 1.23254 16.3909 2.56616 -27.2997 3.45674 -2.75098 2.193 
1982 3 5.12398 12.8134 2.68336 -28.6979 3.90074 -0.171982 -0.790149 
2042 3 5.69275 16.9085 2.77748 -28.6006 -3.18121 -1.77712 1.159 
3183 1 5.35112 14.7351 6.7164 -8.01418 -1.96745 -1.04358 -1.64805 
8703 1 0.610394 16.5044 4.37022 -7.54923 -1.48739 1.9352 1.51699 
4443 1 2.02113 14.9839 6.67603 -7.86749 -1.17609 -4.02416 -0.483282 
3184 1 7.81479 12.9599 6.63162 -6.90288 -0.982042 -0.29861 0.578995 
3181 1 1.83434 10.9496 3.51977 -8.55064 -0.16332 0.361224 -2.15673 
183 3 0.0509141 10.7039 5.1008 -27.9471 0.222916 1.38632 -0.993783 
5882 1 8.49135 9.72451 6.20041 -6.53085 -0.646887 1.984 1.39878 
7383 1 1.98933 14.5332 3.71639 -7.53884 0.989497 2.83988 0.444325 
4981 1 8.86204 15.208 2.98088 -7.16607 -2.19822 -1.31201 2.01297 
3 3 -0.268764 18.2596 5.52183 -28.3925 -0.132034 1.04143 -0.177142 
3122 1 -0.29276 14.0982 7.50948 -7.79449 3.73687 -2.83705 3.17024 
4082 1 -0.370308 13.9227 3.48653 -6.58501 -0.045997 -0.219335 1.65716 
1983 3 5.83477 12.9819 8.10658 -28.4799 0.093556 -2.21373 -1.92341 
7324 1 15.3451 12.3769 7.2186 -7.42674 0.43071 0.695383 -0.280253 
8342 1 11.2866 16.7188 3.84802 -7.46816 1.74851 -0.615843 2.11545 
4143 1 14.4197 15.4827 1.6466 -8.13385 -0.895785 0.45057 0.175333 
5463 1 15.4293 9.38274 7.13407 -7.66457 0.179896 -0.261481 1.30293 
6844 1 11.3855 14.7354 2.61721 -6.99023 1.49661 -3.05701 -1.10102 
5703 1 11.4518 14.3697 8.23635 -7.69286 -1.7301 0.236099 0.236187 
2882 3 16.6706 13.1198 2.40705 -28.751 0.425491 2.82817 2.70804 
7203 1 17.7481 11.4433 3.56335 -7.68967 -1.13718 -0.420574 1.22793 
2643 3 12.5574 16.5191 8.01678 -27.8054 1.48017 0.618925 3.02877 
2583 2 12.7864 12.7359 7.67384 -24.4415 0.544945 1.0917 4.62443 
4323 1 11.0742 9.08737 6.63459 -7.13961 2.11693 1.54011 -0.294104 
7023 1 13.8596 9.24968 5.32132 -6.54118 -3.24557 -0.556875 -1.68482 
6843 1 11.1598 9.19706 3.94795 -7.82968 2.1605 -3.29758 1.37297 
3003 1 9.24605 18.3668 6.54654 -7.14221 -1.8842 -0.276981 -1.78027 
2822 2 16.882 9.50212 2.34415 -24.2171 -3.20352 -1.51059 3.0147 
2222 3 9.41396 9.23099 2.83079 -28.4002 -0.9885 0.93442 0.804932 
2523 2 13.066 9.31218 7.66212 -25.2559 1.19467 -5.60611 -2.0038 
6963 1 16.8628 14.2158 6.0391 -8.17033 -3.33403 0.18146 -0.4039 
2283 3 9.42698 13.127 7.93331 -28.6869 -0.960668 0.855575 1.66728 
7201 1 14.3252 17.3697 3.92464 -7.75677 -0.120854 0.787804 -1.24391 
1083 3 11.4269 10.9491 5.14584 -29.05 -0.754532 -1.12815 0.551878 
2942 3 16.4335 16.5784 2.37599 -27.3619 -0.276982 -0.551816 -0.183195 
1143 3 11.2746 14.8743 5.26266 -27.9121 1.3449 0.643764 -1.85158 
1383 3 15.4679 11.2299 5.63666 -28.1093 -1.49179 -1.89461 -0.487124 
7442 1 15.0389 12.7183 4.11798 -7.77457 1.85811 -1.82058 1.28262 
5942 1 9.44365 14.6693 5.67919 -7.46085 -0.437844 0.969881 1.23214 
8763 1 11.0836 16.6928 6.86095 -8.23488 -0.284294 -2.28701 -1.85292 
903 2 10.9765 18.3304 5.19864 -24.3011 -1.1125 1.188 0.838604 
3182 1 16.1629 9.29224 4.69005 -7.2581 1.44834 2.79994 -2.49739 
1443 3 15.058 14.8059 5.38445 -27.8514 -1.03717 -1.33877 -2.68292 
2582 3 12.9869 13.0785 2.73531 -29.0304 -0.14057 0.199561 1.34925 
3602 1 9.27046 18.3142 3.73394 -7.67287 -3.00247 -0.0435261 0.758534 
8281 1 13.5006 14.6769 4.24008 -7.31585 -2.22637 1.43779 -3.12183 
4802 1 18.3947 16.5176 6.78589 -7.96206 -1.58856 0.145376 -3.78938 
4083 1 9.94976 11.1608 3.80065 -6.95639 -3.708 1.78003 -1.87788 
2282 2 9.59742 13.0907 2.29116 -23.647 2.31001 -1.56325 9.70719 
2342 3 9.39362 16.6038 1.82701 -28.006 0.583404 1.19148 2.22543 
7025 1 10.6087 11.9464 7.20455 -7.48946 2.30795 -0.936017 -1.79068 
2642 3 12.9757 16.5279 2.51528 -28.7143 -2.11683 -0.0564446 0.523078 
4623 1 13.1944 11.2025 6.38741 -8.13458 -0.658877 0.4666 -2.23771 
8764 1 15.1979 16.6242 6.29736 -8.98784 0.0953661 1.11646 1.05412 
7082 1 12.8961 11.1192 3.20252 -7.20826 -0.525816 -0.720125 1.83834 
5643 1 11.3084 12.9207 4.76393 -7.57349 2.20578 1.5762 -0.433183 
4442 1 17.0713 18.4053 4.08761 -7.58225 -0.378636 -1.14977 -2.21242 
5763 1 13.1667 14.4774 6.51955 -8.24049 0.883366 2.07683 1.00592 
7742 1 16.2683 15.0871 3.54062 -7.83593 -0.196285 0.685739 0.259869 
2943 2 16.5395 16.0403 7.84787 -23.4313 1.66692 0.699717 2.27154 
5822 1 17.5812 10.9904 6.59417 -9.13773 -0.0165049 1.22597 0.614222 
2823 3 17.1761 9.13939 7.89623 -26.8504 -3.00745 1.0452 4.05191 
364 3 3.57945 3.48359 10.5282 -28.6622 -2.09759 -0.340723 0.687964 
424 2 3.27957 7.24204 10.8558 -24.4565 -3.2452 -1.91885 -2.41122 
664 3 7.32244 3.59498 10.9721 -27.9756 0.859496 -0.507564 -1.30985 
724 3 7.11314 7.02518 10.4105 -27.6212 0.728132 2.95787 1.87976 
1504 3 1.46254 1.69513 13.1517 -27.3871 -0.388538 -0.287121 -0.0648246 
1564 3 2.13759 4.77623 13.4113 -28.4121 0.553371 4.14392 -0.712355 
1804 3 5.9678 1.28757 13.4676 -28.8545 -0.59076 -0.451252 -0.9698 
1864 3 5.52872 4.88837 13.2441 -28.7327 0.0271279 0.878864 1.98758 
6364 1 1.51481 7.46583 12.2562 -7.66836 -0.585695 -0.0347002 -0.143767 
7862 1 4.7989 7.89906 12.0028 -7.1302 2.73377 -1.27691 1.15888 
7265 1 5.7471 3.15702 12.2842 -7.91079 0.539983 -1.04076 0.183091 
5764 1 6.71482 5.69239 11.9404 -8.50875 1.62536 -0.196499 -1.03935 
6663 1 5.40686 4.04203 9.87745 -8.3797 0.387623 -1.4662 1.8079 
5105 1 7.14885 1.41902 10.4419 -8.13915 0.14835 1.06346 -0.0803371 
3665 1 7.50794 4.8046 14.3672 -7.28833 0.502082 -1.0342 0.945965 
6185 1 3.28241 2.7337 12.8348 -7.23352 -2.8791 -0.835212 -2.05935 
4923 1 3.68958 5.32251 12.1351 -8.30982 0.100141 0.719418 -2.31749 
6423 1 5.16356 7.06624 9.49121 -8.77488 0.804658 -0.409982 -1.39288 
7564 1 1.29915 3.54043 14.4217 -8.29283 -0.561069 -2.43504 2.47033 
6005 1 6.65327 2.19719 14.9615 -6.98547 0.165701 1.08777 0.301348 
5223 1 7.28577 8.86052 11.4558 -7.83626 1.26084 -0.993349 2.49964 
8941 1 3.01217 5.20005 9.2702 -7.09333 1.9955 2.28951 2.15886 
7803 1 7.44174 5.42034 9.42556 -8.73414 0.453925 -0.250615 -1.19682 
6302 1 -0.323404 1.02977 9.66396 -7.68194 -2.66173 1.83923 0.638106 
4562 1 1.18925 7.02842 9.54417 -7.70281 0.997461 1.84752 -1.0122 
4744 1 1.04086 4.41387 11.7788 -6.61246 1.95262 0.839764 0.522662 
8884 1 -0.377353 5.60054 14.2447 -7.36643 0.134209 -1.13502 0.879517 
5464 1 1.55816 2.34039 10.5096 -8.10129 3.92917 -2.93203 1.21701 
3425 1 2.10854 6.5583 14.88 -7.50443 1.12698 0.862506 -0.884911 
7624 1 4.0654 4.50845 14.5185 -7.85495 -0.713211 -0.101017 2.50555 
3784 1 5.63834 6.6831 14.4698 -7.97321 -0.48709 2.22024 1.20284 
6065 1 4.23273 1.10004 14.5959 -7.87016 -2.27454 -0.653298 1.77417 
6483 1 4.00967 8.90359 14.8107 -9.56089 -1.78644 -0.676511 0.998216 
7263 1 4.31691 1.50332 10.1482 -7.97895 -1.89716 1.01391 -0.246531 
7562 1 8.89449 3.06588 8.88186 -7.29671 -1.01499 3.51069 3.0289 
6365 1 7.81712 0.109914 12.8007 -7.18723 -0.604609 2.84716 1.85627 
64 2 -0.374753 3.12607 10.7184 -24.9698 -2.35994 1.33148 -2.15588 
1503 3 1.50694 1.0643 8.59638 -28.4592 -1.02764 2.82542 -0.389254 
4204 1 2.12126 -0.069474 12.428 -8.48208 0.183546 1.21105 -1.68038 
5043 1 5.30629 -0.275926 12.1125 -8.20907 -0.14774 0.00205024 2.4893 
304 3 3.50901 -0.273675 11.0311 -27.9242 1.66489 -2.14262 -1.11596 
8464 1 -0.0137746 4.35227 9.00029 -7.02011 -1.12247 1.33008 -0.683443 
1803 2 5.98507 1.09348 8.60062 -24.7939 -1.238 -0.760359 0.633719 
5524 1 8.83888 7.08966 14.6718 -8.31804 4.19749 0.269893 -2.31988 
4625 1 8.29182 2.91211 12.6882 -8.2808 1.2613 0.68187 -0.559277 
1863 3 5.54411 5.11279 8.41329 -27.5468 -0.256302 0.792647 -3.8822 
3424 1 9.21591 7.16855 12.1014 -8.29903 -2.52128 2.74883 1.13452 
3303 1 9.38044 4.77624 11.208 -7.6208 -1.20009 -2.62048 0.18625 
2164 3 9.05448 5.47814 13.188 -28.522 0.581063 -1.4805 1.01029 
124 2 18.3438 7.31469 10.8923 -24.3328 1.73639 0.131495 0.371279 
7923 1 9.42362 7.31368 9.41811 -8.14132 -3.12537 -1.74782 -1.7787 
2104 3 9.40249 1.70644 13.6318 -27.8241 1.62935 -2.82292 -2.1736 
3242 1 10.1251 1.33044 10.4632 -7.11311 0.437805 2.38773 1.06061 
5465 1 11.0972 4.85812 9.1994 -7.58079 0.355241 1.26086 -0.858702 
7623 1 18.0483 2.87561 12.7568 -8.05244 1.27961 -1.84845 2.27388 
5163 1 13.0093 7.71871 11.6284 -6.90111 0.497334 -2.28904 0.847221 
8823 1 15.483 3.00719 12.7494 -7.6902 -1.57893 -1.34882 -0.0130839 
5403 1 13.4309 0.907472 11.9046 -7.36178 1.50301 0.107599 -3.92319 
964 3 10.9112 3.25283 10.7696 -29.1009 0.341709 1.62296 -0.804775 
1024 2 10.8583 7.41924 10.8566 -24.2767 6.40285 -0.632858 -0.416324 
1264 2 14.5164 3.23802 10.7573 -24.9311 -0.255025 -1.02443 0.675162 
1324 3 14.9315 7.01787 10.6012 -28.5905 -1.48404 0.937732 0.908006 
2404 3 13.0421 1.78131 13.3925 -29.0769 -1.34522 0.478122 2.9885 
2464 3 12.9261 5.18609 13.4861 -28.1568 1.35675 -0.317199 -0.511274 
2704 3 16.5366 1.23217 13.5209 -29.0762 0.639326 -0.43121 -0.61949 
2764 2 16.8302 4.8066 13.1435 -25.1607 -1.52598 -0.526744 1.97929 
5705 1 16.4129 7.4747 12.1816 -7.84328 0.894077 3.70963 -0.346157 
6304 1 14.9709 1.4299 9.46263 -7.00698 -2.32301 1.45701 -0.159899 