LAMMPS (11 May 2018)
# Sample LAMMPS input script for thermal conductivity of UO2
units       metal
atom_style full
boundary p p p

# Reading the input structure file
atom_modify map array
read_data U25.5x5x60.lmpstr
  orthogonal box = (0 0 0) to (17.974 17.974 310.944)
  1 by 1 by 24 MPI processor grid
  reading atoms ...
  9000 atoms
  0 = max # of 1-2 neighbors
  0 = max # of 1-3 neighbors
  0 = max # of 1-4 neighbors
  1 = max # of special neighbors

# Setting the variables to elements as they are assigned in the input structure file

variable O equal 1
variable U equal 2
variable Zr equal 3

# setting charges as these were previously unset

set type $O charge -1.1104
set type 1 charge -1.1104
  6000 settings made for charge
set type ${U} charge 2.2208
set type 2 charge 2.2208
  750 settings made for charge
set type ${Zr} charge 2.2208
set type 3 charge 2.2208
  2250 settings made for charge

pair_style      hybrid/overlay  coul/wolf 0.275 10.96 eam/alloy
pair_coeff      * * coul/wolf
pair_coeff   *    *  eam/alloy  UZrO.eam.alloy O U Zr

compute   peratom all pe/atom pair bond
compute   pe all reduce sum c_peratom
compute   ke all ke/atom


variable    T equal 2500
variable THERMO_DAMP equal 0.100
variable BARO_DAMP equal 0.500
variable  etol equal 1.0e-8
variable  ftol equal 1.0e-10
variable  equilsteps equal 10000
variable  half_equilsteps equal v_equilsteps*0.5
variable  TCsteps equal 2500000
variable  zunits equal 20
variable  nslabs equal 20
variable  thickness equal 1.0/v_nslabs
variable  swapsteps equal 50
variable  dimension string z
variable  temp atom c_ke/0.0001292355
variable  dt equal 0.002
variable  currenttime equal ${dt}*step
variable  currenttime equal 0.002*step
variable  initialsteps equal 5000
variable  rampsteps equal 10000


timestep     ${dt}
timestep     0.002
thermo ${swapsteps}
thermo 50

velocity all create 300 164336

fix thermostat_fix1 all npt temp 300 300 ${THERMO_DAMP} aniso 0.0 0.0 ${BARO_DAMP}
fix thermostat_fix1 all npt temp 300 300 0.1 aniso 0.0 0.0 ${BARO_DAMP}
fix thermostat_fix1 all npt temp 300 300 0.1 aniso 0.0 0.0 0.5

run ${initialsteps}
run 5000
Neighbor list info ...
  update every 1 steps, delay 10 steps, check yes
  max neighbors/atom: 2000, page size: 100000
  master list distance cutoff = 12.96
  ghost atom cutoff = 12.96
  binsize = 6.48, bins = 3 3 48
  2 neighbor lists, perpetual/occasional/extra = 2 0 0
  (1) pair coul/wolf, perpetual
      attributes: half, newton on
      pair build: half/bin/newton
      stencil: half/bin/3d/newton
      bin: standard
  (2) pair eam/alloy, perpetual, copy from (1)
      attributes: half, newton on
      pair build: copy
      stencil: none
      bin: none
Per MPI rank memory allocation (min/avg/max) = 7.943 | 7.956 | 7.97 Mbytes
Step Temp E_pair E_mol TotEng Press Volume 
       0          300   -131181.19            0   -130832.22    202173.14    100455.02 
      50    306.75922   -131594.52            0   -131237.69    4368.1889    106881.71 
     100    293.77256   -131578.21            0   -131236.49   -1164.0708    107048.08 
     150    298.21751   -131578.77            0   -131231.88    482.11235    107086.03 
     200    304.30922   -131581.34            0   -131227.36    1047.7789    107079.48 
     250     304.9499   -131582.66            0   -131227.94   -287.31478    107100.98 
     300    303.00968   -131586.05            0   -131233.59   -418.32516    107099.01 
     350    301.27629   -131588.45            0      -131238    67.884818    107099.61 
     400    295.47518    -131582.3            0    -131238.6   -12.261535    107120.32 
     450    299.71096   -131581.45            0   -131232.82   -607.98578    107131.28 
     500    303.56934    -131580.6            0   -131227.49    164.38429    107150.17 
     550    298.90509   -131577.11            0   -131229.42     290.1493    107128.14 
     600    297.06032   -131578.14            0    -131232.6   -178.83939     107181.3 
     650    301.57595   -131586.59            0   -131235.79    -142.7968    107239.15 
     700    298.23332   -131584.87            0   -131237.96    714.92989    107178.53 
     750    298.70008   -131584.71            0   -131237.26   -123.12365    107179.58 
     800    302.45183   -131580.93            0   -131229.12    125.58638    107187.09 
     850     307.0165   -131582.63            0   -131225.51   -274.29633    107185.36 
     900    299.32976   -131579.13            0   -131230.95    177.92155    107206.33 
     950    296.85204   -131581.32            0   -131236.02   -346.40808    107217.09 
    1000     298.9086   -131585.72            0   -131238.02    63.642554    107180.35 
    1050    299.32072    -131584.5            0   -131236.33    154.88199     107150.3 
    1100    306.11748   -131585.87            0   -131229.79   -163.19421    107172.03 
    1150    304.80629   -131579.87            0   -131225.31    19.708384    107210.51 
    1200    303.22327   -131581.77            0   -131229.06   -332.18794     107237.5 
    1250    302.26855   -131584.56            0   -131232.96    1025.4169     107157.3 
    1300    298.87967   -131582.92            0   -131235.26   -41.974436    107196.93 
    1350    296.95905   -131582.05            0   -131236.62   -733.23441    107235.44 
    1400    299.19743   -131584.14            0   -131236.11    896.05137    107120.08 
    1450    301.21696   -131582.11            0   -131231.73    373.40126    107171.09 
    1500    299.43826   -131577.49            0   -131229.18   -265.12463    107240.07 
    1550    300.06945   -131581.25            0   -131232.21    296.85959    107184.05 
    1600     300.2448   -131587.99            0   -131238.74   -211.20695    107182.85 
    1650     298.5031   -131586.82            0    -131239.6   -131.37687    107184.99 
    1700    299.63805   -131585.56            0   -131237.02   -639.69836    107203.23 
    1750    304.10857   -131585.76            0   -131232.02     39.33274    107218.44 
    1800    301.11644   -131581.21            0   -131230.94    35.853123    107196.24 
    1850    302.52083   -131583.84            0   -131231.95    -10.71701    107167.66 
    1900    297.88692   -131582.44            0   -131235.94    400.43647    107201.19 
    1950    299.29139    -131586.8            0   -131238.66    221.99092    107187.98 
    2000    295.97406   -131580.95            0   -131236.67    -164.3513    107216.21 
    2050    303.33311   -131582.42            0   -131229.58    -283.3747    107199.91 
    2100    306.62707    -131585.2            0   -131228.53   -842.93344    107237.61 
    2150    297.91341   -131579.38            0   -131232.84    472.89855    107178.42 
    2200    301.07099   -131584.59            0   -131234.38    227.78835    107149.32 
    2250    298.74596   -131582.95            0   -131235.44   -144.95969    107190.55 
    2300    299.85605   -131584.88            0   -131236.08     533.3389     107149.1 
    2350    301.51747   -131586.59            0   -131235.86    171.80127    107181.31 
    2400      298.428   -131579.39            0   -131232.26    179.89023    107200.55 
    2450    305.60807   -131583.95            0   -131228.47   -840.72283    107250.77 
    2500      298.699   -131579.07            0   -131231.62    192.85604    107220.35 
    2550    300.90498    -131588.5            0   -131238.49   -398.59945    107188.74 
    2600    297.22614   -131585.12            0   -131239.39   -644.56465    107197.43 
    2650    301.71626   -131587.95            0   -131236.99    181.71516    107173.99 
    2700    299.40525   -131583.16            0   -131234.89    203.33267    107176.25 
    2750    300.93153   -131582.07            0   -131232.03   -609.26639    107228.26 
    2800    301.40676   -131579.32            0   -131228.72   -70.557118    107176.08 
    2850    302.93595   -131577.82            0   -131225.44   -437.95302    107196.57 
    2900     302.5601   -131583.03            0   -131231.09    41.184454    107183.45 
    2950    298.73687   -131583.92            0   -131236.43    194.76633    107191.66 
    3000    301.92912   -131589.77            0   -131238.56    387.74316    107162.11 
    3050    302.00025   -131588.28            0   -131236.99    387.21155    107164.35 
    3100    300.04581   -131579.61            0    -131230.6   -399.62314    107201.72 
    3150    306.03677   -131582.02            0   -131226.03    688.65024    107194.38 
    3200    306.56091   -131585.73            0   -131229.14   -557.25287    107231.97 
    3250    299.31107   -131581.52            0   -131233.35    322.31038    107194.54 
    3300    301.22523   -131585.74            0   -131235.36   -272.99209     107187.9 
    3350    296.99107    -131582.5            0   -131237.04   -304.50417    107191.96 
    3400    299.74531   -131586.96            0   -131238.29      137.501    107180.04 
    3450     300.8326   -131587.27            0   -131237.34   -653.18472    107215.04 
    3500    300.72863   -131582.85            0   -131233.04   -139.04747    107172.04 
    3550    303.91023   -131582.48            0   -131228.97   -812.06604    107209.82 
    3600    302.81212   -131583.17            0   -131230.94    89.199621     107203.8 
    3650     299.1642   -131586.57            0   -131238.58    1107.3019    107165.76 
    3700    294.08975   -131581.86            0   -131239.77   -861.53706    107249.44 
    3750    299.43627   -131585.41            0    -131237.1    1139.4607    107121.62 
    3800    306.99934   -131590.52            0   -131233.42   -275.62305    107171.92 
    3850    299.43294   -131580.52            0   -131232.22    451.51717    107148.23 
    3900    301.17982   -131583.87            0   -131233.53   -159.40866    107209.55 
    3950    296.26738   -131586.44            0   -131241.82     52.39197    107181.84 
    4000    299.14082   -131589.59            0   -131241.62    561.67574    107153.49 
    4050    297.76538   -131582.68            0   -131236.32    625.19588    107195.18 
    4100     299.5265   -131580.21            0    -131231.8   -369.77827    107239.84 
    4150    299.81927   -131581.35            0   -131232.59    367.32531    107182.12 
    4200    301.18582   -131585.93            0   -131235.58    256.26794    107195.67 
    4250     295.9192   -131585.37            0   -131241.15   -8.3106872    107203.62 
    4300    294.68681   -131590.46            0   -131247.68    -181.8342    107180.25 
    4350    293.93889    -131586.5            0   -131244.58    737.92958    107131.33 
    4400    297.16445   -131581.59            0   -131235.93    22.628812    107196.13 
    4450    300.44614   -131581.58            0    -131232.1   -445.95905     107217.1 
    4500     303.4107   -131584.43            0    -131231.5    302.22728    107153.27 
    4550    295.91543   -131579.07            0   -131234.86   -789.17114    107211.52 
    4600     299.7089   -131588.25            0   -131239.62    255.41592    107164.74 
    4650    294.78214   -131584.53            0   -131241.63   -54.122036    107211.38 
    4700    302.22859   -131585.77            0   -131234.21   -137.60331    107188.28 
    4750    300.38837   -131579.29            0   -131229.87    -613.2858    107215.74 
    4800    302.67023    -131582.5            0   -131230.43    64.973978    107168.68 
    4850    298.92796    -131583.9            0   -131236.18   -64.370206    107177.51 
    4900    298.56734   -131585.92            0   -131238.62   -816.72033    107228.07 
    4950    298.63303   -131584.93            0   -131237.56    1031.6458     107124.6 
    5000    298.26729   -131582.65            0   -131235.71   -431.27573    107187.48 
Loop time of 63.4173 on 24 procs for 5000 steps with 9000 atoms

Performance: 13.624 ns/day, 1.762 hours/ns, 78.843 timesteps/s
99.6% CPU use with 24 MPI tasks x no OpenMP threads

MPI task timing breakdown:
Section |  min time  |  avg time  |  max time  |%varavg| %total
---------------------------------------------------------------
Pair    | 60.093     | 61.082     | 62.457     |  11.8 | 96.32
Bond    | 0.00069475 | 0.0010448  | 0.0016231  |   0.6 |  0.00
Neigh   | 0.029777   | 0.030436   | 0.030999   |   0.2 |  0.05
Comm    | 0.42954    | 0.91705    | 2.7327     |  68.2 |  1.45
Output  | 0.0042392  | 0.0048043  | 0.016841   |   3.6 |  0.01
Modify  | 0.3312     | 1.2728     | 2.6251     |  82.4 |  2.01
Other   |            | 0.1097     |            |       |  0.17

Nlocal:    375 ave 379 max 372 min
Histogram: 1 2 2 0 14 3 0 1 0 1
Nghost:    6199.79 ave 6341 max 6077 min
Histogram: 2 3 3 1 3 4 3 2 2 1
Neighs:    139882 ave 142675 max 138049 min
Histogram: 2 2 4 6 1 5 3 0 0 1

Total # of neighbors = 3357158
Ave neighs/atom = 373.018
Ave special neighs/atom = 0
Neighbor list builds = 8
Dangerous builds = 4

unfix thermostat_fix1

fix thermostat_ramp all npt temp 300 $T ${THERMO_DAMP} aniso 0.0 0.0 ${BARO_DAMP}
fix thermostat_ramp all npt temp 300 2500 ${THERMO_DAMP} aniso 0.0 0.0 ${BARO_DAMP}
fix thermostat_ramp all npt temp 300 2500 0.1 aniso 0.0 0.0 ${BARO_DAMP}
fix thermostat_ramp all npt temp 300 2500 0.1 aniso 0.0 0.0 0.5

run ${rampsteps}
run 10000
Per MPI rank memory allocation (min/avg/max) = 7.936 | 7.949 | 7.962 Mbytes
Step Temp E_pair E_mol TotEng Press Volume 
    5000    298.26729   -131582.65            0   -131235.71   -431.27573    107187.48 
    5050    298.12403   -131577.62            0   -131230.84    162.10505    107194.07 
    5100    305.81365   -131575.51            0   -131219.78   -485.83055    107227.42 
    5150    311.65823   -131565.48            0   -131202.95    384.24243    107207.23 
    5200    321.55515   -131556.37            0   -131182.33    299.68585    107222.29 
    5250    332.30636   -131545.09            0   -131158.54    40.934356     107268.3 
    5300    346.66647   -131535.71            0   -131132.46    590.45773    107366.25 
    5350    355.14224   -131517.64            0   -131104.53   -554.42789    107412.23 
    5400    365.46741   -131500.42            0   -131075.31   -12.538207    107394.01 
    5450    379.66937   -131486.85            0   -131045.22    986.88078    107401.27 
    5500    389.22029   -131467.33            0   -131014.59   -136.83193    107541.47 
    5550    403.24307   -131452.94            0   -130983.88    1228.6264    107458.88 
    5600    418.93589   -131440.89            0   -130953.58   -1245.8611    107605.73 
    5650    427.78148   -131420.89            0   -130923.29    1657.8772    107505.95 
    5700    447.23304   -131413.63            0    -130893.4   -38.598727    107616.18 
    5750    453.80176   -131392.86            0   -130864.99     326.6189    107628.31 
    5800    467.21896    -131379.6            0   -130836.12    11.361916    107667.45 
    5850    475.30582   -131361.31            0   -130808.43    31.888821    107750.94 
    5900    491.12762   -131351.83            0   -130780.54   -866.32802    107876.87 
    5950    505.22922   -131340.95            0   -130753.27   -350.79085    107809.44 
    6000    515.18385   -131325.13            0   -130725.87     1061.283    107818.17 
    6050    527.18096   -131311.75            0   -130698.53    -717.3225    107930.05 
    6100    533.54963   -131292.21            0   -130671.58   -96.470119    107934.49 
    6150     545.4904   -131279.87            0   -130645.35    -1239.012    108055.14 
    6200    560.49222   -131269.93            0   -130617.96    677.74578    107992.68 
    6250    569.94607   -131254.33            0   -130591.36    584.09405    107979.89 
    6300    579.34605   -131238.93            0   -130565.03   -1865.9156    108162.54 
    6350    596.01289    -131231.7            0   -130538.41    237.44914    108165.18 
    6400    605.04458   -131215.82            0   -130512.02    554.52623    108186.77 
    6450    616.08914      -131202            0   -130485.35    56.583902     108211.2 
    6500    625.51053   -131186.67            0   -130459.07    953.62593    108156.98 
    6550    636.07832   -131173.35            0   -130433.45    281.58229    108248.79 
    6600    645.55423   -131156.88            0   -130405.96   -1196.5268    108291.18 
    6650    649.82669   -131136.74            0   -130380.85    698.55558    108310.66 
    6700    664.16414   -131126.36            0   -130353.79    610.84898    108399.83 
    6750    678.75209    -131116.5            0   -130326.97    161.35477    108467.95 
    6800    690.03068    -131103.6            0   -130300.95     161.4751    108401.89 
    6850    695.95007   -131083.75            0   -130274.22    118.44625    108444.71 
    6900    709.39589   -131074.03            0   -130248.85   -533.34814     108518.9 
    6950    724.29588    -131063.9            0   -130221.39    -34.50916    108560.85 
    7000    726.01701    -131040.2            0   -130195.69    458.69414    108573.38 
    7050    741.57882   -131032.14            0   -130169.53   -2167.8366    108722.07 
    7100    743.34316   -131007.46            0    -130142.8    1258.7275    108594.25 
    7150    763.53662    -131003.9            0   -130115.74    466.08389    108646.31 
    7200    780.00245   -130996.71            0    -130089.4   -895.68689    108741.32 
    7250    787.14551   -130979.01            0   -130063.39    784.77134    108730.16 
    7300    791.31613   -130956.11            0   -130035.64   -903.30727    108820.89 
    7350    805.99636   -130947.13            0   -130009.58   -589.19822    108921.91 
    7400    818.73226    -130935.8            0   -129983.44    297.57349    108817.48 
    7450    840.95233   -130936.13            0   -129957.92   -581.15263    108944.63 
    7500    831.71778   -130898.73            0   -129931.27   -1144.1706    109012.36 
    7550    843.56158   -130888.02            0   -129906.78    465.48748    109025.86 
    7600     857.7248    -130877.2            0   -129879.48    776.28891    109026.21 
    7650    865.65587   -130859.79            0   -129852.85    61.021165    109089.39 
    7700    883.74779   -130853.62            0   -129825.63   -138.45146    109079.08 
    7750    901.64376   -130847.11            0    -129798.3    -609.2986    109175.27 
    7800    903.10063   -130822.51            0   -129772.01   -882.37297    109294.55 
    7850    919.14967   -130812.86            0   -129743.69   -18.255237    109222.84 
    7900     929.5534   -130797.75            0   -129716.48   -1882.2087     109374.6 
    7950    932.91767   -130774.08            0    -129688.9    473.62184    109279.76 
    8000    955.96542   -130774.22            0   -129662.23   -1386.3115    109381.92 
    8050    974.13458   -130766.12            0   -129632.99    1682.6943    109202.76 
    8100    971.25724   -130737.81            0   -129608.03    1017.2489    109331.07 
    8150    980.93707   -130721.06            0   -129580.03   -2672.6397    109556.06 
    8200    992.77134   -130708.31            0    -129553.5    2233.1099    109342.34 
    8250    1001.8544   -130692.58            0   -129527.21   -1435.4704    109540.35 
    8300    1022.3158   -130688.46            0   -129499.29     1166.959    109478.21 
    8350    1026.3877    -130665.8            0   -129471.89   -1349.3301    109610.26 
    8400    1035.7814   -130649.38            0   -129444.55   -1139.6519    109647.07 
    8450    1047.2552   -130637.09            0   -129418.91   -526.53152    109650.85 
    8500    1068.9722   -130632.53            0   -129389.09    822.59093    109593.63 
    8550    1066.5475   -130603.57            0   -129362.95   -633.53108    109739.02 
    8600    1090.4416   -130601.86            0   -129333.44    1410.0313    109711.65 
    8650    1089.2562   -130573.71            0   -129306.68   -1281.2542    109870.13 
    8700     1103.776   -130564.51            0   -129280.59    118.59927    109819.98 
    8750    1110.0253    -130542.7            0   -129251.51    2463.1006    109737.27 
    8800    1118.9879   -130527.91            0   -129226.29   -285.99474     109845.4 
    8850    1131.0231   -130514.13            0   -129198.51   -430.16535     109902.3 
    8900    1148.5385   -130506.78            0   -129170.78   -2348.6894     110078.3 
    8950    1139.9237   -130469.78            0    -129143.8    657.40547    110016.02 
    9000    1169.6982   -130476.87            0   -129116.26    329.20292    110074.24 
    9050    1196.5981   -130478.27            0   -129086.37   -1146.5706    110068.41 
    9100    1204.9764   -130461.26            0   -129059.61    1741.7501     109994.9 
    9150    1211.2931   -130441.31            0   -129032.32   -406.87726    110091.37 
    9200    1203.8066   -130405.48            0   -129005.19   -2020.2403    110307.22 
    9250    1235.9356   -130412.24            0   -128974.59   -29.312374    110161.83 
    9300    1238.9098   -130392.82            0    -128951.7    1341.4861    110111.51 
    9350    1242.9502   -130367.01            0   -128921.19   -1785.6414    110343.18 
    9400    1252.5313   -130348.98            0   -128892.02   -662.15547    110356.83 
    9450    1255.9308   -130328.72            0   -128867.81   -1442.8897    110550.77 
    9500    1273.1697    -130314.7            0   -128833.73    -82.22762    110444.86 
    9550    1286.3557   -130303.51            0   -128807.21    1459.3703    110414.36 
    9600    1297.4448   -130288.01            0    -128778.8   -787.90116    110509.13 
    9650    1303.5681   -130267.96            0   -128751.63   -1153.7472    110644.91 
    9700    1337.0923   -130277.45            0   -128722.13    -1577.453     110601.5 
    9750    1338.1719   -130254.23            0   -128697.65   -476.38015    110592.91 
    9800    1353.7105    -130242.8            0   -128668.14    1752.0182    110471.91 
    9850    1352.8738   -130216.27            0   -128642.59   -1164.4585    110693.08 
    9900    1364.5856   -130202.22            0   -128614.92    282.54912    110685.72 
    9950    1394.6396   -130206.25            0   -128583.99   -347.16722    110726.03 
   10000    1394.9044   -130180.52            0   -128557.96    -261.4158    110757.03 
   10050    1390.2487   -130145.92            0   -128528.77   -409.31064    110834.72 
   10100    1421.3911   -130151.18            0    -128497.8   -910.13389    110894.43 
   10150    1405.8629   -130107.73            0   -128472.41   -122.58817     110975.9 
   10200    1434.6356   -130108.94            0   -128440.16   -432.70452    111027.26 
   10250    1448.3933   -130096.52            0   -128411.73   -440.86678    111025.58 
   10300     1454.777   -130074.79            0   -128382.58   -294.96707    111036.11 
   10350    1461.1893   -130053.66            0   -128353.99    2598.2574    110982.31 
   10400    1490.4749   -130058.05            0   -128324.31     575.0204    111073.79 
   10450    1488.2793    -130025.8            0   -128294.62    -446.6729    111207.74 
   10500    1506.2318   -130019.76            0    -128267.7    819.46831     111234.3 
   10550    1507.8063   -129993.92            0   -128240.02    171.35488    111248.37 
   10600    1552.1674   -130016.64            0   -128211.14     1080.381    111137.15 
   10650    1532.0693   -129968.25            0   -128186.13    2888.7297    111209.93 
   10700    1536.7013   -129943.46            0   -128155.95   -348.92597    111416.93 
   10750    1543.5438    -129924.1            0   -128128.63   -162.82198    111413.87 
   10800    1568.2422   -129918.52            0   -128094.33    730.11731    111445.53 
   10850    1573.1261   -129899.94            0   -128070.06   -2410.0958    111618.73 
   10900    1584.8912   -129880.83            0   -128037.27    1256.1245    111487.65 
   10950     1600.785   -129872.05            0      -128010   -2025.6396    111679.33 
   11000    1605.8747   -129849.53            0   -127981.56    898.81329       111571 
   11050    1629.4788   -129850.39            0   -127954.96   -1716.5971    111722.94 
   11100    1624.4431   -129817.38            0   -127927.81   -197.00814    111739.27 
   11150    1631.9816    -129801.8            0   -127903.46    491.80975    111729.59 
   11200    1641.0274   -129782.63            0   -127873.77    -867.8837    111824.52 
   11250    1648.7144   -129760.88            0   -127843.08   -1401.2737    111957.23 
   11300    1670.7399   -129756.61            0   -127813.18    1121.0609    111800.19 
   11350    1692.2981   -129750.38            0   -127781.88   -702.34538    111933.78 
   11400    1695.4265   -129723.41            0   -127751.27    176.51282    112004.04 
   11450    1704.2417    -129701.7            0    -127719.3   -558.34577    112064.49 
   11500    1717.8766   -129689.33            0   -127691.08    379.82508    112066.43 
   11550    1700.6566   -129641.12            0    -127662.9     729.9634    112106.06 
   11600    1745.4927   -129658.89            0   -127628.51   -301.17408     112195.2 
   11650    1740.9653   -129625.62            0    -127600.5   -603.09727     112266.7 
   11700    1789.2772   -129645.85            0   -127564.54   -1251.6156     112290.8 
   11750    1783.4336   -129613.55            0   -127539.04    2494.2483    112163.83 
   11800    1781.0623   -129577.55            0    -127505.8   -1383.1744    112392.46 
   11850    1786.1949   -129564.28            0   -127486.56   -1296.9041    112462.79 
   11900    1815.6703   -129566.34            0   -127454.33    391.18013    112374.71 
   11950    1830.1561   -129557.06            0    -127428.2   -903.18913    112511.75 
   12000    1819.5303   -129519.99            0   -127403.49    738.81359     112522.1 
   12050    1838.2057   -129509.26            0   -127371.04   -660.16617    112635.39 
   12100    1828.1951   -129470.59            0   -127344.02   -2643.6804    112813.35 
   12150    1873.0638   -129490.13            0   -127311.36    -1382.034    112694.16 
   12200    1860.6096    -129446.7            0   -127282.42    3992.5068    112522.25 
   12250    1903.3764   -129461.17            0   -127247.14   -1545.4475    112795.44 
   12300    1884.9866   -129420.15            0   -127227.51   -815.25334    112838.97 
   12350    1899.4142   -129399.97            0   -127190.55    100.17498    112885.63 
   12400    1913.5806    -129381.6            0    -127155.7   -1801.6229    113014.92 
   12450    1905.9959   -129340.23            0   -127123.15    1577.5135    112925.55 
   12500    1941.9789   -129346.35            0   -127087.41   -1511.4179    113041.97 
   12550    1955.1138   -129330.27            0   -127056.05    1975.8861    112977.01 
   12600    1951.3337   -129291.84            0   -127022.02   -677.43488    113164.41 
   12650    1985.0924   -129300.98            0    -126991.9   -2263.3229    113227.51 
   12700    1979.3546   -129268.83            0   -126966.42   -396.96188    113190.52 
   12750    2018.5493   -129274.31            0   -126926.31   -992.17212    113178.74 
   12800     2006.245   -129238.16            0   -126904.48     1255.376    113214.45 
   12850    2014.8763   -129221.52            0   -126877.79   -1969.4682     113420.5 
   12900    2010.2456    -129181.6            0   -126843.26   -852.86319    113374.92 
   12950    2016.4684   -129166.83            0   -126821.24    693.79043    113353.82 
   13000    2051.3955   -129179.48            0   -126793.27    159.02952    113330.16 
   13050    2067.3042   -129165.46            0   -126760.75    955.78538    113442.97 
   13100    2066.9228   -129134.63            0   -126730.36    1960.1439    113370.05 
   13150    2093.8386   -129132.39            0   -126696.81   -1572.4834    113599.04 
   13200    2075.1746   -129075.68            0   -126661.81   -95.873816    113608.97 
   13250    2101.9154    -129067.9            0   -126622.93    1440.8545    113633.14 
   13300    2130.6153   -129062.49            0   -126584.13   -547.62312    113723.39 
   13350    2108.8835   -129009.08            0      -126556   -927.86254    113879.49 
   13400    2126.2842   -128994.06            0   -126520.74   -841.51638    113867.37 
   13450    2158.1352   -128995.81            0   -126485.44   -969.65112     113826.3 
   13500    2163.2591   -128983.09            0   -126466.76    1282.9947    113778.12 
   13550    2192.3802   -128979.15            0   -126428.95    303.46102    113851.23 
   13600    2175.6462   -128928.53            0   -126397.79    140.67582    113945.09 
   13650    2181.7212   -128904.74            0   -126366.93   -3345.8831    114214.09 
   13700    2208.4042   -128892.33            0   -126323.48   -610.12813    113876.85 
   13750    2228.3868   -128871.56            0   -126279.47   -1787.5204    114194.71 
   13800    2209.9052   -128807.87            0   -126237.28    916.16223    113975.77 
   13850    2246.2317   -128807.09            0   -126194.24    675.05312    114056.04 
   13900    2246.0822   -128763.27            0    -126150.6    2378.2497    114010.53 
   13950    2228.2784   -128705.55            0   -126113.59    121.20265    114346.83 
   14000    2289.0977   -128734.96            0   -126072.25   -2356.1138    114436.73 
   14050    2285.3494   -128696.43            0   -126038.08    1906.8323    114291.55 
   14100    2282.2923   -128658.15            0   -126003.36   -4283.6655    114633.43 
   14150    2295.7427   -128636.27            0   -125965.83    1915.5037    114297.75 
   14200    2296.4206   -128608.71            0   -125937.48    1989.0645    114327.55 
   14250    2307.9527   -128583.95            0   -125899.31    -2952.322    114628.54 
   14300    2311.7131   -128552.31            0    -125863.3    346.59587    114520.33 
   14350    2342.3906   -128551.71            0   -125827.02    2948.8261    114288.56 
   14400    2347.4627   -128516.47            0   -125785.88    153.27838    114483.58 
   14450    2350.6639   -128485.78            0   -125751.46   -45.558544    114644.02 
   14500     2404.621   -128503.45            0   -125706.37   -515.55476    114554.59 
   14550     2385.616      -128448            0   -125673.02    5167.1359    114331.13 
   14600    2378.4485   -128398.47            0   -125631.83   -3971.6933    114906.54 
   14650    2371.3659   -128349.57            0   -125591.16   -434.75949    114764.33 
   14700    2423.1511   -128364.33            0    -125545.7    4366.1303    114508.65 
   14750    2453.1213    -128356.9            0    -125503.4   -1978.7437    114714.92 
   14800    2464.6244   -128329.14            0   -125462.26    1932.2329    114705.66 
   14850    2470.0899   -128292.98            0   -125419.75   -2856.4835    115004.02 
   14900    2450.7939   -128241.69            0   -125390.89   -978.59012    114861.02 
   14950    2485.6903   -128239.59            0   -125348.21    2672.4249    114609.98 
   15000    2471.5425   -128191.47            0   -125316.54   -4318.3591    114984.26 
Loop time of 126.048 on 24 procs for 10000 steps with 9000 atoms

Performance: 13.709 ns/day, 1.751 hours/ns, 79.335 timesteps/s
99.6% CPU use with 24 MPI tasks x no OpenMP threads

MPI task timing breakdown:
Section |  min time  |  avg time  |  max time  |%varavg| %total
---------------------------------------------------------------
Pair    | 117        | 118.86     | 121.76     |  15.5 | 94.30
Bond    | 0.0014107  | 0.0021118  | 0.0028518  |   0.7 |  0.00
Neigh   | 1.9276     | 1.9806     | 2.0397     |   2.3 |  1.57
Comm    | 1.1414     | 2.13       | 4.3918     |  58.5 |  1.69
Output  | 0.0084795  | 0.0086649  | 0.010598   |   0.4 |  0.01
Modify  | 0.63588    | 2.8871     | 5.0703     | 105.1 |  2.29
Other   |            | 0.1819     |            |       |  0.14

Nlocal:    375 ave 395 max 358 min
Histogram: 1 2 2 0 11 5 1 1 0 1
Nghost:    5708.92 ave 5822 max 5601 min
Histogram: 1 1 3 2 6 3 5 1 1 1
Neighs:    132926 ave 141697 max 124932 min
Histogram: 1 1 1 4 8 4 3 1 0 1

Total # of neighbors = 3190213
Ave neighs/atom = 354.468
Ave special neighs/atom = 0
Neighbor list builds = 565
Dangerous builds = 119

unfix thermostat_ramp

fix thermostat_eq all npt temp $T $T ${THERMO_DAMP} aniso 0.0 0.0 ${BARO_DAMP}
fix thermostat_eq all npt temp 2500 $T ${THERMO_DAMP} aniso 0.0 0.0 ${BARO_DAMP}
fix thermostat_eq all npt temp 2500 2500 ${THERMO_DAMP} aniso 0.0 0.0 ${BARO_DAMP}
fix thermostat_eq all npt temp 2500 2500 0.1 aniso 0.0 0.0 ${BARO_DAMP}
fix thermostat_eq all npt temp 2500 2500 0.1 aniso 0.0 0.0 0.5

variable AVE_START equal 20000
variable V equal vol
variable LX equal lx
variable LY equal ly
variable LZ equal lz
fix avg_V_fix all ave/time 1 1000 1000 v_V start ${AVE_START}
fix avg_V_fix all ave/time 1 1000 1000 v_V start 20000
fix avg_LX_fix all ave/time 1 1000 1000 v_LX start ${AVE_START}
fix avg_LX_fix all ave/time 1 1000 1000 v_LX start 20000
fix avg_LY_fix all ave/time 1 1000 1000 v_LY start ${AVE_START}
fix avg_LY_fix all ave/time 1 1000 1000 v_LY start 20000
fix avg_LZ_fix all ave/time 1 1000 1000 v_LZ start ${AVE_START}
fix avg_LZ_fix all ave/time 1 1000 1000 v_LZ start 20000

variable AVG_V equal f_avg_V_fix
variable AVG_LX equal f_avg_LX_fix
variable AVG_LY equal f_avg_LY_fix
variable AVG_LZ equal f_avg_LZ_fix

variable VOL equal ${AVG_V}
variable VOL equal 0
variable LP equal (${VOL}/(4*4*${zunits}))^(1/3)
variable LP equal (0/(4*4*${zunits}))^(1/3)
variable LP equal (0/(4*4*20))^(1/3)

print "OUTPUT:${AVG_V}:${AVG_LX}:${AVG_LY}:${AVG_LZ}:${LP}"
OUTPUT:0:0:0:0:0

unfix avg_V_fix
unfix avg_LX_fix
unfix avg_LY_fix
unfix avg_LZ_fix

run ${equilsteps}
run 10000
Per MPI rank memory allocation (min/avg/max) = 7.936 | 7.949 | 7.962 Mbytes
Step Temp E_pair E_mol TotEng Press Volume 
   15000    2471.5425   -128191.47            0   -125316.54   -4318.3591    114984.26 
   15050    2506.6547   -128205.07            0    -125289.3    3543.3097    114738.25 
   15100    2507.2613   -128164.91            0   -125248.43   -2291.5026     115126.2 
   15150    2526.5934   -128128.93            0   -125189.96    3189.1499    114772.75 
   15200    2504.5138   -128104.96            0   -125191.68   -1077.8541    114962.77 
   15250    2511.5668   -128122.33            0   -125200.84   -3402.4836    115047.02 
   15300    2524.9699   -128170.69            0   -125233.62    2467.0336    114574.07 
   15350    2504.2366   -128182.61            0   -125269.66    -1775.404    114957.87 
   15400    2494.1779   -128177.19            0   -125275.93    965.72134    114684.65 
   15450    2513.2986   -128140.65            0   -125217.15     11.85575     114896.5 
   15500    2491.2924   -128074.56            0   -125176.66    474.81515     114996.5 
   15550    2525.3007   -128134.59            0   -125197.13    932.46476    114661.04 
   15600     2520.638   -128163.19            0   -125231.15   -628.69896    114816.34 
   15650    2504.6608   -128154.45            0      -125241    583.26848    114717.63 
   15700    2523.0312    -128166.7            0   -125231.88    1760.6007    114508.25 
   15750    2521.4289   -128126.59            0   -125193.63   -1658.6149    114973.21 
   15800    2534.9793   -128113.88            0   -125165.16   -166.54596    114703.32 
   15850    2508.4143   -128112.06            0   -125194.24   -2084.1032    114816.83 
   15900    2478.5664   -128130.96            0   -125247.86    380.73543    114731.45 
   15950    2501.2247   -128160.17            0   -125250.72   -546.81793    114684.16 
   16000    2487.9873   -128123.89            0   -125229.84     1626.387    114588.34 
   16050     2512.921    -128133.6            0   -125210.54   -141.45655    114640.39 
   16100    2502.7953   -128117.68            0    -125206.4   -1728.5702    114710.93 
   16150     2492.179   -128107.13            0    -125208.2   -425.78458    114638.32 
   16200    2502.1098   -128148.83            0   -125238.35   -2788.3979    114805.73 
   16250    2510.7766   -128180.64            0   -125260.07    1548.8436    114471.89 
   16300    2484.3465   -128160.69            0   -125270.87   -2264.8914    114776.99 
   16350    2519.0378   -128188.79            0   -125258.61    673.81441    114528.94 
   16400    2521.8518   -128161.23            0   -125227.79    1543.5144    114674.45 
   16450    2497.9382   -128094.47            0   -125188.83   -2578.6233    114876.34 
   16500    2521.4716   -128099.71            0   -125166.71    2429.2868    114669.92 
   16550    2481.4297   -128112.71            0   -125226.28   -1566.6109    114848.65 
   16600    2519.5854   -128200.37            0   -125269.56   -1435.4229    114683.62 
   16650    2501.8416   -128172.51            0   -125262.34    -1083.199    114748.99 
   16700     2514.896   -128164.96            0    -125239.6    982.54054    114657.53 
   16750    2515.5258   -128128.62            0   -125202.53   -1181.5815     114837.4 
   16800     2506.491   -128084.33            0   -125168.75    59.497386    114726.55 
   16850    2491.7337   -128035.87            0   -125137.45    121.78124    114844.14 
   16900    2543.6514   -128071.12            0   -125112.31   -908.27672    114923.79 
   16950    2533.0518   -128107.99            0   -125161.52    1655.1761    114553.89 
   17000    2522.5678   -128150.31            0   -125216.03   -2599.6519    114807.41 
   17050    2494.2231   -128134.65            0   -125233.34      1681.64    114496.11 
   17100    2516.3003   -128153.79            0    -125226.8    333.08751    114635.55 
   17150    2496.0028   -128084.51            0   -125181.13    59.723697    114664.98 
   17200    2512.1826    -128076.3            0    -125154.1    1899.0398    114686.98 
   17250    2532.9841   -128116.84            0   -125170.44   -4897.9087    114991.52 
   17300    2499.8291   -128166.83            0      -125259    2952.4996    114275.08 
   17350      2502.98    -128188.8            0    -125277.3   -1265.1398    114539.17 
   17400    2501.6111   -128164.98            0   -125255.08    437.20544    114429.65 
   17450    2482.5561   -128111.07            0   -125223.33    2370.6146    114536.82 
   17500    2484.1354   -128093.45            0   -125203.87    622.39048    114721.91 
   17550    2512.7777   -128118.34            0   -125195.45    462.40856    114736.28 
   17600    2477.6426   -128119.57            0   -125237.55    -2233.757    114798.86 
   17650    2483.7604   -128167.62            0   -125278.48     2491.354    114296.48 
   17700    2492.7875   -128184.29            0   -125284.65   -3263.4182    114601.56 
   17750    2483.7623   -128121.91            0   -125232.76     3103.519     114489.5 
   17800    2520.3727    -128128.2            0   -125196.47   -1988.9084     114780.5 
   17850    2500.1859   -128109.78            0   -125201.54    312.28591    114682.12 
   17900    2507.2075   -128142.75            0   -125226.34    1160.6232    114551.22 
   17950    2484.2445   -128123.53            0   -125233.83   -2267.5901    114857.58 
   18000    2518.4691   -128107.17            0   -125177.65    1554.0759    114505.54 
   18050    2537.4829   -128088.69            0   -125137.06   -2348.2514    114839.16 
   18100     2499.596   -128078.68            0   -125171.12    1207.4814    114765.33 
   18150    2508.6404   -128118.13            0   -125200.05   -2993.6763    115001.39 
   18200    2487.6856   -128126.43            0   -125232.72   -1272.8821    114825.22 
   18250    2481.6506   -128130.63            0   -125243.94    1402.8782    114593.42 
   18300    2478.5804   -128124.12            0   -125241.01   -559.29071    114803.57 
   18350    2483.3351   -128133.03            0   -125244.38   -62.591502    114851.01 
   18400    2534.6723   -128187.04            0   -125238.68   -1589.6697    114737.89 
   18450    2502.8506   -128149.09            0   -125237.74   -1153.0417    114765.59 
   18500    2507.8396   -128112.44            0   -125195.29   -941.72906    114884.87 
   18550    2524.1817   -128092.76            0   -125156.61    619.33859    114846.27 
   18600    2545.0494   -128154.57            0   -125194.14    -903.5303    114669.31 
   18650    2510.3727   -128157.49            0   -125237.39    822.80131    114647.31 
   18700    2490.6553   -128134.41            0   -125237.25    773.83389    114550.21 
   18750    2479.6576   -128099.75            0   -125215.38    2307.2912    114472.38 
   18800    2520.3416    -128112.7            0   -125181.01   -1340.6784     114740.5 
   18850    2543.3945   -128095.83            0   -125137.32    1899.2383    114613.37 
   18900    2529.7936   -128114.29            0   -125171.61    -630.7772    114819.06 
   18950    2482.6817   -128107.46            0   -125219.57    1254.1536    114584.06 
   19000    2480.5721   -128097.92            0   -125212.49     1353.471    114525.28 
   19050      2497.64   -128085.14            0   -125179.85   -4380.8732    114951.84 
   19100    2520.6307   -128071.73            0    -125139.7    2406.4039    114471.44 
   19150    2528.5853   -128082.34            0   -125141.06   -2969.0859    114893.99 
   19200    2495.9713   -128131.46            0   -125228.11    956.43552    114554.02 
   19250    2474.1951   -128125.58            0   -125247.57    778.81839     114489.3 
   19300    2482.5525   -128128.28            0   -125240.55   -1166.5392    114703.29 
   19350    2481.6672    -128125.3            0   -125238.59    1888.3688    114502.86 
   19400    2478.8504   -128123.17            0   -125239.74   -18.557919    114745.09 
   19450    2544.7322   -128157.76            0    -125197.7   -2329.0896    114702.69 
   19500    2515.4835   -128111.26            0   -125185.22   -578.17643    114616.76 
   19550     2513.891   -128129.96            0   -125205.77    305.24601    114825.37 
   19600    2475.9996   -128148.02            0   -125267.91    2595.4568    114581.94 
   19650    2497.0322   -128172.01            0   -125267.43    309.45312    114617.19 
   19700    2494.6679   -128137.52            0    -125235.7     -552.034     114668.4 
   19750    2511.5213   -128125.16            0   -125203.73    958.75506    114671.72 
   19800    2489.5577   -128101.37            0   -125205.48    726.72699    114693.16 
   19850    2486.4898   -128110.39            0   -125218.07   -186.37419    114656.76 
   19900    2458.5138   -128090.03            0   -125230.26    192.73257    114744.69 
   19950    2518.5614   -128135.48            0   -125205.86    483.79866    114606.68 
   20000    2522.1375    -128091.8            0   -125158.02    50.882455     114736.3 
   20050    2534.7871    -128114.8            0    -125166.3    929.31446    114692.47 
   20100    2496.0302   -128130.24            0   -125226.83    1507.1833    114617.51 
   20150    2496.8998   -128148.37            0   -125243.94   -2737.9644    114895.71 
   20200    2513.8436    -128162.1            0   -125237.97    3701.8728    114397.58 
   20250    2502.8673   -128121.83            0   -125210.47   -2636.9469    114833.95 
   20300    2525.3416   -128106.86            0   -125169.35    2660.6006    114587.11 
   20350    2496.5083   -128109.16            0   -125205.19   -3263.5228    114884.75 
   20400    2463.2264   -128137.95            0    -125272.7    1585.8407    114445.94 
   20450    2463.7086   -128137.89            0   -125272.07    -2107.538    114619.59 
   20500    2515.4811    -128158.4            0   -125232.36    520.89173    114619.04 
   20550    2514.9844   -128118.25            0   -125192.79   -1817.3001     114766.8 
   20600    2549.0256    -128146.2            0   -125181.14    350.67199    114694.09 
   20650    2508.1077   -128124.35            0   -125206.89   -1421.3998    114691.18 
   20700    2501.8753   -128138.68            0   -125228.47   -647.62531    114568.49 
   20750    2482.1396   -128118.76            0   -125231.51     422.4074    114550.49 
   20800    2501.0439   -128120.29            0   -125211.05   -2013.8685    114708.72 
   20850    2528.2063   -128093.48            0   -125152.64    83.769706    114712.09 
   20900    2528.6958   -128058.03            0   -125116.62   -2675.4218     114975.9 
   20950    2502.2011   -128060.43            0   -125149.84    3635.7429    114583.29 
   21000     2508.013   -128116.61            0   -125199.26   -262.96652    114693.76 
   21050    2472.8476   -128088.03            0   -125211.58    841.84822    114629.08 
   21100    2506.3839   -128117.21            0   -125201.75    553.39394    114668.95 
   21150    2471.4748   -128104.03            0   -125229.18    -889.1873    114672.45 
   21200    2509.7261   -128181.34            0      -125262    2702.7038    114532.36 
   21250    2466.5533   -128162.36            0   -125293.23   -1083.7192    114730.27 
   21300    2506.1018   -128169.23            0    -125254.1   -976.77334    114614.53 
   21350    2511.0555   -128119.05            0   -125198.16    1837.6785    114680.56 
   21400    2502.7055   -128091.67            0    -125180.5   -2867.9828    114940.53 
   21450    2539.7513   -128127.42            0   -125173.15     3273.728    114501.28 
   21500    2484.5458   -128122.47            0   -125232.41   -949.20074    114809.78 
   21550    2511.0497   -128183.54            0   -125262.66    3740.3371    114355.37 
   21600    2470.4341   -128126.36            0   -125252.72   -1119.1762    114799.02 
   21650    2519.8104    -128142.6            0   -125211.53    1853.1446    114643.12 
   21700    2501.5201   -128105.94            0   -125196.14   -1579.5501    114744.79 
   21750      2521.25   -128136.07            0   -125203.32   -1557.5777    114734.51 
   21800    2459.9681   -128137.79            0   -125276.32    2857.4045    114574.17 
   21850    2465.3555    -128170.4            0   -125302.67   -2950.7874    114866.47 
   21900    2499.5723   -128183.07            0   -125275.54     2649.463    114502.43 
   21950    2495.5495   -128131.24            0   -125228.38   -1484.0659     114758.7 
   22000    2519.8001   -128131.94            0   -125200.88     894.9811     114717.6 
   22050     2508.158   -128121.79            0   -125204.27   -723.31019    114862.44 
   22100    2504.2239   -128154.67            0   -125241.73     354.3581    114673.77 
   22150    2450.8148   -128153.92            0    -125303.1    14.318958    114542.11 
   22200    2475.3969    -128174.2            0   -125294.79   -921.02841     114708.8 
   22250    2477.5909   -128145.86            0   -125263.89    2130.7993    114465.92 
   22300    2499.8179   -128140.17            0   -125232.36    821.37943     114686.5 
   22350    2524.4796   -128135.91            0   -125199.41    1231.9222    114688.67 
   22400    2522.3924   -128119.68            0    -125185.6    1110.5258    114561.09 
   22450    2482.2748   -128096.13            0   -125208.72    -3127.051    114737.45 
   22500    2506.3235   -128169.98            0   -125254.59     3417.783    114382.37 
   22550    2501.6888   -128190.75            0   -125280.75   -3962.6566    114687.36 
   22600    2485.6843   -128133.09            0   -125241.71    2730.9321    114374.64 
   22650    2466.9569   -128077.33            0   -125207.73   -80.078644    114694.55 
   22700     2491.388   -128085.13            0   -125187.12    -1507.665    114899.12 
   22750    2503.8899   -128094.64            0   -125182.09    2929.0381    114481.38 
   22800    2520.1837   -128142.08            0   -125210.57   -1725.6291    114698.36 
   22850    2473.5233   -128154.52            0   -125277.29    825.98959    114477.74 
   22900    2461.2281   -128160.76            0   -125297.83    1403.7862    114499.26 
   22950    2483.4889   -128154.54            0   -125265.72   -2601.0192    114570.27 
   23000    2484.8903   -128128.87            0   -125238.41    942.81737    114442.52 
   23050    2498.8828   -128116.74            0      -125210   -1637.6437    114613.78 
   23100    2483.1625   -128076.24            0    -125187.8   -258.98043    114647.86 
   23150    2541.6038   -128128.38            0   -125171.96    927.29363    114593.52 
   23200    2505.6625   -128142.36            0   -125227.74   -3048.6262     114866.9 
   23250    2499.4348   -128154.35            0   -125246.98    2744.4773    114480.14 
   23300    2499.9042   -128150.24            0   -125242.32   -1404.1828    114635.84 
   23350    2489.3201   -128107.36            0   -125211.75    2293.3589    114635.71 
   23400    2528.0174   -128089.99            0   -125149.37   -2694.6561    114896.49 
   23450    2541.9441   -128113.79            0   -125156.97   -258.60937    114668.89 
   23500    2502.1858   -128111.53            0   -125200.96   -496.31917    114681.03 
   23550    2509.3849   -128139.35            0    -125220.4    -2214.206    114935.14 
   23600    2533.3959   -128168.29            0   -125221.41     1471.208    114601.98 
   23650    2501.0315   -128127.22            0   -125217.99   -1366.2961    114734.07 
   23700    2487.8438   -128131.15            0   -125237.26    623.68365    114684.45 
   23750    2469.0735   -128133.87            0   -125261.82   -446.38178    114640.19 
   23800    2458.2897   -128098.58            0   -125239.07   -1099.9628    114667.09 
   23850    2509.5401   -128102.25            0   -125183.12   -916.95258    114805.58 
   23900    2514.6616   -128099.48            0    -125174.4   -3124.5779    114979.24 
   23950    2521.3819   -128123.64            0   -125190.73    3156.6599    114487.51 
   24000     2481.799   -128132.21            0   -125245.35   -2555.7067    114747.14 
   24050    2468.4234   -128132.92            0   -125261.62     2214.463    114507.11 
   24100    2467.2859   -128122.67            0   -125252.69   -1296.3617    114805.93 
   24150    2490.7114   -128117.43            0   -125220.21    202.47792    114595.08 
   24200    2519.4736   -128119.65            0   -125188.96   -1429.2774    114716.65 
   24250    2529.9756   -128115.97            0   -125173.08   -822.14766     114779.2 
   24300    2515.3713   -128102.31            0    -125176.4   -469.16726    114773.29 
   24350    2474.6102   -128105.65            0   -125227.16    910.06488     114613.6 
   24400     2466.248   -128121.35            0   -125252.58    1663.4471    114495.74 
   24450    2495.3833   -128118.18            0   -125215.52   -2671.8571    114831.83 
   24500    2532.7789   -128125.59            0   -125179.43    1128.2519    114694.06 
   24550    2485.9588   -128082.06            0   -125190.36   -119.28255    114762.77 
   24600    2505.8092   -128117.26            0   -125202.47   -177.33335    114760.38 
   24650    2485.1279   -128103.11            0   -125212.38   -1533.1512    114679.54 
   24700    2499.8585   -128123.56            0    -125215.7    173.14117    114455.62 
   24750     2476.706   -128126.73            0    -125245.8    404.73054    114605.23 
   24800     2471.604   -128129.76            0   -125254.76   -911.46539    114685.72 
   24850    2498.9031   -128104.43            0   -125197.68    3150.9833     114486.4 
   24900    2526.3808   -128100.53            0   -125161.81   -6166.0253    115106.58 
   24950     2535.798   -128120.51            0   -125170.84    2071.9671    114576.27 
   25000    2519.1171   -128125.52            0   -125195.26    217.95938    114761.08 
Loop time of 126.699 on 24 procs for 10000 steps with 9000 atoms

Performance: 13.639 ns/day, 1.760 hours/ns, 78.927 timesteps/s
99.7% CPU use with 24 MPI tasks x no OpenMP threads

MPI task timing breakdown:
Section |  min time  |  avg time  |  max time  |%varavg| %total
---------------------------------------------------------------
Pair    | 115.07     | 117.62     | 121.06     |  16.5 | 92.83
Bond    | 0.001378   | 0.0021523  | 0.0028224  |   0.7 |  0.00
Neigh   | 3.1901     | 3.2921     | 3.4023     |   3.3 |  2.60
Comm    | 1.1712     | 2.4531     | 4.7244     |  65.5 |  1.94
Output  | 0.0085839  | 0.0087278  | 0.010675   |   0.4 |  0.01
Modify  | 0.65411    | 3.1634     | 5.1465     | 100.4 |  2.50
Other   |            | 0.1608     |            |       |  0.13

Nlocal:    375 ave 385 max 362 min
Histogram: 1 2 0 3 7 1 2 3 1 4
Nghost:    5716.92 ave 5836 max 5610 min
Histogram: 1 2 3 2 3 7 2 2 1 1
Neighs:    133302 ave 139033 max 128106 min
Histogram: 2 2 3 3 4 2 2 3 1 2

Total # of neighbors = 3199249
Ave neighs/atom = 355.472
Ave special neighs/atom = 0
Neighbor list builds = 917
Dangerous builds = 331

unfix thermostat_eq

fix thermostat_nvt all nvt temp ${T} ${T} ${THERMO_DAMP}
fix thermostat_nvt all nvt temp 2500 ${T} ${THERMO_DAMP}
fix thermostat_nvt all nvt temp 2500 2500 ${THERMO_DAMP}
fix thermostat_nvt all nvt temp 2500 2500 0.1

run ${equilsteps}
run 10000
Per MPI rank memory allocation (min/avg/max) = 7.936 | 7.949 | 7.962 Mbytes
Step Temp E_pair E_mol TotEng Press 
   25000    2519.1171   -128125.52            0   -125195.26    217.95938 
   25050    2514.7184   -128125.67            0   -125200.52   -2709.1608 
   25100     2479.273   -128116.98            0   -125233.06   -2361.1368 
   25150    2485.1105   -128162.73            0   -125272.02   -2227.8006 
   25200     2480.719   -128167.97            0   -125282.37   -2708.9452 
   25250    2512.0378   -128141.45            0   -125219.41   -2760.4756 
   25300    2505.8906   -128101.96            0   -125187.07   -935.62931 
   25350    2475.7313   -128068.47            0   -125188.67   -2172.1546 
   25400    2514.1075   -128130.42            0   -125205.98   -48.788278 
   25450    2493.2163   -128165.38            0   -125265.24   -2535.4161 
   25500    2473.3955   -128146.87            0   -125269.79   -3223.6618 
   25550    2462.2897   -128104.66            0   -125240.49   -1819.6635 
   25600    2506.8528   -128136.41            0   -125220.41   -522.39459 
   25650    2525.4476   -128156.47            0   -125218.84    -2238.013 
   25700    2519.2892    -128134.8            0   -125204.33   -1171.8155 
   25750    2511.1718   -128110.11            0   -125189.08   -1177.0888 
   25800    2506.8203    -128115.3            0   -125199.34    620.22522 
   25850    2499.4043   -128162.61            0   -125255.28   -1849.4557 
   25900    2457.5465    -128126.4            0   -125267.75    207.99421 
   25950    2492.9109   -128125.52            0   -125225.73    1086.0802 
   26000     2516.094   -128134.21            0   -125207.46   -632.28041 
   26050    2489.4606   -128104.66            0   -125208.89    -157.0372 
   26100    2523.4094   -128151.87            0   -125216.61   -993.23993 
   26150     2467.006   -128092.81            0   -125223.16    1891.2838 
   26200     2500.012   -128106.83            0   -125198.79   -152.08077 
   26250    2493.2518   -128080.37            0   -125180.19   -1613.7058 
   26300    2502.3347   -128092.88            0   -125182.14    827.24085 
   26350    2483.0741   -128083.36            0   -125195.01   -813.32838 
   26400    2488.5323   -128109.31            0   -125214.62   -2726.0129 
   26450    2494.3492   -128133.12            0   -125231.66   -1408.8025 
   26500    2473.4642   -128113.81            0   -125236.65    -1597.684 
   26550    2529.6533   -128129.96            0   -125187.44   -252.63985 
   26600    2515.3619   -128089.39            0   -125163.49    128.80158 
   26650     2545.692   -128114.68            0    -125153.5    521.16859 
   26700    2482.6754    -128107.3            0   -125219.43    808.93967 
   26750    2491.1558   -128143.14            0   -125245.39    610.05761 
   26800    2498.6595   -128137.16            0   -125230.68   -1128.4281 
   26850    2483.0716   -128108.67            0   -125220.33    718.41721 
   26900    2497.9692   -128092.42            0   -125186.75     1903.982 
   26950    2542.3146    -128099.4            0   -125142.15   -246.94402 
   27000    2504.2745   -128086.91            0    -125173.9    1830.0378 
   27050    2517.2822   -128146.24            0   -125218.11   -421.62631 
   27100    2486.8401   -128114.68            0   -125221.96   -305.59544 
   27150    2475.1725   -128094.78            0   -125215.63    1002.7028 
   27200     2491.401   -128100.41            0   -125202.39   -315.34588 
   27250    2488.5544   -128051.54            0   -125156.83    2239.8011 
   27300    2527.4769   -128065.88            0   -125125.89    2641.1882 
   27350    2485.9814    -128062.2            0   -125170.48    434.46263 
   27400    2479.0882      -128098            0    -125214.3   -1756.0363 
   27450    2498.8851   -128114.78            0   -125208.04   -1366.5839 
   27500    2487.0468   -128092.94            0   -125199.98   -394.40584 
   27550    2504.9178   -128068.64            0   -125154.89   -1825.2925 
   27600    2530.7993   -128057.74            0   -125113.89   -313.01093 
   27650    2490.1026   -128039.64            0   -125143.12   -1318.9492 
   27700    2471.3857   -128081.56            0   -125206.81   -691.98899 
   27750    2501.0657   -128124.91            0   -125215.64   -3031.6615 
   27800    2463.3671   -128068.07            0   -125202.66   -3166.3342 
   27850     2518.081   -128093.13            0   -125164.07    692.47337 
   27900    2487.1617   -128074.16            0   -125181.06    -2390.599 
   27950    2477.7209   -128116.25            0   -125234.13    -1104.964 
   28000    2506.5439   -128163.98            0   -125248.34   -3421.4448 
   28050    2515.7826   -128166.66            0   -125240.27   -3038.8563 
   28100    2535.7707   -128179.99            0   -125230.35   -2399.3448 
   28150    2508.8051   -128131.45            0   -125213.18    -694.0216 
   28200    2480.0502   -128083.79            0   -125198.97    -893.5228 
   28250    2535.8895   -128121.71            0   -125171.94   -3973.2976 
   28300    2502.4518   -128096.17            0   -125185.29   -705.68162 
   28350    2501.2336   -128140.32            0   -125230.86   -2279.1631 
   28400    2459.1655    -128120.7            0   -125260.17    -2814.919 
   28450     2487.735   -128124.95            0   -125231.18   -3365.5276 
   28500     2491.735   -128104.02            0    -125205.6   -880.08642 
   28550    2520.2413   -128119.08            0   -125187.51   -2119.2913 
   28600    2515.3037   -128117.22            0   -125191.39   -1628.8754 
   28650    2510.3593   -128147.23            0   -125227.15   -4025.7357 
   28700    2436.9875    -128092.7            0   -125257.96   -2569.9733 
   28750    2505.6323   -128149.49            0   -125234.91   -1881.4644 
   28800    2513.6523   -128076.09            0   -125152.18    222.05865 
   28850    2500.0838   -128064.76            0   -125156.63   -1213.2638 
   28900    2499.0715   -128100.77            0   -125193.82   -3897.3272 
   28950    2469.4209   -128106.26            0    -125233.8   -5608.0413 
   29000    2483.1127   -128109.22            0   -125220.83   -2612.3007 
   29050    2466.6484   -128063.46            0   -125194.23   -1251.4677 
   29100    2528.9326   -128088.89            0    -125147.2   -1746.0015 
   29150    2510.3233   -128048.54            0    -125128.5    535.02601 
   29200    2520.6204   -128041.84            0   -125109.83   -784.36587 
   29250    2528.5163   -128077.02            0   -125135.82   -1552.7858 
   29300    2492.1817   -128095.71            0   -125196.77   -3132.3871 
   29350    2509.5899   -128138.78            0   -125219.59   -4212.2695 
   29400    2497.5525   -128099.32            0   -125194.14   -3896.7544 
   29450    2496.7204      -128055            0   -125150.78   -2243.2174 
   29500    2530.0785   -128073.89            0   -125130.87   -2370.2542 
   29550    2496.7332   -128072.01            0   -125167.78   -477.80559 
   29600    2497.7648   -128105.16            0   -125199.73   -3073.1817 
   29650    2539.8989   -128156.38            0   -125201.94   -3100.2163 
   29700     2481.234   -128097.48            0   -125211.28   -1583.9156 
   29750    2504.5323   -128107.56            0   -125194.26   -4273.4961 
   29800    2536.7596   -128098.35            0   -125147.57   -897.40209 
   29850    2542.6828   -128094.13            0   -125136.45   -1114.1324 
   29900    2480.1658   -128095.25            0   -125210.29   -408.73406 
   29950    2469.4642   -128104.15            0   -125231.64   -3051.9391 
   30000    2473.8315   -128089.34            0   -125211.75   -461.95557 
   30050    2504.6001   -128082.52            0   -125169.14    -2193.425 
   30100    2511.9292   -128076.96            0   -125155.05   -1700.8567 
   30150    2500.8559   -128090.57            0   -125181.54    1778.3822 
   30200     2504.838   -128163.46            0    -125249.8   -1800.7672 
   30250    2485.1215   -128147.85            0   -125257.12   -3788.4412 
   30300     2513.338   -128130.45            0    -125206.9   -1763.0812 
   30350     2508.418   -128090.57            0   -125172.75   -998.65584 
   30400    2520.6246   -128111.67            0   -125179.65   -1524.8694 
   30450    2473.4717   -128099.19            0   -125222.02   -194.86772 
   30500    2483.1827   -128123.19            0   -125234.72   -2156.7005 
   30550    2499.9323   -128137.38            0   -125229.43   -1526.3749 
   30600    2481.9783   -128100.45            0   -125213.39   -1233.9131 
   30650    2500.3256   -128110.82            0   -125202.41    1411.0411 
   30700    2516.7931   -128127.95            0   -125200.39   -741.56301 
   30750     2500.245   -128113.34            0   -125205.02   -631.67725 
   30800    2491.6706    -128111.9            0   -125213.56   -207.05671 
   30850    2477.4404      -128103            0   -125221.21   -2701.2601 
   30900    2503.5149   -128101.97            0   -125189.85   -1187.9878 
   30950    2508.5661   -128071.57            0   -125153.58    410.21137 
   31000    2521.8344   -128110.87            0   -125177.44   -1927.2772 
   31050    2468.7155   -128117.75            0   -125246.11   -20.868753 
   31100    2490.0845   -128138.24            0   -125241.74   -3538.9207 
   31150    2489.1696   -128106.62            0   -125211.19   -3206.3967 
   31200    2521.7929   -128108.97            0   -125175.59   -892.74715 
   31250    2501.3335   -128072.72            0   -125163.14   -1578.0812 
   31300    2537.7053   -128083.15            0   -125131.26   -2174.0758 
   31350    2533.8292   -128061.21            0   -125113.83    663.55723 
   31400    2532.4626    -128109.8            0   -125164.01   -3552.6247 
   31450    2481.3741   -128095.55            0   -125209.18   -2208.3042 
   31500    2492.5505   -128102.59            0   -125203.22   -466.31187 
   31550    2521.6525   -128092.92            0   -125159.71   -2192.4958 
   31600    2509.8231      -128075            0   -125155.55   -649.64371 
   31650    2481.8567      -128094            0   -125207.08   -2553.4699 
   31700    2462.9649   -128114.66            0   -125249.71    -2316.906 
   31750    2468.5165   -128100.65            0   -125229.24   -2496.1362 
   31800      2487.81   -128093.63            0   -125199.78   -1145.4812 
   31850     2517.044   -128114.15            0   -125186.29   -1742.0323 
   31900     2497.016   -128071.58            0   -125167.02    108.93652 
   31950    2544.3605   -128090.21            0   -125130.58   -130.94075 
   32000    2519.7059   -128081.88            0   -125150.93   -529.95756 
   32050     2520.516   -128139.88            0   -125207.99   -3526.7201 
   32100    2481.0305   -128108.65            0   -125222.69   -1672.3067 
   32150    2510.9769   -128128.29            0   -125207.49   -1264.4155 
   32200    2488.2037   -128082.59            0   -125188.28   -911.12718 
   32250    2544.2615    -128084.4            0   -125124.89      509.756 
   32300    2534.0416   -128066.66            0   -125119.03    1328.2572 
   32350    2507.5675    -128112.5            0   -125195.66   -1352.1592 
   32400    2492.2993   -128110.74            0   -125211.67   -812.78934 
   32450    2482.6862   -128094.55            0   -125206.66   -1567.8457 
   32500    2496.5632   -128087.91            0   -125183.88   -1645.6727 
   32550    2506.0712   -128082.86            0   -125167.77    1296.5498 
   32600    2497.1352   -128086.46            0   -125181.77   -18.911069 
   32650    2483.8891    -128127.7            0   -125238.41   -1010.8034 
   32700    2482.3464   -128152.41            0   -125264.91   -1192.4961 
   32750    2473.9828   -128119.43            0   -125241.66   -781.38783 
   32800    2511.8045   -128118.95            0   -125197.19    517.72105 
   32850    2501.4312   -128103.18            0   -125193.49    -2007.691 
   32900    2514.4275   -128126.89            0   -125202.08   -915.82424 
   32950    2507.4951   -128131.84            0   -125215.09   -2679.2426 
   33000    2495.3631   -128136.18            0   -125233.55   -1646.6065 
   33050    2464.2827   -128129.12            0   -125262.64     145.0911 
   33100    2492.1905   -128153.99            0   -125255.04   -628.46108 
   33150    2506.6246   -128123.94            0    -125208.2    600.60868 
   33200    2506.8964   -128080.96            0   -125164.91     183.3265 
   33250     2535.962   -128131.75            0   -125181.89       315.62 
   33300    2497.9422   -128117.16            0   -125211.53   -1011.9924 
   33350    2452.0005   -128078.72            0   -125226.52    562.37138 
   33400    2501.6012   -128125.34            0   -125215.44   -205.99293 
   33450    2529.2213   -128147.19            0   -125205.17   -987.63112 
   33500    2514.7681   -128154.31            0    -125229.1   -864.36437 
   33550    2507.1377   -128204.14            0   -125287.81   -1007.7813 
   33600    2496.3456   -128195.56            0   -125291.78   -1650.3916 
   33650    2505.3772   -128155.78            0   -125241.49   -2501.6192 
   33700    2502.7495   -128118.18            0   -125206.95   -1310.4792 
   33750    2526.6416   -128141.98            0   -125202.96    174.78043 
   33800    2502.4604   -128149.31            0   -125238.42   -2193.2927 
   33850    2471.9287   -128144.31            0   -125268.94   -907.50393 
   33900    2470.5711   -128128.31            0   -125254.52    1965.5784 
   33950    2529.7295   -128115.84            0   -125173.23   -923.55499 
   34000    2515.1214    -128106.7            0   -125181.08    1335.5401 
   34050    2493.1633   -128116.64            0   -125216.56    408.97508 
   34100    2525.4754    -128177.2            0   -125239.53   -1361.4664 
   34150    2485.2605   -128156.57            0   -125265.69   -2682.5137 
   34200    2500.7207   -128144.15            0   -125235.28   -303.96135 
   34250    2505.1232   -128094.28            0   -125180.29   -190.82709 
   34300    2513.9093    -128111.4            0   -125187.19    331.10198 
   34350    2522.7289   -128156.23            0   -125221.77   -2564.4189 
   34400    2468.6338   -128124.68            0   -125253.14   -932.36967 
   34450    2516.8545   -128172.97            0   -125245.34   -4257.6686 
   34500     2506.134   -128136.29            0   -125221.13   -1958.3693 
   34550    2506.7618    -128125.5            0   -125209.61    911.10819 
   34600    2480.7825   -128099.79            0   -125214.11    511.92264 
   34650     2478.079   -128088.82            0   -125206.29    1085.9608 
   34700    2497.3124   -128100.89            0   -125195.99   -556.27828 
   34750    2523.1941   -128101.45            0   -125166.45    -2420.776 
   34800    2520.3447   -128065.93            0   -125134.24   -996.05479 
   34850    2535.2296   -128113.61            0    -125164.6   -890.62831 
   34900    2508.3375    -128134.7            0   -125216.97   -2925.5039 
   34950    2507.7502   -128140.11            0   -125223.07   -2266.1906 
   35000    2501.4534   -128104.87            0   -125195.15   -533.48665 
Loop time of 125.51 on 24 procs for 10000 steps with 9000 atoms

Performance: 13.768 ns/day, 1.743 hours/ns, 79.675 timesteps/s
99.7% CPU use with 24 MPI tasks x no OpenMP threads

MPI task timing breakdown:
Section |  min time  |  avg time  |  max time  |%varavg| %total
---------------------------------------------------------------
Pair    | 115.22     | 117.3      | 120.14     |  13.8 | 93.46
Bond    | 0.0014982  | 0.0021813  | 0.0029567  |   0.8 |  0.00
Neigh   | 3.0371     | 3.1285     | 3.2361     |   3.4 |  2.49
Comm    | 1.2314     | 2.3869     | 4.6612     |  58.4 |  1.90
Output  | 0.0084968  | 0.0086705  | 0.010705   |   0.5 |  0.01
Modify  | 0.53063    | 2.5103     | 4.2049     |  89.5 |  2.00
Other   |            | 0.1696     |            |       |  0.14

Nlocal:    375 ave 385 max 366 min
Histogram: 2 1 4 3 5 2 2 1 2 2
Nghost:    5708.62 ave 5797 max 5636 min
Histogram: 2 2 4 4 2 3 2 2 1 2
Neighs:    133243 ave 139178 max 128996 min
Histogram: 4 3 1 4 5 1 1 1 3 1

Total # of neighbors = 3197831
Ave neighs/atom = 355.315
Ave special neighs/atom = 0
Neighbor list builds = 871
Dangerous builds = 125

unfix thermostat_nvt

dump atoms all custom 1000000 lattice.out id type x y z c_peratom fx fy fz

reset_timestep 0

fix nve_fix all nve


thermo_modify line one format float %15.15g

variable tempsteps equal step

compute 1 all chunk/atom bin/1d ${dimension} lower ${thickness} units reduced
compute 1 all chunk/atom bin/1d z lower ${thickness} units reduced
compute 1 all chunk/atom bin/1d z lower 0.05 units reduced
fix 3 all ave/chunk 50 10 1050 1 v_temp file tmp_profile.out
fix flux all thermal/conductivity ${swapsteps} ${dimension} 20
fix flux all thermal/conductivity 50 ${dimension} 20
fix flux all thermal/conductivity 50 z 20

thermo_style custom step v_currenttime temp pe c_pe temp f_flux etotal press
WARNING: New thermo_style command, previous thermo_modify settings will be lost (../output.cpp:705)
thermo_style multi
thermo_modify line one format float %15.15g
thermo ${swapsteps}
thermo 50

variable fluxstep equal step-${tempsteps}
variable fluxstep equal step-0
variable fluxtime equal dt*v_fluxstep
variable fflux equal f_flux
variable eetotal equal etotal

fix fluxlog all print ${swapsteps} "${fluxstep} ${fluxtime} ${eetotal} ${fflux} " file flux_log.out
fix fluxlog all print 50 "${fluxstep} ${fluxtime} ${eetotal} ${fflux} " file flux_log.out

run         ${TCsteps}
run         2500000
Per MPI rank memory allocation (min/avg/max) = 9.588 | 9.601 | 9.614 Mbytes
TotEng KinEng Temp PotEng E_bond E_angle E_dihed E_impro E_vdwl E_coul E_long Press 
-125195.145052355 2909.72076359301 2501.45343358761 -128104.865815948               0               0               0               0 -11211.8342397376 -116893.03157621               0 -533.486649133215 
50 0.1 -125194.640937409 1.85296173242324 
-125194.640937409 2905.4483129846 2497.78045699895 -128100.089250393               0               0               0               0 -11258.4161211382 -116841.673129255               0 -3079.5420085238 
100 0.2 -125194.282036715 2.12853401473911 
-125194.282036715 2926.36216980721 2515.75985887594 -128120.644206522               0               0               0               0 -11225.7110310604 -116894.933175462               0 -1418.35421415876 
150 0.3 -125194.451336496 3.54057454853442 
-125194.451336496 2938.19950173658 2525.93627682289 -128132.650838233               0               0               0               0 -11319.7365556787 -116812.914282554               0 -3951.84385446113 
200 0.4 -125194.287395352 5.02451686201644 
-125194.287395352 2897.57410678433 2491.01109260395 -128091.861502136               0               0               0               0 -11279.00467015 -116812.856831986               0 -2081.10936993167 
250 0.5 -125194.36754479 6.68284809912354 
-125194.36754479 2896.18601911381 2489.81776961812 -128090.553563904               0               0               0               0 -11259.7610122896 -116830.792551615               0 -2859.2605289339 
300 0.6 -125194.293722322 7.51307179586523 
-125194.293722322 2915.15391144352 2506.12424822931 -128109.447633765               0               0               0               0 -11220.8858807812 -116888.561752984               0  -870.766973106 
350 0.7 -125194.417549648 10.3774329071736 
-125194.417549648 2915.69117506584 2506.58612757857 -128110.108724714               0               0               0               0 -11259.8067465199 -116850.301978194               0 -2644.13266765291 
400 0.8 -125193.809212777 11.7961366966896 
-125193.809212777 2904.39179281825 2496.87217877828 -128098.201005595               0               0               0               0 -11222.8920023223 -116875.309003273               0 -1767.94697528873 
450 0.9 -125193.845433495 13.7910321521573 
-125193.845433495 2923.70177408218 2513.4727473069 -128117.547207577               0               0               0               0 -11333.8960347506 -116783.651172826               0 -4554.95277168892 
500 1 -125193.43410448 14.6002878427139 
-125193.43410448 2853.11082598905 2452.78652212091 -128046.544930469               0               0               0               0 -11251.0071066591 -116795.537823809               0 -2254.54192700913 
550 1.1 -125193.416411953 16.3149169339686 
-125193.416411953 2904.52973946773 2496.99076992432 -128097.946151421               0               0               0               0 -11286.6910566678 -116811.255094753               0 -3426.19051492579 
600 1.2 -125193.979982946 17.8069014915799 
-125193.979982946 2919.99352836407 2510.28481116533 -128113.97351131               0               0               0               0 -11314.5821518771 -116799.391359433               0 -4457.7404261121 
650 1.3 -125193.966987823 19.6572181685155 
-125193.966987823 2930.72827243521 2519.51334702741 -128124.695260258               0               0               0               0 -11291.4078198379 -116833.28744042               0 -3772.2125498428 
700 1.4 -125193.84712216 20.5000601043836 
-125193.84712216 2916.38176597713 2507.17982063251 -128110.228888137               0               0               0               0 -11210.1268437417 -116900.102044395               0 -292.035478313291 
750 1.5 -125193.771379801 22.0339699231661 
-125193.771379801 2883.99789882633 2479.33978295921 -128077.769278627               0               0               0               0 -11204.2113459386 -116873.557932689               0 -590.910020008827 
800 1.6 -125193.847167684 22.7229013542168 
-125193.847167684 2914.48715632945 2505.55104653576 -128108.334324013               0               0               0               0 -11259.9325614582 -116848.401762555               0 -1759.70386961927 
850 1.7 -125193.497560634 24.5403855678967 
-125193.497560634 2928.32083660934 2517.44370217071 -128121.818397243               0               0               0               0 -11242.9312658711 -116878.887131372               0 -2184.92736792829 
900 1.8 -125193.663726358 26.3573950249458 
-125193.663726358 2900.56717831732 2493.58420173417 -128094.230904675               0               0               0               0 -11272.6366654994 -116821.594239176               0 -2276.55396609445 
950 1.9 -125193.495662935 27.9791162774324 
-125193.495662935 2935.38020868403 2523.51256305117 -128128.875871619               0               0               0               0 -11302.5775958674 -116826.298275752               0 -3027.84054769541 
1000 2 -125193.515508369 29.308409050236 
-125193.515508369 2910.69014685241 2502.28680121279 -128104.205655222               0               0               0               0 -11250.3533514082 -116853.852303814               0 -2307.13874306165 
1050 2.1 -125193.476673897 30.9996832934947 
-125193.476673897 2874.16085379869 2470.88298862738 -128067.637527696               0               0               0               0 -11158.5041480087 -116909.133379687               0 1252.36370959664 
1100 2.2 -125193.592418915 32.2261535260144 
-125193.592418915 2891.94226611675 2486.16946403546 -128085.534685031               0               0               0               0 -11191.3127770671 -116894.221907964               0 7.72750874444939 
1150 2.3 -125193.82545778 34.1409432078098 
-125193.82545778 2902.66814038532 2495.3903746304 -128096.493598165               0               0               0               0 -11198.7191482665 -116897.774449899               0 10.4470419304347 
1200 2.4 -125193.687332276 35.5007839429809 
-125193.687332276 2903.11873877321 2495.77774887561 -128096.80607105               0               0               0               0 -11263.4359707926 -116833.370100257               0 -2609.85425539275 
1250 2.5 -125194.089578828 36.7284560109055 
-125194.089578828 2918.85004132009 2509.30176852144 -128112.939620148               0               0               0               0 -11246.329104753 -116866.610515395               0 -1472.43145863185 
1300 2.6 -125193.342207012 37.6332083903997 
-125193.342207012 2868.21395549692 2465.77050863882 -128061.556162509               0               0               0               0 -11155.6283121223 -116905.927850387               0 1149.95554385146 
1350 2.7 -125193.604303611 38.867908695127 
-125193.604303611 2882.7349218672 2478.25401621125 -128076.339225478               0               0               0               0 -11221.6189939817 -116854.720231496               0 -480.031488708102 
1400 2.8 -125193.716093809 39.5860747818647 
-125193.716093809 2904.0052667767 2496.5398867914 -128097.721360585               0               0               0               0 -11220.8225737675 -116876.898786818               0 -1171.34322697852 
1450 2.9 -125193.76256803 40.037784944901 
-125193.76256803 2916.08739925336 2506.92675694986 -128109.849967284               0               0               0               0 -11228.6077390583 -116881.242228225               0 -165.062643409679 
1500 3 -125193.610291899 41.2448592895763 
-125193.610291899 2912.59615462576 2503.92537414692 -128106.206446524               0               0               0               0 -11264.5719928739 -116841.63445365               0 -2096.63027351671 
1550 3.1 -125193.638860445 41.8987570983819 
-125193.638860445 2931.41177284257 2520.10094445676 -128125.050633288               0               0               0               0 -11263.5204330526 -116861.530200235               0 -1681.31365959608 
1600 3.2 -125193.75729334 42.2471741984717 
-125193.75729334 2928.31726701149 2517.44063342855 -128122.074560351               0               0               0               0 -11253.4384934978 -116868.636066853               0 -1116.54381495043 
1650 3.3 -125193.66866903 43.7579098013368 
-125193.66866903 2921.32653320761 2511.43078007911 -128114.995202238               0               0               0               0 -11348.6650344223 -116766.330167816               0 -3575.44916385588 
1700 3.4 -125193.818319675 44.0773405353957 
-125193.818319675 2925.80358362995 2515.27964877175 -128119.621903305               0               0               0               0 -11328.7863010731 -116790.835602232               0 -4093.73555882467 
1750 3.5 -125193.346189765 45.7659053486795 
-125193.346189765 2907.42754981931 2499.48198411386 -128100.773739584               0               0               0               0 -11249.6779430412 -116851.095796543               0 -1349.87107912024 
1800 3.6 -125193.266487579 47.4715786142362 
-125193.266487579 2881.22716585643 2476.95781573134 -128074.493653435               0               0               0               0 -11235.5595116675 -116838.934141768               0 -2079.69876060903 
1850 3.7 -125193.639785492 49.2404218356328 
-125193.639785492 2937.54221784911 2525.37121743379 -128131.182003341               0               0               0               0 -11219.4095335817 -116911.772469759               0 -1196.22563362002 
[...]
-119739.099845872 5215.23644481157 4483.47871557819 -124954.336290683               0               0               0               0 -8817.97542757557 -116136.360863108               0 97129.0586214522 
380950 761.9 -119707.93484698 7417.57221463245 
-119707.93484698 5258.1944676678 4520.40923314481 -124966.129314647               0               0               0               0 -8918.20272805631 -116047.926586591               0 95385.6757653501 
381000 762 -119667.197874136 7419.2251845638 
-119667.197874136 5273.08488203785 4533.21035090826 -124940.282756174               0               0               0               0 -8998.2454989658 -115942.037257208               0 92688.9951178653 
381050 762.1 -119624.090565869 7419.91936269218 
-119624.090565869 5251.51327921757 4514.66549237133 -124875.603845087               0               0               0               0 -8792.81019167117 -116082.793653416               0 99874.5676725119 
381100 762.2 -119602.579989126 7420.91191761389 
-119602.579989126 5282.67581991255 4541.45556975475 -124885.255809039               0               0               0               0 -8780.06691422828 -116105.18889481               0 99140.7848225084 
381150 762.3 -119574.348038225 7421.64944965724 
-119574.348038225 5330.12167650009 4582.24422630056 -124904.469714725               0               0               0               0 -8864.53740797635 -116039.932306749               0 98033.8759114045 
381200 762.4 -119537.45364535 7423.63623299721 
-119537.45364535 5331.32688309599 4583.2803285325 -124868.780528446               0               0               0               0 -8878.49553068767 -115990.284997758               0 96636.4282124256 
381250 762.5 -119496.437358119 7424.65669642413 
-119496.437358119 5304.11054738938 4559.88275813509 -124800.547905508               0               0               0               0 -8739.1659876136 -116061.381917894               0 102092.363234916 
381300 762.6 -119457.913571782 7426.67076577948 
-119457.913571782 5370.20852275864 4616.70642640918 -124828.122094541               0               0               0               0 -8786.56237262125 -116041.55972192               0 102403.618791698 
381350 762.7 -119417.620592699 7427.34873022107 
-119417.620592699 5379.88469195144 4625.02491763835 -124797.50528465               0               0               0               0 -8734.04410634765 -116063.461178303               0 103477.943108202 
381400 762.8 -119376.423392042 7428.74580213048 
-119376.423392042 5407.36763978701 4648.65169141286 -124783.791031829               0               0               0               0 -8848.79370418567 -115934.997327643               0    99461.775801 
381450 762.9 -119337.409451901 7429.50479570802 
-119337.409451901 5371.88612754461 4618.14864392523 -124709.295579445               0               0               0               0 -8686.53104166138 -116022.764537784               0 103944.397717114 
381500 763 -119307.210475078 7429.8403060237 
-119307.210475078  5431.190848448 4669.13222956269 -124738.401323526               0               0               0               0 -8652.42142365835 -116085.979899868               0 105470.416011384 
381550 763.1 -119269.308383652 7431.05044560745 
-119269.308383652 5447.88271264753 4683.48203299995 -124717.1910963               0               0               0               0 -8610.68478023974 -116106.50631606               0 105057.66927678 
381600 763.2 -119241.629472286 7432.43408851767 
-119241.629472286 5476.31141212718 4707.92185857208 -124717.940884414               0               0               0               0 -8672.12424926561 -116045.816635148               0 105079.731716275 
381650 763.3 -119196.324635337 7433.1388911818 
-119196.324635337 5444.45981549112 4680.53940773094 -124640.784450828               0               0               0               0 -8590.28915574642 -116050.495295082               0 108313.638691806 
381700 763.4 -119159.437059412 7433.7818350996 
-119159.437059412 5456.18259949201 4690.61735014285 -124615.619658904               0               0               0               0 -8625.50038101194 -115990.119277892               0 107507.194988014 
381750 763.5 -119121.870686236 7436.79031297485 
-119121.870686236 5529.31783896762 4753.49087333159 -124651.188525204               0               0               0               0 -8599.27750877744 -116051.911016426               0 109842.76291217 
381800 763.6 -119076.310630236 7438.51335268306 
-119076.310630236 5544.21339486867 4766.29641121003 -124620.524025104               0               0               0               0 -8668.43273261185 -115952.091292493               0 109087.337358342 
381850 763.7 -119031.677596365 7439.30551167234 
-119031.677596365 5595.28602462512 4810.20296288506 -124626.96362099               0               0               0               0 -8551.61304109272 -116075.350579897               0 112687.11587971 
381900 763.8 -118990.681922114 7441.13010290162 
-118990.681922114 5613.7595754291 4826.08446177917 -124604.441497543               0               0               0               0 -8598.44426793689 -116005.997229606               0 110609.93978486 
381950 763.9 -118926.854537078 7442.62267382746 
-118926.854537078 5613.8706335891 4826.17993720044 -124540.725170667               0               0               0               0 -8637.40152312468 -115903.323647542               0 107577.496359979 
382000 764 -118881.90975438 7443.3364090466 
-118881.90975438 5650.51482546167 4857.6825269773 -124532.424579842               0               0               0               0 -8442.7670106595 -116089.657569182               0 115135.726877789 
382050 764.1 -118816.739939841 7445.14008280728 
-118816.739939841 5711.66031917729 4910.24860380403 -124528.400259019               0               0               0               0 -8530.34656656538 -115998.053692453               0 113864.508916049 
382100 764.2 -118767.400788852 7446.056924881 
-118767.400788852 5699.70241084241 4899.96852770975 -124467.103199695               0               0               0               0 -8455.88638535605 -116011.216814339               0 117358.136311843 
382150 764.3 -118706.092575367 7446.4804990778 
-118706.092575367 5747.84642985105 4941.3573864493 -124453.939005218               0               0               0               0 -8528.22659497409 -115925.712410244               0 114797.883712654 
382200 764.4 -118657.638060443 7448.06917812686 
-118657.638060443 5729.17535570011 4925.30607900839 -124386.813416143               0               0               0               0 -8433.87319506158 -115952.940221081               0 118414.050128005 
382250 764.5 -118599.174434376 7449.48447496142 
-118599.174434376 5716.65886908929 4914.5457996026 -124315.833303466               0               0               0               0 -8380.76242714621 -115935.07087632               0 119383.353205259 
382300 764.6 -118534.568069258 7450.66718899846 
-118534.568069258 5831.27646671429 5013.0812284025 -124365.844535972               0               0               0               0 -8432.02386541236 -115933.82067056               0 117039.080861414 
382350 764.7 -118472.470322655 7452.23663745492 
-118472.470322655 5850.65257029012 5029.73864152123 -124323.122892945               0               0               0               0 -8503.8299384239 -115819.292954521               0 115947.418614337 
382400 764.8 -118397.935041831 7453.99998720458 
-118397.935041831 5887.40421320058 5061.33360571801 -124285.339255032               0               0               0               0 -8344.61976180344 -115940.719493228               0 123419.985584792 
382450 764.9 -118318.230773837 7455.58037910483 
-118318.230773837 5927.70260985054 5095.97767326202 -124245.933383687               0               0               0               0 -8357.14508579657 -115888.788297891               0 122975.101935636 
382500 765 -118259.118403544 7457.30435637227 
-118259.118403544 5949.79569300102 5114.97084243372 -124208.914096545               0               0               0               0 -8353.59127060874 -115855.322825937               0 121022.104313084 
382550 765.1 -118166.793639058 7459.15374884212 
-118166.793639058 6066.88300019752 5215.6294521123 -124233.676639256               0               0               0               0 -8317.93449215743 -115915.742147098               0 125051.154527856 
382600 765.2 -118063.763001168 7460.0569574495 
-118063.763001168 6041.51872806919 5193.82407944572 -124105.281729237               0               0               0               0 -8241.59923021482 -115863.682499022               0 127079.435234451 
382650 765.3 -118028.629216309 7461.51525066146 
-118028.629216309 6172.0106268866 5306.00646218031 -124200.639843196               0               0               0               0 -8313.02174298728 -115887.618100208               0 125527.899279757 
382700 765.4 -117955.720652844 7462.29508765381 
-117955.720652844 6184.89954797357 5317.08691921647 -124140.620200818               0               0               0               0 -8359.38243777051 -115781.237763047               0 125389.187183276 
382750 765.5 -117860.030220095 7463.03463266011 
-117860.030220095 6219.50643288117 5346.83805965615 -124079.536652977               0               0               0               0 -8269.08617666393 -115810.450476313               0 128421.505095479 
382800 765.6 -117759.92492072 7464.07511767872 
-117759.92492072 6188.18797239976 5319.91393982784 -123948.11289312               0               0               0               0 -8019.18391132013 -115928.9289818               0 137914.917162004 
382850 765.7 -117668.596398587 7464.86961378641 
-117668.596398587 6347.4097335691 5456.79505438781 -124016.006132156               0               0               0               0 -8134.3695285863 -115881.63660357               0 135941.993851834 
382900 765.8 -117573.008282652 7466.0871921731 
-117573.008282652 6276.4106463194 5395.75795666884 -123849.418928972               0               0               0               0 -8119.32544034111 -115730.09348863               0 135620.729411119 
382950 765.9 -117492.466967676 7467.24110493202 
-117492.466967676 6389.34826483843 5492.84912677713 -123881.815232515               0               0               0               0 -8109.37967324679 -115772.435559268               0 136386.329376559 
383000 766 -117355.800209057 7468.10558140134 
-117355.800209057 6483.7716548601 5574.02382784674 -123839.571863917               0               0               0               0 -7995.4740349277 -115844.097828989               0 141184.484858117 
383050 766.1 -117263.766916764 7470.12545638431 
-117263.766916764 6478.82632515268 5569.77238484519 -123742.593241916               0               0               0               0 -7961.64685050776 -115780.946391408               0 143888.673719578 
383100 766.2 -117112.584544426 7471.71907584982 
-117112.584544426 6599.6096948955 5673.60845693286 -123712.194239322               0               0               0               0 -7918.58945620127 -115793.60478312               0 146376.788504459 
383150 766.3 -117028.845736679 7472.4992453906 
-117028.845736679 6643.48741298885 5711.3296259041 -123672.333149668               0               0               0               0 -8021.81451576103 -115650.518633907               0 142201.17254584 
383200 766.4 -116862.686358489 7474.19591137579 
-116862.686358489 6765.29955076807 5816.0501180259 -123627.985909257               0               0               0               0 -7900.90150295905 -115727.084406298               0 149973.532274702 
383250 766.5 -116673.989608449 7475.97800765104 
-116673.989608449 6758.74872274323 5810.41844660897 -123432.738331192               0               0               0               0 -7656.1663825586 -115776.571948633               0 155716.600640471 
383300 766.6 -116489.20798506 7477.01977231245 
-116489.20798506 6947.64451715902 5972.80998583975 -123436.852502219               0               0               0               0 -7702.58174698831 -115734.27075523               0 156892.187219354 
383350 766.7 -116315.922320902 7478.49511512901 
-116315.922320902 7016.75623149459 6032.22453079847 -123332.678552397               0               0               0               0 -7838.95375993966 -115493.724792457               0 153551.582559172 
383400 766.8 -116160.081905012 7479.03743570546 
-116160.081905012 7063.24052267778 6072.18654063907 -123223.32242769               0               0               0               0 -7612.89437993143 -115610.428047759               0 160721.12058728 
383450 766.9 -115983.873570318 7480.57335728011 
-115983.873570318 7260.72444891138 6241.96119789704 -123244.598019229               0               0               0               0 -7734.17872463756 -115510.419294592               0 160995.434149491 
383500 767 -115817.564422862 7481.63241385161 
-115817.564422862 7331.20102233444 6302.54909649626 -123148.765445196               0               0               0               0 -7651.51200185764 -115497.253443339               0 164470.284505964 
383550 767.1 -115552.651187179 7482.87842984563 
-115552.651187179 7429.50322281415 6387.05836625021 -122982.154409994               0               0               0               0 -7493.89835240577 -115488.256057588               0 169718.840919579 
383600 767.2 -115380.309874396 7484.56240551672 
-115380.309874396 7632.72072714385 6561.76211457242 -123013.03060154               0               0               0               0 -7470.3941917302 -115542.63640981               0 171295.176885307 
383650 767.3 -115096.549916779 7484.96040667824 
-115096.549916779 7778.55448595237 6687.13371767226 -122875.104402731               0               0               0               0 -7402.15018451478 -115472.954218216               0 177418.972773396 
383700 767.4 -114700.105014831 7486.08709329251 
-114700.105014831 7960.14650620003 6843.24628635728 -122660.251521031               0               0               0               0 -7293.54556183576 -115366.705959195               0 181746.82345579 
383750 767.5 -114264.332953325 7487.09625856835 
-114264.332953325 8331.27379588963 7162.30014358918 -122595.606749215               0               0               0               0 -7167.11255212942 -115428.494197085               0 194492.881527068 
383800 767.6 -113930.4737139 7488.37175517405 
-113930.4737139 8598.77266147204 7392.26583794868 -122529.246375372               0               0               0               0 -7072.66016377022 -115456.586211602               0 198093.848978304 
383850 767.7 -113478.077612672 7488.88255432586 
-113478.077612672 8834.06036851929 7594.53997024291 -122312.137981191               0               0               0               0 -7036.41159359249 -115275.726387598               0 202461.720065376 
383900 767.8 -113079.019287609 7490.80168906474 
-113079.019287609 8962.55107757382 7705.00195318304 -122041.570365183               0               0               0               0 -6748.33779265076 -115293.232572532               0 214646.769888265 
383950 767.9 -112546.791090684 7491.52796922151 
-112546.791090684 9399.15304578173 8080.34363756384 -121945.944136465               0               0               0               0 -6696.32499069165 -115249.619145774               0 221067.869283359 
384000 768 -111912.477249121 7492.66995528949 
-111912.477249121 9853.71706462349 8471.12709003267 -121766.194313744               0               0               0               0 -6537.27566781622 -115228.918645928               0 231792.197753819 
384050 768.1 -111335.522083429 7493.47830446425 
-111335.522083429 10100.789411043 8683.53234108932 -121436.311494472               0               0               0               0 -6476.89867982984 -114959.412814642               0 236450.194978983 
384100 768.2 -110678.985259422 7494.06232492933 
-110678.985259422 10615.1062734772  9125.684625111 -121294.091532899               0               0               0               0 -6426.2313980038 -114867.860134895               0 243831.935801711 
384150 768.3 -109866.412073405 7495.04809179738 
-109866.412073405 11032.2307800272 9484.28175999709 -120898.642853433               0               0               0               0 -5868.38970673996 -115030.253146693               0 263947.77153705 
384200 768.4 -108924.716837652 7495.26246210407 
-108924.716837652 11722.5403398847 10077.7329393507 -120647.257177537               0               0               0               0 -5800.9503431417 -114846.306834395               0 278330.031688728 
384250 768.5 -107586.643370992 7495.77212799033 
-107586.643370992 12789.738399625 10995.1908219961 -120376.381770617               0               0               0               0 -5660.66573212042 -114715.716038497               0 292962.741520922 
384300 768.6 -106340.945690365 7496.95510404414 
-106340.945690365 13461.2321110005 11572.4662330835 -119802.177801366               0               0               0               0 -5279.86575465516 -114522.31204671               0 313689.793049789 
384350 768.7 -104642.664270752 7498.30542396501 
-104642.664270752 14887.3240153222 12798.4610210754 -119529.988286074               0               0               0               0 -4940.73454861223 -114589.253737462               0 340968.831243251 
384400 768.8 -102830.373099754 7499.87330552134 
-102830.373099754 16142.9397192705 13877.8993827242 -118973.312819024               0               0               0               0 -4637.84908663243 -114335.463732392               0 369189.334393162 
384450 768.9 -101058.762685025 7501.08032927387 
-101058.762685025 17383.1594922563 14944.1020398161 -118441.922177282               0               0               0               0 -4229.94864951508 -114211.973527766               0 393974.739468413 
384500 769 -99100.0387025466 7501.46680794596 
-99100.0387025466 18924.1063925486 16268.8363452319 -118024.145095095               0               0               0               0 -3979.00185685229 -114045.143238243               0 417414.410793617 
384550 769.1 -95942.3549151767 7503.60385083356 
-95942.3549151767 21234.9780581622 18255.4661053302 -117177.332973339               0               0               0               0 -3265.75753028487 -113911.575443054               0 465604.396759127 
384600 769.2 -92910.6896895728 7505.25589342187 
-92910.6896895728 23277.3029818502 20011.2293238434 -116187.992671423               0               0               0               0 -2707.93164498188 -113480.061026441               0 506415.712165763 
384650 769.3 -89859.1081894894 7506.63737205679 
-89859.1081894894 25498.9254673391 21921.1325915368 -115358.033656828               0               0               0               0 -2223.35156230347 -113134.682094525               0 551464.309303773 
384700 769.4 -86104.6210635349 7508.02447516507 
-86104.6210635349 28542.1652195779 24537.370762126 -114646.786283113               0               0               0               0 -1147.95659073213 -113498.829692381               0 614034.843066161 
384750 769.5 -81872.8414084744 7510.1044490626 
-81872.8414084744 31637.209290859 27198.1445092436 -113510.050699333               0               0               0               0 -153.007510868641 -113357.043188465               0 683067.843217155 
384800 769.6 -75952.6756448229 7511.17608855572 
-75952.6756448229 36048.5948504145 30990.5618755075 -112001.270495237               0               0               0               0 967.588415029169 -112968.858910267               0 762329.991423329 
384850 769.7 -69838.7640493613 7512.13462691986 
ERROR: Lost atoms: original 9000 current 8996 (../thermo.cpp:441)
Last command: run         ${TCsteps}
