LAMMPS data file via write_data, version 22 Dec 2022, timestep = 75

2 atoms
2 atom types

-0.10976948371432906 3.129769483714338 xlo xhi
-0.10976948371432906 3.129769483714338 ylo yhi
-0.10976948371432906 3.129769483714338 zlo zhi

Masses

1 58.69
2 178.49

Atoms # atomic

1 1 -0.10976948371432904 -0.10976948371432904 -0.10976948371432904 0 0 0
2 2 1.5100000000000031 1.5100000000000031 1.5100000000000031 0 0 0

Velocities

1 0 0 0
2 0 0 0
