LAMMPS data file via write_data, version 22 Dec 2022, timestep = 6

2 atoms
2 atom types

-0.0030389003928623076 3.013038900392862 xlo xhi
-0.0030389003928623076 3.013038900392862 ylo yhi
-0.0030389003928623076 3.013038900392862 zlo zhi

Masses

1 58.69
2 47.88

Atoms # atomic

1 1 -0.0030389003928622997 -0.0030389003928622993 -0.0030389003928621428 0 0 0
2 2 1.5049999999999997 1.5049999999999997 1.5049999999999997 0 0 0

Velocities

1 0 0 0
2 0 0 0
