LAMMPS (22 Dec 2022)
  using 1 OpenMP thread(s) per MPI task
Loaded 1 plugins from C:\Program Files\LAMMPS 64-bit 23Jun2022\plugins
Loaded 0 plugins from C:\Program Files\LAMMPS 64-bit 23Jun2022-MPI\plugins
Loaded 1 plugins from C:\Program Files\LAMMPS 64-bit 22Dec2022-MSMPI\plugins
Loaded 1 plugins from C:\Program Files\LAMMPS 64-bit 28Mar2023-MPI\plugins
# Compute elastic constant tensor for a crystal
#
# Written by Aidan Thompson (Sandia, athomps@sandia.gov)
#
#  This script uses the following three include files.
#
#   init.mod      (must be modified for different crystal structures)
# 	       	  Define units, deformation parameters and initial
#		  configuration of the atoms and simulation cell.
#
#
#   potential.mod    (must be modified for different pair styles)
# 		     Define pair style and other attributes
#		     not stored in restart file
#
#
#   displace.mod    (displace.mod should not need to be modified)
# 		    Perform positive and negative box displacements
# 		    in direction ${dir} and size ${up}.
# 		    It uses the resultant changes
#		    in stress to compute one
# 		    row of the elastic stiffness tensor
#
#		    Inputs variables:
#		    	   dir = the Voigt deformation component
#		    		    (1,2,3,4,5,6)
#		    Global constants:
#       	    	   up = the deformation magnitude (strain units)
#       		   cfac = conversion from LAMMPS pressure units to
#               	   output units for elastic constants
#
#
#  To run this on a different system, it should only be necessary to
#  modify the files init.mod and potential.mod. In order to calculate
#  the elastic constants correctly, care must be taken to specify
#  the correct units in init.mod (units, cfac and cunits). It is also
#  important to verify that the minimization of energy w.r.t atom
#  positions in the deformed cell is fully converged.
#  One indication of this is that the elastic constants are insensitive
#  to the choice of the variable ${up} in init.mod. Another is to check
#  the final max and two-norm forces reported in the log file. If you know
#  that minimization is not required, you can set maxiter = 0.0 in
#  init.mod.
#

include init.mod
# NOTE: This script can be modified for different atomic structures,
# units, etc. See in.elastic for more info.
#

# Define the finite deformation size. Try several values of this
# variable to verify that results do not depend on it.
variable up equal 1.0e-6

# Define the amount of random jiggle for atoms
# This prevents atoms from staying on saddle points
variable atomjiggle equal 1.0e-5

# Uncomment one of these blocks, depending on what units
# you are using in LAMMPS and for output

# metal units, elastic constants in eV/A^3
#units		metal
#variable cfac equal 6.2414e-7
#variable cunits string eV/A^3

# metal units, elastic constants in GPa
units		metal
variable cfac equal 1.0e-4
variable cunits string GPa

# real units, elastic constants in GPa
#units		real
#variable cfac equal 1.01325e-4
#variable cunits string GPa

# Define minimization parameters
variable etol equal 0.0
variable ftol equal 1.0e-10
variable maxiter equal 100
variable maxeval equal 1000
variable dmax equal 1.0e-2

# generate the box and atom positions using a diamond lattice

dimension    3
boundary     p p p
read_data    data.in
Reading data file ...
  orthogonal box = (-0.0030389004 -0.0030389004 -0.0030389004) to (3.0130389 3.0130389 3.0130389)
  1 by 2 by 2 MPI processor grid
  reading atoms ...
  2 atoms
  reading velocities ...
  2 velocities
  read_data CPU = 0.001 seconds
#replicate    2 3 4
replicate    2 3 4
Replication is creating a 2x3x4 = 24 times larger system...
  orthogonal box = (-0.0030389004 -0.0030389004 -0.0030389004) to (6.0291167 9.0451945 12.061272)
  1 by 2 by 2 MPI processor grid
  48 atoms
  replicate CPU = 0.000 seconds
change_box   all triclinic
Changing box ...
  triclinic box = (-0.0030389004 -0.0030389004 -0.0030389004) to (6.0291167 9.0451945 12.061272) with tilt (0 0 0)

# Need to set mass to something, just to satisfy LAMMPS
mass 1 1.0e-20

include potential.mod
# NOTE: This script can be modified for different pair styles
# See in.elastic for more info.

# Choose potential
#-----------------------
#pair_style	sw
#pair_coeff * * Si.sw Si
#-----------------------
#pair_style morse	2.83994742	# D0[eV] a[1/A] r0[A] rc[A], 1NN for BCC
#pair_coeff 1 1	2.1173	1.0202	2.4595	2.6497	#	Fe-Fe
#-----------------------
#pair_style smatb # R0(A)   p       q     A(eV)   xi(eV)  Rcs(A)   Rc(A), 4NN: Rcs=4NN, Rc=(4NN+5NN)/2
#pair_coeff 1 1	2.4802	7.0149	2.3779	0.3144	3.0551	4.033	4.176	#	Co	Co
#-----------------------
#pair_style eam/alloy
#pair_coeff * * AlCrFeCoNi_Zhou04.eam.alloy Fe
#-----------------------
pair_style meam
pair_coeff * * ./../../library.meam Ni Ti Hf ./../../NiTiHf.meam Ni Ti
#-----------------------

# Setup neighbor style
neighbor 1.0 nsq
neigh_modify once no every 1 delay 0 check yes

# Setup minimization style
min_style	     cg
min_modify	     dmax ${dmax} line quadratic
min_modify	     dmax 0.01 line quadratic

# Setup output
thermo		1
thermo_style custom step temp pe press pxx pyy pzz pxy pxz pyz lx ly lz vol
thermo_modify norm no

# Compute initial state
fix 3 all box/relax  aniso 0.0
minimize ${etol} ${ftol} ${maxiter} ${maxeval}
minimize 0 ${ftol} ${maxiter} ${maxeval}
minimize 0 1e-10 ${maxiter} ${maxeval}
minimize 0 1e-10 100 ${maxeval}
minimize 0 1e-10 100 1000
Neighbor list info ...
  update: every = 1 steps, delay = 0 steps, check = yes
  max neighbors/atom: 2000, page size: 100000
  master list distance cutoff = 6
  ghost atom cutoff = 6
  2 neighbor lists, perpetual/occasional/extra = 2 0 0
  (1) pair meam, perpetual
      attributes: full, newton on
      pair build: full/nsq
      stencil: none
      bin: none
  (2) pair meam, perpetual, half/full from (1)
      attributes: half, newton on
      pair build: halffull/newton
      stencil: none
      bin: none
Per MPI rank memory allocation (min/avg/max) = 9.781 | 9.781 | 9.781 Mbytes
   Step          Temp          PotEng         Press           Pxx            Pyy            Pzz            Pxy            Pxz            Pyz             Lx             Ly             Lz           Volume    
         0   0             -238.08         5.4207198e-11  1.3722885e-10 -8.3742017e-11  1.0913476e-10 -7.023524e-12  -1.6208132e-11  3.7818976e-12  6.0321556      9.0482334      12.064311      658.47435    
         1   0             -238.08        -4.2393271e-10 -3.960187e-10  -4.689553e-10  -4.0682412e-10  6.483253e-12  -3.7818976e-12  3.8224179e-11  6.0321556      9.0482334      12.064311      658.47435    
Loop time of 0.00044075 on 4 procs for 1 steps with 48 atoms

0.0% CPU use with 4 MPI tasks x 1 OpenMP threads

Minimization stats:
  Stopping criterion = force tolerance
  Energy initial, next-to-last, final = 
     -238.080000003933  -238.080000003933  -238.080000003933
  Force two-norm initial, final = 9.9612583e-14 3.1386833e-13
  Force max component initial, final = 5.639933e-14 1.9273472e-13
  Final line search alpha, max atom move = 1 1.9273472e-13
  Iterations, force evaluations = 1 2

MPI task timing breakdown:
Section |  min time  |  avg time  |  max time  |%varavg| %total
---------------------------------------------------------------
Pair    | 0.000299   | 0.0003     | 0.000302   |   0.0 | 68.07
Neigh   | 0          | 0          | 0          |   0.0 |  0.00
Comm    | 4.4e-05    | 4.8e-05    | 5.1e-05    |   0.0 | 10.89
Output  | 0          | 0          | 0          |   0.0 |  0.00
Modify  | 0          | 0          | 0          |   0.0 |  0.00
Other   |            | 9.275e-05  |            |       | 21.04

Nlocal:             12 ave          12 max          12 min
Histogram: 4 0 0 0 0 0 0 0 0 0
Nghost:            293 ave         293 max         293 min
Histogram: 4 0 0 0 0 0 0 0 0 0
Neighs:            348 ave         348 max         348 min
Histogram: 4 0 0 0 0 0 0 0 0 0
FullNghs:          696 ave         696 max         696 min
Histogram: 4 0 0 0 0 0 0 0 0 0

Total # of neighbors = 2784
Ave neighs/atom = 58
Neighbor list builds = 0
Dangerous builds = 0

variable tmp equal pxx
variable pxx0 equal ${tmp}
variable pxx0 equal -3.96018701513997e-10
variable tmp equal pyy
variable pyy0 equal ${tmp}
variable pyy0 equal -4.6895529729079e-10
variable tmp equal pzz
variable pzz0 equal ${tmp}
variable pzz0 equal -4.06824123110559e-10
variable tmp equal pyz
variable pyz0 equal ${tmp}
variable pyz0 equal 3.8224178897838e-11
variable tmp equal pxz
variable pxz0 equal ${tmp}
variable pxz0 equal -3.78189755879669e-12
variable tmp equal pxy
variable pxy0 equal ${tmp}
variable pxy0 equal 6.48325295793719e-12

variable tmp equal lx
variable lx0 equal ${tmp}
variable lx0 equal 6.03215560157145
variable tmp equal ly
variable ly0 equal ${tmp}
variable ly0 equal 9.04823340235717
variable tmp equal lz
variable lz0 equal ${tmp}
variable lz0 equal 12.0643112031429

# These formulas define the derivatives w.r.t. strain components
# Constants uses $, variables use v_
variable d1 equal -(v_pxx1-${pxx0})/(v_delta/v_len0)*${cfac}
variable d1 equal -(v_pxx1--3.96018701513997e-10)/(v_delta/v_len0)*${cfac}
variable d1 equal -(v_pxx1--3.96018701513997e-10)/(v_delta/v_len0)*0.0001
variable d2 equal -(v_pyy1-${pyy0})/(v_delta/v_len0)*${cfac}
variable d2 equal -(v_pyy1--4.6895529729079e-10)/(v_delta/v_len0)*${cfac}
variable d2 equal -(v_pyy1--4.6895529729079e-10)/(v_delta/v_len0)*0.0001
variable d3 equal -(v_pzz1-${pzz0})/(v_delta/v_len0)*${cfac}
variable d3 equal -(v_pzz1--4.06824123110559e-10)/(v_delta/v_len0)*${cfac}
variable d3 equal -(v_pzz1--4.06824123110559e-10)/(v_delta/v_len0)*0.0001
variable d4 equal -(v_pyz1-${pyz0})/(v_delta/v_len0)*${cfac}
variable d4 equal -(v_pyz1-3.8224178897838e-11)/(v_delta/v_len0)*${cfac}
variable d4 equal -(v_pyz1-3.8224178897838e-11)/(v_delta/v_len0)*0.0001
variable d5 equal -(v_pxz1-${pxz0})/(v_delta/v_len0)*${cfac}
variable d5 equal -(v_pxz1--3.78189755879669e-12)/(v_delta/v_len0)*${cfac}
variable d5 equal -(v_pxz1--3.78189755879669e-12)/(v_delta/v_len0)*0.0001
variable d6 equal -(v_pxy1-${pxy0})/(v_delta/v_len0)*${cfac}
variable d6 equal -(v_pxy1-6.48325295793719e-12)/(v_delta/v_len0)*${cfac}
variable d6 equal -(v_pxy1-6.48325295793719e-12)/(v_delta/v_len0)*0.0001

displace_atoms all random ${atomjiggle} ${atomjiggle} ${atomjiggle} 87287 units box
displace_atoms all random 1e-05 ${atomjiggle} ${atomjiggle} 87287 units box
displace_atoms all random 1e-05 1e-05 ${atomjiggle} 87287 units box
displace_atoms all random 1e-05 1e-05 1e-05 87287 units box
Displacing atoms ...

# Write restart
unfix 3
write_restart restart.equil
System init for write_restart ...

# uxx Perturbation

variable dir equal 1
include displace.mod
# NOTE: This script should not need to be
# modified. See in.elastic for more info.
#
# Find which reference length to use

if "${dir} == 1" then    "variable len0 equal ${lx0}"
variable len0 equal ${lx0}
variable len0 equal 6.03215560157145
if "${dir} == 2" then    "variable len0 equal ${ly0}"
if "${dir} == 3" then    "variable len0 equal ${lz0}"
if "${dir} == 4" then    "variable len0 equal ${lz0}"
if "${dir} == 5" then    "variable len0 equal ${lz0}"
if "${dir} == 6" then    "variable len0 equal ${ly0}"

# Reset box and simulation parameters

clear
  using 1 OpenMP thread(s) per MPI task
Loaded 1 plugins from C:\Program Files\LAMMPS 64-bit 23Jun2022\plugins
Loaded 0 plugins from C:\Program Files\LAMMPS 64-bit 23Jun2022-MPI\plugins
Loaded 1 plugins from C:\Program Files\LAMMPS 64-bit 22Dec2022-MSMPI\plugins
Loaded 1 plugins from C:\Program Files\LAMMPS 64-bit 28Mar2023-MPI\plugins
box tilt large

The 'box' command has been removed and will be ignored

read_restart restart.equil
Reading restart file ...
  restart file = 22 Dec 2022, LAMMPS = 22 Dec 2022
  restoring atom style atomic from restart
  triclinic box = (-0.0030389004 -0.0030389004 -0.0030389004) to (6.0291167 9.0451945 12.061272) with tilt (0 0 0)
  1 by 2 by 2 MPI processor grid
  pair style meam stores no restart info
  48 atoms
  read_restart CPU = 0.000 seconds
include potential.mod
# NOTE: This script can be modified for different pair styles
# See in.elastic for more info.

# Choose potential
#-----------------------
#pair_style	sw
#pair_coeff * * Si.sw Si
#-----------------------
#pair_style morse	2.83994742	# D0[eV] a[1/A] r0[A] rc[A], 1NN for BCC
#pair_coeff 1 1	2.1173	1.0202	2.4595	2.6497	#	Fe-Fe
#-----------------------
#pair_style smatb # R0(A)   p       q     A(eV)   xi(eV)  Rcs(A)   Rc(A), 4NN: Rcs=4NN, Rc=(4NN+5NN)/2
#pair_coeff 1 1	2.4802	7.0149	2.3779	0.3144	3.0551	4.033	4.176	#	Co	Co
#-----------------------
#pair_style eam/alloy
#pair_coeff * * AlCrFeCoNi_Zhou04.eam.alloy Fe
#-----------------------
pair_style meam
pair_coeff * * ./../../library.meam Ni Ti Hf ./../../NiTiHf.meam Ni Ti
#-----------------------

# Setup neighbor style
neighbor 1.0 nsq
neigh_modify once no every 1 delay 0 check yes

# Setup minimization style
min_style	     cg
min_modify	     dmax ${dmax} line quadratic
min_modify	     dmax 0.01 line quadratic

# Setup output
thermo		1
thermo_style custom step temp pe press pxx pyy pzz pxy pxz pyz lx ly lz vol
thermo_modify norm no

# Negative deformation

variable delta equal -${up}*${len0}
variable delta equal -1e-06*${len0}
variable delta equal -1e-06*6.03215560157145
variable deltaxy equal -${up}*xy
variable deltaxy equal -1e-06*xy
variable deltaxz equal -${up}*xz
variable deltaxz equal -1e-06*xz
variable deltayz equal -${up}*yz
variable deltayz equal -1e-06*yz
if "${dir} == 1" then    "change_box all x delta 0 ${delta} xy delta ${deltaxy} xz delta ${deltaxz} remap units box"
change_box all x delta 0 ${delta} xy delta ${deltaxy} xz delta ${deltaxz} remap units box
change_box all x delta 0 -6.03215560157145e-06 xy delta ${deltaxy} xz delta ${deltaxz} remap units box
change_box all x delta 0 -6.03215560157145e-06 xy delta -0 xz delta ${deltaxz} remap units box
change_box all x delta 0 -6.03215560157145e-06 xy delta -0 xz delta -0 remap units box
Changing box ...
  triclinic box = (-0.0030389004 -0.0030389004 -0.0030389004) to (6.0291107 9.0451945 12.061272) with tilt (0 0 0)
  triclinic box = (-0.0030389004 -0.0030389004 -0.0030389004) to (6.0291107 9.0451945 12.061272) with tilt (0 0 0)
  triclinic box = (-0.0030389004 -0.0030389004 -0.0030389004) to (6.0291107 9.0451945 12.061272) with tilt (0 0 0)
if "${dir} == 2" then    "change_box all y delta 0 ${delta} yz delta ${deltayz} remap units box"
if "${dir} == 3" then    "change_box all z delta 0 ${delta} remap units box"
if "${dir} == 4" then    "change_box all yz delta ${delta} remap units box"
if "${dir} == 5" then    "change_box all xz delta ${delta} remap units box"
if "${dir} == 6" then    "change_box all xy delta ${delta} remap units box"

# Relax atoms positions

minimize ${etol} ${ftol} ${maxiter} ${maxeval}
minimize 0 ${ftol} ${maxiter} ${maxeval}
minimize 0 1e-10 ${maxiter} ${maxeval}
minimize 0 1e-10 100 ${maxeval}
minimize 0 1e-10 100 1000
Neighbor list info ...
  update: every = 1 steps, delay = 0 steps, check = yes
  max neighbors/atom: 2000, page size: 100000
  master list distance cutoff = 6
  ghost atom cutoff = 6
  2 neighbor lists, perpetual/occasional/extra = 2 0 0
  (1) pair meam, perpetual
      attributes: full, newton on
      pair build: full/nsq
      stencil: none
      bin: none
  (2) pair meam, perpetual, half/full from (1)
      attributes: half, newton on
      pair build: halffull/newton
      stencil: none
      bin: none
Per MPI rank memory allocation (min/avg/max) = 9.772 | 9.774 | 9.776 Mbytes
   Step          Temp          PotEng         Press           Pxx            Pyy            Pzz            Pxy            Pxz            Pyz             Lx             Ly             Lz           Volume    
         1   0             -238.08         1.2804407      1.4814711      1.1799228      1.179928       8.9787747e-06  7.6292571e-06  5.2694855e-06  6.0321496      9.0482334      12.064311      658.47369    
         2   0             -238.08         1.2803421      1.4813851      1.1798198      1.1798215     -9.7730416e-07  5.4714606e-06 -2.2265615e-06  6.0321496      9.0482334      12.064311      658.47369    
         3   0             -238.08         1.2803296      1.4813713      1.179809       1.1798086     -2.9707344e-07  1.947069e-06  -1.7485303e-06  6.0321496      9.0482334      12.064311      658.47369    
         4   0             -238.08         1.2803271      1.4813687      1.1798064      1.1798063     -2.0508986e-07  8.6431087e-07 -1.2938029e-06  6.0321496      9.0482334      12.064311      658.47369    
         5   0             -238.08         1.2803265      1.4813684      1.1798059      1.1798052     -1.5099552e-07  1.0114393e-06 -9.1734488e-07  6.0321496      9.0482334      12.064311      658.47369    
         6   0             -238.08         1.2803259      1.4813679      1.179805       1.1798048     -8.6183306e-08  6.7598002e-07 -5.5997149e-07  6.0321496      9.0482334      12.064311      658.47369    
         7   0             -238.08         1.2803258      1.4813679      1.1798047      1.1798046     -3.9748146e-08  7.616209e-07  -3.6860516e-07  6.0321496      9.0482334      12.064311      658.47369    
         8   0             -238.08         1.2803256      1.4813678      1.1798044      1.1798046     -1.2684522e-08  6.4836727e-07 -2.1269398e-07  6.0321496      9.0482334      12.064311      658.47369    
         9   0             -238.08         1.2803255      1.4813678      1.1798043      1.1798045      1.5759113e-09  5.7129861e-07 -1.4847572e-07  6.0321496      9.0482334      12.064311      658.47369    
        10   0             -238.08         1.2803255      1.4813678      1.1798042      1.1798045      4.5031221e-09  5.0055463e-07 -7.3580088e-08  6.0321496      9.0482334      12.064311      658.47369    
        11   0             -238.08         1.2803255      1.4813678      1.1798042      1.1798044      3.3603628e-09  4.4432965e-07 -4.5213481e-08  6.0321496      9.0482334      12.064311      658.47369    
        12   0             -238.08         1.2803254      1.4813677      1.1798042      1.1798044      1.4232116e-09  3.7965292e-07 -2.1262972e-08  6.0321496      9.0482334      12.064311      658.47369    
        13   0             -238.08         1.2803254      1.4813677      1.1798042      1.1798043     -3.1600576e-09  3.0722762e-07 -1.1245497e-08  6.0321496      9.0482334      12.064311      658.47369    
        14   0             -238.08         1.2803254      1.4813677      1.1798042      1.1798043     -2.6123551e-09  2.6685312e-07 -6.7810158e-09  6.0321496      9.0482334      12.064311      658.47369    
        15   0             -238.08         1.2803254      1.4813676      1.1798042      1.1798043      3.7513726e-10  2.2578248e-07 -1.445154e-09   6.0321496      9.0482334      12.064311      658.47369    
        16   0             -238.08         1.2803254      1.4813676      1.1798042      1.1798043      1.2327141e-09  1.7891068e-07  1.2465058e-09  6.0321496      9.0482334      12.064311      658.47369    
        17   0             -238.08         1.2803254      1.4813676      1.1798042      1.1798043     -3.2758853e-11  1.2246229e-07 -8.7755623e-10  6.0321496      9.0482334      12.064311      658.47369    
        18   0             -238.08         1.2803254      1.4813676      1.1798042      1.1798043     -2.5521147e-10  9.4691516e-08 -1.6491119e-09  6.0321496      9.0482334      12.064311      658.47369    
        19   0             -238.08         1.2803254      1.4813675      1.1798042      1.1798043      2.0366444e-10  7.0465466e-08 -2.9643562e-09  6.0321496      9.0482334      12.064311      658.47369    
        20   0             -238.08         1.2803253      1.4813675      1.1798042      1.1798043      1.9585859e-10  5.1182092e-08 -2.0521405e-09  6.0321496      9.0482334      12.064311      658.47369    
        21   0             -238.08         1.2803253      1.4813675      1.1798043      1.1798043     -6.6182887e-11  3.2554066e-08 -1.734962e-09   6.0321496      9.0482334      12.064311      658.47369    
        22   0             -238.08         1.2803253      1.4813675      1.1798043      1.1798043     -1.2531224e-10  1.4993888e-08 -3.9024996e-10  6.0321496      9.0482334      12.064311      658.47369    
        23   0             -238.08         1.2803253      1.4813675      1.1798043      1.1798043      1.610312e-10   3.4871832e-09  2.2515556e-10  6.0321496      9.0482334      12.064311      658.47369    
        24   0             -238.08         1.2803253      1.4813675      1.1798043      1.1798043      1.2201674e-10  1.5900194e-09  2.5610088e-10  6.0321496      9.0482334      12.064311      658.47369    
        25   0             -238.08         1.2803253      1.4813675      1.1798043      1.1798043      3.4196945e-11  3.6063131e-10  1.6402863e-10  6.0321496      9.0482334      12.064311      658.47369    
        26   0             -238.08         1.2803253      1.4813675      1.1798043      1.1798043      4.6096413e-11  6.1861101e-11 -5.2592066e-12  6.0321496      9.0482334      12.064311      658.47369    
        27   0             -238.08         1.2803253      1.4813675      1.1798043      1.1798043      3.1224889e-11  1.7018556e-11 -1.1156556e-11  6.0321496      9.0482334      12.064311      658.47369    
        28   0             -238.08         1.2803253      1.4813675      1.1798043      1.1798043      6.1880947e-12 -9.4547534e-12  2.5858645e-11  6.0321496      9.0482334      12.064311      658.47369    
        29   0             -238.08         1.2803253      1.4813675      1.1798043      1.1798043     -6.8286819e-12 -2.0260186e-11  1.8317266e-11  6.0321496      9.0482334      12.064311      658.47369    
        30   0             -238.08         1.2803253      1.4813675      1.1798043      1.1798043     -2.0563969e-11  8.1040743e-12  1.8608506e-11  6.0321496      9.0482334      12.064311      658.47369    
        31   0             -238.08         1.2803253      1.4813675      1.1798043      1.1798043      3.3121209e-12 -2.7013581e-12  1.3668766e-11  6.0321496      9.0482334      12.064311      658.47369    
        32   0             -238.08         1.2803253      1.4813675      1.1798043      1.1798043     -1.0788819e-12  2.4312223e-11  1.7352005e-11  6.0321496      9.0482334      12.064311      658.47369    
        33   0             -238.08         1.2803253      1.4813675      1.1798043      1.1798043     -7.3058167e-12  7.0235311e-12 -3.1453411e-12  6.0321496      9.0482334      12.064311      658.47369    
        34   0             -238.08         1.2803253      1.4813675      1.1798043      1.1798043      2.3465698e-11 -1.7288692e-11  1.4546972e-11  6.0321496      9.0482334      12.064311      658.47369    
        35   0             -238.08         1.2803253      1.4813675      1.1798043      1.1798043      2.8185221e-11  7.2936669e-12 -6.3173264e-12  6.0321496      9.0482334      12.064311      658.47369    
        36   0             -238.08         1.2803253      1.4813675      1.1798043      1.1798043      1.4261127e-12 -1.8909507e-11 -7.1430345e-12  6.0321496      9.0482334      12.064311      658.47369    
        37   0             -238.08         1.2803253      1.4813675      1.1798043      1.1798043      4.4654439e-12 -1.2426247e-11 -2.4415107e-11  6.0321496      9.0482334      12.064311      658.47369    
        38   0             -238.08         1.2803253      1.4813675      1.1798043      1.1798043      1.3539532e-11  2.8094124e-11 -9.3785139e-12  6.0321496      9.0482334      12.064311      658.47369    
        39   0             -238.08         1.2803253      1.4813675      1.1798043      1.1798043     -1.9118409e-11  5.4027162e-13  2.2232388e-11  6.0321496      9.0482334      12.064311      658.47369    
Loop time of 0.008064 on 4 procs for 38 steps with 48 atoms

0.0% CPU use with 4 MPI tasks x 1 OpenMP threads

Minimization stats:
  Stopping criterion = force tolerance
  Energy initial, next-to-last, final = 
     -238.079999980429  -238.080000003628  -238.080000003628
  Force two-norm initial, final = 0.00075569166 7.2217038e-11
  Force max component initial, final = 0.00014267962 1.6796638e-11
  Final line search alpha, max atom move = 1 1.6796638e-11
  Iterations, force evaluations = 38 76

MPI task timing breakdown:
Section |  min time  |  avg time  |  max time  |%varavg| %total
---------------------------------------------------------------
Pair    | 0.006373   | 0.0064633  | 0.006537   |   0.1 | 80.15
Neigh   | 0          | 0          | 0          |   0.0 |  0.00
Comm    | 0.000643   | 0.000713   | 0.0008     |   0.0 |  8.84
Output  | 0.000321   | 0.000354   | 0.00043    |   0.0 |  4.39
Modify  | 0          | 0          | 0          |   0.0 |  0.00
Other   |            | 0.0005338  |            |       |  6.62

Nlocal:             12 ave          14 max          10 min
Histogram: 1 0 1 0 0 0 0 1 0 1
Nghost:            293 ave         295 max         291 min
Histogram: 1 0 1 0 0 0 0 1 0 1
Neighs:            348 ave         413 max         286 min
Histogram: 1 0 1 0 0 0 0 1 0 1
FullNghs:          696 ave         812 max         580 min
Histogram: 1 0 1 0 0 0 0 1 0 1

Total # of neighbors = 2784
Ave neighs/atom = 58
Neighbor list builds = 0
Dangerous builds = 0

# Obtain new stress tensor

variable tmp equal pxx
variable pxx1 equal ${tmp}
variable pxx1 equal 1.48136749965401
variable tmp equal pyy
variable pyy1 equal ${tmp}
variable pyy1 equal 1.17980425466828
variable tmp equal pzz
variable pzz1 equal ${tmp}
variable pzz1 equal 1.17980425465127
variable tmp equal pxy
variable pxy1 equal ${tmp}
variable pxy1 equal -1.91184094099265e-11
variable tmp equal pxz
variable pxz1 equal ${tmp}
variable pxz1 equal 5.40271620099719e-13
variable tmp equal pyz
variable pyz1 equal ${tmp}
variable pyz1 equal 2.2232388210705e-11

# Compute elastic constant from pressure tensor

variable C1neg equal ${d1}
variable C1neg equal 148.136750005003
variable C2neg equal ${d2}
variable C2neg equal 117.980425513724
variable C3neg equal ${d3}
variable C3neg equal 117.980425505809
variable C4neg equal ${d4}
variable C4neg equal -1.5991790687133e-09
variable C5neg equal ${d5}
variable C5neg equal 4.32216917889641e-10
variable C6neg equal ${d6}
variable C6neg equal -2.56016623678637e-09

# Reset box and simulation parameters

clear
  using 1 OpenMP thread(s) per MPI task
Loaded 1 plugins from C:\Program Files\LAMMPS 64-bit 23Jun2022\plugins
Loaded 0 plugins from C:\Program Files\LAMMPS 64-bit 23Jun2022-MPI\plugins
Loaded 1 plugins from C:\Program Files\LAMMPS 64-bit 22Dec2022-MSMPI\plugins
Loaded 1 plugins from C:\Program Files\LAMMPS 64-bit 28Mar2023-MPI\plugins
box tilt large

The 'box' command has been removed and will be ignored

read_restart restart.equil
Reading restart file ...
  restart file = 22 Dec 2022, LAMMPS = 22 Dec 2022
  restoring atom style atomic from restart
  triclinic box = (-0.0030389004 -0.0030389004 -0.0030389004) to (6.0291167 9.0451945 12.061272) with tilt (0 0 0)
  1 by 2 by 2 MPI processor grid
  pair style meam stores no restart info
  48 atoms
  read_restart CPU = 0.000 seconds
include potential.mod
# NOTE: This script can be modified for different pair styles
# See in.elastic for more info.

# Choose potential
#-----------------------
#pair_style	sw
#pair_coeff * * Si.sw Si
#-----------------------
#pair_style morse	2.83994742	# D0[eV] a[1/A] r0[A] rc[A], 1NN for BCC
#pair_coeff 1 1	2.1173	1.0202	2.4595	2.6497	#	Fe-Fe
#-----------------------
#pair_style smatb # R0(A)   p       q     A(eV)   xi(eV)  Rcs(A)   Rc(A), 4NN: Rcs=4NN, Rc=(4NN+5NN)/2
#pair_coeff 1 1	2.4802	7.0149	2.3779	0.3144	3.0551	4.033	4.176	#	Co	Co
#-----------------------
#pair_style eam/alloy
#pair_coeff * * AlCrFeCoNi_Zhou04.eam.alloy Fe
#-----------------------
pair_style meam
pair_coeff * * ./../../library.meam Ni Ti Hf ./../../NiTiHf.meam Ni Ti
#-----------------------

# Setup neighbor style
neighbor 1.0 nsq
neigh_modify once no every 1 delay 0 check yes

# Setup minimization style
min_style	     cg
min_modify	     dmax ${dmax} line quadratic
min_modify	     dmax 0.01 line quadratic

# Setup output
thermo		1
thermo_style custom step temp pe press pxx pyy pzz pxy pxz pyz lx ly lz vol
thermo_modify norm no

# Positive deformation

variable delta equal ${up}*${len0}
variable delta equal 1e-06*${len0}
variable delta equal 1e-06*6.03215560157145
variable deltaxy equal ${up}*xy
variable deltaxy equal 1e-06*xy
variable deltaxz equal ${up}*xz
variable deltaxz equal 1e-06*xz
variable deltayz equal ${up}*yz
variable deltayz equal 1e-06*yz
if "${dir} == 1" then    "change_box all x delta 0 ${delta} xy delta ${deltaxy} xz delta ${deltaxz} remap units box"
change_box all x delta 0 ${delta} xy delta ${deltaxy} xz delta ${deltaxz} remap units box
change_box all x delta 0 6.03215560157145e-06 xy delta ${deltaxy} xz delta ${deltaxz} remap units box
change_box all x delta 0 6.03215560157145e-06 xy delta 0 xz delta ${deltaxz} remap units box
change_box all x delta 0 6.03215560157145e-06 xy delta 0 xz delta 0 remap units box
Changing box ...
  triclinic box = (-0.0030389004 -0.0030389004 -0.0030389004) to (6.0291227 9.0451945 12.061272) with tilt (0 0 0)
  triclinic box = (-0.0030389004 -0.0030389004 -0.0030389004) to (6.0291227 9.0451945 12.061272) with tilt (0 0 0)
  triclinic box = (-0.0030389004 -0.0030389004 -0.0030389004) to (6.0291227 9.0451945 12.061272) with tilt (0 0 0)
if "${dir} == 2" then    "change_box all y delta 0 ${delta} yz delta ${deltayz} remap units box"
if "${dir} == 3" then    "change_box all z delta 0 ${delta} remap units box"
if "${dir} == 4" then    "change_box all yz delta ${delta} remap units box"
if "${dir} == 5" then    "change_box all xz delta ${delta} remap units box"
if "${dir} == 6" then    "change_box all xy delta ${delta} remap units box"

# Relax atoms positions

minimize ${etol} ${ftol} ${maxiter} ${maxeval}
minimize 0 ${ftol} ${maxiter} ${maxeval}
minimize 0 1e-10 ${maxiter} ${maxeval}
minimize 0 1e-10 100 ${maxeval}
minimize 0 1e-10 100 1000
Neighbor list info ...
  update: every = 1 steps, delay = 0 steps, check = yes
  max neighbors/atom: 2000, page size: 100000
  master list distance cutoff = 6
  ghost atom cutoff = 6
  2 neighbor lists, perpetual/occasional/extra = 2 0 0
  (1) pair meam, perpetual
      attributes: full, newton on
      pair build: full/nsq
      stencil: none
      bin: none
  (2) pair meam, perpetual, half/full from (1)
      attributes: half, newton on
      pair build: halffull/newton
      stencil: none
      bin: none
Per MPI rank memory allocation (min/avg/max) = 9.772 | 9.774 | 9.776 Mbytes
   Step          Temp          PotEng         Press           Pxx            Pyy            Pzz            Pxy            Pxz            Pyz             Lx             Ly             Lz           Volume    
         1   0             -238.08        -1.2802032     -1.4812543     -1.1796802     -1.179675       8.978661e-06   7.6292551e-06  5.269462e-06   6.0321616      9.0482334      12.064311      658.47501    
         2   0             -238.08        -1.2803017     -1.4813403     -1.1797833     -1.1797815     -9.7731831e-07  5.4714767e-06 -2.2265501e-06  6.0321616      9.0482334      12.064311      658.47501    
         3   0             -238.08        -1.2803142     -1.4813542     -1.1797941     -1.1797945     -2.9705355e-07  1.9470642e-06 -1.7485422e-06  6.0321616      9.0482334      12.064311      658.47501    
         4   0             -238.08        -1.2803167     -1.4813567     -1.1797967     -1.1797968     -2.0510435e-07  8.6430995e-07 -1.2937971e-06  6.0321616      9.0482334      12.064311      658.47501    
         5   0             -238.08        -1.2803174     -1.481357      -1.1797972     -1.1797978     -1.5098119e-07  1.0114226e-06 -9.1732738e-07  6.0321616      9.0482334      12.064311      658.47501    
         6   0             -238.08        -1.280318      -1.4813575     -1.1797981     -1.1797983     -8.6177679e-08  6.7600811e-07 -5.5996731e-07  6.0321616      9.0482334      12.064311      658.47501    
         7   0             -238.08        -1.2803181     -1.4813575     -1.1797983     -1.1797984     -3.9767618e-08  7.6160965e-07 -3.6860644e-07  6.0321616      9.0482334      12.064311      658.47501    
         8   0             -238.08        -1.2803182     -1.4813576     -1.1797986     -1.1797985     -1.2711283e-08  6.4835977e-07 -2.1265096e-07  6.0321616      9.0482334      12.064311      658.47501    
         9   0             -238.08        -1.2803183     -1.4813576     -1.1797988     -1.1797985      1.5829914e-09  5.7133988e-07 -1.4848415e-07  6.0321616      9.0482334      12.064311      658.47501    
        10   0             -238.08        -1.2803183     -1.4813576     -1.1797988     -1.1797986      4.4589776e-09  5.0054607e-07 -7.3577369e-08  6.0321616      9.0482334      12.064311      658.47501    
        11   0             -238.08        -1.2803184     -1.4813576     -1.1797988     -1.1797987      3.3625738e-09  4.4435685e-07 -4.5203882e-08  6.0321616      9.0482334      12.064311      658.47501    
        12   0             -238.08        -1.2803184     -1.4813577     -1.1797989     -1.1797987      1.4162076e-09  3.7967863e-07 -2.121349e-08   6.0321616      9.0482334      12.064311      658.47501    
        13   0             -238.08        -1.2803184     -1.4813577     -1.1797988     -1.1797987     -3.1597266e-09  3.0729562e-07 -1.1277515e-08  6.0321616      9.0482334      12.064311      658.47501    
        14   0             -238.08        -1.2803184     -1.4813577     -1.1797988     -1.1797987     -2.6006945e-09  2.6686717e-07 -6.7607762e-09  6.0321616      9.0482334      12.064311      658.47501    
        15   0             -238.08        -1.2803185     -1.4813578     -1.1797988     -1.1797987      3.6533464e-10  2.2579824e-07 -1.4259095e-09  6.0321616      9.0482334      12.064311      658.47501    
        16   0             -238.08        -1.2803185     -1.4813578     -1.1797988     -1.1797988      1.2254748e-09  1.7886737e-07  1.238934e-09   6.0321616      9.0482334      12.064311      658.47501    
        17   0             -238.08        -1.2803185     -1.4813578     -1.1797988     -1.1797988     -4.8600767e-11  1.2256226e-07 -8.3343379e-10  6.0321616      9.0482334      12.064311      658.47501    
        18   0             -238.08        -1.2803185     -1.4813579     -1.1797988     -1.1797988     -2.7914548e-10  9.4632977e-08 -1.6780755e-09  6.0321616      9.0482334      12.064311      658.47501    
        19   0             -238.08        -1.2803185     -1.4813579     -1.1797988     -1.1797988      2.0942401e-10  7.0643615e-08 -2.961555e-09   6.0321616      9.0482334      12.064311      658.47501    
        20   0             -238.08        -1.2803185     -1.4813579     -1.1797988     -1.1797988      1.9131364e-10  5.1028552e-08 -2.0417317e-09  6.0321616      9.0482334      12.064311      658.47501    
        21   0             -238.08        -1.2803185     -1.4813579     -1.1797988     -1.1797988     -4.3303522e-11  3.28914e-08   -1.7630523e-09  6.0321616      9.0482334      12.064311      658.47501    
        22   0             -238.08        -1.2803185     -1.4813579     -1.1797988     -1.1797988     -1.3517877e-10  1.4793688e-08 -4.1329984e-10  6.0321616      9.0482334      12.064311      658.47501    
        23   0             -238.08        -1.2803185     -1.4813579     -1.1797988     -1.1797988      1.3736009e-10  4.283535e-09   2.4834928e-10  6.0321616      9.0482334      12.064311      658.47501    
        24   0             -238.08        -1.2803185     -1.4813579     -1.1797988     -1.1797988      1.4639195e-10  1.6729477e-09  2.5131312e-10  6.0321616      9.0482334      12.064311      658.47501    
        25   0             -238.08        -1.2803185     -1.4813579     -1.1797988     -1.1797988      5.7820359e-11  4.1006534e-10  1.5346005e-10  6.0321616      9.0482334      12.064311      658.47501    
        26   0             -238.08        -1.2803185     -1.4813579     -1.1797988     -1.1797988      2.7025383e-11  8.9144639e-12  4.4042074e-12  6.0321616      9.0482334      12.064311      658.47501    
        27   0             -238.08        -1.2803185     -1.4813579     -1.1797988     -1.1797988      1.6183408e-11  2.2961498e-11  2.081941e-12   6.0321616      9.0482334      12.064311      658.47501    
        28   0             -238.08        -1.2803185     -1.4813579     -1.1797988     -1.1797988      1.978714e-11   1.1885952e-11  1.6464006e-11  6.0321616      9.0482334      12.064311      658.47501    
        29   0             -238.08        -1.2803185     -1.4813579     -1.1797988     -1.1797988     -4.1009066e-12  1.539771e-11  -1.5255784e-12  6.0321616      9.0482334      12.064311      658.47501    
        30   0             -238.08        -1.2803185     -1.4813579     -1.1797988     -1.1797988      1.3277957e-11  1.1075546e-11  7.5458489e-12  6.0321616      9.0482334      12.064311      658.47501    
        31   0             -238.08        -1.2803185     -1.4813579     -1.1797988     -1.1797988     -4.8360299e-12 -5.4027054e-12  1.6318914e-12  6.0321616      9.0482334      12.064311      658.47501    
        32   0             -238.08        -1.2803185     -1.4813579     -1.1797988     -1.1797988     -1.3427095e-12  3.5117585e-12 -3.4398192e-11  6.0321616      9.0482334      12.064311      658.47501    
        33   0             -238.08        -1.2803185     -1.4813579     -1.1797988     -1.1797988     -7.009597e-12   2.4312174e-12  9.5396793e-12  6.0321616      9.0482334      12.064311      658.47501    
        34   0             -238.08        -1.2803185     -1.4813579     -1.1797988     -1.1797988      1.3423868e-11 -2.2421227e-11 -1.6248742e-11  6.0321616      9.0482334      12.064311      658.47501    
        35   0             -238.08        -1.2803185     -1.4813579     -1.1797988     -1.1797988     -2.2611264e-11 -2.4312174e-11 -1.5042894e-11  6.0321616      9.0482334      12.064311      658.47501    
        36   0             -238.08        -1.2803185     -1.4813579     -1.1797988     -1.1797988      1.9292448e-11 -4.1870967e-11 -7.6703644e-12  6.0321616      9.0482334      12.064311      658.47501    
        37   0             -238.08        -1.2803185     -1.4813579     -1.1797988     -1.1797988      1.957451e-11   1.0805411e-12  2.2610902e-11  6.0321616      9.0482334      12.064311      658.47501    
        38   0             -238.08        -1.2803185     -1.4813579     -1.1797988     -1.1797988     -9.5620473e-12  1.7558793e-11  1.6034006e-12  6.0321616      9.0482334      12.064311      658.47501    
        39   0             -238.08        -1.2803185     -1.4813579     -1.1797988     -1.1797988      1.0087668e-11 -3.0525285e-11  4.0455395e-11  6.0321616      9.0482334      12.064311      658.47501    
Loop time of 0.007534 on 4 procs for 38 steps with 48 atoms

51.8% CPU use with 4 MPI tasks x 1 OpenMP threads

Minimization stats:
  Stopping criterion = force tolerance
  Energy initial, next-to-last, final = 
     -238.079999980429  -238.080000003628  -238.080000003628
  Force two-norm initial, final = 0.00075568822 7.2609817e-11
  Force max component initial, final = 0.00014267891 1.4641573e-11
  Final line search alpha, max atom move = 1 1.4641573e-11
  Iterations, force evaluations = 38 76

MPI task timing breakdown:
Section |  min time  |  avg time  |  max time  |%varavg| %total
---------------------------------------------------------------
Pair    | 0.005955   | 0.0061202  | 0.006251   |   0.2 | 81.24
Neigh   | 0          | 0          | 0          |   0.0 |  0.00
Comm    | 0.000561   | 0.00068775 | 0.000846   |   0.0 |  9.13
Output  | 0.000316   | 0.00034325 | 0.000422   |   0.0 |  4.56
Modify  | 0          | 0          | 0          |   0.0 |  0.00
Other   |            | 0.0003828  |            |       |  5.08

Nlocal:             12 ave          14 max          10 min
Histogram: 1 0 1 0 0 0 0 1 0 1
Nghost:            293 ave         295 max         291 min
Histogram: 1 0 1 0 0 0 0 1 0 1
Neighs:            348 ave         413 max         286 min
Histogram: 1 0 1 0 0 0 0 1 0 1
FullNghs:          696 ave         812 max         580 min
Histogram: 1 0 1 0 0 0 0 1 0 1

Total # of neighbors = 2784
Ave neighs/atom = 58
Neighbor list builds = 0
Dangerous builds = 0

# Obtain new stress tensor

variable tmp equal pe
variable e1 equal ${tmp}
variable e1 equal -238.080000003628
variable tmp equal press
variable p1 equal ${tmp}
variable p1 equal -1.28031850399776
variable tmp equal pxx
variable pxx1 equal ${tmp}
variable pxx1 equal -1.48135791044653
variable tmp equal pyy
variable pyy1 equal ${tmp}
variable pyy1 equal -1.17979880075338
variable tmp equal pzz
variable pzz1 equal ${tmp}
variable pzz1 equal -1.17979880079336
variable tmp equal pxy
variable pxy1 equal ${tmp}
variable pxy1 equal 1.00876678947789e-11
variable tmp equal pxz
variable pxz1 equal ${tmp}
variable pxz1 equal -3.05252854850021e-11
variable tmp equal pyz
variable pyz1 equal ${tmp}
variable pyz1 equal 4.04553946891162e-11

# Compute elastic constant from pressure tensor

variable C1pos equal ${d1}
variable C1pos equal 148.135791005051
variable C2pos equal ${d2}
variable C2pos equal 117.979880028442
variable C3pos equal ${d3}
variable C3pos equal 117.979880038654
variable C4pos equal ${d4}
variable C4pos equal -2.2312157912782e-10
variable C5pos equal ${d5}
variable C5pos equal 2.67433879262054e-09
variable C6pos equal ${d6}
variable C6pos equal -3.60441493684171e-10

# Combine positive and negative

variable C1${dir} equal 0.5*(${C1neg}+${C1pos})
variable C11 equal 0.5*(${C1neg}+${C1pos})
variable C11 equal 0.5*(148.136750005003+${C1pos})
variable C11 equal 0.5*(148.136750005003+148.135791005051)
variable C2${dir} equal 0.5*(${C2neg}+${C2pos})
variable C21 equal 0.5*(${C2neg}+${C2pos})
variable C21 equal 0.5*(117.980425513724+${C2pos})
variable C21 equal 0.5*(117.980425513724+117.979880028442)
variable C3${dir} equal 0.5*(${C3neg}+${C3pos})
variable C31 equal 0.5*(${C3neg}+${C3pos})
variable C31 equal 0.5*(117.980425505809+${C3pos})
variable C31 equal 0.5*(117.980425505809+117.979880038654)
variable C4${dir} equal 0.5*(${C4neg}+${C4pos})
variable C41 equal 0.5*(${C4neg}+${C4pos})
variable C41 equal 0.5*(-1.5991790687133e-09+${C4pos})
variable C41 equal 0.5*(-1.5991790687133e-09+-2.2312157912782e-10)
variable C5${dir} equal 0.5*(${C5neg}+${C5pos})
variable C51 equal 0.5*(${C5neg}+${C5pos})
variable C51 equal 0.5*(4.32216917889641e-10+${C5pos})
variable C51 equal 0.5*(4.32216917889641e-10+2.67433879262054e-09)
variable C6${dir} equal 0.5*(${C6neg}+${C6pos})
variable C61 equal 0.5*(${C6neg}+${C6pos})
variable C61 equal 0.5*(-2.56016623678637e-09+${C6pos})
variable C61 equal 0.5*(-2.56016623678637e-09+-3.60441493684171e-10)

# Delete dir to make sure it is not reused

variable dir delete

# uyy Perturbation

variable dir equal 2
include displace.mod
# NOTE: This script should not need to be
# modified. See in.elastic for more info.
#
# Find which reference length to use

if "${dir} == 1" then    "variable len0 equal ${lx0}"
if "${dir} == 2" then    "variable len0 equal ${ly0}"
variable len0 equal ${ly0}
variable len0 equal 9.04823340235717
if "${dir} == 3" then    "variable len0 equal ${lz0}"
if "${dir} == 4" then    "variable len0 equal ${lz0}"
if "${dir} == 5" then    "variable len0 equal ${lz0}"
if "${dir} == 6" then    "variable len0 equal ${ly0}"

# Reset box and simulation parameters

clear
  using 1 OpenMP thread(s) per MPI task
Loaded 1 plugins from C:\Program Files\LAMMPS 64-bit 23Jun2022\plugins
Loaded 0 plugins from C:\Program Files\LAMMPS 64-bit 23Jun2022-MPI\plugins
Loaded 1 plugins from C:\Program Files\LAMMPS 64-bit 22Dec2022-MSMPI\plugins
Loaded 1 plugins from C:\Program Files\LAMMPS 64-bit 28Mar2023-MPI\plugins
box tilt large

The 'box' command has been removed and will be ignored

read_restart restart.equil
Reading restart file ...
  restart file = 22 Dec 2022, LAMMPS = 22 Dec 2022
  restoring atom style atomic from restart
  triclinic box = (-0.0030389004 -0.0030389004 -0.0030389004) to (6.0291167 9.0451945 12.061272) with tilt (0 0 0)
  1 by 2 by 2 MPI processor grid
  pair style meam stores no restart info
  48 atoms
  read_restart CPU = 0.000 seconds
include potential.mod
# NOTE: This script can be modified for different pair styles
# See in.elastic for more info.

# Choose potential
#-----------------------
#pair_style	sw
#pair_coeff * * Si.sw Si
#-----------------------
#pair_style morse	2.83994742	# D0[eV] a[1/A] r0[A] rc[A], 1NN for BCC
#pair_coeff 1 1	2.1173	1.0202	2.4595	2.6497	#	Fe-Fe
#-----------------------
#pair_style smatb # R0(A)   p       q     A(eV)   xi(eV)  Rcs(A)   Rc(A), 4NN: Rcs=4NN, Rc=(4NN+5NN)/2
#pair_coeff 1 1	2.4802	7.0149	2.3779	0.3144	3.0551	4.033	4.176	#	Co	Co
#-----------------------
#pair_style eam/alloy
#pair_coeff * * AlCrFeCoNi_Zhou04.eam.alloy Fe
#-----------------------
pair_style meam
pair_coeff * * ./../../library.meam Ni Ti Hf ./../../NiTiHf.meam Ni Ti
#-----------------------

# Setup neighbor style
neighbor 1.0 nsq
neigh_modify once no every 1 delay 0 check yes

# Setup minimization style
min_style	     cg
min_modify	     dmax ${dmax} line quadratic
min_modify	     dmax 0.01 line quadratic

# Setup output
thermo		1
thermo_style custom step temp pe press pxx pyy pzz pxy pxz pyz lx ly lz vol
thermo_modify norm no

# Negative deformation

variable delta equal -${up}*${len0}
variable delta equal -1e-06*${len0}
variable delta equal -1e-06*9.04823340235717
variable deltaxy equal -${up}*xy
variable deltaxy equal -1e-06*xy
variable deltaxz equal -${up}*xz
variable deltaxz equal -1e-06*xz
variable deltayz equal -${up}*yz
variable deltayz equal -1e-06*yz
if "${dir} == 1" then    "change_box all x delta 0 ${delta} xy delta ${deltaxy} xz delta ${deltaxz} remap units box"
if "${dir} == 2" then    "change_box all y delta 0 ${delta} yz delta ${deltayz} remap units box"
change_box all y delta 0 ${delta} yz delta ${deltayz} remap units box
change_box all y delta 0 -9.04823340235717e-06 yz delta ${deltayz} remap units box
change_box all y delta 0 -9.04823340235717e-06 yz delta -0 remap units box
Changing box ...
  triclinic box = (-0.0030389004 -0.0030389004 -0.0030389004) to (6.0291167 9.0451855 12.061272) with tilt (0 0 0)
  triclinic box = (-0.0030389004 -0.0030389004 -0.0030389004) to (6.0291167 9.0451855 12.061272) with tilt (0 0 0)
if "${dir} == 3" then    "change_box all z delta 0 ${delta} remap units box"
if "${dir} == 4" then    "change_box all yz delta ${delta} remap units box"
if "${dir} == 5" then    "change_box all xz delta ${delta} remap units box"
if "${dir} == 6" then    "change_box all xy delta ${delta} remap units box"

# Relax atoms positions

minimize ${etol} ${ftol} ${maxiter} ${maxeval}
minimize 0 ${ftol} ${maxiter} ${maxeval}
minimize 0 1e-10 ${maxiter} ${maxeval}
minimize 0 1e-10 100 ${maxeval}
minimize 0 1e-10 100 1000
Neighbor list info ...
  update: every = 1 steps, delay = 0 steps, check = yes
  max neighbors/atom: 2000, page size: 100000
  master list distance cutoff = 6
  ghost atom cutoff = 6
  2 neighbor lists, perpetual/occasional/extra = 2 0 0
  (1) pair meam, perpetual
      attributes: full, newton on
      pair build: full/nsq
      stencil: none
      bin: none
  (2) pair meam, perpetual, half/full from (1)
      attributes: half, newton on
      pair build: halffull/newton
      stencil: none
      bin: none
Per MPI rank memory allocation (min/avg/max) = 9.772 | 9.774 | 9.776 Mbytes
   Step          Temp          PotEng         Press           Pxx            Pyy            Pzz            Pxy            Pxz            Pyz             Lx             Ly             Lz           Volume    
         1   0             -238.08         1.2804407      1.1799079      1.4814861      1.179928       8.9787701e-06  7.6292385e-06  5.2694886e-06  6.0321556      9.0482244      12.064311      658.47369    
         2   0             -238.08         1.2803421      1.1798219      1.481383       1.1798215     -9.773408e-07   5.4714641e-06 -2.2265401e-06  6.0321556      9.0482244      12.064311      658.47369    
         3   0             -238.08         1.2803296      1.179808       1.4813722      1.1798086     -2.9706855e-07  1.9470511e-06 -1.7485317e-06  6.0321556      9.0482244      12.064311      658.47369    
         4   0             -238.08         1.2803271      1.1798055      1.4813696      1.1798063     -2.0510438e-07  8.643006e-07  -1.2937629e-06  6.0321556      9.0482244      12.064311      658.47369    
         5   0             -238.08         1.2803265      1.1798051      1.4813691      1.1798052     -1.5100632e-07  1.0114336e-06 -9.1733717e-07  6.0321556      9.0482244      12.064311      658.47369    
         6   0             -238.08         1.2803259      1.1798047      1.4813682      1.1798048     -8.6221796e-08  6.7598731e-07 -5.6000637e-07  6.0321556      9.0482244      12.064311      658.47369    
         7   0             -238.08         1.2803258      1.1798047      1.481368       1.1798046     -3.9734884e-08  7.6161685e-07 -3.6859746e-07  6.0321556      9.0482244      12.064311      658.47369    
         8   0             -238.08         1.2803256      1.1798046      1.4813677      1.1798046     -1.271006e-08   6.4835404e-07 -2.1267538e-07  6.0321556      9.0482244      12.064311      658.47369    
         9   0             -238.08         1.2803255      1.1798046      1.4813675      1.1798045      1.5672288e-09  5.7132427e-07 -1.4845936e-07  6.0321556      9.0482244      12.064311      658.47369    
        10   0             -238.08         1.2803255      1.1798045      1.4813675      1.1798045      4.4573817e-09  5.005676e-07  -7.3551995e-08  6.0321556      9.0482244      12.064311      658.47369    
        11   0             -238.08         1.2803255      1.1798045      1.4813675      1.1798044      3.3876006e-09  4.4434991e-07 -4.5204024e-08  6.0321556      9.0482244      12.064311      658.47369    
        12   0             -238.08         1.2803254      1.1798045      1.4813674      1.1798044      1.4513835e-09  3.7966454e-07 -2.1239061e-08  6.0321556      9.0482244      12.064311      658.47369    
        13   0             -238.08         1.2803254      1.1798044      1.4813675      1.1798043     -3.1287259e-09  3.0724031e-07 -1.1246163e-08  6.0321556      9.0482244      12.064311      658.47369    
        14   0             -238.08         1.2803254      1.1798044      1.4813675      1.1798043     -2.630339e-09   2.6687554e-07 -6.8022476e-09  6.0321556      9.0482244      12.064311      658.47369    
        15   0             -238.08         1.2803254      1.1798044      1.4813675      1.1798043      3.6565133e-10  2.2580409e-07 -1.4349026e-09  6.0321556      9.0482244      12.064311      658.47369    
        16   0             -238.08         1.2803254      1.1798044      1.4813675      1.1798043      1.2433596e-09  1.7886881e-07  1.2241465e-09  6.0321556      9.0482244      12.064311      658.47369    
        17   0             -238.08         1.2803254      1.1798043      1.4813675      1.1798043     -3.2831063e-11  1.2253576e-07 -8.872244e-10   6.0321556      9.0482244      12.064311      658.47369    
        18   0             -238.08         1.2803254      1.1798043      1.4813675      1.1798043     -2.3819019e-10  9.4633977e-08 -1.6362635e-09  6.0321556      9.0482244      12.064311      658.47369    
        19   0             -238.08         1.2803254      1.1798043      1.4813675      1.1798043      1.6137623e-10  7.0556502e-08 -2.97883e-09    6.0321556      9.0482244      12.064311      658.47369    
        20   0             -238.08         1.2803253      1.1798043      1.4813675      1.1798043      1.6151593e-10  5.1112937e-08 -2.0792448e-09  6.0321556      9.0482244      12.064311      658.47369    
        21   0             -238.08         1.2803253      1.1798043      1.4813675      1.1798043     -8.3351907e-11  3.2689945e-08 -1.7451844e-09  6.0321556      9.0482244      12.064311      658.47369    
        22   0             -238.08         1.2803253      1.1798043      1.4813675      1.1798043     -1.3445792e-10  1.4781291e-08 -3.7655982e-10  6.0321556      9.0482244      12.064311      658.47369    
        23   0             -238.08         1.2803253      1.1798043      1.4813675      1.1798043      1.6855329e-10  3.6254927e-09  2.6334126e-10  6.0321556      9.0482244      12.064311      658.47369    
        24   0             -238.08         1.2803253      1.1798043      1.4813675      1.1798043      1.4360589e-10  9.8113326e-10  2.2173586e-10  6.0321556      9.0482244      12.064311      658.47369    
        25   0             -238.08         1.2803253      1.1798043      1.4813675      1.1798043      6.5089645e-11  3.6684443e-10  8.638252e-11   6.0321556      9.0482244      12.064311      658.47369    
        26   0             -238.08         1.2803253      1.1798043      1.4813675      1.1798043      2.6276163e-11  4.0790507e-11  1.7991731e-11  6.0321556      9.0482244      12.064311      658.47369    
        27   0             -238.08         1.2803253      1.1798043      1.4813675      1.1798043     -1.0713576e-11 -4.322173e-12  -1.7882252e-11  6.0321556      9.0482244      12.064311      658.47369    
        28   0             -238.08         1.2803253      1.1798043      1.4813675      1.1798043      3.2506428e-12  3.1876026e-11 -1.9746558e-11  6.0321556      9.0482244      12.064311      658.47369    
        29   0             -238.08         1.2803253      1.1798043      1.4813675      1.1798043     -2.388183e-11   2.1070593e-11 -4.116722e-11   6.0321556      9.0482244      12.064311      658.47369    
        30   0             -238.08         1.2803253      1.1798043      1.4813675      1.1798043     -1.1734193e-11 -2.1881001e-11 -6.5085847e-12  6.0321556      9.0482244      12.064311      658.47369    
        31   0             -238.08         1.2803253      1.1798043      1.4813675      1.1798043      7.9082995e-14  9.995025e-12   1.4937402e-11  6.0321556      9.0482244      12.064311      658.47369    
        32   0             -238.08         1.2803253      1.1798043      1.4813675      1.1798043      2.7212202e-11 -8.6443459e-12  2.5964431e-11  6.0321556      9.0482244      12.064311      658.47369    
        33   0             -238.08         1.2803253      1.1798043      1.4813675      1.1798043      4.8339582e-13 -2.4042087e-11  9.70484e-12    6.0321556      9.0482244      12.064311      658.47369    
        34   0             -238.08         1.2803253      1.1798043      1.4813675      1.1798043      1.2197868e-11  2.3501815e-11  2.9875596e-11  6.0321556      9.0482244      12.064311      658.47369    
        35   0             -238.08         1.2803253      1.1798043      1.4813675      1.1798043     -6.5121616e-13  4.8624446e-12  4.8648188e-12  6.0321556      9.0482244      12.064311      658.47369    
        36   0             -238.08         1.2803253      1.1798043      1.4813675      1.1798043      1.1805177e-11 -6.7533953e-12  2.2398585e-11  6.0321556      9.0482244      12.064311      658.47369    
        37   0             -238.08         1.2803253      1.1798043      1.4813675      1.1798043     -2.0251551e-11 -4.322173e-12   1.5312005e-11  6.0321556      9.0482244      12.064311      658.47369    
        38   0             -238.08         1.2803253      1.1798043      1.4813675      1.1798043     -1.0431599e-11 -3.5117655e-12  3.8729139e-12  6.0321556      9.0482244      12.064311      658.47369    
        39   0             -238.08         1.2803253      1.1798043      1.4813675      1.1798043     -9.1427637e-12 -3.7819013e-12  3.0034143e-12  6.0321556      9.0482244      12.064311      658.47369    
Loop time of 0.0078305 on 4 procs for 38 steps with 48 atoms

0.0% CPU use with 4 MPI tasks x 1 OpenMP threads

Minimization stats:
  Stopping criterion = force tolerance
  Energy initial, next-to-last, final = 
     -238.079999980429  -238.080000003628  -238.080000003628
  Force two-norm initial, final = 0.00075569174 7.0163499e-11
  Force max component initial, final = 0.00014267958 1.6916482e-11
  Final line search alpha, max atom move = 1 1.6916482e-11
  Iterations, force evaluations = 38 76

MPI task timing breakdown:
Section |  min time  |  avg time  |  max time  |%varavg| %total
---------------------------------------------------------------
Pair    | 0.006224   | 0.0063808  | 0.006514   |   0.1 | 81.49
Neigh   | 0          | 0          | 0          |   0.0 |  0.00
Comm    | 0.000633   | 0.000745   | 0.000884   |   0.0 |  9.51
Output  | 0.000315   | 0.00033025 | 0.000369   |   0.0 |  4.22
Modify  | 0          | 0          | 0          |   0.0 |  0.00
Other   |            | 0.0003745  |            |       |  4.78

Nlocal:             12 ave          14 max          10 min
Histogram: 1 0 1 0 0 0 0 1 0 1
Nghost:            293 ave         295 max         291 min
Histogram: 1 0 1 0 0 0 0 1 0 1
Neighs:            348 ave         413 max         286 min
Histogram: 1 0 1 0 0 0 0 1 0 1
FullNghs:          696 ave         812 max         580 min
Histogram: 1 0 1 0 0 0 0 1 0 1

Total # of neighbors = 2784
Ave neighs/atom = 58
Neighbor list builds = 0
Dangerous builds = 0

# Obtain new stress tensor

variable tmp equal pxx
variable pxx1 equal ${tmp}
variable pxx1 equal 1.1798042544954
variable tmp equal pyy
variable pyy1 equal ${tmp}
variable pyy1 equal 1.48136749950921
variable tmp equal pzz
variable pzz1 equal ${tmp}
variable pzz1 equal 1.17980425451458
variable tmp equal pxy
variable pxy1 equal ${tmp}
variable pxy1 equal -9.14276368915928e-12
variable tmp equal pxz
variable pxz1 equal ${tmp}
variable pxz1 equal -3.78190134069803e-12
variable tmp equal pyz
variable pyz1 equal ${tmp}
variable pyz1 equal 3.00341425529068e-12

# Compute elastic constant from pressure tensor

variable C1neg equal ${d1}
variable C1neg equal 117.980425489142
variable C2neg equal ${d2}
variable C2neg equal 148.136749997817
variable C3neg equal ${d3}
variable C3neg equal 117.98042549214
variable C4neg equal ${d4}
variable C4neg equal -3.52207646425473e-09
variable C5neg equal ${d5}
variable C5neg equal -3.78190134047415e-16
variable C6neg equal ${d6}
variable C6neg equal -1.56260166470965e-09

# Reset box and simulation parameters

clear
  using 1 OpenMP thread(s) per MPI task
Loaded 1 plugins from C:\Program Files\LAMMPS 64-bit 23Jun2022\plugins
Loaded 0 plugins from C:\Program Files\LAMMPS 64-bit 23Jun2022-MPI\plugins
Loaded 1 plugins from C:\Program Files\LAMMPS 64-bit 22Dec2022-MSMPI\plugins
Loaded 1 plugins from C:\Program Files\LAMMPS 64-bit 28Mar2023-MPI\plugins
box tilt large

The 'box' command has been removed and will be ignored

read_restart restart.equil
Reading restart file ...
  restart file = 22 Dec 2022, LAMMPS = 22 Dec 2022
  restoring atom style atomic from restart
  triclinic box = (-0.0030389004 -0.0030389004 -0.0030389004) to (6.0291167 9.0451945 12.061272) with tilt (0 0 0)
  1 by 2 by 2 MPI processor grid
  pair style meam stores no restart info
  48 atoms
  read_restart CPU = 0.000 seconds
include potential.mod
# NOTE: This script can be modified for different pair styles
# See in.elastic for more info.

# Choose potential
#-----------------------
#pair_style	sw
#pair_coeff * * Si.sw Si
#-----------------------
#pair_style morse	2.83994742	# D0[eV] a[1/A] r0[A] rc[A], 1NN for BCC
#pair_coeff 1 1	2.1173	1.0202	2.4595	2.6497	#	Fe-Fe
#-----------------------
#pair_style smatb # R0(A)   p       q     A(eV)   xi(eV)  Rcs(A)   Rc(A), 4NN: Rcs=4NN, Rc=(4NN+5NN)/2
#pair_coeff 1 1	2.4802	7.0149	2.3779	0.3144	3.0551	4.033	4.176	#	Co	Co
#-----------------------
#pair_style eam/alloy
#pair_coeff * * AlCrFeCoNi_Zhou04.eam.alloy Fe
#-----------------------
pair_style meam
pair_coeff * * ./../../library.meam Ni Ti Hf ./../../NiTiHf.meam Ni Ti
#-----------------------

# Setup neighbor style
neighbor 1.0 nsq
neigh_modify once no every 1 delay 0 check yes

# Setup minimization style
min_style	     cg
min_modify	     dmax ${dmax} line quadratic
min_modify	     dmax 0.01 line quadratic

# Setup output
thermo		1
thermo_style custom step temp pe press pxx pyy pzz pxy pxz pyz lx ly lz vol
thermo_modify norm no

# Positive deformation

variable delta equal ${up}*${len0}
variable delta equal 1e-06*${len0}
variable delta equal 1e-06*9.04823340235717
variable deltaxy equal ${up}*xy
variable deltaxy equal 1e-06*xy
variable deltaxz equal ${up}*xz
variable deltaxz equal 1e-06*xz
variable deltayz equal ${up}*yz
variable deltayz equal 1e-06*yz
if "${dir} == 1" then    "change_box all x delta 0 ${delta} xy delta ${deltaxy} xz delta ${deltaxz} remap units box"
if "${dir} == 2" then    "change_box all y delta 0 ${delta} yz delta ${deltayz} remap units box"
change_box all y delta 0 ${delta} yz delta ${deltayz} remap units box
change_box all y delta 0 9.04823340235717e-06 yz delta ${deltayz} remap units box
change_box all y delta 0 9.04823340235717e-06 yz delta 0 remap units box
Changing box ...
  triclinic box = (-0.0030389004 -0.0030389004 -0.0030389004) to (6.0291167 9.0452036 12.061272) with tilt (0 0 0)
  triclinic box = (-0.0030389004 -0.0030389004 -0.0030389004) to (6.0291167 9.0452036 12.061272) with tilt (0 0 0)
if "${dir} == 3" then    "change_box all z delta 0 ${delta} remap units box"
if "${dir} == 4" then    "change_box all yz delta ${delta} remap units box"
if "${dir} == 5" then    "change_box all xz delta ${delta} remap units box"
if "${dir} == 6" then    "change_box all xy delta ${delta} remap units box"

# Relax atoms positions

minimize ${etol} ${ftol} ${maxiter} ${maxeval}
minimize 0 ${ftol} ${maxiter} ${maxeval}
minimize 0 1e-10 ${maxiter} ${maxeval}
minimize 0 1e-10 100 ${maxeval}
minimize 0 1e-10 100 1000
Neighbor list info ...
  update: every = 1 steps, delay = 0 steps, check = yes
  max neighbors/atom: 2000, page size: 100000
  master list distance cutoff = 6
  ghost atom cutoff = 6
  2 neighbor lists, perpetual/occasional/extra = 2 0 0
  (1) pair meam, perpetual
      attributes: full, newton on
      pair build: full/nsq
      stencil: none
      bin: none
  (2) pair meam, perpetual, half/full from (1)
      attributes: half, newton on
      pair build: halffull/newton
      stencil: none
      bin: none
Per MPI rank memory allocation (min/avg/max) = 9.772 | 9.774 | 9.776 Mbytes
   Step          Temp          PotEng         Press           Pxx            Pyy            Pzz            Pxy            Pxz            Pyz             Lx             Ly             Lz           Volume    
         1   0             -238.08        -1.2802032     -1.1796952     -1.4812393     -1.179675       8.9786513e-06  7.6291768e-06  5.2694894e-06  6.0321556      9.0482425      12.064311      658.47501    
         2   0             -238.08        -1.2803017     -1.1797812     -1.4813424     -1.1797815     -9.7734237e-07  5.4714791e-06 -2.2265702e-06  6.0321556      9.0482425      12.064311      658.47501    
         3   0             -238.08        -1.2803142     -1.179795      -1.4813532     -1.1797945     -2.9707164e-07  1.9470613e-06 -1.7484886e-06  6.0321556      9.0482425      12.064311      658.47501    
         4   0             -238.08        -1.2803167     -1.1797976     -1.4813558     -1.1797968     -2.0507185e-07  8.6430914e-07 -1.2937744e-06  6.0321556      9.0482425      12.064311      658.47501    
         5   0             -238.08        -1.2803174     -1.1797979     -1.4813563     -1.1797978     -1.5099933e-07  1.0114181e-06 -9.1731481e-07  6.0321556      9.0482425      12.064311      658.47501    
         6   0             -238.08        -1.280318      -1.1797984     -1.4813572     -1.1797983     -8.6188445e-08  6.7596921e-07 -5.5994973e-07  6.0321556      9.0482425      12.064311      658.47501    
         7   0             -238.08        -1.2803181     -1.1797984     -1.4813574     -1.1797984     -3.9749699e-08  7.6162937e-07 -3.6859785e-07  6.0321556      9.0482425      12.064311      658.47501    
         8   0             -238.08        -1.2803182     -1.1797985     -1.4813577     -1.1797985     -1.2708113e-08  6.4835436e-07 -2.1265109e-07  6.0321556      9.0482425      12.064311      658.47501    
         9   0             -238.08        -1.2803183     -1.1797985     -1.4813579     -1.1797985      1.5735018e-09  5.7128909e-07 -1.4851243e-07  6.0321556      9.0482425      12.064311      658.47501    
        10   0             -238.08        -1.2803183     -1.1797985     -1.4813579     -1.1797986      4.4816525e-09  5.0053634e-07 -7.3540994e-08  6.0321556      9.0482425      12.064311      658.47501    
        11   0             -238.08        -1.2803184     -1.1797985     -1.481358      -1.1797987      3.3818263e-09  4.4430769e-07 -4.520302e-08   6.0321556      9.0482425      12.064311      658.47501    
        12   0             -238.08        -1.2803184     -1.1797986     -1.481358      -1.1797987      1.4554388e-09  3.7965135e-07 -2.1206838e-08  6.0321556      9.0482425      12.064311      658.47501    
        13   0             -238.08        -1.2803184     -1.1797986     -1.481358      -1.1797987     -3.1531313e-09  3.0721701e-07 -1.1241895e-08  6.0321556      9.0482425      12.064311      658.47501    
        14   0             -238.08        -1.2803184     -1.1797986     -1.481358      -1.1797987     -2.5893954e-09  2.668904e-07  -6.7629758e-09  6.0321556      9.0482425      12.064311      658.47501    
        15   0             -238.08        -1.2803185     -1.1797987     -1.4813579     -1.1797987      3.6674409e-10  2.2577636e-07 -1.4365894e-09  6.0321556      9.0482425      12.064311      658.47501    
        16   0             -238.08        -1.2803185     -1.1797987     -1.4813579     -1.1797988      1.2158379e-09  1.7885845e-07  1.2333406e-09  6.0321556      9.0482425      12.064311      658.47501    
        17   0             -238.08        -1.2803185     -1.1797987     -1.4813579     -1.1797988     -5.3456305e-11  1.2251742e-07 -8.7271024e-10  6.0321556      9.0482425      12.064311      658.47501    
        18   0             -238.08        -1.2803185     -1.1797987     -1.4813579     -1.1797988     -2.3519702e-10  9.4648645e-08 -1.6570522e-09  6.0321556      9.0482425      12.064311      658.47501    
        19   0             -238.08        -1.2803185     -1.1797988     -1.4813579     -1.1797988      1.9686657e-10  7.0525566e-08 -2.9478907e-09  6.0321556      9.0482425      12.064311      658.47501    
        20   0             -238.08        -1.2803185     -1.1797988     -1.4813579     -1.1797988      1.5463259e-10  5.1098247e-08 -2.0567551e-09  6.0321556      9.0482425      12.064311      658.47501    
        21   0             -238.08        -1.2803185     -1.1797988     -1.4813579     -1.1797988     -7.2240984e-11  3.2673941e-08 -1.7752881e-09  6.0321556      9.0482425      12.064311      658.47501    
        22   0             -238.08        -1.2803185     -1.1797988     -1.4813579     -1.1797988     -1.2238331e-10  1.4795579e-08 -3.7036495e-10  6.0321556      9.0482425      12.064311      658.47501    
        23   0             -238.08        -1.2803185     -1.1797988     -1.4813579     -1.1797988      2.0714285e-10  3.6144099e-09  2.451343e-10   6.0321556      9.0482425      12.064311      658.47501    
        24   0             -238.08        -1.2803185     -1.1797988     -1.4813579     -1.1797988      1.1239691e-10  9.6438291e-10  2.2747843e-10  6.0321556      9.0482425      12.064311      658.47501    
        25   0             -238.08        -1.2803185     -1.1797988     -1.4813579     -1.1797988      3.7374649e-11  3.9493776e-10  1.3129629e-10  6.0321556      9.0482425      12.064311      658.47501    
        26   0             -238.08        -1.2803185     -1.1797988     -1.4813579     -1.1797988      1.0089397e-12  3.2146097e-11  2.7033312e-11  6.0321556      9.0482425      12.064311      658.47501    
        27   0             -238.08        -1.2803185     -1.1797988     -1.4813579     -1.1797988      5.0784998e-12  5.4027054e-12  2.2689516e-11  6.0321556      9.0482425      12.064311      658.47501    
        28   0             -238.08        -1.2803185     -1.1797988     -1.4813579     -1.1797988     -2.2636518e-12 -1.4317169e-11 -3.3722062e-12  6.0321556      9.0482425      12.064311      658.47501    
        29   0             -238.08        -1.2803185     -1.1797988     -1.4813579     -1.1797988     -7.5024856e-12 -1.5127575e-11  1.2325185e-11  6.0321556      9.0482425      12.064311      658.47501    
        30   0             -238.08        -1.2803185     -1.1797988     -1.4813579     -1.1797988     -5.0395773e-12 -2.1070551e-11 -9.9997535e-12  6.0321556      9.0482425      12.064311      658.47501    
        31   0             -238.08        -1.2803185     -1.1797988     -1.4813579     -1.1797988      6.5515948e-12 -5.4027054e-12 -3.5521205e-12  6.0321556      9.0482425      12.064311      658.47501    
        32   0             -238.08        -1.2803185     -1.1797988     -1.4813579     -1.1797988     -1.4720462e-11  3.538772e-11  -1.9479285e-11  6.0321556      9.0482425      12.064311      658.47501    
        33   0             -238.08        -1.2803185     -1.1797988     -1.4813579     -1.1797988     -2.974348e-12  -1.5937981e-11  9.4220227e-12  6.0321556      9.0482425      12.064311      658.47501    
        34   0             -238.08        -1.2803185     -1.1797988     -1.4813579     -1.1797988      2.5734177e-12 -1.1345681e-11  5.1597419e-12  6.0321556      9.0482425      12.064311      658.47501    
        35   0             -238.08        -1.2803185     -1.1797988     -1.4813579     -1.1797988     -1.2794426e-11  1.2966493e-11  1.0364858e-12  6.0321556      9.0482425      12.064311      658.47501    
        36   0             -238.08        -1.2803185     -1.1797988     -1.4813579     -1.1797988      1.8598704e-11 -4.8624349e-12  4.803079e-12   6.0321556      9.0482425      12.064311      658.47501    
        37   0             -238.08        -1.2803185     -1.1797988     -1.4813579     -1.1797988      7.2252024e-12 -2.7553798e-11  2.4560678e-11  6.0321556      9.0482425      12.064311      658.47501    
        38   0             -238.08        -1.2803185     -1.1797988     -1.4813579     -1.1797988      1.005518e-11   2.1610822e-12 -1.2750965e-11  6.0321556      9.0482425      12.064311      658.47501    
        39   0             -238.08        -1.2803185     -1.1797988     -1.4813579     -1.1797988     -8.069773e-13  -1.026514e-11   3.9693793e-11  6.0321556      9.0482425      12.064311      658.47501    
Loop time of 0.00843225 on 4 procs for 38 steps with 48 atoms

139.0% CPU use with 4 MPI tasks x 1 OpenMP threads

Minimization stats:
  Stopping criterion = force tolerance
  Energy initial, next-to-last, final = 
     -238.079999980429  -238.080000003628  -238.080000003628
  Force two-norm initial, final = 0.00075568814 7.0159234e-11
  Force max component initial, final = 0.00014267895 1.6910737e-11
  Final line search alpha, max atom move = 1 1.6910737e-11
  Iterations, force evaluations = 38 76

MPI task timing breakdown:
Section |  min time  |  avg time  |  max time  |%varavg| %total
---------------------------------------------------------------
Pair    | 0.006794   | 0.0068175  | 0.006863   |   0.0 | 80.85
Neigh   | 0          | 0          | 0          |   0.0 |  0.00
Comm    | 0.000764   | 0.00082175 | 0.000868   |   0.0 |  9.75
Output  | 0.000328   | 0.000352   | 0.000417   |   0.0 |  4.17
Modify  | 0          | 0          | 0          |   0.0 |  0.00
Other   |            | 0.000441   |            |       |  5.23

Nlocal:             12 ave          14 max          10 min
Histogram: 1 0 1 0 0 0 0 1 0 1
Nghost:            293 ave         295 max         291 min
Histogram: 1 0 1 0 0 0 0 1 0 1
Neighs:            348 ave         413 max         286 min
Histogram: 1 0 1 0 0 0 0 1 0 1
FullNghs:          696 ave         812 max         580 min
Histogram: 1 0 1 0 0 0 0 1 0 1

Total # of neighbors = 2784
Ave neighs/atom = 58
Neighbor list builds = 0
Dangerous builds = 0

# Obtain new stress tensor

variable tmp equal pe
variable e1 equal ${tmp}
variable e1 equal -238.080000003628
variable tmp equal press
variable p1 equal ${tmp}
variable p1 equal -1.2803185038563
variable tmp equal pxx
variable pxx1 equal ${tmp}
variable pxx1 equal -1.17979880066046
variable tmp equal pyy
variable pyy1 equal ${tmp}
variable pyy1 equal -1.48135791024772
variable tmp equal pzz
variable pzz1 equal ${tmp}
variable pzz1 equal -1.17979880066073
variable tmp equal pxy
variable pxy1 equal ${tmp}
variable pxy1 equal -8.06977298420894e-13
variable tmp equal pxz
variable pxz1 equal ${tmp}
variable pxz1 equal -1.02651402515936e-11
variable tmp equal pyz
variable pyz1 equal ${tmp}
variable pyz1 equal 3.96937926150426e-11

# Compute elastic constant from pressure tensor

variable C1pos equal ${d1}
variable C1pos equal 117.979880026444
variable C2pos equal ${d2}
variable C2pos equal 148.135790977876
variable C3pos equal ${d3}
variable C3pos equal 117.979880025391
variable C4pos equal ${d4}
variable C4pos equal -1.4696137172046e-10
variable C5pos equal ${d5}
variable C5pos equal 6.48324269279691e-10
variable C6pos equal ${d6}
variable C6pos equal 7.29023025635808e-10

# Combine positive and negative

variable C1${dir} equal 0.5*(${C1neg}+${C1pos})
variable C12 equal 0.5*(${C1neg}+${C1pos})
variable C12 equal 0.5*(117.980425489142+${C1pos})
variable C12 equal 0.5*(117.980425489142+117.979880026444)
variable C2${dir} equal 0.5*(${C2neg}+${C2pos})
variable C22 equal 0.5*(${C2neg}+${C2pos})
variable C22 equal 0.5*(148.136749997817+${C2pos})
variable C22 equal 0.5*(148.136749997817+148.135790977876)
variable C3${dir} equal 0.5*(${C3neg}+${C3pos})
variable C32 equal 0.5*(${C3neg}+${C3pos})
variable C32 equal 0.5*(117.98042549214+${C3pos})
variable C32 equal 0.5*(117.98042549214+117.979880025391)
variable C4${dir} equal 0.5*(${C4neg}+${C4pos})
variable C42 equal 0.5*(${C4neg}+${C4pos})
variable C42 equal 0.5*(-3.52207646425473e-09+${C4pos})
variable C42 equal 0.5*(-3.52207646425473e-09+-1.4696137172046e-10)
variable C5${dir} equal 0.5*(${C5neg}+${C5pos})
variable C52 equal 0.5*(${C5neg}+${C5pos})
variable C52 equal 0.5*(-3.78190134047415e-16+${C5pos})
variable C52 equal 0.5*(-3.78190134047415e-16+6.48324269279691e-10)
variable C6${dir} equal 0.5*(${C6neg}+${C6pos})
variable C62 equal 0.5*(${C6neg}+${C6pos})
variable C62 equal 0.5*(-1.56260166470965e-09+${C6pos})
variable C62 equal 0.5*(-1.56260166470965e-09+7.29023025635808e-10)

# Delete dir to make sure it is not reused

variable dir delete

# uzz Perturbation

variable dir equal 3
include displace.mod
# NOTE: This script should not need to be
# modified. See in.elastic for more info.
#
# Find which reference length to use

if "${dir} == 1" then    "variable len0 equal ${lx0}"
if "${dir} == 2" then    "variable len0 equal ${ly0}"
if "${dir} == 3" then    "variable len0 equal ${lz0}"
variable len0 equal ${lz0}
variable len0 equal 12.0643112031429
if "${dir} == 4" then    "variable len0 equal ${lz0}"
if "${dir} == 5" then    "variable len0 equal ${lz0}"
if "${dir} == 6" then    "variable len0 equal ${ly0}"

# Reset box and simulation parameters

clear
  using 1 OpenMP thread(s) per MPI task
Loaded 1 plugins from C:\Program Files\LAMMPS 64-bit 23Jun2022\plugins
Loaded 0 plugins from C:\Program Files\LAMMPS 64-bit 23Jun2022-MPI\plugins
Loaded 1 plugins from C:\Program Files\LAMMPS 64-bit 22Dec2022-MSMPI\plugins
Loaded 1 plugins from C:\Program Files\LAMMPS 64-bit 28Mar2023-MPI\plugins
box tilt large

The 'box' command has been removed and will be ignored

read_restart restart.equil
Reading restart file ...
  restart file = 22 Dec 2022, LAMMPS = 22 Dec 2022
  restoring atom style atomic from restart
  triclinic box = (-0.0030389004 -0.0030389004 -0.0030389004) to (6.0291167 9.0451945 12.061272) with tilt (0 0 0)
  1 by 2 by 2 MPI processor grid
  pair style meam stores no restart info
  48 atoms
  read_restart CPU = 0.000 seconds
include potential.mod
# NOTE: This script can be modified for different pair styles
# See in.elastic for more info.

# Choose potential
#-----------------------
#pair_style	sw
#pair_coeff * * Si.sw Si
#-----------------------
#pair_style morse	2.83994742	# D0[eV] a[1/A] r0[A] rc[A], 1NN for BCC
#pair_coeff 1 1	2.1173	1.0202	2.4595	2.6497	#	Fe-Fe
#-----------------------
#pair_style smatb # R0(A)   p       q     A(eV)   xi(eV)  Rcs(A)   Rc(A), 4NN: Rcs=4NN, Rc=(4NN+5NN)/2
#pair_coeff 1 1	2.4802	7.0149	2.3779	0.3144	3.0551	4.033	4.176	#	Co	Co
#-----------------------
#pair_style eam/alloy
#pair_coeff * * AlCrFeCoNi_Zhou04.eam.alloy Fe
#-----------------------
pair_style meam
pair_coeff * * ./../../library.meam Ni Ti Hf ./../../NiTiHf.meam Ni Ti
#-----------------------

# Setup neighbor style
neighbor 1.0 nsq
neigh_modify once no every 1 delay 0 check yes

# Setup minimization style
min_style	     cg
min_modify	     dmax ${dmax} line quadratic
min_modify	     dmax 0.01 line quadratic

# Setup output
thermo		1
thermo_style custom step temp pe press pxx pyy pzz pxy pxz pyz lx ly lz vol
thermo_modify norm no

# Negative deformation

variable delta equal -${up}*${len0}
variable delta equal -1e-06*${len0}
variable delta equal -1e-06*12.0643112031429
variable deltaxy equal -${up}*xy
variable deltaxy equal -1e-06*xy
variable deltaxz equal -${up}*xz
variable deltaxz equal -1e-06*xz
variable deltayz equal -${up}*yz
variable deltayz equal -1e-06*yz
if "${dir} == 1" then    "change_box all x delta 0 ${delta} xy delta ${deltaxy} xz delta ${deltaxz} remap units box"
if "${dir} == 2" then    "change_box all y delta 0 ${delta} yz delta ${deltayz} remap units box"
if "${dir} == 3" then    "change_box all z delta 0 ${delta} remap units box"
change_box all z delta 0 ${delta} remap units box
change_box all z delta 0 -1.20643112031429e-05 remap units box
Changing box ...
  triclinic box = (-0.0030389004 -0.0030389004 -0.0030389004) to (6.0291167 9.0451945 12.06126) with tilt (0 0 0)
if "${dir} == 4" then    "change_box all yz delta ${delta} remap units box"
if "${dir} == 5" then    "change_box all xz delta ${delta} remap units box"
if "${dir} == 6" then    "change_box all xy delta ${delta} remap units box"

# Relax atoms positions

minimize ${etol} ${ftol} ${maxiter} ${maxeval}
minimize 0 ${ftol} ${maxiter} ${maxeval}
[...]
         3   0             -238.08         4.9081557e-06  3.1492758e-06  5.7739284e-06  5.8012631e-06 -0.90813366     1.9470592e-06 -1.7485544e-06  6.0321556      9.0482334      12.064311      658.47435    
         4   0             -238.08         2.4399394e-06  5.9290861e-07  3.2076737e-06  3.5192359e-06 -0.90813357     8.6430055e-07 -1.2938017e-06  6.0321556      9.0482334      12.064311      658.47435    
         5   0             -238.08         1.7952786e-06  2.6352262e-07  2.6597448e-06  2.4625683e-06 -0.90813352     1.0114245e-06 -9.1733535e-07  6.0321556      9.0482334      12.064311      658.47435    
         6   0             -238.08         1.2057926e-06 -1.9742586e-07  1.7653217e-06  2.0494819e-06 -0.90813345     6.7601608e-07 -5.5996773e-07  6.0321556      9.0482334      12.064311      658.47435    
         7   0             -238.08         1.0851149e-06 -1.7853906e-07  1.5485098e-06  1.885374e-06  -0.90813341     7.6161798e-07 -3.6861207e-07  6.0321556      9.0482334      12.064311      658.47435    
         8   0             -238.08         9.3491758e-07 -2.5430236e-07  1.2435446e-06  1.8155105e-06 -0.90813338     6.4837905e-07 -2.1265769e-07  6.0321556      9.0482334      12.064311      658.47435    
         9   0             -238.08         8.6294051e-07 -2.7383748e-07  1.1069193e-06  1.7557397e-06 -0.90813337     5.7132748e-07 -1.4850943e-07  6.0321556      9.0482334      12.064311      658.47435    
        10   0             -238.08         8.0811092e-07 -3.149856e-07   1.0417782e-06  1.6975401e-06 -0.90813336     5.0053792e-07 -7.3548173e-08  6.0321556      9.0482334      12.064311      658.47435    
        11   0             -238.08         7.7588159e-07 -3.383372e-07   1.0205305e-06  1.6454515e-06 -0.90813336     4.4434136e-07 -4.5195982e-08  6.0321556      9.0482334      12.064311      658.47435    
        12   0             -238.08         7.495214e-07  -3.7100847e-07  1.0108461e-06  1.6087266e-06 -0.90813337     3.7970008e-07 -2.1246446e-08  6.0321556      9.0482334      12.064311      658.47435    
        13   0             -238.08         7.2668315e-07 -4.1143696e-07  1.0155076e-06  1.5759788e-06 -0.90813337     3.0726324e-07 -1.1255673e-08  6.0321556      9.0482334      12.064311      658.47435    
        14   0             -238.08         7.1524795e-07 -4.3676162e-07  1.0195909e-06  1.5629145e-06 -0.90813337     2.6688851e-07 -6.7813354e-09  6.0321556      9.0482334      12.064311      658.47435    
        15   0             -238.08         7.0499757e-07 -4.6188099e-07  1.0244896e-06  1.5523841e-06 -0.90813337     2.2576767e-07 -1.4404049e-09  6.0321556      9.0482334      12.064311      658.47435    
        16   0             -238.08         6.9372509e-07 -4.9058451e-07  1.0298766e-06  1.5418831e-06 -0.90813337     1.7890455e-07  1.203012e-09   6.0321556      9.0482334      12.064311      658.47435    
        17   0             -238.08         6.8070275e-07 -5.2611706e-07  1.0380434e-06  1.530182e-06  -0.90813337     1.225243e-07  -8.6480464e-10  6.0321556      9.0482334      12.064311      658.47435    
        18   0             -238.08         6.744682e-07  -5.4450356e-07  1.0437216e-06  1.5241866e-06 -0.90813337     9.4641446e-08 -1.6887853e-09  6.0321556      9.0482334      12.064311      658.47435    
        19   0             -238.08         6.6966204e-07 -5.5941829e-07  1.0495646e-06  1.5188398e-06 -0.90813337     7.0522394e-08 -2.9606718e-09  6.0321556      9.0482334      12.064311      658.47435    
        20   0             -238.08         6.6531295e-07 -5.7220218e-07  1.0543504e-06  1.5137907e-06 -0.90813337     5.108101e-08  -2.0485172e-09  6.0321556      9.0482334      12.064311      658.47435    
        21   0             -238.08         6.6137536e-07 -5.8358029e-07  1.0579837e-06  1.5097227e-06 -0.90813337     3.2683969e-08 -1.7547757e-09  6.0321556      9.0482334      12.064311      658.47435    
        22   0             -238.08         6.5730964e-07 -5.9413611e-07  1.060752e-06   1.505313e-06  -0.90813337     1.4765338e-08 -4.0979957e-10  6.0321556      9.0482334      12.064311      658.47435    
        23   0             -238.08         6.5453751e-07 -6.0095541e-07  1.0619606e-06  1.5026073e-06 -0.90813337     3.6119823e-09  2.8273932e-10  6.0321556      9.0482334      12.064311      658.47435    
        24   0             -238.08         6.5374367e-07 -6.0239685e-07  1.0621389e-06  1.501489e-06  -0.90813337     9.6141239e-10  2.0603665e-10  6.0321556      9.0482334      12.064311      658.47435    
        25   0             -238.08         6.5345859e-07 -6.0306679e-07  1.0621054e-06  1.5013372e-06 -0.90813337     3.9466802e-10  9.0676639e-11  6.0321556      9.0482334      12.064311      658.47435    
        26   0             -238.08         6.5328697e-07 -6.033326e-07   1.0621081e-06  1.5010854e-06 -0.90813337     2.242125e-11   1.7380215e-11  6.0321556      9.0482334      12.064311      658.47435    
        27   0             -238.08         6.532061e-07  -6.034158e-07   1.0620346e-06  1.5009995e-06 -0.90813337    -8.1040662e-13 -1.2636223e-11  6.0321556      9.0482334      12.064311      658.47435    
        28   0             -238.08         6.5322087e-07 -6.0345794e-07  1.0620692e-06  1.5010513e-06 -0.90813337    -1.0805422e-11 -2.7084517e-11  6.0321556      9.0482334      12.064311      658.47435    
        29   0             -238.08         6.5321907e-07 -6.0343849e-07  1.06206e-06    1.5010357e-06 -0.90813337    -2.1070572e-11 -1.2785536e-11  6.0321556      9.0482334      12.064311      658.47435    
        30   0             -238.08         6.5322186e-07 -6.0343525e-07  1.062086e-06   1.5010149e-06 -0.90813337     1.9179623e-11 -1.2099381e-11  6.0321556      9.0482334      12.064311      658.47435    
        31   0             -238.08         6.5322249e-07 -6.0344714e-07  1.0620941e-06  1.5010206e-06 -0.90813337     7.2936596e-12  3.4693423e-11  6.0321556      9.0482334      12.064311      658.47435    
        32   0             -238.08         6.5324086e-07 -6.0341688e-07  1.0620897e-06  1.5010497e-06 -0.90813337     3.0525316e-11  1.8194315e-11  6.0321556      9.0482334      12.064311      658.47435    
        33   0             -238.08         6.531853e-07  -6.0346551e-07  1.0620427e-06  1.5009787e-06 -0.90813337    -5.6728463e-12 -3.2294651e-11  6.0321556      9.0482334      12.064311      658.47435    
        34   0             -238.08         6.5322114e-07 -6.0343093e-07  1.0620465e-06  1.5010478e-06 -0.90813337    -3.2416265e-12 -9.0912217e-12  6.0321556      9.0482334      12.064311      658.47435    
        35   0             -238.08         6.5320655e-07 -6.0345686e-07  1.0620525e-06  1.5010241e-06 -0.90813337     2.5392741e-11 -4.9848449e-12  6.0321556      9.0482334      12.064311      658.47435    
        36   0             -238.08         6.53141e-07   -6.0350657e-07  1.0619682e-06  1.5009614e-06 -0.90813337     2.3501792e-11  6.4286455e-12  6.0321556      9.0482334      12.064311      658.47435    
        37   0             -238.08         6.5322826e-07 -6.0341472e-07  1.0620698e-06  1.5010297e-06 -0.90813337    -2.3501792e-11 -1.413384e-11   6.0321556      9.0482334      12.064311      658.47435    
        38   0             -238.08         6.5322276e-07 -6.0343309e-07  1.0620417e-06  1.5010597e-06 -0.90813337    -1.5937997e-11  5.3901801e-11  6.0321556      9.0482334      12.064311      658.47435    
        39   0             -238.08         6.532215e-07  -6.0341796e-07  1.0620449e-06  1.5010376e-06 -0.90813337     2.4312199e-12 -5.2875602e-11  6.0321556      9.0482334      12.064311      658.47435    
Loop time of 0.007755 on 4 procs for 38 steps with 48 atoms

50.4% CPU use with 4 MPI tasks x 1 OpenMP threads

Minimization stats:
  Stopping criterion = force tolerance
  Energy initial, next-to-last, final = 
     -238.079999980547  -238.080000003746  -238.080000003746
  Force two-norm initial, final = 0.0007556899 7.0119057e-11
  Force max component initial, final = 0.00014267939 1.6970161e-11
  Final line search alpha, max atom move = 1 1.6970161e-11
  Iterations, force evaluations = 38 76

MPI task timing breakdown:
Section |  min time  |  avg time  |  max time  |%varavg| %total
---------------------------------------------------------------
Pair    | 0.006153   | 0.0062985  | 0.006415   |   0.1 | 81.22
Neigh   | 0          | 0          | 0          |   0.0 |  0.00
Comm    | 0.000573   | 0.00070825 | 0.000868   |   0.0 |  9.13
Output  | 0.000342   | 0.00037    | 0.000435   |   0.0 |  4.77
Modify  | 0          | 0          | 0          |   0.0 |  0.00
Other   |            | 0.0003783  |            |       |  4.88

Nlocal:             12 ave          14 max          10 min
Histogram: 1 0 1 0 0 0 0 1 0 1
Nghost:            293 ave         295 max         291 min
Histogram: 1 0 1 0 0 0 0 1 0 1
Neighs:            348 ave         413 max         286 min
Histogram: 1 0 1 0 0 0 0 1 0 1
FullNghs:          696 ave         812 max         580 min
Histogram: 1 0 1 0 0 0 0 1 0 1

Total # of neighbors = 2784
Ave neighs/atom = 58
Neighbor list builds = 0
Dangerous builds = 0

# Obtain new stress tensor

variable tmp equal pe
variable e1 equal ${tmp}
variable e1 equal -238.080000003746
variable tmp equal press
variable p1 equal ${tmp}
variable p1 equal 6.53221502454661e-07
variable tmp equal pxx
variable pxx1 equal ${tmp}
variable pxx1 equal -6.03417963638407e-07
variable tmp equal pyy
variable pyy1 equal ${tmp}
variable pyy1 equal 1.06204489869612e-06
variable tmp equal pzz
variable pzz1 equal ${tmp}
variable pzz1 equal 1.50103757230627e-06
variable tmp equal pxy
variable pxy1 equal ${tmp}
variable pxy1 equal -0.908133367777809
variable tmp equal pxz
variable pxz1 equal ${tmp}
variable pxz1 equal 2.43121985922645e-12
variable tmp equal pyz
variable pyz1 equal ${tmp}
variable pyz1 equal -5.28756024830786e-11

# Compute elastic constant from pressure tensor

variable C1pos equal ${d1}
variable C1pos equal 6.03021944936893e-05
variable C2pos equal ${d2}
variable C2pos equal -0.000106251385399341
variable C3pos equal ${d3}
variable C3pos equal -0.000150144439642938
variable C4pos equal ${d4}
variable C4pos equal 9.10997813809166e-09
variable C5pos equal ${d5}
variable C5pos equal -6.21311741802314e-10
variable C6pos equal ${d6}
variable C6pos equal 90.8133367784292

# Combine positive and negative

variable C1${dir} equal 0.5*(${C1neg}+${C1pos})
variable C16 equal 0.5*(${C1neg}+${C1pos})
variable C16 equal 0.5*(-6.0309542180375e-05+${C1pos})
variable C16 equal 0.5*(-6.0309542180375e-05+6.03021944936893e-05)
variable C2${dir} equal 0.5*(${C2neg}+${C2pos})
variable C26 equal 0.5*(${C2neg}+${C2pos})
variable C26 equal 0.5*(0.000106245172281923+${C2pos})
variable C26 equal 0.5*(0.000106245172281923+-0.000106251385399341)
variable C3${dir} equal 0.5*(${C3neg}+${C3pos})
variable C36 equal 0.5*(${C3neg}+${C3pos})
variable C36 equal 0.5*(0.000150139739284543+${C3pos})
variable C36 equal 0.5*(0.000150139739284543+-0.000150144439642938)
variable C4${dir} equal 0.5*(${C4neg}+${C4pos})
variable C46 equal 0.5*(${C4neg}+${C4pos})
variable C46 equal 0.5*(-4.84389428050762e-09+${C4pos})
variable C46 equal 0.5*(-4.84389428050762e-09+9.10997813809166e-09)
variable C5${dir} equal 0.5*(${C5neg}+${C5pos})
variable C56 equal 0.5*(${C5neg}+${C5pos})
variable C56 equal 0.5*(8.91447281716363e-10+${C5pos})
variable C56 equal 0.5*(8.91447281716363e-10+-6.21311741802314e-10)
variable C6${dir} equal 0.5*(${C6neg}+${C6pos})
variable C66 equal 0.5*(${C6neg}+${C6pos})
variable C66 equal 0.5*(90.8133367779488+${C6pos})
variable C66 equal 0.5*(90.8133367779488+90.8133367784292)

# Delete dir to make sure it is not reused

variable dir delete

# Output final values

variable C11all equal ${C11}
variable C11all equal 148.136270505027
variable C22all equal ${C22}
variable C22all equal 148.136270487847
variable C33all equal ${C33}
variable C33all equal 148.136270502083

variable C12all equal 0.5*(${C12}+${C21})
variable C12all equal 0.5*(117.980152757793+${C21})
variable C12all equal 0.5*(117.980152757793+117.980152771083)
variable C13all equal 0.5*(${C13}+${C31})
variable C13all equal 0.5*(117.980152771894+${C31})
variable C13all equal 0.5*(117.980152771894+117.980152772231)
variable C23all equal 0.5*(${C23}+${C32})
variable C23all equal 0.5*(117.980152772488+${C32})
variable C23all equal 0.5*(117.980152772488+117.980152758765)

variable C44all equal ${C44}
variable C44all equal 90.8133367783116
variable C55all equal ${C55}
variable C55all equal 90.8133367752187
variable C66all equal ${C66}
variable C66all equal 90.813336778189

variable C14all equal 0.5*(${C14}+${C41})
variable C14all equal 0.5*(3.78189755899404e-09+${C41})
variable C14all equal 0.5*(3.78189755899404e-09+-9.1115032392056e-10)
variable C15all equal 0.5*(${C15}+${C51})
variable C15all equal 0.5*(-2.48524696719858e-09+${C51})
variable C15all equal 0.5*(-2.48524696719858e-09+1.55327785525509e-09)
variable C16all equal 0.5*(${C16}+${C61})
variable C16all equal 0.5*(-3.67384334284902e-09+${C61})
variable C16all equal 0.5*(-3.67384334284902e-09+-1.46030386523527e-09)

variable C24all equal 0.5*(${C24}+${C42})
variable C24all equal 0.5*(5.53777856824965e-09+${C42})
variable C24all equal 0.5*(5.53777856824965e-09+-1.8345189179876e-09)
variable C25all equal 0.5*(${C25}+${C52})
variable C25all equal 0.5*(-2.40420630500087e-09+${C52})
variable C25all equal 0.5*(-2.40420630500087e-09+3.24161945544778e-10)
variable C26all equal 0.5*(${C26}+${C62})
variable C26all equal 0.5*(-3.10655870899992e-09+${C62})
variable C26all equal 0.5*(-3.10655870899992e-09+-4.16789319536921e-10)

variable C34all equal 0.5*(${C34}+${C43})
variable C34all equal 0.5*(4.80841261049641e-09+${C43})
variable C34all equal 0.5*(4.80841261049641e-09+6.025314608401e-11)
variable C35all equal 0.5*(${C35}+${C53})
variable C35all equal 0.5*(1.02651505200381e-09+${C53})
variable C35all equal 0.5*(1.02651505200381e-09+8.64435078403523e-10)
variable C36all equal 0.5*(${C36}+${C63})
variable C36all equal 0.5*(-2.35017919750604e-09+${C63})
variable C36all equal 0.5*(-2.35017919750604e-09+-8.41729948865869e-10)

variable C45all equal 0.5*(${C45}+${C54})
variable C45all equal 0.5*(8.37275081402545e-10+${C54})
variable C45all equal 0.5*(8.37275081402545e-10+1.86393522540694e-09)
variable C46all equal 0.5*(${C46}+${C64})
variable C46all equal 0.5*(2.13304192879202e-09+${C64})
variable C46all equal 0.5*(2.13304192879202e-09+8.99079107413e-12)
variable C56all equal 0.5*(${C56}+${C65})
variable C56all equal 0.5*(1.35067769957025e-10+${C65})
variable C56all equal 0.5*(1.35067769957025e-10+1.45863657228187e-09)

# Average moduli for cubic crystals

variable C11cubic equal (${C11all}+${C22all}+${C33all})/3.0
variable C11cubic equal (148.136270505027+${C22all}+${C33all})/3.0
variable C11cubic equal (148.136270505027+148.136270487847+${C33all})/3.0
variable C11cubic equal (148.136270505027+148.136270487847+148.136270502083)/3.0
variable C12cubic equal (${C12all}+${C13all}+${C23all})/3.0
variable C12cubic equal (117.980152764438+${C13all}+${C23all})/3.0
variable C12cubic equal (117.980152764438+117.980152772062+${C23all})/3.0
variable C12cubic equal (117.980152764438+117.980152772062+117.980152765626)/3.0
variable C44cubic equal (${C44all}+${C55all}+${C66all})/3.0
variable C44cubic equal (90.8133367783116+${C55all}+${C66all})/3.0
variable C44cubic equal (90.8133367783116+90.8133367752187+${C66all})/3.0
variable C44cubic equal (90.8133367783116+90.8133367752187+90.813336778189)/3.0

variable bulkmodulus equal (${C11cubic}+2*${C12cubic})/3.0
variable bulkmodulus equal (148.136270498319+2*${C12cubic})/3.0
variable bulkmodulus equal (148.136270498319+2*117.980152767375)/3.0
variable shearmodulus1 equal ${C44cubic}
variable shearmodulus1 equal 90.8133367772398
variable shearmodulus2 equal (${C11cubic}-${C12cubic})/2.0
variable shearmodulus2 equal (148.136270498319-${C12cubic})/2.0
variable shearmodulus2 equal (148.136270498319-117.980152767375)/2.0
variable poissonratio equal 1.0/(1.0+${C11cubic}/${C12cubic})
variable poissonratio equal 1.0/(1.0+148.136270498319/${C12cubic})
variable poissonratio equal 1.0/(1.0+148.136270498319/117.980152767375)

# For Stillinger-Weber silicon, the analytical results
# are known to be (E. R. Cowley, 1988):
#               C11 = 151.4 GPa
#               C12 = 76.4 GPa
#               C44 = 56.4 GPa

print "========================================="
=========================================
print "Components of the Elastic Constant Tensor"
Components of the Elastic Constant Tensor
print "========================================="
=========================================

print "Elastic Constant C11all = ${C11all} ${cunits}"
Elastic Constant C11all = 148.136270505027 GPa
print "Elastic Constant C22all = ${C22all} ${cunits}"
Elastic Constant C22all = 148.136270487847 GPa
print "Elastic Constant C33all = ${C33all} ${cunits}"
Elastic Constant C33all = 148.136270502083 GPa

print "Elastic Constant C12all = ${C12all} ${cunits}"
Elastic Constant C12all = 117.980152764438 GPa
print "Elastic Constant C13all = ${C13all} ${cunits}"
Elastic Constant C13all = 117.980152772062 GPa
print "Elastic Constant C23all = ${C23all} ${cunits}"
Elastic Constant C23all = 117.980152765626 GPa

print "Elastic Constant C44all = ${C44all} ${cunits}"
Elastic Constant C44all = 90.8133367783116 GPa
print "Elastic Constant C55all = ${C55all} ${cunits}"
Elastic Constant C55all = 90.8133367752187 GPa
print "Elastic Constant C66all = ${C66all} ${cunits}"
Elastic Constant C66all = 90.813336778189 GPa

print "Elastic Constant C14all = ${C14all} ${cunits}"
Elastic Constant C14all = 1.43537361753674e-09 GPa
print "Elastic Constant C15all = ${C15all} ${cunits}"
Elastic Constant C15all = -4.65984555971745e-10 GPa
print "Elastic Constant C16all = ${C16all} ${cunits}"
Elastic Constant C16all = -2.56707360404214e-09 GPa

print "Elastic Constant C24all = ${C24all} ${cunits}"
Elastic Constant C24all = 1.85162982513103e-09 GPa
print "Elastic Constant C25all = ${C25all} ${cunits}"
Elastic Constant C25all = -1.04002217972805e-09 GPa
print "Elastic Constant C26all = ${C26all} ${cunits}"
Elastic Constant C26all = -1.76167401426842e-09 GPa

print "Elastic Constant C34all = ${C34all} ${cunits}"
Elastic Constant C34all = 2.43433287829021e-09 GPa
print "Elastic Constant C35all = ${C35all} ${cunits}"
Elastic Constant C35all = 9.45475065203667e-10 GPa
print "Elastic Constant C36all = ${C36all} ${cunits}"
Elastic Constant C36all = -1.59595457318595e-09 GPa

print "Elastic Constant C45all = ${C45all} ${cunits}"
Elastic Constant C45all = 1.35060515340474e-09 GPa
print "Elastic Constant C46all = ${C46all} ${cunits}"
Elastic Constant C46all = 1.07101635993308e-09 GPa
print "Elastic Constant C56all = ${C56all} ${cunits}"
Elastic Constant C56all = 7.96852171119447e-10 GPa

print "========================================="
=========================================
print "Average properties for a cubic crystal"
Average properties for a cubic crystal
print "========================================="
=========================================

print "Bulk Modulus = ${bulkmodulus} ${cunits}"
Bulk Modulus = 128.032192011023 GPa
print "Shear Modulus 1 = ${shearmodulus1} ${cunits}"
Shear Modulus 1 = 90.8133367772398 GPa
print "Shear Modulus 2 = ${shearmodulus2} ${cunits}"
Shear Modulus 2 = 15.078058865472 GPa
print "Poisson Ratio = ${poissonratio}"
Poisson Ratio = 0.443340367045224
Total wall time: 0:00:00
