LAMMPS (22 Dec 2022)
  using 1 OpenMP thread(s) per MPI task
Loaded 1 plugins from C:\Program Files\LAMMPS 64-bit 23Jun2022\plugins
Loaded 0 plugins from C:\Program Files\LAMMPS 64-bit 23Jun2022-MPI\plugins
Loaded 1 plugins from C:\Program Files\LAMMPS 64-bit 22Dec2022-MSMPI\plugins
Loaded 1 plugins from C:\Program Files\LAMMPS 64-bit 28Mar2023-MPI\plugins
# Compute elastic constant tensor for a crystal
#
# Written by Aidan Thompson (Sandia, athomps@sandia.gov)
#
#  This script uses the following three include files.
#
#   init.mod      (must be modified for different crystal structures)
# 	       	  Define units, deformation parameters and initial
#		  configuration of the atoms and simulation cell.
#
#
#   potential.mod    (must be modified for different pair styles)
# 		     Define pair style and other attributes
#		     not stored in restart file
#
#
#   displace.mod    (displace.mod should not need to be modified)
# 		    Perform positive and negative box displacements
# 		    in direction ${dir} and size ${up}.
# 		    It uses the resultant changes
#		    in stress to compute one
# 		    row of the elastic stiffness tensor
#
#		    Inputs variables:
#		    	   dir = the Voigt deformation component
#		    		    (1,2,3,4,5,6)
#		    Global constants:
#       	    	   up = the deformation magnitude (strain units)
#       		   cfac = conversion from LAMMPS pressure units to
#               	   output units for elastic constants
#
#
#  To run this on a different system, it should only be necessary to
#  modify the files init.mod and potential.mod. In order to calculate
#  the elastic constants correctly, care must be taken to specify
#  the correct units in init.mod (units, cfac and cunits). It is also
#  important to verify that the minimization of energy w.r.t atom
#  positions in the deformed cell is fully converged.
#  One indication of this is that the elastic constants are insensitive
#  to the choice of the variable ${up} in init.mod. Another is to check
#  the final max and two-norm forces reported in the log file. If you know
#  that minimization is not required, you can set maxiter = 0.0 in
#  init.mod.
#

include init.mod
# NOTE: This script can be modified for different atomic structures,
# units, etc. See in.elastic for more info.
#

# Define the finite deformation size. Try several values of this
# variable to verify that results do not depend on it.
variable up equal 1.0e-6

# Define the amount of random jiggle for atoms
# This prevents atoms from staying on saddle points
variable atomjiggle equal 1.0e-5

# Uncomment one of these blocks, depending on what units
# you are using in LAMMPS and for output

# metal units, elastic constants in eV/A^3
#units		metal
#variable cfac equal 6.2414e-7
#variable cunits string eV/A^3

# metal units, elastic constants in GPa
units		metal
variable cfac equal 1.0e-4
variable cunits string GPa

# real units, elastic constants in GPa
#units		real
#variable cfac equal 1.01325e-4
#variable cunits string GPa

# Define minimization parameters
variable etol equal 0.0
variable ftol equal 1.0e-10
variable maxiter equal 1000
variable maxeval equal 100000
variable dmax equal 1.0e-2

# generate the box and atom positions using a diamond lattice

dimension    3
boundary     p p p
read_data    data.in
Reading data file ...
  orthogonal box = (-0.10976948 -0.10976948 -0.10976948) to (3.1297695 3.1297695 3.1297695)
  1 by 2 by 2 MPI processor grid
  reading atoms ...
  2 atoms
  reading velocities ...
  2 velocities
  read_data CPU = 0.001 seconds
#replicate    2 3 4
replicate    2 3 4
Replication is creating a 2x3x4 = 24 times larger system...
  orthogonal box = (-0.10976948 -0.10976948 -0.10976948) to (6.3693085 9.6088474 12.848386)
  1 by 2 by 2 MPI processor grid
  48 atoms
  replicate CPU = 0.000 seconds
change_box   all triclinic
Changing box ...
  triclinic box = (-0.10976948 -0.10976948 -0.10976948) to (6.3693085 9.6088474 12.848386) with tilt (0 0 0)

# Need to set mass to something, just to satisfy LAMMPS
mass 1 1.0e-20

include potential.mod
# NOTE: This script can be modified for different pair styles
# See in.elastic for more info.

# Choose potential
#-----------------------
#pair_style	sw
#pair_coeff * * Si.sw Si
#-----------------------
#pair_style morse	2.83994742	# D0[eV] a[1/A] r0[A] rc[A], 1NN for BCC
#pair_coeff 1 1	2.1173	1.0202	2.4595	2.6497	#	Fe-Fe
#-----------------------
#pair_style smatb # R0(A)   p       q     A(eV)   xi(eV)  Rcs(A)   Rc(A), 4NN: Rcs=4NN, Rc=(4NN+5NN)/2
#pair_coeff 1 1	2.4802	7.0149	2.3779	0.3144	3.0551	4.033	4.176	#	Co	Co
#-----------------------
#pair_style eam/alloy
#pair_coeff * * AlCrFeCoNi_Zhou04.eam.alloy Fe
#-----------------------
pair_style meam
#pair_coeff * * ./../../library.meam Ni Ti Hf ./../../NiTiHf.meam Ni Ti
pair_coeff * * ./../../library.meam Ni Ti Hf ./../../NiTiHf.meam Ni Hf
#pair_coeff * * ./../../library.meam Ni Ti Hf ./../../NiTiHf.meam Ti Hf
#-----------------------

# Setup neighbor style
neighbor 1.0 nsq
neigh_modify once no every 1 delay 0 check yes

# Setup minimization style
min_style	     cg
min_modify	     dmax ${dmax} line quadratic
min_modify	     dmax 0.01 line quadratic

# Setup output
thermo		1
thermo_style custom step temp pe press pxx pyy pzz pxy pxz pyz lx ly lz vol
thermo_modify norm no

# Compute initial state
fix 3 all box/relax  aniso 0.0
minimize ${etol} ${ftol} ${maxiter} ${maxeval}
minimize 0 ${ftol} ${maxiter} ${maxeval}
minimize 0 1e-10 ${maxiter} ${maxeval}
minimize 0 1e-10 1000 ${maxeval}
minimize 0 1e-10 1000 100000
Neighbor list info ...
  update: every = 1 steps, delay = 0 steps, check = yes
  max neighbors/atom: 2000, page size: 100000
  master list distance cutoff = 6
  ghost atom cutoff = 6
  2 neighbor lists, perpetual/occasional/extra = 2 0 0
  (1) pair meam, perpetual
      attributes: full, newton on
      pair build: full/nsq
      stencil: none
      bin: none
  (2) pair meam, perpetual, half/full from (1)
      attributes: half, newton on
      pair build: halffull/newton
      stencil: none
      bin: none
Per MPI rank memory allocation (min/avg/max) = 9.778 | 9.781 | 9.783 Mbytes
   Step          Temp          PotEng         Press           Pxx            Pyy            Pzz            Pxy            Pxz            Pyz             Lx             Ly             Lz           Volume    
         0   0             -280.21814     -2.1687364e-09 -1.9664617e-09 -2.195413e-09  -2.3443345e-09  2.7024963e-11 -1.8295318e-11  3.2402833e-11  6.4790779      9.7186169      12.958156      815.94496    
         1   0             -280.21814      7.484023e-11  -5.3239105e-12  2.3874435e-10 -8.8997458e-12  2.8280388e-11 -1.9117294e-11 -2.6846559e-11  6.4790779      9.7186169      12.958156      815.94496    
Loop time of 0.000657 on 4 procs for 1 steps with 48 atoms

0.0% CPU use with 4 MPI tasks x 1 OpenMP threads

Minimization stats:
  Stopping criterion = force tolerance
  Energy initial, next-to-last, final = 
     -280.218139351676  -280.218139351676  -280.218139351677
  Force two-norm initial, final = 1.9232514e-12 1.8957198e-13
  Force max component initial, final = 1.1939059e-12 1.2158601e-13
  Final line search alpha, max atom move = 1 1.2158601e-13
  Iterations, force evaluations = 1 2

MPI task timing breakdown:
Section |  min time  |  avg time  |  max time  |%varavg| %total
---------------------------------------------------------------
Pair    | 0.000453   | 0.000491   | 0.000531   |   0.0 | 74.73
Neigh   | 0          | 0          | 0          |   0.0 |  0.00
Comm    | 3.6e-05    | 7.575e-05  | 0.000115   |   0.0 | 11.53
Output  | 0          | 0          | 0          |   0.0 |  0.00
Modify  | 0          | 0          | 0          |   0.0 |  0.00
Other   |            | 9.025e-05  |            |       | 13.74

Nlocal:             12 ave          16 max           8 min
Histogram: 2 0 0 0 0 0 0 0 0 2
Nghost:            293 ave         297 max         289 min
Histogram: 2 0 0 0 0 0 0 0 0 2
Neighs:            348 ave         464 max         232 min
Histogram: 2 0 0 0 0 0 0 0 0 2
FullNghs:          696 ave         928 max         464 min
Histogram: 2 0 0 0 0 0 0 0 0 2

Total # of neighbors = 2784
Ave neighs/atom = 58
Neighbor list builds = 0
Dangerous builds = 0

variable tmp equal pxx
variable pxx0 equal ${tmp}
variable pxx0 equal -5.32391053400624e-12
variable tmp equal pyy
variable pyy0 equal ${tmp}
variable pyy0 equal 2.38744346223056e-10
variable tmp equal pzz
variable pzz0 equal ${tmp}
variable pzz0 equal -8.89974581585226e-12
variable tmp equal pyz
variable pyz0 equal ${tmp}
variable pyz0 equal -2.68465588547085e-11
variable tmp equal pxz
variable pxz0 equal ${tmp}
variable pxz0 equal -1.91172943922089e-11
variable tmp equal pxy
variable pxy0 equal ${tmp}
variable pxy0 equal 2.82803878679552e-11

variable tmp equal lx
variable lx0 equal ${tmp}
variable lx0 equal 6.47907793485733
variable tmp equal ly
variable ly0 equal ${tmp}
variable ly0 equal 9.71861690228599
variable tmp equal lz
variable lz0 equal ${tmp}
variable lz0 equal 12.9581558697147

# These formulas define the derivatives w.r.t. strain components
# Constants uses $, variables use v_
variable d1 equal -(v_pxx1-${pxx0})/(v_delta/v_len0)*${cfac}
variable d1 equal -(v_pxx1--5.32391053400624e-12)/(v_delta/v_len0)*${cfac}
variable d1 equal -(v_pxx1--5.32391053400624e-12)/(v_delta/v_len0)*0.0001
variable d2 equal -(v_pyy1-${pyy0})/(v_delta/v_len0)*${cfac}
variable d2 equal -(v_pyy1-2.38744346223056e-10)/(v_delta/v_len0)*${cfac}
variable d2 equal -(v_pyy1-2.38744346223056e-10)/(v_delta/v_len0)*0.0001
variable d3 equal -(v_pzz1-${pzz0})/(v_delta/v_len0)*${cfac}
variable d3 equal -(v_pzz1--8.89974581585226e-12)/(v_delta/v_len0)*${cfac}
variable d3 equal -(v_pzz1--8.89974581585226e-12)/(v_delta/v_len0)*0.0001
variable d4 equal -(v_pyz1-${pyz0})/(v_delta/v_len0)*${cfac}
variable d4 equal -(v_pyz1--2.68465588547085e-11)/(v_delta/v_len0)*${cfac}
variable d4 equal -(v_pyz1--2.68465588547085e-11)/(v_delta/v_len0)*0.0001
variable d5 equal -(v_pxz1-${pxz0})/(v_delta/v_len0)*${cfac}
variable d5 equal -(v_pxz1--1.91172943922089e-11)/(v_delta/v_len0)*${cfac}
variable d5 equal -(v_pxz1--1.91172943922089e-11)/(v_delta/v_len0)*0.0001
variable d6 equal -(v_pxy1-${pxy0})/(v_delta/v_len0)*${cfac}
variable d6 equal -(v_pxy1-2.82803878679552e-11)/(v_delta/v_len0)*${cfac}
variable d6 equal -(v_pxy1-2.82803878679552e-11)/(v_delta/v_len0)*0.0001

displace_atoms all random ${atomjiggle} ${atomjiggle} ${atomjiggle} 87287 units box
displace_atoms all random 1e-05 ${atomjiggle} ${atomjiggle} 87287 units box
displace_atoms all random 1e-05 1e-05 ${atomjiggle} 87287 units box
displace_atoms all random 1e-05 1e-05 1e-05 87287 units box
Displacing atoms ...

# Write restart
unfix 3
write_restart restart.equil
System init for write_restart ...

# uxx Perturbation

variable dir equal 1
include displace.mod
# NOTE: This script should not need to be
# modified. See in.elastic for more info.
#
# Find which reference length to use

if "${dir} == 1" then    "variable len0 equal ${lx0}"
variable len0 equal ${lx0}
variable len0 equal 6.47907793485733
if "${dir} == 2" then    "variable len0 equal ${ly0}"
if "${dir} == 3" then    "variable len0 equal ${lz0}"
if "${dir} == 4" then    "variable len0 equal ${lz0}"
if "${dir} == 5" then    "variable len0 equal ${lz0}"
if "${dir} == 6" then    "variable len0 equal ${ly0}"

# Reset box and simulation parameters

clear
  using 1 OpenMP thread(s) per MPI task
Loaded 1 plugins from C:\Program Files\LAMMPS 64-bit 23Jun2022\plugins
Loaded 0 plugins from C:\Program Files\LAMMPS 64-bit 23Jun2022-MPI\plugins
Loaded 1 plugins from C:\Program Files\LAMMPS 64-bit 22Dec2022-MSMPI\plugins
Loaded 1 plugins from C:\Program Files\LAMMPS 64-bit 28Mar2023-MPI\plugins
box tilt large

The 'box' command has been removed and will be ignored

read_restart restart.equil
Reading restart file ...
  restart file = 22 Dec 2022, LAMMPS = 22 Dec 2022
  restoring atom style atomic from restart
  triclinic box = (-0.10976948 -0.10976948 -0.10976948) to (6.3693085 9.6088474 12.848386) with tilt (0 0 0)
  1 by 2 by 2 MPI processor grid
  pair style meam stores no restart info
  48 atoms
  read_restart CPU = 0.000 seconds
include potential.mod
# NOTE: This script can be modified for different pair styles
# See in.elastic for more info.

# Choose potential
#-----------------------
#pair_style	sw
#pair_coeff * * Si.sw Si
#-----------------------
#pair_style morse	2.83994742	# D0[eV] a[1/A] r0[A] rc[A], 1NN for BCC
#pair_coeff 1 1	2.1173	1.0202	2.4595	2.6497	#	Fe-Fe
#-----------------------
#pair_style smatb # R0(A)   p       q     A(eV)   xi(eV)  Rcs(A)   Rc(A), 4NN: Rcs=4NN, Rc=(4NN+5NN)/2
#pair_coeff 1 1	2.4802	7.0149	2.3779	0.3144	3.0551	4.033	4.176	#	Co	Co
#-----------------------
#pair_style eam/alloy
#pair_coeff * * AlCrFeCoNi_Zhou04.eam.alloy Fe
#-----------------------
pair_style meam
#pair_coeff * * ./../../library.meam Ni Ti Hf ./../../NiTiHf.meam Ni Ti
pair_coeff * * ./../../library.meam Ni Ti Hf ./../../NiTiHf.meam Ni Hf
#pair_coeff * * ./../../library.meam Ni Ti Hf ./../../NiTiHf.meam Ti Hf
#-----------------------

# Setup neighbor style
neighbor 1.0 nsq
neigh_modify once no every 1 delay 0 check yes

# Setup minimization style
min_style	     cg
min_modify	     dmax ${dmax} line quadratic
min_modify	     dmax 0.01 line quadratic

# Setup output
thermo		1
thermo_style custom step temp pe press pxx pyy pzz pxy pxz pyz lx ly lz vol
thermo_modify norm no

# Negative deformation

variable delta equal -${up}*${len0}
variable delta equal -1e-06*${len0}
variable delta equal -1e-06*6.47907793485733
variable deltaxy equal -${up}*xy
variable deltaxy equal -1e-06*xy
variable deltaxz equal -${up}*xz
variable deltaxz equal -1e-06*xz
variable deltayz equal -${up}*yz
variable deltayz equal -1e-06*yz
if "${dir} == 1" then    "change_box all x delta 0 ${delta} xy delta ${deltaxy} xz delta ${deltaxz} remap units box"
change_box all x delta 0 ${delta} xy delta ${deltaxy} xz delta ${deltaxz} remap units box
change_box all x delta 0 -6.47907793485733e-06 xy delta ${deltaxy} xz delta ${deltaxz} remap units box
change_box all x delta 0 -6.47907793485733e-06 xy delta -0 xz delta ${deltaxz} remap units box
change_box all x delta 0 -6.47907793485733e-06 xy delta -0 xz delta -0 remap units box
Changing box ...
  triclinic box = (-0.10976948 -0.10976948 -0.10976948) to (6.369302 9.6088474 12.848386) with tilt (0 0 0)
  triclinic box = (-0.10976948 -0.10976948 -0.10976948) to (6.369302 9.6088474 12.848386) with tilt (0 0 0)
  triclinic box = (-0.10976948 -0.10976948 -0.10976948) to (6.369302 9.6088474 12.848386) with tilt (0 0 0)
if "${dir} == 2" then    "change_box all y delta 0 ${delta} yz delta ${deltayz} remap units box"
if "${dir} == 3" then    "change_box all z delta 0 ${delta} remap units box"
if "${dir} == 4" then    "change_box all yz delta ${delta} remap units box"
if "${dir} == 5" then    "change_box all xz delta ${delta} remap units box"
if "${dir} == 6" then    "change_box all xy delta ${delta} remap units box"

# Relax atoms positions

minimize ${etol} ${ftol} ${maxiter} ${maxeval}
minimize 0 ${ftol} ${maxiter} ${maxeval}
minimize 0 1e-10 ${maxiter} ${maxeval}
minimize 0 1e-10 1000 ${maxeval}
minimize 0 1e-10 1000 100000
Neighbor list info ...
  update: every = 1 steps, delay = 0 steps, check = yes
  max neighbors/atom: 2000, page size: 100000
  master list distance cutoff = 6
  ghost atom cutoff = 6
  2 neighbor lists, perpetual/occasional/extra = 2 0 0
  (1) pair meam, perpetual
      attributes: full, newton on
      pair build: full/nsq
      stencil: none
      bin: none
  (2) pair meam, perpetual, half/full from (1)
      attributes: half, newton on
      pair build: halffull/newton
      stencil: none
      bin: none
Per MPI rank memory allocation (min/avg/max) = 9.772 | 9.773 | 9.775 Mbytes
   Step          Temp          PotEng         Press           Pxx            Pyy            Pzz            Pxy            Pxz            Pyz             Lx             Ly             Lz           Volume    
         1   0             -280.21814      1.3375616      2.1251389      0.94377656     0.94376941     1.5603865e-05 -1.8025311e-05  5.0710845e-06  6.4790715      9.7186169      12.958156      815.94415    
         2   0             -280.21814      1.3374907      2.1250775      0.94370228     0.94369222    -1.2441203e-06 -2.3998249e-06 -1.8148384e-06  6.4790715      9.7186169      12.958156      815.94415    
         3   0             -280.21814      1.3374822      2.1250645      0.94369313     0.94368905    -3.4196973e-08 -5.1735041e-07 -8.6516525e-07  6.4790715      9.7186169      12.958156      815.94415    
         4   0             -280.21814      1.3374803      2.1250621      0.94369026     0.94368844    -7.3240204e-08  2.512997e-07  -2.8270751e-08  6.4790715      9.7186169      12.958156      815.94415    
         5   0             -280.21814      1.3374798      2.1250616      0.94368924     0.94368863    -7.1451289e-09 -1.1083069e-08 -2.7597016e-08  6.4790715      9.7186169      12.958156      815.94415    
         6   0             -280.21814      1.3374797      2.1250615      0.9436889      0.94368872     4.2062776e-09  7.1215444e-09 -3.7218364e-09  6.4790715      9.7186169      12.958156      815.94415    
         7   0             -280.21814      1.3374797      2.1250614      0.9436888      0.94368875    -8.3176833e-09 -1.0651595e-08 -7.8573312e-10  6.4790715      9.7186169      12.958156      815.94415    
         8   0             -280.21814      1.3374796      2.1250614      0.94368878     0.94368877    -2.1891537e-09  9.2053149e-10  2.846559e-10   6.4790715      9.7186169      12.958156      815.94415    
         9   0             -280.21814      1.3374796      2.1250614      0.94368878     0.94368877     1.5841146e-10 -5.4332019e-10  7.4066124e-11  6.4790715      9.7186169      12.958156      815.94415    
        10   0             -280.21814      1.3374796      2.1250614      0.94368878     0.94368877     2.5253227e-10  2.5195562e-10 -2.3980202e-11  6.4790715      9.7186169      12.958156      815.94415    
        11   0             -280.21814      1.3374796      2.1250614      0.94368878     0.94368877     4.7721088e-11  4.6199358e-11 -4.3382366e-11  6.4790715      9.7186169      12.958156      815.94415    
        12   0             -280.21814      1.3374796      2.1250614      0.94368878     0.94368877     5.3636648e-12  1.150641e-11   1.3952118e-11  6.4790715      9.7186169      12.958156      815.94415    
        13   0             -280.21814      1.3374796      2.1250614      0.94368877     0.94368877    -1.7396973e-11 -1.7058644e-11  3.8150322e-12  6.4790715      9.7186169      12.958156      815.94415    
        14   0             -280.21814      1.3374796      2.1250614      0.94368877     0.94368877     1.1836206e-11  1.2342651e-11 -6.4855547e-12  6.4790715      9.7186169      12.958156      815.94415    
        15   0             -280.21814      1.3374796      2.1250614      0.94368877     0.94368877    -7.347153e-12  -7.4648598e-12 -1.6840642e-11  6.4790715      9.7186169      12.958156      815.94415    
        16   0             -280.21814      1.3374796      2.1250614      0.94368877     0.94368877     1.5081739e-11 -2.2479736e-11  3.8150322e-12  6.4790715      9.7186169      12.958156      815.94415    
        17   0             -280.21814      1.3374796      2.1250614      0.94368877     0.94368877     8.93564e-13   -1.4532888e-11  2.0001669e-11  6.4790715      9.7186169      12.958156      815.94415    
        18   0             -280.21814      1.3374796      2.1250614      0.94368877     0.94368877     9.5993131e-12  3.5254985e-13  1.5096627e-11  6.4790715      9.7186169      12.958156      815.94415    
        19   0             -280.21814      1.3374796      2.1250614      0.94368877     0.94368877     1.0312712e-11 -6.7512444e-12 -9.3195786e-12  6.4790715      9.7186169      12.958156      815.94415    
        20   0             -280.21814      1.3374796      2.1250614      0.94368877     0.94368877    -2.1398587e-12 -2.3884826e-11 -1.0954592e-11  6.4790715      9.7186169      12.958156      815.94415    
        21   0             -280.21814      1.3374796      2.1250614      0.94368877     0.94368877     1.9482751e-11 -1.381246e-12  -7.0850597e-12  6.4790715      9.7186169      12.958156      815.94415    
        22   0             -280.21814      1.3374796      2.1250614      0.94368877     0.94368877     1.3518659e-11 -2.4831772e-12  6.7035565e-12  6.4790715      9.7186169      12.958156      815.94415    
        23   0             -280.21814      1.3374796      2.1250614      0.94368877     0.94368877     1.4600966e-11  7.4580472e-12  4.5235381e-12  6.4790715      9.7186169      12.958156      815.94415    
        24   0             -280.21814      1.3374796      2.1250614      0.94368877     0.94368877     7.9032256e-12  2.7199136e-12 -6.9760588e-12  6.4790715      9.7186169      12.958156      815.94415    
        25   0             -280.21814      1.3374796      2.1250614      0.94368877     0.94368877     1.5779002e-11 -3.3551845e-12 -1.0137085e-11  6.4790715      9.7186169      12.958156      815.94415    
Loop time of 0.00794975 on 4 procs for 24 steps with 48 atoms

196.5% CPU use with 4 MPI tasks x 1 OpenMP threads

Minimization stats:
  Stopping criterion = force tolerance
  Energy initial, next-to-last, final = 
     -280.218139326585  -280.218139351135  -280.218139351135
  Force two-norm initial, final = 0.00081667442 6.7672469e-11
  Force max component initial, final = 0.00017562654 1.8601592e-11
  Final line search alpha, max atom move = 1 1.8601592e-11
  Iterations, force evaluations = 24 48

MPI task timing breakdown:
Section |  min time  |  avg time  |  max time  |%varavg| %total
---------------------------------------------------------------
Pair    | 0.006385   | 0.006767   | 0.007124   |   0.4 | 85.12
Neigh   | 0          | 0          | 0          |   0.0 |  0.00
Comm    | 0.000377   | 0.0007285  | 0.001112   |   0.0 |  9.16
Output  | 0.000211   | 0.0002225  | 0.000252   |   0.0 |  2.80
Modify  | 0          | 0          | 0          |   0.0 |  0.00
Other   |            | 0.0002318  |            |       |  2.92

Nlocal:             12 ave          14 max           9 min
Histogram: 1 0 0 0 0 0 1 0 1 1
Nghost:            293 ave         296 max         291 min
Histogram: 1 0 1 0 1 0 0 0 0 1
Neighs:            348 ave         416 max         251 min
Histogram: 1 0 0 0 0 0 2 0 0 1
FullNghs:          696 ave         812 max         522 min
Histogram: 1 0 0 0 0 0 1 0 1 1

Total # of neighbors = 2784
Ave neighs/atom = 58
Neighbor list builds = 0
Dangerous builds = 0

# Obtain new stress tensor

variable tmp equal pxx
variable pxx1 equal ${tmp}
variable pxx1 equal 2.12506137373912
variable tmp equal pyy
variable pyy1 equal ${tmp}
variable pyy1 equal 0.943688774939454
variable tmp equal pzz
variable pzz1 equal ${tmp}
variable pzz1 equal 0.943688774792085
variable tmp equal pxy
variable pxy1 equal ${tmp}
variable pxy1 equal 1.57790016418791e-11
variable tmp equal pxz
variable pxz1 equal ${tmp}
variable pxz1 equal -3.3551845354025e-12
variable tmp equal pyz
variable pyz1 equal ${tmp}
variable pyz1 equal -1.01370854592465e-11

# Compute elastic constant from pressure tensor

variable C1neg equal ${d1}
variable C1neg equal 212.506137374444
variable C2neg equal ${d2}
variable C2neg equal 94.368877470071
variable C3neg equal ${d3}
variable C3neg equal 94.3688774800985
variable C4neg equal ${d4}
variable C4neg equal 1.6709473395462e-09
variable C5neg equal ${d5}
variable C5neg equal 1.57621098568064e-09
variable C6neg equal ${d6}
variable C6neg equal -1.25013862260761e-09

# Reset box and simulation parameters

clear
  using 1 OpenMP thread(s) per MPI task
Loaded 1 plugins from C:\Program Files\LAMMPS 64-bit 23Jun2022\plugins
Loaded 0 plugins from C:\Program Files\LAMMPS 64-bit 23Jun2022-MPI\plugins
Loaded 1 plugins from C:\Program Files\LAMMPS 64-bit 22Dec2022-MSMPI\plugins
Loaded 1 plugins from C:\Program Files\LAMMPS 64-bit 28Mar2023-MPI\plugins
box tilt large

The 'box' command has been removed and will be ignored

read_restart restart.equil
Reading restart file ...
  restart file = 22 Dec 2022, LAMMPS = 22 Dec 2022
  restoring atom style atomic from restart
  triclinic box = (-0.10976948 -0.10976948 -0.10976948) to (6.3693085 9.6088474 12.848386) with tilt (0 0 0)
  1 by 2 by 2 MPI processor grid
  pair style meam stores no restart info
  48 atoms
  read_restart CPU = 0.000 seconds
include potential.mod
# NOTE: This script can be modified for different pair styles
# See in.elastic for more info.

# Choose potential
#-----------------------
#pair_style	sw
#pair_coeff * * Si.sw Si
#-----------------------
#pair_style morse	2.83994742	# D0[eV] a[1/A] r0[A] rc[A], 1NN for BCC
#pair_coeff 1 1	2.1173	1.0202	2.4595	2.6497	#	Fe-Fe
#-----------------------
#pair_style smatb # R0(A)   p       q     A(eV)   xi(eV)  Rcs(A)   Rc(A), 4NN: Rcs=4NN, Rc=(4NN+5NN)/2
#pair_coeff 1 1	2.4802	7.0149	2.3779	0.3144	3.0551	4.033	4.176	#	Co	Co
#-----------------------
#pair_style eam/alloy
#pair_coeff * * AlCrFeCoNi_Zhou04.eam.alloy Fe
#-----------------------
pair_style meam
#pair_coeff * * ./../../library.meam Ni Ti Hf ./../../NiTiHf.meam Ni Ti
pair_coeff * * ./../../library.meam Ni Ti Hf ./../../NiTiHf.meam Ni Hf
#pair_coeff * * ./../../library.meam Ni Ti Hf ./../../NiTiHf.meam Ti Hf
#-----------------------

# Setup neighbor style
neighbor 1.0 nsq
neigh_modify once no every 1 delay 0 check yes

# Setup minimization style
min_style	     cg
min_modify	     dmax ${dmax} line quadratic
min_modify	     dmax 0.01 line quadratic

# Setup output
thermo		1
thermo_style custom step temp pe press pxx pyy pzz pxy pxz pyz lx ly lz vol
thermo_modify norm no

# Positive deformation

variable delta equal ${up}*${len0}
variable delta equal 1e-06*${len0}
variable delta equal 1e-06*6.47907793485733
variable deltaxy equal ${up}*xy
variable deltaxy equal 1e-06*xy
variable deltaxz equal ${up}*xz
variable deltaxz equal 1e-06*xz
variable deltayz equal ${up}*yz
variable deltayz equal 1e-06*yz
if "${dir} == 1" then    "change_box all x delta 0 ${delta} xy delta ${deltaxy} xz delta ${deltaxz} remap units box"
change_box all x delta 0 ${delta} xy delta ${deltaxy} xz delta ${deltaxz} remap units box
change_box all x delta 0 6.47907793485733e-06 xy delta ${deltaxy} xz delta ${deltaxz} remap units box
change_box all x delta 0 6.47907793485733e-06 xy delta 0 xz delta ${deltaxz} remap units box
change_box all x delta 0 6.47907793485733e-06 xy delta 0 xz delta 0 remap units box
Changing box ...
  triclinic box = (-0.10976948 -0.10976948 -0.10976948) to (6.3693149 9.6088474 12.848386) with tilt (0 0 0)
  triclinic box = (-0.10976948 -0.10976948 -0.10976948) to (6.3693149 9.6088474 12.848386) with tilt (0 0 0)
  triclinic box = (-0.10976948 -0.10976948 -0.10976948) to (6.3693149 9.6088474 12.848386) with tilt (0 0 0)
if "${dir} == 2" then    "change_box all y delta 0 ${delta} yz delta ${deltayz} remap units box"
if "${dir} == 3" then    "change_box all z delta 0 ${delta} remap units box"
if "${dir} == 4" then    "change_box all yz delta ${delta} remap units box"
if "${dir} == 5" then    "change_box all xz delta ${delta} remap units box"
if "${dir} == 6" then    "change_box all xy delta ${delta} remap units box"

# Relax atoms positions

minimize ${etol} ${ftol} ${maxiter} ${maxeval}
minimize 0 ${ftol} ${maxiter} ${maxeval}
minimize 0 1e-10 ${maxiter} ${maxeval}
minimize 0 1e-10 1000 ${maxeval}
minimize 0 1e-10 1000 100000
Neighbor list info ...
  update: every = 1 steps, delay = 0 steps, check = yes
  max neighbors/atom: 2000, page size: 100000
  master list distance cutoff = 6
  ghost atom cutoff = 6
  2 neighbor lists, perpetual/occasional/extra = 2 0 0
  (1) pair meam, perpetual
      attributes: full, newton on
      pair build: full/nsq
      stencil: none
      bin: none
  (2) pair meam, perpetual, half/full from (1)
      attributes: half, newton on
      pair build: halffull/newton
      stencil: none
      bin: none
Per MPI rank memory allocation (min/avg/max) = 9.772 | 9.773 | 9.775 Mbytes
   Step          Temp          PotEng         Press           Pxx            Pyy            Pzz            Pxy            Pxz            Pyz             Lx             Ly             Lz           Volume    
         1   0             -280.21814     -1.3373901     -2.1249699     -0.94359659    -0.94360375     1.5603941e-05 -1.802548e-05   5.0710735e-06  6.4790844      9.7186169      12.958156      815.94578    
         2   0             -280.21814     -1.337461      -2.1250313     -0.94367087    -0.94368093    -1.2441193e-06 -2.3997853e-06 -1.8148578e-06  6.4790844      9.7186169      12.958156      815.94578    
         3   0             -280.21814     -1.3374695     -2.1250443     -0.94368002    -0.9436841     -3.4192035e-08 -5.1735516e-07 -8.6514499e-07  6.4790844      9.7186169      12.958156      815.94578    
         4   0             -280.21814     -1.3374714     -2.1250467     -0.9436829     -0.94368471    -7.3260444e-08  2.5133238e-07 -2.8242899e-08  6.4790844      9.7186169      12.958156      815.94578    
         5   0             -280.21814     -1.3374719     -2.1250471     -0.94368391    -0.94368453    -7.1327114e-09 -1.1062738e-08 -2.7571727e-08  6.4790844      9.7186169      12.958156      815.94578    
         6   0             -280.21814     -1.337472      -2.1250473     -0.94368425    -0.94368443     4.1982736e-09  7.1387488e-09 -3.7296225e-09  6.4790844      9.7186169      12.958156      815.94578    
         7   0             -280.21814     -1.337472      -2.1250474     -0.94368435    -0.9436844     -8.3095109e-09 -1.0650012e-08 -8.2121128e-10  6.4790844      9.7186169      12.958156      815.94578    
         8   0             -280.21814     -1.337472      -2.1250474     -0.94368437    -0.94368438    -2.1955066e-09  9.2772029e-10  2.8203931e-10  6.4790844      9.7186169      12.958156      815.94578    
         9   0             -280.21814     -1.3374721     -2.1250474     -0.94368438    -0.94368438     1.2174473e-10 -5.4662148e-10  9.3086599e-11  6.4790844      9.7186169      12.958156      815.94578    
        10   0             -280.21814     -1.3374721     -2.1250474     -0.94368438    -0.94368438     2.5140947e-10  2.3078173e-10 -6.5945424e-12  6.4790844      9.7186169      12.958156      815.94578    
        11   0             -280.21814     -1.3374721     -2.1250474     -0.94368438    -0.94368438     3.7033382e-11  1.8526713e-11 -4.4145284e-11  6.4790844      9.7186169      12.958156      815.94578    
        12   0             -280.21814     -1.3374721     -2.1250474     -0.94368438    -0.94368438     3.6361632e-12  2.0531304e-11 -1.1608575e-11  6.4790844      9.7186169      12.958156      815.94578    
        13   0             -280.21814     -1.3374721     -2.1250474     -0.94368438    -0.94368438    -6.6456069e-12 -3.4011625e-12 -1.3897589e-11  6.4790844      9.7186169      12.958156      815.94578    
        14   0             -280.21814     -1.3374721     -2.1250474     -0.94368438    -0.94368438    -2.8750843e-11  5.0889702e-12  2.2835647e-11  6.4790844      9.7186169      12.958156      815.94578    
        15   0             -280.21814     -1.3374721     -2.1250474     -0.94368438    -0.94368438     5.0762401e-12  1.6397793e-11 -2.0710133e-12  6.4790844      9.7186169      12.958156      815.94578    
        16   0             -280.21814     -1.3374721     -2.1250474     -0.94368438    -0.94368438     3.4634147e-12 -3.0913621e-11  9.646562e-12   6.4790844      9.7186169      12.958156      815.94578    
        17   0             -280.21814     -1.3374721     -2.1250474     -0.94368438    -0.94368438    -2.4818683e-11  5.6084267e-12 -1.0627568e-11  6.4790844      9.7186169      12.958156      815.94578    
        18   0             -280.21814     -1.3374721     -2.1250474     -0.94368438    -0.94368438     7.498634e-12  -4.497982e-12   7.6300491e-12  6.4790844      9.7186169      12.958156      815.94578    
        19   0             -280.21814     -1.3374721     -2.1250474     -0.94368438    -0.94368438     2.3866525e-11 -1.2356251e-11  3.8150245e-13  6.4790844      9.7186169      12.958156      815.94578    
        20   0             -280.21814     -1.3374721     -2.1250474     -0.94368438    -0.94368438     1.1983012e-11 -8.0353954e-12  2.643267e-11   6.4790844      9.7186169      12.958156      815.94578    
        21   0             -280.21814     -1.3374721     -2.1250474     -0.94368438    -0.94368438     2.8684642e-12 -1.0574771e-11  1.0355067e-12  6.4790844      9.7186169      12.958156      815.94578    
        22   0             -280.21814     -1.3374721     -2.1250474     -0.94368438    -0.94368438    -6.872184e-12  -1.1627309e-11 -1.5805102e-11  6.4790844      9.7186169      12.958156      815.94578    
        23   0             -280.21814     -1.3374721     -2.1250474     -0.94368438    -0.94368438    -2.3527819e-11  4.5116071e-12  7.2485466e-12  6.4790844      9.7186169      12.958156      815.94578    
        24   0             -280.21814     -1.3374721     -2.1250474     -0.94368438    -0.94368438     1.9776775e-11 -1.8846902e-11  2.0383131e-11  6.4790844      9.7186169      12.958156      815.94578    
        25   0             -280.21814     -1.3374721     -2.1250474     -0.94368438    -0.94368438     2.468342e-12  -3.0758635e-12 -2.3980154e-12  6.4790844      9.7186169      12.958156      815.94578    
Loop time of 0.0081465 on 4 procs for 24 steps with 48 atoms

191.8% CPU use with 4 MPI tasks x 1 OpenMP threads

Minimization stats:
  Stopping criterion = force tolerance
  Energy initial, next-to-last, final = 
     -280.218139326585  -280.218139351135  -280.218139351135
  Force two-norm initial, final = 0.00081667121 6.7642007e-11
  Force max component initial, final = 0.00017562608 1.8007734e-11
  Final line search alpha, max atom move = 1 1.8007734e-11
  Iterations, force evaluations = 24 48

MPI task timing breakdown:
Section |  min time  |  avg time  |  max time  |%varavg| %total
---------------------------------------------------------------
Pair    | 0.006452   | 0.0069425  | 0.007334   |   0.5 | 85.22
Neigh   | 0          | 0          | 0          |   0.0 |  0.00
Comm    | 0.00036    | 0.000718   | 0.001123   |   0.0 |  8.81
Output  | 0.000215   | 0.000225   | 0.000248   |   0.0 |  2.76
Modify  | 0          | 0          | 0          |   0.0 |  0.00
Other   |            | 0.000261   |            |       |  3.20

Nlocal:             12 ave          14 max           9 min
Histogram: 1 0 0 0 0 0 1 0 1 1
Nghost:            293 ave         296 max         291 min
Histogram: 1 0 1 0 1 0 0 0 0 1
Neighs:            348 ave         416 max         251 min
Histogram: 1 0 0 0 0 0 2 0 0 1
FullNghs:          696 ave         812 max         522 min
Histogram: 1 0 0 0 0 0 1 0 1 1

Total # of neighbors = 2784
Ave neighs/atom = 58
Neighbor list builds = 0
Dangerous builds = 0

# Obtain new stress tensor

variable tmp equal pe
variable e1 equal ${tmp}
variable e1 equal -280.218139351135
variable tmp equal press
variable p1 equal ${tmp}
variable p1 equal -1.33747205587276
variable tmp equal pxx
variable pxx1 equal ${tmp}
variable pxx1 equal -2.12504741500231
variable tmp equal pyy
variable pyy1 equal ${tmp}
variable pyy1 equal -0.94368437621729
variable tmp equal pzz
variable pzz1 equal ${tmp}
variable pzz1 equal -0.943684376398668
variable tmp equal pxy
variable pxy1 equal ${tmp}
variable pxy1 equal 2.46834203030782e-12
variable tmp equal pxz
variable pxz1 equal ${tmp}
variable pxz1 equal -3.07586352894542e-12
variable tmp equal pyz
variable pyz1 equal ${tmp}
variable pyz1 equal -2.39801542013021e-12

# Compute elastic constant from pressure tensor

variable C1pos equal ${d1}
variable C1pos equal 212.504741499699
variable C2pos equal ${d2}
variable C2pos equal 94.3684376456034
variable C3pos equal ${d3}
variable C3pos equal 94.3684376389768
variable C4pos equal ${d4}
variable C4pos equal -2.44485434345783e-09
variable C5pos equal ${d5}
variable C5pos equal -1.60414308632635e-09
variable C6pos equal ${d6}
variable C6pos equal 2.58120458376474e-09

# Combine positive and negative

variable C1${dir} equal 0.5*(${C1neg}+${C1pos})
variable C11 equal 0.5*(${C1neg}+${C1pos})
variable C11 equal 0.5*(212.506137374444+${C1pos})
variable C11 equal 0.5*(212.506137374444+212.504741499699)
variable C2${dir} equal 0.5*(${C2neg}+${C2pos})
variable C21 equal 0.5*(${C2neg}+${C2pos})
variable C21 equal 0.5*(94.368877470071+${C2pos})
variable C21 equal 0.5*(94.368877470071+94.3684376456034)
variable C3${dir} equal 0.5*(${C3neg}+${C3pos})
variable C31 equal 0.5*(${C3neg}+${C3pos})
variable C31 equal 0.5*(94.3688774800985+${C3pos})
variable C31 equal 0.5*(94.3688774800985+94.3684376389768)
variable C4${dir} equal 0.5*(${C4neg}+${C4pos})
variable C41 equal 0.5*(${C4neg}+${C4pos})
variable C41 equal 0.5*(1.6709473395462e-09+${C4pos})
variable C41 equal 0.5*(1.6709473395462e-09+-2.44485434345783e-09)
variable C5${dir} equal 0.5*(${C5neg}+${C5pos})
variable C51 equal 0.5*(${C5neg}+${C5pos})
variable C51 equal 0.5*(1.57621098568064e-09+${C5pos})
variable C51 equal 0.5*(1.57621098568064e-09+-1.60414308632635e-09)
variable C6${dir} equal 0.5*(${C6neg}+${C6pos})
variable C61 equal 0.5*(${C6neg}+${C6pos})
variable C61 equal 0.5*(-1.25013862260761e-09+${C6pos})
variable C61 equal 0.5*(-1.25013862260761e-09+2.58120458376474e-09)

# Delete dir to make sure it is not reused

variable dir delete

# uyy Perturbation

variable dir equal 2
include displace.mod
# NOTE: This script should not need to be
# modified. See in.elastic for more info.
#
# Find which reference length to use

if "${dir} == 1" then    "variable len0 equal ${lx0}"
if "${dir} == 2" then    "variable len0 equal ${ly0}"
variable len0 equal ${ly0}
variable len0 equal 9.71861690228599
if "${dir} == 3" then    "variable len0 equal ${lz0}"
if "${dir} == 4" then    "variable len0 equal ${lz0}"
if "${dir} == 5" then    "variable len0 equal ${lz0}"
if "${dir} == 6" then    "variable len0 equal ${ly0}"

# Reset box and simulation parameters

clear
  using 1 OpenMP thread(s) per MPI task
Loaded 1 plugins from C:\Program Files\LAMMPS 64-bit 23Jun2022\plugins
Loaded 0 plugins from C:\Program Files\LAMMPS 64-bit 23Jun2022-MPI\plugins
Loaded 1 plugins from C:\Program Files\LAMMPS 64-bit 22Dec2022-MSMPI\plugins
Loaded 1 plugins from C:\Program Files\LAMMPS 64-bit 28Mar2023-MPI\plugins
box tilt large

The 'box' command has been removed and will be ignored

read_restart restart.equil
Reading restart file ...
  restart file = 22 Dec 2022, LAMMPS = 22 Dec 2022
  restoring atom style atomic from restart
  triclinic box = (-0.10976948 -0.10976948 -0.10976948) to (6.3693085 9.6088474 12.848386) with tilt (0 0 0)
  1 by 2 by 2 MPI processor grid
  pair style meam stores no restart info
  48 atoms
  read_restart CPU = 0.000 seconds
include potential.mod
# NOTE: This script can be modified for different pair styles
# See in.elastic for more info.

# Choose potential
#-----------------------
#pair_style	sw
#pair_coeff * * Si.sw Si
#-----------------------
#pair_style morse	2.83994742	# D0[eV] a[1/A] r0[A] rc[A], 1NN for BCC
#pair_coeff 1 1	2.1173	1.0202	2.4595	2.6497	#	Fe-Fe
#-----------------------
#pair_style smatb # R0(A)   p       q     A(eV)   xi(eV)  Rcs(A)   Rc(A), 4NN: Rcs=4NN, Rc=(4NN+5NN)/2
#pair_coeff 1 1	2.4802	7.0149	2.3779	0.3144	3.0551	4.033	4.176	#	Co	Co
#-----------------------
#pair_style eam/alloy
#pair_coeff * * AlCrFeCoNi_Zhou04.eam.alloy Fe
#-----------------------
pair_style meam
#pair_coeff * * ./../../library.meam Ni Ti Hf ./../../NiTiHf.meam Ni Ti
pair_coeff * * ./../../library.meam Ni Ti Hf ./../../NiTiHf.meam Ni Hf
#pair_coeff * * ./../../library.meam Ni Ti Hf ./../../NiTiHf.meam Ti Hf
#-----------------------

# Setup neighbor style
neighbor 1.0 nsq
neigh_modify once no every 1 delay 0 check yes

# Setup minimization style
min_style	     cg
min_modify	     dmax ${dmax} line quadratic
min_modify	     dmax 0.01 line quadratic

# Setup output
thermo		1
thermo_style custom step temp pe press pxx pyy pzz pxy pxz pyz lx ly lz vol
thermo_modify norm no

# Negative deformation

variable delta equal -${up}*${len0}
variable delta equal -1e-06*${len0}
variable delta equal -1e-06*9.71861690228599
variable deltaxy equal -${up}*xy
variable deltaxy equal -1e-06*xy
variable deltaxz equal -${up}*xz
variable deltaxz equal -1e-06*xz
variable deltayz equal -${up}*yz
variable deltayz equal -1e-06*yz
if "${dir} == 1" then    "change_box all x delta 0 ${delta} xy delta ${deltaxy} xz delta ${deltaxz} remap units box"
if "${dir} == 2" then    "change_box all y delta 0 ${delta} yz delta ${deltayz} remap units box"
change_box all y delta 0 ${delta} yz delta ${deltayz} remap units box
change_box all y delta 0 -9.71861690228599e-06 yz delta ${deltayz} remap units box
change_box all y delta 0 -9.71861690228599e-06 yz delta -0 remap units box
Changing box ...
  triclinic box = (-0.10976948 -0.10976948 -0.10976948) to (6.3693085 9.6088377 12.848386) with tilt (0 0 0)
  triclinic box = (-0.10976948 -0.10976948 -0.10976948) to (6.3693085 9.6088377 12.848386) with tilt (0 0 0)
if "${dir} == 3" then    "change_box all z delta 0 ${delta} remap units box"
if "${dir} == 4" then    "change_box all yz delta ${delta} remap units box"
if "${dir} == 5" then    "change_box all xz delta ${delta} remap units box"
if "${dir} == 6" then    "change_box all xy delta ${delta} remap units box"

# Relax atoms positions

minimize ${etol} ${ftol} ${maxiter} ${maxeval}
minimize 0 ${ftol} ${maxiter} ${maxeval}
minimize 0 1e-10 ${maxiter} ${maxeval}
minimize 0 1e-10 1000 ${maxeval}
minimize 0 1e-10 1000 100000
Neighbor list info ...
  update: every = 1 steps, delay = 0 steps, check = yes
  max neighbors/atom: 2000, page size: 100000
  master list distance cutoff = 6
  ghost atom cutoff = 6
  2 neighbor lists, perpetual/occasional/extra = 2 0 0
  (1) pair meam, perpetual
      attributes: full, newton on
      pair build: full/nsq
      stencil: none
      bin: none
  (2) pair meam, perpetual, half/full from (1)
      attributes: half, newton on
      pair build: halffull/newton
      stencil: none
      bin: none
Per MPI rank memory allocation (min/avg/max) = 9.772 | 9.773 | 9.775 Mbytes
   Step          Temp          PotEng         Press           Pxx            Pyy            Pzz            Pxy            Pxz            Pyz             Lx             Ly             Lz           Volume    
         1   0             -280.21814      1.3375616      0.94376626     2.1251492      0.94376941     1.560387e-05  -1.8025476e-05  5.0711162e-06  6.4790779      9.7186072      12.958156      815.94415    
         2   0             -280.21814      1.3374907      0.9437049      2.1250749      0.94369222    -1.2440998e-06 -2.399812e-06  -1.8148557e-06  6.4790779      9.7186072      12.958156      815.94415    
         3   0             -280.21814      1.3374822      0.94369192     2.1250657      0.94368905    -3.4208787e-08 -5.1735139e-07 -8.6514482e-07  6.4790779      9.7186072      12.958156      815.94415    
         4   0             -280.21814      1.3374803      0.94368948     2.1250629      0.94368844    -7.3250625e-08  2.513275e-07  -2.8256799e-08  6.4790779      9.7186072      12.958156      815.94415    
         5   0             -280.21814      1.3374798      0.94368905     2.1250618      0.94368863    -7.1398773e-09 -1.1087846e-08 -2.7579958e-08  6.4790779      9.7186072      12.958156      815.94415    
         6   0             -280.21814      1.3374797      0.94368889     2.1250615      0.94368872     4.2001358e-09  7.1316661e-09 -3.678018e-09   6.4790779      9.7186072      12.958156      815.94415    
         7   0             -280.21814      1.3374797      0.94368883     2.1250614      0.94368875    -8.2908665e-09 -1.0652352e-08 -8.2350194e-10  6.4790779      9.7186072      12.958156      815.94415    
         8   0             -280.21814      1.3374796      0.94368879     2.1250614      0.94368877    -2.2073582e-09  9.4725205e-10  2.6917777e-10  6.4790779      9.7186072      12.958156      815.94415    
         9   0             -280.21814      1.3374796      0.94368878     2.1250614      0.94368877     1.3075849e-10 -5.5772875e-10  1.0066235e-10  6.4790779      9.7186072      12.958156      815.94415    
        10   0             -280.21814      1.3374796      0.94368878     2.1250614      0.94368877     2.1578176e-10  2.2429494e-10 -6.8125574e-12  6.4790779      9.7186072      12.958156      815.94415    
        11   0             -280.21814      1.3374796      0.94368878     2.1250614      0.94368877     5.2848952e-11  3.1674986e-11 -2.4143704e-11  6.4790779      9.7186072      12.958156      815.94415    
        12   0             -280.21814      1.3374796      0.94368877     2.1250614      0.94368877     9.9332307e-13  2.5363151e-11 -5.4500459e-14  6.4790779      9.7186072      12.958156      815.94415    
        13   0             -280.21814      1.3374796      0.94368877     2.1250614      0.94368877     4.4100788e-12  3.1201513e-12 -1.0900092e-12  6.4790779      9.7186072      12.958156      815.94415    
        14   0             -280.21814      1.3374796      0.94368877     2.1250614      0.94368877     1.5897346e-11 -1.6792954e-11 -2.3980202e-12  6.4790779      9.7186072      12.958156      815.94415    
        15   0             -280.21814      1.3374796      0.94368877     2.1250614      0.94368877     9.414679e-12  -2.9157746e-12 -1.0464088e-11  6.4790779      9.7186072      12.958156      815.94415    
        16   0             -280.21814      1.3374796      0.94368877     2.1250614      0.94368877    -4.9252912e-12  3.9325488e-12 -4.8505409e-12  6.4790779      9.7186072      12.958156      815.94415    
        17   0             -280.21814      1.3374796      0.94368877     2.1250614      0.94368877     3.7166067e-12  3.9563927e-12  1.8857159e-11  6.4790779      9.7186072      12.958156      815.94415    
        18   0             -280.21814      1.3374796      0.94368877     2.1250614      0.94368877    -3.4770573e-12  4.6666018e-12  4.2837361e-11  6.4790779      9.7186072      12.958156      815.94415    
        19   0             -280.21814      1.3374796      0.94368877     2.1250614      0.94368877    -1.6576315e-11 -3.4403415e-12 -3.8695326e-12  6.4790779      9.7186072      12.958156      815.94415    
        20   0             -280.21814      1.3374796      0.94368877     2.1250614      0.94368877     2.2975818e-11 -8.4305398e-13 -2.725023e-11   6.4790779      9.7186072      12.958156      815.94415    
        21   0             -280.21814      1.3374796      0.94368877     2.1250614      0.94368877    -5.8824174e-12  2.0401906e-11 -2.1200679e-11  6.4790779      9.7186072      12.958156      815.94415    
        22   0             -280.21814      1.3374796      0.94368877     2.1250614      0.94368877    -2.8859033e-12  6.0427384e-12  6.5400551e-12  6.4790779      9.7186072      12.958156      815.94415    
        23   0             -280.21814      1.3374796      0.94368877     2.1250614      0.94368877     8.1635824e-12 -1.4219511e-11  5.0303924e-11  6.4790779      9.7186072      12.958156      815.94415    
        24   0             -280.21814      1.3374796      0.94368877     2.1250614      0.94368877    -1.3753591e-11  1.849439e-11  -1.5805133e-12  6.4790779      9.7186072      12.958156      815.94415    
        25   0             -280.21814      1.3374796      0.94368877     2.1250614      0.94368877     2.2882853e-12  7.2877333e-12  2.2781192e-11  6.4790779      9.7186072      12.958156      815.94415    
Loop time of 0.008017 on 4 procs for 24 steps with 48 atoms

194.9% CPU use with 4 MPI tasks x 1 OpenMP threads

Minimization stats:
  Stopping criterion = force tolerance
  Energy initial, next-to-last, final = 
     -280.218139326585  -280.218139351135  -280.218139351135
  Force two-norm initial, final = 0.00081667463 6.5992942e-11
  Force max component initial, final = 0.00017562655 1.8355484e-11
  Final line search alpha, max atom move = 1 1.8355484e-11
  Iterations, force evaluations = 24 48

MPI task timing breakdown:
Section |  min time  |  avg time  |  max time  |%varavg| %total
---------------------------------------------------------------
Pair    | 0.006348   | 0.0067717  | 0.007123   |   0.4 | 84.47
Neigh   | 0          | 0          | 0          |   0.0 |  0.00
Comm    | 0.000364   | 0.0007065  | 0.001137   |   0.0 |  8.81
Output  | 0.000212   | 0.0002415  | 0.000323   |   0.0 |  3.01
Modify  | 0          | 0          | 0          |   0.0 |  0.00
Other   |            | 0.0002973  |            |       |  3.71

Nlocal:             12 ave          14 max           9 min
Histogram: 1 0 0 0 0 0 1 0 1 1
Nghost:            293 ave         296 max         291 min
Histogram: 1 0 1 0 1 0 0 0 0 1
Neighs:            348 ave         416 max         251 min
Histogram: 1 0 0 0 0 0 2 0 0 1
FullNghs:          696 ave         812 max         522 min
Histogram: 1 0 0 0 0 0 1 0 1 1

Total # of neighbors = 2784
Ave neighs/atom = 58
Neighbor list builds = 0
Dangerous builds = 0

# Obtain new stress tensor

variable tmp equal pxx
variable pxx1 equal ${tmp}
variable pxx1 equal 0.943688774693112
variable tmp equal pyy
variable pyy1 equal ${tmp}
variable pyy1 equal 2.12506137378883
variable tmp equal pzz
variable pzz1 equal ${tmp}
variable pzz1 equal 0.943688774741508
variable tmp equal pxy
variable pxy1 equal ${tmp}
variable pxy1 equal 2.28828528781219e-12
variable tmp equal pxz
variable pxz1 equal ${tmp}
variable pxz1 equal 7.28773331319151e-12
variable tmp equal pyz
variable pyz1 equal ${tmp}
variable pyz1 equal 2.27811920535755e-11

# Compute elastic constant from pressure tensor

variable C1neg equal ${d1}
variable C1neg equal 94.3688774698436
variable C2neg equal ${d2}
variable C2neg equal 212.506137355009
variable C3neg equal ${d3}
variable C3neg equal 94.3688774750408
variable C4neg equal ${d4}
variable C4neg equal 4.9627750908284e-09
variable C5neg equal ${d5}
variable C5neg equal 2.64050277054004e-09
variable C6neg equal ${d6}
variable C6neg equal -2.5992102580143e-09

# Reset box and simulation parameters

clear
  using 1 OpenMP thread(s) per MPI task
Loaded 1 plugins from C:\Program Files\LAMMPS 64-bit 23Jun2022\plugins
Loaded 0 plugins from C:\Program Files\LAMMPS 64-bit 23Jun2022-MPI\plugins
Loaded 1 plugins from C:\Program Files\LAMMPS 64-bit 22Dec2022-MSMPI\plugins
Loaded 1 plugins from C:\Program Files\LAMMPS 64-bit 28Mar2023-MPI\plugins
box tilt large

The 'box' command has been removed and will be ignored

read_restart restart.equil
Reading restart file ...
  restart file = 22 Dec 2022, LAMMPS = 22 Dec 2022
  restoring atom style atomic from restart
  triclinic box = (-0.10976948 -0.10976948 -0.10976948) to (6.3693085 9.6088474 12.848386) with tilt (0 0 0)
  1 by 2 by 2 MPI processor grid
  pair style meam stores no restart info
  48 atoms
  read_restart CPU = 0.000 seconds
include potential.mod
# NOTE: This script can be modified for different pair styles
# See in.elastic for more info.

# Choose potential
#-----------------------
#pair_style	sw
#pair_coeff * * Si.sw Si
#-----------------------
#pair_style morse	2.83994742	# D0[eV] a[1/A] r0[A] rc[A], 1NN for BCC
#pair_coeff 1 1	2.1173	1.0202	2.4595	2.6497	#	Fe-Fe
#-----------------------
#pair_style smatb # R0(A)   p       q     A(eV)   xi(eV)  Rcs(A)   Rc(A), 4NN: Rcs=4NN, Rc=(4NN+5NN)/2
#pair_coeff 1 1	2.4802	7.0149	2.3779	0.3144	3.0551	4.033	4.176	#	Co	Co
#-----------------------
#pair_style eam/alloy
#pair_coeff * * AlCrFeCoNi_Zhou04.eam.alloy Fe
#-----------------------
pair_style meam
#pair_coeff * * ./../../library.meam Ni Ti Hf ./../../NiTiHf.meam Ni Ti
pair_coeff * * ./../../library.meam Ni Ti Hf ./../../NiTiHf.meam Ni Hf
#pair_coeff * * ./../../library.meam Ni Ti Hf ./../../NiTiHf.meam Ti Hf
#-----------------------

# Setup neighbor style
neighbor 1.0 nsq
neigh_modify once no every 1 delay 0 check yes

# Setup minimization style
min_style	     cg
min_modify	     dmax ${dmax} line quadratic
min_modify	     dmax 0.01 line quadratic

# Setup output
thermo		1
thermo_style custom step temp pe press pxx pyy pzz pxy pxz pyz lx ly lz vol
thermo_modify norm no

# Positive deformation

variable delta equal ${up}*${len0}
variable delta equal 1e-06*${len0}
variable delta equal 1e-06*9.71861690228599
variable deltaxy equal ${up}*xy
variable deltaxy equal 1e-06*xy
variable deltaxz equal ${up}*xz
variable deltaxz equal 1e-06*xz
variable deltayz equal ${up}*yz
variable deltayz equal 1e-06*yz
if "${dir} == 1" then    "change_box all x delta 0 ${delta} xy delta ${deltaxy} xz delta ${deltaxz} remap units box"
if "${dir} == 2" then    "change_box all y delta 0 ${delta} yz delta ${deltayz} remap units box"
change_box all y delta 0 ${delta} yz delta ${deltayz} remap units box
change_box all y delta 0 9.71861690228599e-06 yz delta ${deltayz} remap units box
change_box all y delta 0 9.71861690228599e-06 yz delta 0 remap units box
Changing box ...
  triclinic box = (-0.10976948 -0.10976948 -0.10976948) to (6.3693085 9.6088571 12.848386) with tilt (0 0 0)
  triclinic box = (-0.10976948 -0.10976948 -0.10976948) to (6.3693085 9.6088571 12.848386) with tilt (0 0 0)
if "${dir} == 3" then    "change_box all z delta 0 ${delta} remap units box"
if "${dir} == 4" then    "change_box all yz delta ${delta} remap units box"
if "${dir} == 5" then    "change_box all xz delta ${delta} remap units box"
if "${dir} == 6" then    "change_box all xy delta ${delta} remap units box"

# Relax atoms positions

minimize ${etol} ${ftol} ${maxiter} ${maxeval}
minimize 0 ${ftol} ${maxiter} ${maxeval}
minimize 0 1e-10 ${maxiter} ${maxeval}
minimize 0 1e-10 1000 ${maxeval}
minimize 0 1e-10 1000 100000
Neighbor list info ...
  update: every = 1 steps, delay = 0 steps, check = yes
  max neighbors/atom: 2000, page size: 100000
  master list distance cutoff = 6
  ghost atom cutoff = 6
  2 neighbor lists, perpetual/occasional/extra = 2 0 0
  (1) pair meam, perpetual
      attributes: full, newton on
      pair build: full/nsq
      stencil: none
      bin: none
  (2) pair meam, perpetual, half/full from (1)
      attributes: half, newton on
      pair build: halffull/newton
      stencil: none
      bin: none
Per MPI rank memory allocation (min/avg/max) = 9.772 | 9.773 | 9.775 Mbytes
   Step          Temp          PotEng         Press           Pxx            Pyy            Pzz            Pxy            Pxz            Pyz             Lx             Ly             Lz           Volume    
         1   0             -280.21814     -1.3373901     -0.94360689    -2.1249596     -0.94360375     1.560395e-05  -1.802533e-05   5.071058e-06   6.4790779      9.7186266      12.958156      815.94578    
         2   0             -280.21814     -1.337461      -0.94366825    -2.1250339     -0.94368093    -1.244087e-06  -2.3997882e-06 -1.8148186e-06  6.4790779      9.7186266      12.958156      815.94578    
         3   0             -280.21814     -1.3374695     -0.94368123    -2.1250431     -0.9436841     -3.4193818e-08 -5.1735766e-07 -8.6514281e-07  6.4790779      9.7186266      12.958156      815.94578    
         4   0             -280.21814     -1.3374714     -0.94368367    -2.1250459     -0.94368471    -7.3304911e-08  2.5132646e-07 -2.8236032e-08  6.4790779      9.7186266      12.958156      815.94578    
         5   0             -280.21814     -1.3374719     -0.9436841     -2.1250469     -0.94368453    -7.1569496e-09 -1.1088634e-08 -2.7533741e-08  6.4790779      9.7186266      12.958156      815.94578    
         6   0             -280.21814     -1.337472      -0.94368427    -2.1250473     -0.94368443     4.1911216e-09  7.106253e-09  -3.6947968e-09  6.4790779      9.7186266      12.958156      815.94578    
         7   0             -280.21814     -1.337472      -0.94368432    -2.1250474     -0.9436844     -8.3065849e-09 -1.0648425e-08 -8.0437067e-10  6.4790779      9.7186266      12.958156      815.94578    
         8   0             -280.21814     -1.337472      -0.94368436    -2.1250474     -0.94368438    -2.2201494e-09  9.5086932e-10  2.9860742e-10  6.4790779      9.7186266      12.958156      815.94578    
         9   0             -280.21814     -1.3374721     -0.94368437    -2.1250474     -0.94368438     1.5593032e-10 -5.1467065e-10  1.1019971e-10  6.4790779      9.7186266      12.958156      815.94578    
        10   0             -280.21814     -1.3374721     -0.94368437    -2.1250474     -0.94368438     2.4132421e-10  2.2930341e-10 -3.2155207e-11  6.4790779      9.7186266      12.958156      815.94578    
        11   0             -280.21814     -1.3374721     -0.94368438    -2.1250474     -0.94368438     3.6862313e-11  2.125684e-11  -5.0576325e-11  6.4790779      9.7186266      12.958156      815.94578    
        12   0             -280.21814     -1.3374721     -0.94368438    -2.1250474     -0.94368438     2.2630659e-12  2.2437113e-11 -2.5342663e-11  6.4790779      9.7186266      12.958156      815.94578    
        13   0             -280.21814     -1.3374721     -0.94368438    -2.1250474     -0.94368438     8.8289043e-12  1.7182939e-11  2.3435151e-11  6.4790779      9.7186266      12.958156      815.94578    
        14   0             -280.21814     -1.3374721     -0.94368438    -2.1250474     -0.94368438    -8.4384153e-12  7.4427041e-12 -1.7004109e-11  6.4790779      9.7186266      12.958156      815.94578    
        15   0             -280.21814     -1.3374721     -0.94368438    -2.1250474     -0.94368438    -4.453568e-12  -5.4892072e-12  3.5861231e-11  6.4790779      9.7186266      12.958156      815.94578    
        16   0             -280.21814     -1.3374721     -0.94368438    -2.1250474     -0.94368438    -2.0059239e-12  3.0366914e-12 -1.248058e-11   6.4790779      9.7186266      12.958156      815.94578    
        17   0             -280.21814     -1.3374721     -0.94368438    -2.1250474     -0.94368438     3.5262918e-12  8.2704282e-12  7.6300491e-13  6.4790779      9.7186266      12.958156      815.94578    
        18   0             -280.21814     -1.3374721     -0.94368438    -2.1250474     -0.94368438    -4.8097473e-12 -3.3381465e-12 -4.7306304e-11  6.4790779      9.7186266      12.958156      815.94578    
        19   0             -280.21814     -1.3374721     -0.94368438    -2.1250474     -0.94368438    -6.2873479e-12  9.2344031e-12 -1.0464067e-11  6.4790779      9.7186266      12.958156      815.94578    
        20   0             -280.21814     -1.3374721     -0.94368438    -2.1250474     -0.94368438     1.4258835e-11  1.5839164e-13 -5.3410343e-11  6.4790779      9.7186266      12.958156      815.94578    
        21   0             -280.21814     -1.3374721     -0.94368438    -2.1250474     -0.94368438     5.1065629e-12 -4.8658594e-12  1.3788589e-11  6.4790779      9.7186266      12.958156      815.94578    
        22   0             -280.21814     -1.3374721     -0.94368438    -2.1250474     -0.94368438     7.3006835e-12 -6.652449e-12  -1.6459106e-11  6.4790779      9.7186266      12.958156      815.94578    
        23   0             -280.21814     -1.3374721     -0.94368438    -2.1250474     -0.94368438     1.5436257e-12 -1.4652079e-11 -8.3385536e-12  6.4790779      9.7186266      12.958156      815.94578    
        24   0             -280.21814     -1.3374721     -0.94368438    -2.1250474     -0.94368438    -8.382078e-12  -2.3537339e-11 -1.869362e-11   6.4790779      9.7186266      12.958156      815.94578    
        25   0             -280.21814     -1.3374721     -0.94368438    -2.1250474     -0.94368438    -1.4913533e-11  1.0048502e-12  5.450035e-13   6.4790779      9.7186266      12.958156      815.94578    
Loop time of 0.00813625 on 4 procs for 24 steps with 48 atoms

0.0% CPU use with 4 MPI tasks x 1 OpenMP threads

Minimization stats:
  Stopping criterion = force tolerance
  Energy initial, next-to-last, final = 
     -280.218139326585  -280.218139351135  -280.218139351135
  Force two-norm initial, final = 0.000816671 6.5972293e-11
  Force max component initial, final = 0.00017562606 1.8365143e-11
  Final line search alpha, max atom move = 1 1.8365143e-11
  Iterations, force evaluations = 24 48

MPI task timing breakdown:
Section |  min time  |  avg time  |  max time  |%varavg| %total
---------------------------------------------------------------
Pair    | 0.006504   | 0.0068758  | 0.007297   |   0.4 | 84.51
Neigh   | 0          | 0          | 0          |   0.0 |  0.00
Comm    | 0.000374   | 0.000796   | 0.001157   |   0.0 |  9.78
Output  | 0.000214   | 0.000224   | 0.000245   |   0.0 |  2.75
Modify  | 0          | 0          | 0          |   0.0 |  0.00
Other   |            | 0.0002405  |            |       |  2.96

Nlocal:             12 ave          14 max           9 min
Histogram: 1 0 0 0 0 0 1 0 1 1
Nghost:            293 ave         296 max         291 min
Histogram: 1 0 1 0 1 0 0 0 0 1
Neighs:            348 ave         416 max         251 min
Histogram: 1 0 0 0 0 0 2 0 0 1
FullNghs:          696 ave         812 max         522 min
Histogram: 1 0 0 0 0 0 1 0 1 1

Total # of neighbors = 2784
Ave neighs/atom = 58
Neighbor list builds = 0
Dangerous builds = 0

# Obtain new stress tensor

variable tmp equal pe
variable e1 equal ${tmp}
variable e1 equal -280.218139351135
variable tmp equal press
variable p1 equal ${tmp}
variable p1 equal -1.33747205571565
variable tmp equal pxx
variable pxx1 equal ${tmp}
variable pxx1 equal -0.943684376259583
variable tmp equal pyy
variable pyy1 equal ${tmp}
variable pyy1 equal -2.12504741463258
variable tmp equal pzz
variable pzz1 equal ${tmp}
variable pzz1 equal -0.943684376254787
variable tmp equal pxy
variable pxy1 equal ${tmp}
variable pxy1 equal -1.49135334159217e-11
variable tmp equal pxz
variable pxz1 equal ${tmp}
variable pxz1 equal 1.00485021156024e-12
variable tmp equal pyz
variable pyz1 equal ${tmp}
variable pyz1 equal 5.45003504575048e-13

# Compute elastic constant from pressure tensor

variable C1pos equal ${d1}
variable C1pos equal 94.3684376254259
variable C2pos equal ${d2}
variable C2pos equal 212.504741487132
variable C3pos equal ${d3}
variable C3pos equal 94.3684376245887
variable C4pos equal ${d4}
variable C4pos equal -2.73915623592835e-09
variable C5pos equal ${d5}
variable C5pos equal -2.01221446037691e-09
variable C6pos equal ${d6}
variable C6pos equal 4.31939212838769e-09

# Combine positive and negative

variable C1${dir} equal 0.5*(${C1neg}+${C1pos})
variable C12 equal 0.5*(${C1neg}+${C1pos})
variable C12 equal 0.5*(94.3688774698436+${C1pos})
variable C12 equal 0.5*(94.3688774698436+94.3684376254259)
variable C2${dir} equal 0.5*(${C2neg}+${C2pos})
variable C22 equal 0.5*(${C2neg}+${C2pos})
variable C22 equal 0.5*(212.506137355009+${C2pos})
variable C22 equal 0.5*(212.506137355009+212.504741487132)
variable C3${dir} equal 0.5*(${C3neg}+${C3pos})
variable C32 equal 0.5*(${C3neg}+${C3pos})
variable C32 equal 0.5*(94.3688774750408+${C3pos})
variable C32 equal 0.5*(94.3688774750408+94.3684376245887)
variable C4${dir} equal 0.5*(${C4neg}+${C4pos})
variable C42 equal 0.5*(${C4neg}+${C4pos})
variable C42 equal 0.5*(4.9627750908284e-09+${C4pos})
variable C42 equal 0.5*(4.9627750908284e-09+-2.73915623592835e-09)
variable C5${dir} equal 0.5*(${C5neg}+${C5pos})
variable C52 equal 0.5*(${C5neg}+${C5pos})
variable C52 equal 0.5*(2.64050277054004e-09+${C5pos})
variable C52 equal 0.5*(2.64050277054004e-09+-2.01221446037691e-09)
variable C6${dir} equal 0.5*(${C6neg}+${C6pos})
variable C62 equal 0.5*(${C6neg}+${C6pos})
variable C62 equal 0.5*(-2.5992102580143e-09+${C6pos})
variable C62 equal 0.5*(-2.5992102580143e-09+4.31939212838769e-09)

# Delete dir to make sure it is not reused

variable dir delete

# uzz Perturbation

variable dir equal 3
include displace.mod
# NOTE: This script should not need to be
# modified. See in.elastic for more info.
#
# Find which reference length to use

if "${dir} == 1" then    "variable len0 equal ${lx0}"
if "${dir} == 2" then    "variable len0 equal ${ly0}"
if "${dir} == 3" then    "variable len0 equal ${lz0}"
variable len0 equal ${lz0}
variable len0 equal 12.9581558697147
if "${dir} == 4" then    "variable len0 equal ${lz0}"
if "${dir} == 5" then    "variable len0 equal ${lz0}"
if "${dir} == 6" then    "variable len0 equal ${ly0}"

# Reset box and simulation parameters

clear
  using 1 OpenMP thread(s) per MPI task
Loaded 1 plugins from C:\Program Files\LAMMPS 64-bit 23Jun2022\plugins
Loaded 0 plugins from C:\Program Files\LAMMPS 64-bit 23Jun2022-MPI\plugins
Loaded 1 plugins from C:\Program Files\LAMMPS 64-bit 22Dec2022-MSMPI\plugins
Loaded 1 plugins from C:\Program Files\LAMMPS 64-bit 28Mar2023-MPI\plugins
box tilt large

The 'box' command has been removed and will be ignored

read_restart restart.equil
Reading restart file ...
  restart file = 22 Dec 2022, LAMMPS = 22 Dec 2022
  restoring atom style atomic from restart
  triclinic box = (-0.10976948 -0.10976948 -0.10976948) to (6.3693085 9.6088474 12.848386) with tilt (0 0 0)
  1 by 2 by 2 MPI processor grid
  pair style meam stores no restart info
  48 atoms
  read_restart CPU = 0.000 seconds
include potential.mod
# NOTE: This script can be modified for different pair styles
# See in.elastic for more info.

# Choose potential
#-----------------------
#pair_style	sw
#pair_coeff * * Si.sw Si
#-----------------------
#pair_style morse	2.83994742	# D0[eV] a[1/A] r0[A] rc[A], 1NN for BCC
#pair_coeff 1 1	2.1173	1.0202	2.4595	2.6497	#	Fe-Fe
#-----------------------
#pair_style smatb # R0(A)   p       q     A(eV)   xi(eV)  Rcs(A)   Rc(A), 4NN: Rcs=4NN, Rc=(4NN+5NN)/2
#pair_coeff 1 1	2.4802	7.0149	2.3779	0.3144	3.0551	4.033	4.176	#	Co	Co
#-----------------------
#pair_style eam/alloy
#pair_coeff * * AlCrFeCoNi_Zhou04.eam.alloy Fe
#-----------------------
pair_style meam
#pair_coeff * * ./../../library.meam Ni Ti Hf ./../../NiTiHf.meam Ni Ti
pair_coeff * * ./../../library.meam Ni Ti Hf ./../../NiTiHf.meam Ni Hf
#pair_coeff * * ./../../library.meam Ni Ti Hf ./../../NiTiHf.meam Ti Hf
#-----------------------

# Setup neighbor style
neighbor 1.0 nsq
neigh_modify once no every 1 delay 0 check yes

# Setup minimization style
min_style	     cg
min_modify	     dmax ${dmax} line quadratic
min_modify	     dmax 0.01 line quadratic

# Setup output
thermo		1
thermo_style custom step temp pe press pxx pyy pzz pxy pxz pyz lx ly lz vol
thermo_modify norm no

# Negative deformation

variable delta equal -${up}*${len0}
variable delta equal -1e-06*${len0}
variable delta equal -1e-06*12.9581558697147
variable deltaxy equal -${up}*xy
variable deltaxy equal -1e-06*xy
variable deltaxz equal -${up}*xz
variable deltaxz equal -1e-06*xz
variable deltayz equal -${up}*yz
variable deltayz equal -1e-06*yz
if "${dir} == 1" then    "change_box all x delta 0 ${delta} xy delta ${deltaxy} xz delta ${deltaxz} remap units box"
if "${dir} == 2" then    "change_box all y delta 0 ${delta} yz delta ${deltayz} remap units box"
if "${dir} == 3" then    "change_box all z delta 0 ${delta} remap units box"
change_box all z delta 0 ${delta} remap units box
change_box all z delta 0 -1.29581558697147e-05 remap units box
Changing box ...
  triclinic box = (-0.10976948 -0.10976948 -0.10976948) to (6.3693085 9.6088474 12.848373) with tilt (0 0 0)
if "${dir} == 4" then    "change_box all yz delta ${delta} remap units box"
if "${dir} == 5" then    "change_box all xz delta ${delta} remap units box"
if "${dir} == 6" then    "change_box all xy delta ${delta} remap units box"

# Relax atoms positions

minimize ${etol} ${ftol} ${maxiter} ${maxeval}
minimize 0 ${ftol} ${maxiter} ${maxeval}
minimize 0 1e-10 ${maxiter} ${maxeval}
minimize 0 1e-10 1000 ${maxeval}
minimize 0 1e-10 1000 100000
Neighbor list info ...
  update: every = 1 steps, delay = 0 steps, check = yes
  max neighbors/atom: 2000, page size: 100000
  master list distance cutoff = 6
  ghost atom cutoff = 6
  2 neighbor lists, perpetual/occasional/extra = 2 0 0
  (1) pair meam, perpetual
      attributes: full, newton on
      pair build: full/nsq
      stencil: none
      bin: none
  (2) pair meam, perpetual, half/full from (1)
      attributes: half, newton on
      pair build: halffull/newton
      stencil: none
      bin: none
Per MPI rank memory allocation (min/avg/max) = 9.772 | 9.773 | 9.775 Mbytes
   Step          Temp          PotEng         Press           Pxx            Pyy            Pzz            Pxy            Pxz            Pyz             Lx             Ly             Lz           Volume    
         1   0             -280.21814      1.3375616      0.94376626     0.94377656     2.125142       1.560396e-05  -1.8025276e-05  5.0710557e-06  6.4790779      9.7186169      12.958143      815.94415    
         2   0             -280.21814      1.3374907      0.9437049      0.94370228     2.1250648     -1.2440827e-06 -2.3997566e-06 -1.8148687e-06  6.4790779      9.7186169      12.958143      815.94415    
         3   0             -280.21814      1.3374822      0.94369192     0.94369313     2.1250617     -3.4197021e-08 -5.1738048e-07 -8.6514765e-07  6.4790779      9.7186169      12.958143      815.94415    
         4   0             -280.21814      1.3374803      0.94368948     0.94369026     2.125061      -7.3239204e-08  2.5131862e-07 -2.8251621e-08  6.4790779      9.7186169      12.958143      815.94415    
         5   0             -280.21814      1.3374798      0.94368905     0.94368924     2.1250612     -7.1546745e-09 -1.1074623e-08 -2.7571074e-08  6.4790779      9.7186169      12.958143      815.94415    
         6   0             -280.21814      1.3374797      0.94368889     0.9436889      2.1250613      4.2196313e-09  7.1219651e-09 -3.7145878e-09  6.4790779      9.7186169      12.958143      815.94415    
         7   0             -280.21814      1.3374797      0.94368883     0.9436888      2.1250614     -8.3043467e-09 -1.0650449e-08 -8.0061175e-10  6.4790779      9.7186169      12.958143      815.94415    
         8   0             -280.21814      1.3374796      0.94368879     0.94368878     2.1250614     -2.1930241e-09  9.1972421e-10  2.5538915e-10  6.4790779      9.7186169      12.958143      815.94415    
         9   0             -280.21814      1.3374796      0.94368878     0.94368878     2.1250614      1.2607307e-10 -5.4092558e-10  8.425771e-11   6.4790779      9.7186169      12.958143      815.94415    
        10   0             -280.21814      1.3374796      0.94368878     0.94368878     2.1250614      2.6121438e-10  2.5011453e-10  2.1582182e-11  6.4790779      9.7186169      12.958143      815.94415    
        11   0             -280.21814      1.3374796      0.94368878     0.94368878     2.1250614      7.6086864e-11  3.00008e-11   -7.5265135e-11  6.4790779      9.7186169      12.958143      815.94415    
        12   0             -280.21814      1.3374796      0.94368877     0.94368877     2.1250614     -3.1836486e-12 -5.4500459e-12 -1.2262603e-11  6.4790779      9.7186169      12.958143      815.94415    
        13   0             -280.21814      1.3374796      0.94368877     0.94368877     2.1250614      1.4162109e-11 -2.5984797e-11 -1.1990101e-12  6.4790779      9.7186169      12.958143      815.94415    
        14   0             -280.21814      1.3374796      0.94368877     0.94368877     2.1250614      1.8584734e-11  3.3057935e-12 -1.662264e-11   6.4790779      9.7186169      12.958143      815.94415    
        15   0             -280.21814      1.3374796      0.94368877     0.94368877     2.1250614     -7.8181063e-12  8.7950116e-12 -9.4830799e-12  6.4790779      9.7186169      12.958143      815.94415    
        16   0             -280.21814      1.3374796      0.94368877     0.94368877     2.1250614      1.4826153e-12 -3.7980008e-11  3.4335289e-11  6.4790779      9.7186169      12.958143      815.94415    
        17   0             -280.21814      1.3374796      0.94368877     0.94368877     2.1250614      2.7477561e-12 -1.5059158e-11 -2.250869e-11   6.4790779      9.7186169      12.958143      815.94415    
        18   0             -280.21814      1.3374796      0.94368877     0.94368877     2.1250614      1.944099e-11   4.2697704e-12  1.422462e-11   6.4790779      9.7186169      12.958143      815.94415    
        19   0             -280.21814      1.3374796      0.94368877     0.94368877     2.1250614      9.6319668e-12  1.0297181e-11 -1.0573089e-11  6.4790779      9.7186169      12.958143      815.94415    
        20   0             -280.21814      1.3374796      0.94368877     0.94368877     2.1250614     -6.3908659e-12 -8.4628995e-12 -1.1772099e-11  6.4790779      9.7186169      12.958143      815.94415    
        21   0             -280.21814      1.3374796      0.94368877     0.94368877     2.1250614     -1.0824766e-11  4.7074772e-12  2.4525207e-12  6.4790779      9.7186169      12.958143      815.94415    
        22   0             -280.21814      1.3374796      0.94368877     0.94368877     2.1250614     -9.1155267e-12  5.1230432e-12 -2.3544198e-11  6.4790779      9.7186169      12.958143      815.94415    
        23   0             -280.21814      1.3374796      0.94368877     0.94368877     2.1250614     -1.0428193e-11 -1.3706866e-11 -5.1775436e-12  6.4790779      9.7186169      12.958143      815.94415    
        24   0             -280.21814      1.3374796      0.94368877     0.94368877     2.1250614     -8.640325e-12   3.8490949e-12 -5.8860496e-12  6.4790779      9.7186169      12.958143      815.94415    
        25   0             -280.21814      1.3374796      0.94368877     0.94368877     2.1250614      2.5600547e-12  9.1475615e-12  1.4606123e-11  6.4790779      9.7186169      12.958143      815.94415    
Loop time of 0.008991 on 4 procs for 24 steps with 48 atoms

43.4% CPU use with 4 MPI tasks x 1 OpenMP threads

Minimization stats:
  Stopping criterion = force tolerance
  Energy initial, next-to-last, final = 
     -280.218139326585  -280.218139351135  -280.218139351135
  Force two-norm initial, final = 0.00081667472 6.7641093e-11
  Force max component initial, final = 0.00017562703 1.8014451e-11
  Final line search alpha, max atom move = 1 1.8014451e-11
  Iterations, force evaluations = 24 48

MPI task timing breakdown:
Section |  min time  |  avg time  |  max time  |%varavg| %total
---------------------------------------------------------------
Pair    | 0.006991   | 0.0074887  | 0.00794    |   0.5 | 83.29
Neigh   | 0          | 0          | 0          |   0.0 |  0.00
Comm    | 0.000458   | 0.0009015  | 0.001403   |   0.0 | 10.03
Output  | 0.000219   | 0.00025175 | 0.000285   |   0.0 |  2.80
Modify  | 0          | 0          | 0          |   0.0 |  0.00
Other   |            | 0.000349   |            |       |  3.88

Nlocal:             12 ave          14 max           9 min
Histogram: 1 0 0 0 0 0 1 0 1 1
Nghost:            293 ave         296 max         291 min
Histogram: 1 0 1 0 1 0 0 0 0 1
Neighs:            348 ave         416 max         251 min
Histogram: 1 0 0 0 0 0 2 0 0 1
FullNghs:          696 ave         812 max         522 min
Histogram: 1 0 0 0 0 0 1 0 1 1

Total # of neighbors = 2784
Ave neighs/atom = 58
Neighbor list builds = 0
Dangerous builds = 0

# Obtain new stress tensor

variable tmp equal pxx
variable pxx1 equal ${tmp}
variable pxx1 equal 0.943688774775517
variable tmp equal pyy
variable pyy1 equal ${tmp}
variable pyy1 equal 0.943688774939454
variable tmp equal pzz
variable pzz1 equal ${tmp}
variable pzz1 equal 2.12506137376441
variable tmp equal pxy
variable pxy1 equal ${tmp}
variable pxy1 equal 2.56005466683897e-12
variable tmp equal pxz
variable pxz1 equal ${tmp}
variable pxz1 equal 9.1475614922065e-12
variable tmp equal pyz
variable pyz1 equal ${tmp}
variable pyz1 equal 1.46061231348283e-11

# Compute elastic constant from pressure tensor

variable C1neg equal ${d1}
variable C1neg equal 94.3688774780841
variable C2neg equal ${d2}
variable C2neg equal 94.368877470071
variable C3neg equal ${d3}
variable C3neg equal 212.506137377331
variable C4neg equal ${d4}
variable C4neg equal 4.14526819895368e-09
variable C5neg equal ${d5}
variable C5neg equal 2.82648558844154e-09
variable C6neg equal ${d6}
variable C6neg equal -2.57203332011162e-09

# Reset box and simulation parameters

clear
  using 1 OpenMP thread(s) per MPI task
Loaded 1 plugins from C:\Program Files\LAMMPS 64-bit 23Jun2022\plugins
Loaded 0 plugins from C:\Program Files\LAMMPS 64-bit 23Jun2022-MPI\plugins
Loaded 1 plugins from C:\Program Files\LAMMPS 64-bit 22Dec2022-MSMPI\plugins
Loaded 1 plugins from C:\Program Files\LAMMPS 64-bit 28Mar2023-MPI\plugins
box tilt large

The 'box' command has been removed and will be ignored

read_restart restart.equil
Reading restart file ...
  restart file = 22 Dec 2022, LAMMPS = 22 Dec 2022
  restoring atom style atomic from restart
  triclinic box = (-0.10976948 -0.10976948 -0.10976948) to (6.3693085 9.6088474 12.848386) with tilt (0 0 0)
  1 by 2 by 2 MPI processor grid
  pair style meam stores no restart info
  48 atoms
  read_restart CPU = 0.000 seconds
include potential.mod
# NOTE: This script can be modified for different pair styles
# See in.elastic for more info.

# Choose potential
#-----------------------
#pair_style	sw
#pair_coeff * * Si.sw Si
#-----------------------
#pair_style morse	2.83994742	# D0[eV] a[1/A] r0[A] rc[A], 1NN for BCC
#pair_coeff 1 1	2.1173	1.0202	2.4595	2.6497	#	Fe-Fe
#-----------------------
#pair_style smatb # R0(A)   p       q     A(eV)   xi(eV)  Rcs(A)   Rc(A), 4NN: Rcs=4NN, Rc=(4NN+5NN)/2
#pair_coeff 1 1	2.4802	7.0149	2.3779	0.3144	3.0551	4.033	4.176	#	Co	Co
#-----------------------
#pair_style eam/alloy
#pair_coeff * * AlCrFeCoNi_Zhou04.eam.alloy Fe
#-----------------------
pair_style meam
#pair_coeff * * ./../../library.meam Ni Ti Hf ./../../NiTiHf.meam Ni Ti
pair_coeff * * ./../../library.meam Ni Ti Hf ./../../NiTiHf.meam Ni Hf
#pair_coeff * * ./../../library.meam Ni Ti Hf ./../../NiTiHf.meam Ti Hf
#-----------------------

# Setup neighbor style
neighbor 1.0 nsq
neigh_modify once no every 1 delay 0 check yes

# Setup minimization style
min_style	     cg
min_modify	     dmax ${dmax} line quadratic
min_modify	     dmax 0.01 line quadratic

# Setup output
thermo		1
thermo_style custom step temp pe press pxx pyy pzz pxy pxz pyz lx ly lz vol
thermo_modify norm no

[...]
pair_coeff * * ./../../library.meam Ni Ti Hf ./../../NiTiHf.meam Ni Hf
#pair_coeff * * ./../../library.meam Ni Ti Hf ./../../NiTiHf.meam Ti Hf
#-----------------------

# Setup neighbor style
neighbor 1.0 nsq
neigh_modify once no every 1 delay 0 check yes

# Setup minimization style
min_style	     cg
min_modify	     dmax ${dmax} line quadratic
min_modify	     dmax 0.01 line quadratic

# Setup output
thermo		1
thermo_style custom step temp pe press pxx pyy pzz pxy pxz pyz lx ly lz vol
thermo_modify norm no

# Positive deformation

variable delta equal ${up}*${len0}
variable delta equal 1e-06*${len0}
variable delta equal 1e-06*9.71861690228599
variable deltaxy equal ${up}*xy
variable deltaxy equal 1e-06*xy
variable deltaxz equal ${up}*xz
variable deltaxz equal 1e-06*xz
variable deltayz equal ${up}*yz
variable deltayz equal 1e-06*yz
if "${dir} == 1" then    "change_box all x delta 0 ${delta} xy delta ${deltaxy} xz delta ${deltaxz} remap units box"
if "${dir} == 2" then    "change_box all y delta 0 ${delta} yz delta ${deltayz} remap units box"
if "${dir} == 3" then    "change_box all z delta 0 ${delta} remap units box"
if "${dir} == 4" then    "change_box all yz delta ${delta} remap units box"
if "${dir} == 5" then    "change_box all xz delta ${delta} remap units box"
if "${dir} == 6" then    "change_box all xy delta ${delta} remap units box"
change_box all xy delta ${delta} remap units box
change_box all xy delta 9.71861690228599e-06 remap units box
Changing box ...
  triclinic box = (-0.10976948 -0.10976948 -0.10976948) to (6.3693085 9.6088474 12.848386) with tilt (9.7186169e-06 0 0)

# Relax atoms positions

minimize ${etol} ${ftol} ${maxiter} ${maxeval}
minimize 0 ${ftol} ${maxiter} ${maxeval}
minimize 0 1e-10 ${maxiter} ${maxeval}
minimize 0 1e-10 1000 ${maxeval}
minimize 0 1e-10 1000 100000
Neighbor list info ...
  update: every = 1 steps, delay = 0 steps, check = yes
  max neighbors/atom: 2000, page size: 100000
  master list distance cutoff = 6
  ghost atom cutoff = 6
  2 neighbor lists, perpetual/occasional/extra = 2 0 0
  (1) pair meam, perpetual
      attributes: full, newton on
      pair build: full/nsq
      stencil: none
      bin: none
  (2) pair meam, perpetual, half/full from (1)
      attributes: half, newton on
      pair build: halffull/newton
      stencil: none
      bin: none
Per MPI rank memory allocation (min/avg/max) = 9.772 | 9.773 | 9.775 Mbytes
   Step          Temp          PotEng         Press           Pxx            Pyy            Pzz            Pxy            Pxz            Pyz             Lx             Ly             Lz           Volume    
         1   0             -280.21814      8.2641729e-05  7.7263708e-05  8.8948135e-05  8.1713345e-05 -0.98634531    -1.8025415e-05  5.0710693e-06  6.4790779      9.7186169      12.958156      815.94496    
         2   0             -280.21814      1.1699472e-05  1.5908759e-05  1.4663795e-05  4.5258606e-06 -0.98636216    -2.399786e-06  -1.8148745e-06  6.4790779      9.7186169      12.958156      815.94496    
         3   0             -280.21814      3.2680113e-06  2.9287201e-06  5.5153329e-06  1.3599809e-06 -0.98636095    -5.1736219e-07 -8.6513948e-07  6.4790779      9.7186169      12.958156      815.94496    
         4   0             -280.21814      1.2937152e-06  4.8800404e-07  2.6426017e-06  7.505399e-07  -0.98636099     2.5131026e-07 -2.8240475e-08  6.4790779      9.7186169      12.958156      815.94496    
         5   0             -280.21814      8.7357391e-07  5.5632269e-08  1.6315607e-06  9.3352872e-07 -0.98636092    -1.1055525e-08 -2.7554969e-08  6.4790779      9.7186169      12.958156      815.94496    
         6   0             -280.21814      7.3395928e-07 -1.0940062e-07  1.2861276e-06  1.0251509e-06 -0.98636091     7.1644018e-09 -3.705646e-09   6.4790779      9.7186169      12.958156      815.94496    
         7   0             -280.21814      6.936563e-07  -1.6283675e-07  1.1830617e-06  1.060744e-06  -0.98636092    -1.0681306e-08 -8.3625421e-10  6.4790779      9.7186169      12.958156      815.94496    
         8   0             -280.21814      6.8125172e-07 -2.0450078e-07  1.1669348e-06  1.0813212e-06 -0.98636092     9.2330328e-10  2.6688848e-10  6.4790779      9.7186169      12.958156      815.94496    
         9   0             -280.21814      6.761438e-07  -2.1548457e-07  1.1623951e-06  1.0815209e-06 -0.98636091    -5.448712e-10   7.8698585e-11  6.4790779      9.7186169      12.958156      815.94496    
        10   0             -280.21814      6.7521366e-07 -2.1859284e-07  1.1623149e-06  1.0819189e-06 -0.98636091     2.5999078e-10  1.0573079e-11  6.4790779      9.7186169      12.958156      815.94496    
        11   0             -280.21814      6.7486732e-07 -2.1992091e-07  1.161912e-06   1.0826109e-06 -0.98636091     2.2925936e-11 -2.6596198e-11  6.4790779      9.7186169      12.958156      815.94496    
        12   0             -280.21814      6.746935e-07  -2.2039615e-07  1.1617254e-06  1.0827513e-06 -0.98636091     4.3600324e-12 -3.8259284e-11  6.4790779      9.7186169      12.958156      815.94496    
        13   0             -280.21814      6.7470426e-07 -2.2047419e-07  1.1617289e-06  1.0828581e-06 -0.98636091     2.8016614e-12 -3.1882737e-11  6.4790779      9.7186169      12.958156      815.94496    
        14   0             -280.21814      6.7468275e-07 -2.2051343e-07  1.1616731e-06  1.0828886e-06 -0.98636091    -5.926919e-12  -2.1255158e-11  6.4790779      9.7186169      12.958156      815.94496    
        15   0             -280.21814      6.74622e-07   -2.2057229e-07  1.1616312e-06  1.0828071e-06 -0.98636091    -1.5314614e-11 -5.2320389e-12  6.4790779      9.7186169      12.958156      815.94496    
        16   0             -280.21814      6.7462534e-07 -2.2058407e-07  1.1616399e-06  1.0828201e-06 -0.98636091     2.9259905e-12  2.9430219e-12  6.4790779      9.7186169      12.958156      815.94496    
        17   0             -280.21814      6.7462476e-07 -2.205784e-07   1.1616051e-06  1.0828476e-06 -0.98636091     1.332024e-11  -2.1691161e-11  6.4790779      9.7186169      12.958156      815.94496    
        18   0             -280.21814      6.746143e-07  -2.2058756e-07  1.1616086e-06  1.0828219e-06 -0.98636091    -1.5490037e-11 -1.3843103e-11  6.4790779      9.7186169      12.958156      815.94496    
        19   0             -280.21814      6.7468725e-07 -2.2053611e-07  1.1617045e-06  1.0828934e-06 -0.98636091    -3.2598055e-12 -1.6241121e-11  6.4790779      9.7186169      12.958156      815.94496    
        20   0             -280.21814      6.7468784e-07 -2.2052521e-07  1.1616713e-06  1.0829174e-06 -0.98636091     1.7622365e-11  3.6515271e-12  6.4790779      9.7186169      12.958156      815.94496    
        21   0             -280.21814      6.7461967e-07 -2.2057753e-07  1.1616225e-06  1.082814e-06  -0.98636091    -1.4040667e-11 -1.5859618e-11  6.4790779      9.7186169      12.958156      815.94496    
        22   0             -280.21814      6.7471036e-07 -2.2050689e-07  1.1617149e-06  1.082923e-06  -0.98636091     1.0021262e-11 -8.1750607e-13  6.4790779      9.7186169      12.958156      815.94496    
        23   0             -280.21814      6.7462883e-07 -2.2058276e-07  1.1616504e-06  1.0828188e-06 -0.98636091     2.4899873e-12 -2.4525182e-12  6.4790779      9.7186169      12.958156      815.94496    
        24   0             -280.21814      6.7461415e-07 -2.2056793e-07  1.1615684e-06  1.0828419e-06 -0.98636091    -1.0079169e-11 -3.9240292e-12  6.4790779      9.7186169      12.958156      815.94496    
        25   0             -280.21814      6.7466836e-07 -2.2049512e-07  1.1616452e-06  1.082855e-06  -0.98636091    -5.6067292e-12 -4.3600324e-13  6.4790779      9.7186169      12.958156      815.94496    
Loop time of 0.007889 on 4 procs for 24 steps with 48 atoms

0.0% CPU use with 4 MPI tasks x 1 OpenMP threads

Minimization stats:
  Stopping criterion = force tolerance
  Energy initial, next-to-last, final = 
     -280.218139326875  -280.218139351425  -280.218139351425
  Force two-norm initial, final = 0.00081667247 6.5973841e-11
  Force max component initial, final = 0.00017562622 1.8360202e-11
  Final line search alpha, max atom move = 1 1.8360202e-11
  Iterations, force evaluations = 24 48

MPI task timing breakdown:
Section |  min time  |  avg time  |  max time  |%varavg| %total
---------------------------------------------------------------
Pair    | 0.006345   | 0.006751   | 0.007088   |   0.4 | 85.57
Neigh   | 0          | 0          | 0          |   0.0 |  0.00
Comm    | 0.000369   | 0.00069925 | 0.001097   |   0.0 |  8.86
Output  | 0.000216   | 0.00022475 | 0.00024    |   0.0 |  2.85
Modify  | 0          | 0          | 0          |   0.0 |  0.00
Other   |            | 0.000214   |            |       |  2.71

Nlocal:             12 ave          14 max           9 min
Histogram: 1 0 0 0 0 0 1 0 1 1
Nghost:            293 ave         296 max         291 min
Histogram: 1 0 1 0 1 0 0 0 0 1
Neighs:            348 ave         416 max         251 min
Histogram: 1 0 0 0 0 0 2 0 0 1
FullNghs:          696 ave         812 max         522 min
Histogram: 1 0 0 0 0 0 1 0 1 1

Total # of neighbors = 2784
Ave neighs/atom = 58
Neighbor list builds = 0
Dangerous builds = 0

# Obtain new stress tensor

variable tmp equal pe
variable e1 equal ${tmp}
variable e1 equal -280.218139351425
variable tmp equal press
variable p1 equal ${tmp}
variable p1 equal 6.74668361031604e-07
variable tmp equal pxx
variable pxx1 equal ${tmp}
variable pxx1 equal -2.20495122359053e-07
variable tmp equal pyy
variable pyy1 equal ${tmp}
variable pyy1 equal 1.16164517544667e-06
variable tmp equal pzz
variable pzz1 equal ${tmp}
variable pzz1 equal 1.0828550300072e-06
variable tmp equal pxy
variable pxy1 equal ${tmp}
variable pxy1 equal -0.986360914935196
variable tmp equal pxz
variable pxz1 equal ${tmp}
variable pxz1 equal -5.60672916003936e-12
variable tmp equal pyz
variable pyz1 equal ${tmp}
variable pyz1 equal -4.36003239662842e-13

# Compute elastic constant from pressure tensor

variable C1pos equal ${d1}
variable C1pos equal 2.20489798448519e-05
variable C2pos equal ${d2}
variable C2pos equal -0.000116140643110045
variable C3pos equal ${d3}
variable C3pos equal -0.000108286392975302
variable C4pos equal ${d4}
variable C4pos equal -2.64105556150457e-09
variable C5pos equal ${d5}
variable C5pos equal -1.35105652321695e-09
variable C6pos equal ${d6}
variable C6pos equal 98.6360914963476

# Combine positive and negative

variable C1${dir} equal 0.5*(${C1neg}+${C1pos})
variable C16 equal 0.5*(${C1neg}+${C1pos})
variable C16 equal 0.5*(-2.20576999096451e-05+${C1pos})
variable C16 equal 0.5*(-2.20576999096451e-05+2.20489798448519e-05)
variable C2${dir} equal 0.5*(${C2neg}+${C2pos})
variable C26 equal 0.5*(${C2neg}+${C2pos})
variable C26 equal 0.5*(0.000116131748643956+${C2pos})
variable C26 equal 0.5*(0.000116131748643956+-0.000116140643110045)
variable C3${dir} equal 0.5*(${C3neg}+${C3pos})
variable C36 equal 0.5*(${C3neg}+${C3pos})
variable C36 equal 0.5*(0.000108281422538369+${C3pos})
variable C36 equal 0.5*(0.000108281422538369+-0.000108286392975302)
variable C4${dir} equal 0.5*(${C4neg}+${C4pos})
variable C46 equal 0.5*(${C4neg}+${C4pos})
variable C46 equal 0.5*(4.23246738627394e-09+${C4pos})
variable C46 equal 0.5*(4.23246738627394e-09+-2.64105556150457e-09)
variable C5${dir} equal 0.5*(${C5neg}+${C5pos})
variable C56 equal 0.5*(${C5neg}+${C5pos})
variable C56 equal 0.5*(1.85978374074543e-09+${C5pos})
variable C56 equal 0.5*(1.85978374074543e-09+-1.35105652321695e-09)
variable C6${dir} equal 0.5*(${C6neg}+${C6pos})
variable C66 equal 0.5*(${C6neg}+${C6pos})
variable C66 equal 0.5*(98.6360914882032+${C6pos})
variable C66 equal 0.5*(98.6360914882032+98.6360914963476)

# Delete dir to make sure it is not reused

variable dir delete

# Output final values

variable C11all equal ${C11}
variable C11all equal 212.505439437072
variable C22all equal ${C22}
variable C22all equal 212.50543942107
variable C33all equal ${C33}
variable C33all equal 212.505439436941

variable C12all equal 0.5*(${C12}+${C21})
variable C12all equal 0.5*(94.3686575476347+${C21})
variable C12all equal 0.5*(94.3686575476347+94.3686575578372)
variable C13all equal 0.5*(${C13}+${C31})
variable C13all equal 0.5*(94.3686575566819+${C31})
variable C13all equal 0.5*(94.3686575566819+94.3686575595377)
variable C23all equal 0.5*(${C23}+${C32})
variable C23all equal 0.5*(94.3686575591453+${C32})
variable C23all equal 0.5*(94.3686575591453+94.3686575498147)

variable C44all equal ${C44}
variable C44all equal 98.6360914942858
variable C55all equal ${C55}
variable C55all equal 98.6360914918265
variable C66all equal ${C66}
variable C66all equal 98.6360914922754

variable C14all equal 0.5*(${C14}+${C41})
variable C14all equal 0.5*(2.0274150644992e-09+${C41})
variable C14all equal 0.5*(2.0274150644992e-09+-3.86953501955815e-10)
variable C15all equal 0.5*(${C15}+${C51})
variable C15all equal 0.5*(2.04921522640138e-09+${C51})
variable C15all equal 0.5*(2.04921522640138e-09+-1.3966050322855e-11)
variable C16all equal 0.5*(${C16}+${C61})
variable C16all equal 0.5*(-4.36003239659965e-09+${C61})
variable C16all equal 0.5*(-4.36003239659965e-09+6.65532980578565e-10)

variable C24all equal 0.5*(${C24}+${C42})
variable C24all equal 0.5*(-7.84805831400846e-10+${C42})
variable C24all equal 0.5*(-7.84805831400846e-10+1.11180942745002e-09)
variable C25all equal 0.5*(${C25}+${C52})
variable C25all equal 0.5*(4.36003239500553e-10+${C52})
variable C25all equal 0.5*(4.36003239500553e-10+3.14144155081565e-10)
variable C26all equal 0.5*(${C26}+${C62})
variable C26all equal 0.5*(-4.44723304450484e-09+${C62})
variable C26all equal 0.5*(-4.44723304450484e-09+8.60090935186695e-10)

variable C34all equal 0.5*(${C34}+${C43})
variable C34all equal 0.5*(6.23484632749727e-09+${C43})
variable C34all equal 0.5*(6.23484632749727e-09+2.67324365055146e-09)
variable C35all equal 0.5*(${C35}+${C53})
variable C35all equal 0.5*(2.81222089599999e-09+${C53})
variable C35all equal 0.5*(2.81222089599999e-09+6.9070770000652e-10)
variable C36all equal 0.5*(${C36}+${C63})
variable C36all equal 0.5*(-2.48521846649824e-09+${C63})
variable C36all equal 0.5*(-2.48521846649824e-09+-1.31113983312445e-10)

variable C45all equal 0.5*(${C45}+${C54})
variable C45all equal 0.5*(-1.24533425328699e-09+${C54})
variable C45all equal 0.5*(-1.24533425328699e-09+-9.5571569506564e-10)
variable C46all equal 0.5*(${C46}+${C64})
variable C46all equal 0.5*(7.95705912384685e-10+${C64})
variable C46all equal 0.5*(7.95705912384685e-10+2.35057866723005e-12)
variable C56all equal 0.5*(${C56}+${C65})
variable C56all equal 0.5*(2.5436360876424e-10+${C65})
variable C56all equal 0.5*(2.5436360876424e-10+7.77992184396149e-11)

# Average moduli for cubic crystals

variable C11cubic equal (${C11all}+${C22all}+${C33all})/3.0
variable C11cubic equal (212.505439437072+${C22all}+${C33all})/3.0
variable C11cubic equal (212.505439437072+212.50543942107+${C33all})/3.0
variable C11cubic equal (212.505439437072+212.50543942107+212.505439436941)/3.0
variable C12cubic equal (${C12all}+${C13all}+${C23all})/3.0
variable C12cubic equal (94.368657552736+${C13all}+${C23all})/3.0
variable C12cubic equal (94.368657552736+94.3686575581098+${C23all})/3.0
variable C12cubic equal (94.368657552736+94.3686575581098+94.36865755448)/3.0
variable C44cubic equal (${C44all}+${C55all}+${C66all})/3.0
variable C44cubic equal (98.6360914942858+${C55all}+${C66all})/3.0
variable C44cubic equal (98.6360914942858+98.6360914918265+${C66all})/3.0
variable C44cubic equal (98.6360914942858+98.6360914918265+98.6360914922754)/3.0

variable bulkmodulus equal (${C11cubic}+2*${C12cubic})/3.0
variable bulkmodulus equal (212.505439431694+2*${C12cubic})/3.0
variable bulkmodulus equal (212.505439431694+2*94.3686575551086)/3.0
variable shearmodulus1 equal ${C44cubic}
variable shearmodulus1 equal 98.6360914927959
variable shearmodulus2 equal (${C11cubic}-${C12cubic})/2.0
variable shearmodulus2 equal (212.505439431694-${C12cubic})/2.0
variable shearmodulus2 equal (212.505439431694-94.3686575551086)/2.0
variable poissonratio equal 1.0/(1.0+${C11cubic}/${C12cubic})
variable poissonratio equal 1.0/(1.0+212.505439431694/${C12cubic})
variable poissonratio equal 1.0/(1.0+212.505439431694/94.3686575551086)

# For Stillinger-Weber silicon, the analytical results
# are known to be (E. R. Cowley, 1988):
#               C11 = 151.4 GPa
#               C12 = 76.4 GPa
#               C44 = 56.4 GPa

print "========================================="
=========================================
print "Components of the Elastic Constant Tensor"
Components of the Elastic Constant Tensor
print "========================================="
=========================================

print "Elastic Constant C11all = ${C11all} ${cunits}"
Elastic Constant C11all = 212.505439437072 GPa
print "Elastic Constant C22all = ${C22all} ${cunits}"
Elastic Constant C22all = 212.50543942107 GPa
print "Elastic Constant C33all = ${C33all} ${cunits}"
Elastic Constant C33all = 212.505439436941 GPa

print "Elastic Constant C12all = ${C12all} ${cunits}"
Elastic Constant C12all = 94.368657552736 GPa
print "Elastic Constant C13all = ${C13all} ${cunits}"
Elastic Constant C13all = 94.3686575581098 GPa
print "Elastic Constant C23all = ${C23all} ${cunits}"
Elastic Constant C23all = 94.36865755448 GPa

print "Elastic Constant C44all = ${C44all} ${cunits}"
Elastic Constant C44all = 98.6360914942858 GPa
print "Elastic Constant C55all = ${C55all} ${cunits}"
Elastic Constant C55all = 98.6360914918265 GPa
print "Elastic Constant C66all = ${C66all} ${cunits}"
Elastic Constant C66all = 98.6360914922754 GPa

print "Elastic Constant C14all = ${C14all} ${cunits}"
Elastic Constant C14all = 8.20230781271692e-10 GPa
print "Elastic Constant C15all = ${C15all} ${cunits}"
Elastic Constant C15all = 1.01762458803926e-09 GPa
print "Elastic Constant C16all = ${C16all} ${cunits}"
Elastic Constant C16all = -1.84724970801054e-09 GPa

print "Elastic Constant C24all = ${C24all} ${cunits}"
Elastic Constant C24all = 1.63501798024587e-10 GPa
print "Elastic Constant C25all = ${C25all} ${cunits}"
Elastic Constant C25all = 3.75073697291059e-10 GPa
print "Elastic Constant C26all = ${C26all} ${cunits}"
Elastic Constant C26all = -1.79357105465907e-09 GPa

print "Elastic Constant C34all = ${C34all} ${cunits}"
Elastic Constant C34all = 4.45404498902436e-09 GPa
print "Elastic Constant C35all = ${C35all} ${cunits}"
Elastic Constant C35all = 1.75146429800325e-09 GPa
print "Elastic Constant C36all = ${C36all} ${cunits}"
Elastic Constant C36all = -1.30816622490534e-09 GPa

print "Elastic Constant C45all = ${C45all} ${cunits}"
Elastic Constant C45all = -1.10052497417631e-09 GPa
print "Elastic Constant C46all = ${C46all} ${cunits}"
Elastic Constant C46all = 3.99028245525958e-10 GPa
print "Elastic Constant C56all = ${C56all} ${cunits}"
Elastic Constant C56all = 1.66081413601927e-10 GPa

print "========================================="
=========================================
print "Average properties for a cubic crystal"
Average properties for a cubic crystal
print "========================================="
=========================================

print "Bulk Modulus = ${bulkmodulus} ${cunits}"
Bulk Modulus = 133.747584847304 GPa
print "Shear Modulus 1 = ${shearmodulus1} ${cunits}"
Shear Modulus 1 = 98.6360914927959 GPa
print "Shear Modulus 2 = ${shearmodulus2} ${cunits}"
Shear Modulus 2 = 59.0683909382927 GPa
print "Poisson Ratio = ${poissonratio}"
Poisson Ratio = 0.307515878602054
Total wall time: 0:00:00
