ITEM: TIMESTEP
0
ITEM: NUMBER OF ATOMS
12000
ITEM: BOX BOUNDS pp pp pp
-1.4754702432391298e-03 2.7342475470242842e+01
4.0511258359376967e-03 2.7336948874164136e+01
7.8466762330165807e-02 2.1864953323767003e+02
ITEM: ATOMS id type x y z c_peratom fx fy fz 
242 2 5.30503 5.30695 5.5012 -25.1979 -2.85336 1.2958 -0.177459 
1201 2 5.25437 2.43165 2.8565 -25.3702 -0.232007 1.0529 0.978147 
1202 2 5.26409 2.62715 8.40987 -26.0205 1.01275 2.51375 -0.613065 
2041 2 2.28882 5.31743 2.71897 -25.1502 4.04761 -0.880879 1.76754 
2042 2 2.57744 5.51575 8.29164 -25.5773 2.72381 -1.06604 -0.189928 
3002 2 2.54147 2.68082 5.66806 -25.7001 -0.203329 -0.73005 -1.46297 
4001 1 1.27116 1.10645 1.50425 -7.93999 -1.15354 0.462915 -1.47567 
4002 1 1.37361 1.14311 7.07941 -7.81624 -0.456313 1.25248 -0.647331 
5001 1 3.71836 3.88718 4.16405 -6.93614 0.283402 0.271612 1.55503 
6001 1 3.96047 3.8393 1.64748 -7.30788 -0.788246 -0.14402 -2.03368 
6002 1 3.73096 3.95098 7.15443 -7.27394 0.224228 0.326793 -0.351479 
7001 1 1.18797 1.25084 4.17091 -6.81151 0.29546 0.219485 1.25813 
8001 1 3.91631 1.15081 4.26522 -7.505 0.606223 0.0450164 0.479374 
9001 1 1.08732 4.1159 1.33601 -8.66902 -0.480947 -0.848189 -1.61526 
9002 1 1.09466 3.9771 6.84887 -7.06273 1.28996 -0.0176737 -0.1116 
10001 1 0.967096 4.03567 4.11099 -7.19265 1.69023 0.444311 -0.811725 
11001 1 3.90491 1.08527 1.51261 -7.68242 0.542259 0.146758 0.83379 
11002 1 3.82657 1.34058 7.05925 -7.35435 2.86205 -1.29762 -0.767409 
9202 1 6.33099 4.41952 7.06545 -6.60393 2.17537 -1.06683 1.37707 
1002 2 0.114828 2.71337 8.28532 -24.7544 -1.03377 -0.813804 -1.66306 
11042 1 4.18291 6.76596 7.00877 -7.04646 0.273122 -0.891013 -0.683308 
11041 1 4.50026 6.52502 1.6047 -7.02387 -1.22509 -0.528851 -0.967266 
7241 1 6.83289 6.55156 4.23823 -8.40207 -1.33278 1.60163 -0.0317878 
7201 1 6.66256 1.33246 4.36193 -7.57626 0.617742 -1.59696 -1.17548 
10201 1 6.51414 3.87784 4.35858 -7.83946 2.26863 0.515907 -1.28117 
9201 1 6.79577 3.82371 1.56778 -8.12394 -0.059973 -0.039603 0.637354 
4201 1 6.6803 1.0586 1.46819 -7.73076 0.372519 2.22828 1.46529 
241 2 5.56627 5.14312 0.147797 -25.3383 -0.547225 0.551664 0.518331 
4042 1 1.36227 6.57541 6.8741 -7.50062 -1.16907 2.47277 -1.95308 
8041 1 3.92772 6.62463 4.23169 -7.36436 0.663083 1.4781 0.30306 
3001 2 2.64016 2.52361 0.199254 -25.1799 -0.197132 -0.0133952 -1.33454 
4202 1 6.9718 1.84338 7.08389 -6.80504 -1.37611 -2.09323 0.811857 
442 2 10.8177 5.66955 5.55596 -24.1881 1.97965 -2.44726 -2.4652 
1401 2 11.0001 2.75972 2.98745 -25.3459 0.550785 -0.734722 -1.4704 
1402 2 10.9886 2.57379 8.33816 -25.7257 -0.754355 1.52621 0.22485 
2241 2 8.08753 5.32311 2.91025 -23.9589 1.58064 -0.758586 -0.318196 
2242 2 8.1897 5.23416 8.45746 -26.135 -0.652725 0.725468 -0.320493 
3202 2 8.18967 2.80901 5.58032 -24.814 -0.89623 -1.62673 0.48858 
4401 1 12.2969 1.43641 1.47697 -6.71615 -0.191274 -1.75096 2.07187 
4402 1 12.4639 1.27005 7.07764 -7.19414 -0.85521 1.53999 -1.19721 
5201 1 9.83738 4.27331 4.25167 -8.39552 -3.90733 -1.5455 0.0407904 
6201 1 9.4927 4.2546 1.49626 -7.27085 -0.814005 -1.5264 0.937123 
6202 1 9.33822 3.64251 7.25548 -7.37558 -0.233333 2.23448 -2.2157 
7401 1 12.2198 0.895082 4.03528 -7.67003 -2.57156 2.40442 2.92247 
8201 1 9.47673 1.37994 4.39058 -7.85629 0.0415621 1.39519 -2.40361 
9401 1 12.2334 4.08414 1.63832 -6.97516 0.802174 0.18191 -0.995846 
9402 1 12.0721 4.18222 6.94429 -7.20886 -0.80229 -0.435463 0.792546 
10401 1 12.3986 3.85039 4.34426 -6.69917 -0.935407 0.934154 -0.168581 
11201 1 9.56448 1.12134 1.63711 -8.21509 0.0240217 1.11601 0.579564 
11202 1 9.60088 1.01772 6.9055 -6.88793 0.697442 1.76847 1.9795 
2442 2 13.51 5.60343 8.04223 -25.0603 -0.268745 -2.05827 4.45641 
11242 1 9.65418 6.63949 7.0552 -8.2936 0.140754 -0.609781 0.661817 
4241 1 7.11134 6.67465 1.39343 -8.53177 -1.27488 -1.29161 2.14628 
4441 1 12.5399 6.66484 1.29108 -7.01792 0.610148 1.26311 -1.32761 
4442 1 12.3174 6.74853 6.58748 -8.78152 1.72932 2.54394 0.770443 
3201 2 8.14844 2.45914 0.229336 -25.7635 1.01056 0.449687 -0.778166 
2201 2 8.12819 0.0402066 2.85679 -24.7087 -2.20724 -1.82259 1.29253 
441 2 10.9954 5.40899 0.100294 -26.483 0.216925 -1.41533 -0.337759 
2202 2 8.27608 0.0707096 8.40754 -25.1374 -3.11541 0.078941 -2.2112 
2441 2 13.8862 5.44592 2.60907 -25.1225 -3.59475 -2.96522 0.0782631 
3402 2 13.678 2.58632 5.5781 -25.5561 -1.26914 -0.172845 0.218087 
642 2 16.2565 5.33493 5.60353 -24.9446 2.84808 -1.35895 -2.12995 
1601 2 16.3194 2.52711 2.70586 -25.3551 0.543657 3.01388 1.76582 
1602 2 16.3604 2.68169 8.16752 -25.6766 1.55249 -0.305967 0.231972 
2641 3 19.2625 5.46763 2.8205 -29.6692 -0.772547 -0.929293 0.432271 
2642 3 19.0062 5.22381 8.17274 -28.5296 0.363052 1.6853 0.291875 
3602 3 19.3522 2.69825 5.26241 -28.6104 -1.91081 0.248888 0.187252 
4601 1 17.1932 1.55474 0.952255 -7.51834 5.3142 0.357453 0.855343 
4602 1 17.8147 1.27401 6.98774 -7.42098 -0.10357 -0.0641277 -1.0746 
5401 1 14.88 3.76337 4.04768 -7.18741 2.30164 2.17197 0.234229 
6401 1 15.0937 4.03907 1.22621 -7.39899 -0.914523 1.04708 1.91441 
6402 1 14.7188 3.93216 7.03996 -7.57675 1.49461 0.900922 -1.98912 
7601 1 17.989 1.37036 4.12914 -7.96357 -1.25684 -1.10347 -0.735646 
8401 1 14.9013 1.25655 4.23979 -7.78779 1.85125 -2.80139 -1.07094 
9601 1 17.7262 4.1993 1.27365 -7.22316 1.41147 0.098152 0.485575 
9602 1 17.7546 3.98903 6.77188 -7.84243 -0.711323 -0.228169 -0.161959 
10601 1 17.7231 3.99204 3.96935 -6.71209 -0.709111 -0.88357 0.167475 
11401 1 14.9635 1.40439 1.43576 -7.15849 -3.20832 -3.02906 -0.0270911 
11402 1 15.0884 1.34984 6.8213 -7.57153 1.21904 -1.88536 -0.0881558 
6602 1 20.5015 4.18215 7.01625 -7.86548 -1.36386 0.183255 0.701239 
5601 1 20.3626 4.05259 4.20379 -7.83038 0.598551 -0.647611 0.473729 
11601 1 20.2762 1.1236 1.23197 -8.16372 -1.25445 0.511597 -0.762564 
11602 1 20.4832 1.58763 6.49044 -7.77667 -0.0921119 -0.422521 1.84182 
11642 1 20.3759 6.83132 6.91936 -7.54178 0.564971 0.131965 -0.726573 
11442 1 15.2099 6.52601 7.10441 -8.01004 -0.622516 1.41974 -2.25025 
4642 1 17.7815 6.63553 6.74621 -7.62994 0.177428 1.12732 2.79711 
7641 1 17.8491 6.53191 4.27696 -6.50785 -0.759877 0.863278 -0.348636 
8441 1 15.0907 6.52096 3.93542 -8.20486 0.478326 0.67095 3.75526 
641 3 16.3684 5.33857 0.174036 -28.9892 0.742589 0.266407 -1.82501 
602 2 16.5194 0.0203406 5.52762 -24.6139 -0.406488 0.406077 -0.632536 
11641 1 20.8103 6.55544 1.50526 -7.05847 -1.81862 -1.12557 1.41677 
1001 2 27.1315 2.57498 2.57159 -25.1248 0.110313 0.197089 2.92188 
8601 1 20.6371 1.16258 3.88749 -6.98254 -2.58322 0.184661 -0.2962 
6601 1 20.587 3.8405 1.53481 -7.19557 -0.5633 -0.317196 0.474791 
42 2 27.0921 5.53204 5.32644 -25.3121 1.97568 -1.45491 0.359455 
842 3 21.6326 5.39333 5.64459 -29.0571 1.50144 -0.704671 -0.902097 
1801 3 21.9687 2.70229 2.83457 -29.0288 -1.02497 0.475377 1.59186 
1802 2 21.8017 2.63928 8.30768 -25.4818 -0.224538 0.400612 -0.964325 
2841 3 24.5488 5.44149 2.77082 -29.0495 -0.948969 -1.09826 0.99273 
2842 2 24.7183 5.54561 8.03672 -24.827 -2.40642 -2.79126 2.18163 
3802 2 24.6562 2.52441 5.68581 -25.6601 -2.10543 1.1454 -1.58314 
4801 1 23.101 1.2704 1.57731 -8.64465 -0.198598 2.08335 -0.931007 
4802 1 23.1785 1.1729 7.01343 -7.66429 0.812755 0.312426 0.852464 
5801 1 25.8599 4.11115 4.00081 -7.06064 -1.82288 -0.187763 -1.2274 
6801 1 25.6552 4.1365 1.32274 -8.08814 1.66793 -0.552368 -1.03426 
6802 1 25.9118 4.17189 6.61959 -7.13839 -2.17515 -1.00393 0.349891 
7801 1 22.9074 1.29228 4.26162 -6.81073 3.89228 -0.349305 0.446941 
8801 1 25.7812 1.26256 4.27224 -6.78529 -0.558822 1.86663 -0.850756 
9801 1 23.2196 4.037 1.52047 -7.96383 -0.737626 -1.76458 -1.48924 
9802 1 22.9756 3.72693 6.737 -6.95056 1.58006 1.5129 0.158998 
10801 1 23.0643 4.00602 4.13109 -6.43165 0.371288 -0.88019 -0.0294795 
11801 1 25.7745 1.1914 1.42986 -7.91552 -0.205562 1.19509 0.602716 
11802 1 26.0122 1.27568 7.00469 -7.85151 -0.26054 1.34448 0.320437 
7841 1 23.1293 6.52658 3.90298 -7.00201 0.597191 0.970247 3.06888 
11842 1 25.9119 6.76176 6.81464 -8.4173 0.547713 2.50794 -0.593236 
4842 1 23.0257 6.6706 6.97787 -7.80128 1.16088 -1.17721 -1.86145 
4841 1 23.436 6.6043 1.43176 -7.23508 2.30654 1.39808 -1.77926 
8641 1 20.528 6.60266 4.16515 -7.55476 -0.635754 0.192902 1.51085 
3801 3 24.4065 2.68888 0.291594 -27.4064 1.09003 -0.595197 -1.30802 
841 2 21.8871 5.33458 0.16211 -25.6653 1.35006 -0.866719 -0.0287574 
801 2 21.8707 0.0848139 0.132819 -24.6232 -0.539054 -2.74991 -0.62469 
81 2 0.0149242 10.9209 0.144699 -24.848 1.06812 -0.439429 -0.191855 
4041 1 1.68244 7.0146 1.56505 -7.77499 0.31834 0.871084 -2.6346 
7041 1 1.30596 6.94758 3.94744 -7.97639 -1.79138 -1.13542 2.66235 
282 2 5.68674 11.0089 5.45092 -24.2378 -1.29055 -0.0986175 1.56642 
1241 2 5.5092 7.90543 2.82408 -24.3054 -0.121185 2.30135 1.30818 
1242 2 5.42116 8.11183 8.40967 -25.0393 1.23655 -1.33756 0.0899418 
2081 3 2.80919 11.0896 2.98836 -28.147 -0.809035 -0.636092 -1.16505 
2082 2 2.65246 10.7245 8.1377 -24.6327 -0.372098 1.68404 1.94013 
3042 2 2.59397 8.29565 5.37988 -24.6717 0.585763 -2.29413 0.602261 
4081 1 1.09581 12.3958 1.38909 -7.15962 2.18721 -1.72905 -0.719096 
4082 1 1.46228 12.166 6.54154 -8.09846 0.812761 -0.105581 3.81675 
5041 1 3.9201 9.63484 4.22187 -7.9948 0.24867 -0.176253 0.923319 
6041 1 4.04541 9.31795 1.6087 -8.07104 0.621481 -0.149209 0.368149 
6042 1 3.97993 9.30415 7.23122 -7.64996 -0.0714295 0.492001 -2.24537 
7081 1 1.4633 12.3449 4.10538 -7.67116 0.783416 -1.05794 -1.45799 
8081 1 4.38169 12.2701 4.32192 -8.15447 -1.9892 1.9934 -0.940871 
9041 1 1.49108 9.7855 1.38732 -7.67374 -0.188431 -0.594211 0.113795 
9042 1 1.10747 9.42332 6.6196 -7.96669 1.45585 0.14605 0.83207 
10041 1 1.16085 9.54607 3.95636 -7.8197 2.09559 1.23905 0.260175 
11081 1 3.96629 12.1913 1.58485 -7.4379 -0.115557 -1.63401 1.1949 
11082 1 4.25492 12.035 7.03813 -8.18399 0.887856 0.906709 0.0640194 
82 2 0.088187 11.0151 5.34292 -25.0673 -2.82517 -0.939458 -0.589314 
9241 1 6.81489 9.60751 1.53306 -7.6319 0.351206 -1.48805 0.031925 
10241 1 6.78923 9.69205 4.22754 -7.44461 1.28857 -2.96116 -2.36512 
1041 3 0.262672 8.19892 2.65532 -28.3013 -1.23823 0.896423 0.000850274 
281 2 5.22144 10.7985 0.43023 -25.1656 3.05152 -0.33659 -0.848892 
3041 3 2.77878 8.30276 0.247168 -28.711 -0.366382 -1.2814 -0.71433 
1282 2 5.65495 13.6474 8.13152 -24.6899 1.12708 0.245393 1.49599 
4242 1 7.18464 6.93401 7.08477 -6.91214 -1.93351 0.854936 0.667439 
4282 1 7.43152 12.6667 7.00674 -6.86154 -5.07114 -1.35072 0.210896 
7281 1 6.99612 12.3407 4.18594 -8.00872 1.76173 0.0857824 1.2107 
4281 1 6.97449 12.3692 1.61537 -7.81765 -0.563394 -0.696862 0.511974 
8241 1 9.40687 6.93472 4.28483 -7.84828 0.374295 -1.11481 -1.25338 
7441 1 12.0985 6.97532 3.93674 -7.1422 1.18167 -1.81665 1.29609 
11241 1 10.0928 6.92352 1.40473 -6.95875 -2.58066 1.67951 2.32475 
9242 1 6.9831 9.77735 6.68845 -7.41719 -1.20137 0.013647 2.70267 
482 2 10.9766 10.8204 5.44802 -25.5213 0.971826 1.0551 1.14994 
1441 3 10.9165 8.2152 2.81391 -28.7148 1.28391 -0.910465 1.13033 
1442 3 10.7655 7.89666 8.16469 -28.4733 0.766905 3.45971 1.89175 
2281 2 8.45528 11.085 2.98919 -24.2274 -2.10494 -1.66946 0.124125 
2282 2 8.36423 10.8277 8.38617 -25.8649 1.86794 2.98022 -2.41524 
3242 2 8.23619 8.16492 5.61939 -25.0222 -1.04307 1.01487 -0.181286 
4481 1 12.4652 12.8699 1.45273 -6.81475 -0.38393 -2.52148 0.0337296 
4482 1 12.4042 12.1707 6.64555 -7.07229 0.0247517 0.0948717 2.90182 
5241 1 9.69771 9.49713 4.19697 -7.71347 -1.00573 1.48103 2.15327 
6241 1 9.63924 9.57284 1.85489 -8.10881 0.344449 -0.148337 -4.28212 
6242 1 9.51747 9.37903 6.94326 -7.36268 0.916758 -0.406823 -0.205687 
7481 1 12.6621 12.2949 4.14734 -6.58201 -1.04646 -2.90811 -2.60024 
8281 1 9.91924 12.5623 4.46122 -8.36993 -1.4384 -0.53874 -3.16238 
9441 1 12.5568 9.73919 1.2189 -8.51756 0.0326147 0.0623075 1.38816 
9442 1 12.1622 9.5153 6.74168 -7.70207 1.1289 -1.66165 0.801923 
10441 1 12.3505 9.47878 4.01866 -7.42714 1.13003 1.57662 -0.314754 
11281 1 9.77933 12.2471 1.61271 -8.58395 -0.208736 0.141302 0.352112 
11282 1 9.69839 12.1752 6.94804 -6.2355 2.76194 -1.20171 0.609435 
2482 2 13.5879 10.7021 8.14065 -25.047 -0.171141 0.867951 0.759799 
3281 2 8.23986 13.4093 0.208698 -24.3803 -1.08865 1.15692 -0.997501 
3241 2 8.24138 8.06161 0.394922 -24.2404 1.55481 3.32732 -2.45148 
3282 3 8.51225 13.6577 5.55054 -29.185 -1.29678 0.342863 0.966516 
481 2 10.9551 10.7689 0.161769 -23.8563 -0.0811788 1.91619 -0.919435 
3641 2 19.4315 7.92387 0.0998613 -26.1164 -2.55159 0.628404 0.850728 
3442 3 13.7021 8.08615 5.58417 -27.5661 -0.646108 0.954478 -1.36765 
4641 1 18.1674 6.95773 1.74964 -7.16393 -1.2375 -1.54881 -0.402658 
2481 2 13.8556 10.9634 2.71501 -24.7246 0.105424 0.708593 0.0829479 
11441 1 15.0294 6.91495 1.40664 -7.97009 3.67249 -0.912529 -0.0823139 
682 2 16.5357 10.8108 5.39627 -24.7322 -1.27446 -0.614128 1.43709 
1641 2 16.5214 8.05133 2.9368 -25.5288 1.41853 -0.680286 -0.891638 
1642 2 16.5586 8.07031 8.29744 -25.6929 -1.74716 -0.917517 0.572842 
2681 2 19.2216 10.5849 2.97411 -24.8775 1.21827 0.474573 -1.26782 
2682 3 18.9692 10.6909 8.42018 -29.1181 1.16738 0.711743 0.660452 
3642 3 19.1202 8.08632 5.83446 -28.9525 -0.380627 -0.319155 -1.30573 
4681 1 17.7675 12.1172 1.55693 -7.8118 1.48603 1.32226 -1.36168 
4682 1 17.9173 12.0687 7.27069 -7.79914 0.315187 1.1346 -2.43211 
5441 1 15.2111 9.12348 4.38782 -7.94383 -1.08149 1.51374 0.290996 
6441 1 15.4894 9.60136 1.63749 -7.76075 -2.28511 1.2935 0.421989 
6442 1 14.8127 9.12587 7.07568 -7.7192 -0.221886 0.812329 0.0177456 
7681 1 17.9423 11.9911 4.21933 -7.82918 1.25357 0.154091 0.684869 
8481 1 15.3132 12.1329 4.13841 -7.47938 -0.698312 0.240059 -1.5697 
9641 1 18.0257 9.47229 1.47266 -7.03024 0.523014 0.598887 0.245382 
9642 1 17.548 9.53242 6.8439 -7.61876 -0.550968 -1.52247 0.779402 
10641 1 17.8927 9.23409 4.30967 -8.06104 1.02157 0.704625 -0.724747 
11481 1 15.1432 12.5536 1.20507 -6.98564 0.234723 -0.520607 2.84426 
11482 1 15.1305 12.1338 6.82202 -7.56712 0.141316 -1.46237 0.298741 
6642 1 20.0229 9.53237 7.21438 -7.13939 2.36273 -1.23562 -0.86456 
681 3 16.6995 10.6577 0.188532 -28.9813 -0.85605 0.0956507 -0.324214 
3482 2 13.6746 13.5846 5.52373 -25.2499 2.13842 -1.18955 0.669233 
3682 2 19.1889 13.3758 5.57932 -25.2112 1.96217 -0.0167621 1.05589 
1682 2 16.4257 13.3765 8.27449 -25.4745 -0.277568 1.909 1.29382 
11841 1 26.473 6.89581 1.14248 -8.38667 -1.27642 0.22385 0.383113 
8841 1 25.7664 6.86129 4.14873 -8.13984 0.608022 -0.188606 -1.51934 
1042 2 27.3296 8.03998 8.27287 -25.1664 -1.03369 -0.181809 -1.2624 
1881 2 22.0091 13.3529 2.97259 -25.2801 -0.617457 -0.412027 -2.29641 
6641 1 20.7077 8.95081 1.55215 -7.25227 -0.287159 4.27511 -0.0575694 
11682 1 20.6675 12.075 6.6602 -7.4832 0.755884 0.826539 2.32323 
3841 2 24.7921 8.24785 0.300492 -24.1705 -1.54198 -1.49287 -0.303608 
11681 1 20.7645 11.7297 1.50824 -7.3151 -1.63062 0.571739 -0.784202 
8681 1 20.7231 11.9925 4.16008 -7.54865 -1.56427 -1.49722 -0.46899 
5641 1 20.6686 9.22119 4.56283 -8.35616 -0.134565 0.996917 -0.651326 
882 3 21.9441 10.7701 5.46987 -28.6498 0.875429 0.270487 0.650531 
1841 2 21.8063 7.97495 3.03101 -25.359 2.91322 -0.389286 -0.0234269 
1842 2 21.9491 8.14996 8.29763 -25.3319 -3.8055 0.885887 -0.739592 
2881 3 24.7906 10.615 2.94565 -29.1155 -1.48213 2.03062 0.644541 
2882 2 24.6131 10.784 8.12049 -25.5104 0.856534 -0.294838 2.21194 
3842 3 24.759 8.25614 5.47676 -28.5166 -0.957144 -0.311842 0.176927 
4881 1 23.335 11.9666 1.73266 -7.33195 0.637062 0.982091 -0.700434 
4882 1 23.6605 11.9411 6.70227 -6.93347 -3.47027 0.832887 0.933832 
5841 1 25.9974 9.49418 4.39908 -7.17064 0.277158 0.682164 0.0979918 
6841 1 26.0465 9.54602 1.8628 -8.2395 1.46453 -1.22807 -2.70522 
6842 1 25.8242 9.4134 6.97461 -7.25066 0.186541 -0.302199 -0.544128 
7881 1 23.2648 12.2845 4.39263 -7.28464 0.601919 -1.21061 -1.38027 
8881 1 25.9945 12.1715 3.88398 -7.59418 0.224283 -0.105263 0.929512 
9841 1 23.4598 9.39171 1.71993 -7.65279 -0.57929 -0.69291 -2.96883 
9842 1 23.1035 9.28717 6.77068 -7.90479 -0.663522 0.851765 -0.00260889 
10841 1 23.4644 9.36454 4.19269 -7.64769 -1.56771 0.306221 0.902983 
11881 1 25.9646 12.2277 1.2293 -7.46966 -1.48977 0.471411 -0.0150028 
11882 1 26.0519 12.4197 6.83157 -7.1333 1.0356 -1.84668 -2.38787 
3881 3 24.562 13.3149 0.117276 -28.2918 0.378421 1.74163 0.288667 
1882 2 21.8402 13.5659 8.46461 -24.6679 -1.07019 -1.65725 -1.78415 
1082 2 27.3231 13.5365 8.07677 -25.114 0.617583 0.657764 2.41046 
4 3 0.179972 0.0995316 16.7112 -27.9981 -0.285258 -0.0580469 0.526508 
4204 1 6.76827 1.3994 17.6889 -7.8777 1.20759 0.280358 2.51036 
11004 1 4.18416 1.35928 17.7031 -7.33368 -1.03737 0.667067 1.92574 
5002 1 4.38987 4.10693 9.98179 -6.9829 -0.959123 -0.621069 -1.61974 
243 3 5.36487 5.52989 11.1825 -29.1173 0.630857 -0.491832 -0.367066 
244 2 5.3602 5.53266 16.5098 -24.2489 1.67635 0.576588 -0.571082 
1203 2 5.49008 2.6078 13.8603 -25.9344 2.02245 0.908524 -2.01542 
2043 2 2.91805 5.42103 13.8724 -24.1986 -1.89273 2.49279 -1.55288 
3003 2 2.66505 2.6864 11.0364 -24.8344 2.11357 2.06552 0.857309 
3004 2 2.7335 2.59692 16.3134 -24.71 0.930612 0.151183 3.5881 
4003 1 1.37286 1.43144 12.303 -8.32918 0.248873 -0.858576 1.46756 
5003 1 3.98815 4.09488 15.1248 -8.66426 1.3431 -0.0260536 0.869365 
6003 1 4.16955 4.19092 12.4426 -7.26797 -0.813569 0.246382 1.3651 
7002 1 1.31897 1.51215 9.56153 -7.83863 -1.00573 -2.01832 2.10129 
7003 1 1.3108 1.22676 15.2828 -8.39344 0.85473 0.0728018 -1.65622 
8002 1 3.75385 1.38447 9.63738 -8.18753 2.11994 -1.99621 0.845612 
8003 1 4.24169 1.34405 15.0433 -7.21261 -3.52404 -0.04994 0.582128 
9003 1 1.40116 4.12955 12.6891 -8.28936 0.156397 -0.175545 -0.868722 
10002 1 1.53311 4.127 9.76296 -7.93037 -1.00152 -0.56008 0.442762 
10003 1 1.14346 3.90416 15.5173 -7.90225 -0.245301 1.30197 -1.21757 
11003 1 4.2079 1.45741 12.4007 -7.70614 -0.569657 -0.207203 -1.36636 
7202 1 6.44096 1.21935 9.69084 -7.4734 0.207409 -0.203921 0.366349 
1003 2 0.0568902 2.88893 13.8609 -24.6989 -2.78398 -1.03061 -0.688996 
43 2 0.0208159 5.35807 11.1653 -24.7039 0.52495 0.471361 -0.871968 
4004 1 1.45327 1.32516 17.9489 -7.68829 -0.300287 -1.16447 -0.726079 
6004 1 4.17834 4.30522 17.8015 -7.52701 -0.0656682 -2.63245 1.18936 
7203 1 6.75842 1.07177 15.0953 -7.03036 2.18883 -0.355846 0.174753 
9203 1 6.79336 4.13847 12.624 -6.86496 -0.719292 1.7992 -2.40287 
203 3 5.25716 0.084132 10.8463 -28.0927 0.705738 -1.07544 2.006 
3 2 0.0771978 0.0976478 10.8821 -25.1 -2.18401 -1.37862 1.19924 
9004 1 1.24889 4.07149 18.1316 -6.82773 1.52743 1.4612 -0.962388 
7042 1 1.32692 6.66233 9.57937 -7.17686 -1.98864 1.17977 2.21821 
7043 1 1.06981 6.75435 15.3533 -7.76614 1.22335 -0.160958 -0.35395 
4043 1 1.66072 6.75241 12.5578 -7.55899 -2.81894 0.886784 -0.584388 
7242 1 6.72364 6.50782 9.83659 -7.24154 -0.790858 1.56946 -0.594583 
11044 1 3.87757 6.73091 17.8562 -7.76741 -0.207058 1.70932 0.161366 
4044 1 1.05342 6.82768 18.1487 -7.69385 -0.973577 0.844515 -2.09763 
10202 1 7.06939 3.87308 9.65486 -6.73295 -1.0658 -1.17426 1.99655 
10203 1 6.97417 3.79095 15.0737 -7.14681 -1.0021 1.66238 1.26456 
4203 1 7.22852 1.65229 12.551 -6.96039 -0.113042 -1.2482 -0.576061 
443 3 10.8618 5.57557 11.2071 -29.4729 -0.120693 -0.300583 -1.59832 
444 2 10.7798 5.6398 16.6642 -25.1048 -0.244485 -1.91622 -0.91083 
1403 2 10.993 2.68118 13.9071 -25.8911 0.567653 1.62677 -0.744327 
2243 2 8.17839 5.52319 13.7981 -25.9616 0.63426 -1.6753 -1.17753 
3203 3 8.24841 2.90689 11.2437 -29.6976 0.376153 -0.343081 -0.979948 
3204 2 8.29085 2.59336 16.3764 -25.4798 -0.57492 0.168529 0.369488 
4403 1 12.5499 1.75716 12.4783 -7.36838 0.782407 -0.706407 0.535112 
5202 1 9.66251 3.89479 9.74522 -6.38524 0.444155 1.42593 1.43757 
5203 1 9.71945 4.13132 14.9786 -6.75494 -1.06338 0.104344 1.32808 
6203 1 9.41469 4.18967 12.4789 -6.69115 -1.69965 -0.264864 -1.82593 
7402 1 12.3293 1.38231 9.69111 -8.10451 -0.279207 -0.492953 0.766153 
7403 1 12.4339 1.45726 15.2436 -7.13979 -0.628695 -2.74773 -1.28681 
8202 1 9.3319 1.38207 9.75955 -7.69155 0.741833 -0.636657 -0.43861 
8203 1 9.67216 1.19974 15.3411 -8.40471 0.0955844 -0.374947 -1.42081 
9403 1 11.7555 4.64719 12.6546 -6.68552 3.26726 -0.544601 1.65183 
10402 1 12.2316 4.24419 9.81332 -7.08489 1.63829 -0.0248473 -0.179951 
10403 1 12.3452 3.92265 15.4843 -6.90919 -1.59464 3.87053 -1.45887 
11203 1 9.93638 1.43358 12.2488 -7.51761 -1.00194 -0.195317 2.65964 
403 2 10.8446 0.0696863 10.8391 -24.4385 0.586644 -0.345955 0.154928 
3404 2 13.6312 2.77912 16.6104 -25.4225 1.10401 -1.40184 1.50928 
8242 1 9.38349 6.5813 9.88242 -7.60699 0.723261 0.566329 -1.85156 
2443 2 13.5239 5.65349 13.8976 -25.1385 -0.388906 -0.615651 -0.0630573 
11204 1 9.45738 1.0708 18.1986 -7.33101 0.091692 1.43489 -0.640886 
7243 1 6.97531 6.7927 15.0578 -7.34288 -4.02447 -0.718649 1.70216 
7443 1 12.1042 6.77824 15.3242 -7.68319 1.01467 0.701218 -2.02432 
4404 1 11.91 1.46395 17.8128 -7.11826 2.73492 -1.17941 0.500963 
6204 1 9.69351 3.78448 17.553 -7.31897 0.937604 1.52494 2.51615 
9204 1 7.10448 4.09948 17.7713 -7.58298 -1.74031 0.817639 0.854863 
4604 1 17.6288 1.16539 17.8764 -7.35544 1.63514 1.71794 0.321864 
3403 2 13.8254 2.82032 10.915 -25.1115 -2.04421 -0.662 -0.982642 
9604 1 17.8285 4.33841 17.8789 -7.41412 -0.1283 -0.826139 0.932743 
7602 1 17.6001 1.09949 9.54565 -6.88867 0.791963 1.25793 0.839162 
643 2 16.3399 5.32329 11.227 -25.2149 -0.397192 1.54902 -2.45632 
644 3 16.2274 5.55856 16.5986 -28.5702 0.616733 -0.532721 -0.288841 
1603 2 16.3702 2.7746 13.8592 -24.9654 -0.125814 -0.577933 0.0758429 
2643 2 18.8238 5.39442 13.9008 -25.3656 5.15538 0.517156 -2.3024 
3603 2 19.1642 2.7296 11.0004 -26.0683 -0.441133 -1.27866 0.77505 
3604 2 19.2372 2.65736 16.5829 -25.3921 -2.11662 0.745795 0.701496 
4603 1 17.8336 1.60451 12.3432 -6.50359 -0.0299966 -2.83063 0.218345 
5402 1 15.1897 3.9622 9.55663 -7.3017 0.293488 1.2237 1.84516 
5403 1 14.9864 4.22936 15.0613 -7.56702 0.446167 -0.242779 -1.19946 
6403 1 14.5501 4.35676 12.2711 -7.77035 0.914421 -1.0515 0.834559 
7603 1 17.7685 1.42224 15.0012 -7.6334 -0.729783 0.0279752 1.82395 
8402 1 15.041 1.32121 9.45506 -7.63386 -0.303623 -0.0487565 1.75756 
8403 1 15.0539 1.23303 15.2604 -7.76296 0.0865535 0.520995 -1.06188 
9603 1 17.664 4.02587 12.4734 -7.85423 -1.10096 1.74716 -0.800061 
10602 1 17.9985 3.91242 9.46897 -7.80157 -0.166267 -0.303074 0.24512 
10603 1 17.6621 4.27537 15.1794 -7.41635 -2.72769 -2.23379 1.78527 
11403 1 15.2784 1.54767 12.2071 -7.96325 -1.61014 -0.34634 1.1642 
5603 1 20.2408 4.28813 15.5036 -7.04292 0.304989 -0.878108 -0.752056 
11404 1 15.1381 1.47597 18.0074 -8.15187 -2.36387 -0.259931 -0.0680113 
6404 1 14.8744 4.289 17.6239 -7.50249 0.922591 0.912264 1.22189 
8602 1 20.3365 1.11506 9.38408 -7.51272 0.284757 0.614902 -1.15977 
8603 1 20.3711 1.34415 15.1484 -7.67332 0.816822 0.569652 -1.22366 
6603 1 20.4501 3.88715 12.5463 -6.28161 -1.45331 0.929145 1.6654 
11643 1 20.3098 6.59881 12.4295 -6.37053 -0.343655 0.643459 0.583679 
4643 1 17.722 6.78055 12.551 -7.45621 -0.745615 1.41129 -1.00013 
7642 1 17.4891 6.59321 9.75679 -7.1443 0.886469 0.174239 -0.595609 
8442 1 14.8426 6.81523 9.71199 -6.59656 -0.589467 -1.51832 0.0626752 
11443 1 15.1879 6.77646 12.5253 -7.67794 -1.44186 1.7244 1.39845 
8642 1 20.2417 6.57239 9.52468 -6.76858 0.627285 -0.348027 0.119323 
2603 2 19.0548 0.0185961 13.856 -25.4037 2.14035 0.886161 -2.34233 
804 2 21.9012 0.258783 16.6949 -25.9072 2.37877 -3.09109 -3.1605 
4804 1 23.1198 1.70187 18.1067 -7.80597 2.47799 -1.45451 -0.517123 
8842 1 25.923 6.60605 9.69095 -8.17035 -0.176441 1.05729 0.0140027 
6604 1 20.6343 3.71983 18.0944 -7.20954 -1.19925 3.33494 -0.0712193 
11844 1 25.4209 6.77329 17.7253 -8.79508 1.58055 0.695263 0.312033 
11604 1 20.5197 1.26703 17.787 -6.52653 -3.48391 1.90537 2.28274 
9804 1 23.1676 4.29207 17.9567 -8.24094 1.06425 0.2825 -1.69025 
5602 1 20.7403 3.82828 10.0004 -7.47354 -0.811918 -0.716936 -3.82663 
11603 1 20.5214 1.31911 12.063 -6.59856 1.02296 -0.902806 1.407 
11843 1 26.0133 6.64939 12.452 -7.80685 -0.346879 1.42755 -0.990313 
11804 1 25.9253 1.29248 17.9215 -8.10761 0.436941 -0.181244 0.0184083 
44 2 27.0636 5.52903 16.6443 -24.4725 1.39832 -0.422089 -0.576857 
843 2 21.8968 5.42728 10.75 -26.0556 -1.22187 1.28345 3.36636 
844 2 21.6924 5.55719 16.7656 -24.8754 -0.772633 -1.90254 -2.13307 
1803 2 21.8582 2.75625 13.7719 -25.8777 -0.0483021 -0.544241 -1.79499 
2843 3 24.2494 5.54162 13.7541 -28.7107 0.663702 -0.867275 -0.917324 
3803 2 24.5142 2.77926 10.8055 -26.2909 1.05204 0.419357 0.78234 
3804 2 24.6142 2.93048 16.5947 -24.5481 -1.65549 -2.12916 -1.50192 
4803 1 23.4886 1.6491 12.3238 -6.31081 -1.76687 -2.32068 2.81597 
5802 1 26.049 3.92133 9.19472 -7.38842 -1.36521 1.43081 3.20679 
5803 1 25.5489 4.23116 14.9953 -7.62875 0.876209 2.12151 1.37738 
6803 1 25.8917 4.09936 12.3029 -7.16722 0.750478 -0.413817 -0.972535 
7802 1 23.0406 1.44608 9.7384 -7.44104 -0.187671 -0.587756 -1.29481 
7803 1 23.0459 1.51106 15.2429 -7.46815 1.68311 1.56508 0.260609 
8802 1 25.7551 1.22426 9.61635 -7.20483 1.14858 -0.137918 -0.344881 
8803 1 26.043 1.76676 15.1786 -7.4844 -0.927893 -1.92652 -0.0493063 
9803 1 23.1212 4.11247 12.1758 -6.67837 0.774108 1.45934 0.316988 
10802 1 23.3384 4.24886 9.42202 -7.49201 0.46042 -0.520881 -0.681713 
10803 1 22.8612 4.32913 14.9212 -7.35511 0.874429 -0.234067 1.51586 
11803 1 26.0234 1.434 12.233 -6.85795 1.88739 0.210649 0.577318 
2803 2 24.8461 0.202672 13.6738 -25.7481 -1.70477 1.01245 0.0783096 
6804 1 25.9288 4.03955 17.9082 -8.3255 -0.955962 1.43216 -0.657424 
4843 1 22.9391 6.76757 12.3337 -7.35037 2.37968 0.089562 0.75882 
8643 1 20.573 6.82032 15.3458 -7.87988 -2.50667 1.54649 0.199845 
3084 2 2.47864 13.6699 16.4726 -25.5354 1.21554 -0.986676 1.82404 
11043 1 4.09394 7.03816 12.4586 -7.74585 1.75614 -1.09359 -0.332002 
8042 1 3.96942 6.91352 9.7463 -7.41823 0.687941 -0.424249 0.162341 
1283 3 5.25614 13.6464 13.9023 -28.3644 1.32478 0.438705 1.3464 
4284 1 6.74415 12.2066 17.7925 -7.18871 0.436995 0.547712 0.658906 
9044 1 1.44882 9.7155 17.9175 -7.85918 -1.64473 -0.808085 -0.325036 
11084 1 4.07575 12.2316 17.9404 -6.9193 -1.12099 -1.26154 0.414573 
8043 1 4.03647 7.17568 15.1565 -8.06546 -0.116609 -2.96986 0.658004 
283 3 5.35721 10.9145 11.2075 -27.9979 0.403931 1.12541 -0.809418 
284 2 5.28712 10.7698 16.4991 -25.5685 2.1365 2.759 0.66006 
1243 2 5.3037 8.38216 13.7234 -25.0308 1.70743 -1.20108 1.22909 
2083 2 2.5681 10.9571 13.9318 -24.4071 -0.232926 0.422169 -1.18424 
3043 2 2.8003 8.35764 11.113 -24.9898 -0.44012 -1.68214 -1.04861 
3044 2 2.58246 8.25832 16.6803 -24.7495 -0.225296 -1.33746 -0.874589 
4083 1 1.26717 12.2622 12.3863 -7.81441 0.573236 0.275672 0.21189 
5042 1 4.27871 9.56775 9.8919 -7.81072 0.98378 -0.407987 -0.48964 
5043 1 4.00071 9.68986 15.0945 -8.02322 -0.958812 -0.211232 0.70013 
6043 1 4.05414 9.8118 12.4778 -8.2294 -0.815622 1.11128 0.116408 
7082 1 1.2376 12.2191 9.5752 -7.45532 -0.17907 -0.460916 -0.784722 
7083 1 1.26512 12.2545 15.18 -8.18584 -0.755081 -0.20543 0.425576 
8082 1 3.87733 12.1351 9.93716 -7.1815 1.01772 0.380426 -0.679445 
8083 1 3.95578 12.2873 15.279 -7.57686 -0.118022 -0.00734159 -1.03683 
9043 1 1.36894 9.51263 12.3791 -8.39864 -0.497261 0.531882 0.435179 
10042 1 1.37211 9.24683 9.36566 -7.74146 1.81908 2.23978 1.7409 
10043 1 1.10543 9.45624 15.422 -7.84547 0.458558 0.603129 -1.91936 
11083 1 4.08306 12.7725 12.5709 -7.95448 -0.275695 -1.24039 -0.090273 
4084 1 1.21616 12.3386 18.0527 -7.24903 0.217574 -0.901063 -1.02733 
7282 1 6.77868 12.2774 9.75179 -7.62386 -1.44249 -0.711281 -0.272677 
1043 2 0.0650353 8.11802 13.6986 -24.9417 -0.911789 -0.184428 1.34169 
9243 1 6.6599 9.40507 12.3906 -7.53632 0.217046 2.1852 -1.80781 
4283 1 6.74093 12.0702 12.4623 -7.97223 0.0554584 1.34411 -0.990326 
7283 1 6.74179 12.194 15.0949 -6.97891 -0.306284 -0.363574 -0.106656 
6044 1 4.13086 9.42773 17.9466 -8.08941 -1.53525 1.07203 -1.17011 
9244 1 6.83122 9.61842 17.7899 -7.30998 0.915609 -0.0416449 0.247313 
4244 1 6.64849 7.01458 17.8441 -7.70517 -1.0267 -2.1801 -0.43662 
4484 1 12.4327 12.6503 18.1771 -8.21139 -1.44512 -2.14132 0.035522 
6244 1 9.96905 9.65367 17.9265 -7.60766 -1.98619 -1.03787 0.0112008 
11284 1 9.62094 12.2392 18.0704 -8.25437 0.520837 1.56992 -1.75824 
1483 3 11.0065 13.5595 13.8116 -28.9227 -1.39879 0.418707 -0.254702 
11244 1 9.23591 6.92674 17.9229 -7.7272 1.86578 -1.11813 -1.38924 
10242 1 7.36194 9.44165 9.56723 -7.9607 -3.36303 -1.75647 0.740108 
4243 1 6.86384 6.93531 12.3918 -7.19688 -0.641942 -2.12649 0.540138 
4444 1 12.2808 6.92389 17.8394 -7.88539 -2.09608 -0.580415 1.65099 
7442 1 12.1028 7.05892 9.35092 -6.91878 0.169966 -3.2154 -0.395497 
10243 1 6.88006 9.50342 15.0874 -7.29631 -2.34148 0.380842 -0.0176347 
8243 1 9.43574 6.87418 14.9992 -7.15436 1.74048 -0.296803 1.98936 
4443 1 12.3179 7.2868 12.3591 -6.92515 1.93178 -3.5922 -0.0435441 
11243 1 9.72625 7.01751 12.299 -7.2645 -0.796547 -1.33758 1.43854 
483 2 10.9542 10.885 11.0574 -25.9635 0.878365 -0.130809 -0.563853 
484 2 10.9513 11 16.5644 -24.1245 -1.77647 1.875 0.530889 
1443 2 10.868 8.21113 13.8243 -25.8738 -0.175286 -0.128104 0.264502 
2283 2 8.1611 10.8109 13.6162 -25.5685 -0.453564 1.30912 2.02695 
3243 2 8.22004 8.11054 11.1041 -25.4327 -0.588228 -0.904179 -0.911326 
3244 2 8.05674 8.2062 16.5012 -25.5626 1.2097 0.449703 -0.867259 
4483 1 12.3708 12.1382 12.5105 -7.21725 -0.715417 1.21461 -1.32667 
5242 1 10.0542 9.59848 9.51243 -6.59714 -3.22973 -0.611767 -0.317605 
5243 1 9.42974 9.48087 14.9608 -7.10123 0.52204 1.13201 1.33033 
6243 1 9.32916 9.62432 12.2045 -7.5632 1.36904 0.873901 -0.0417101 
7482 1 12.3091 12.3252 9.65433 -7.83222 -0.0561865 0.315537 -0.330545 
7483 1 12.1146 12.4022 15.1346 -7.99831 1.1225 -0.348353 2.08832 
8282 1 9.45901 12.4176 9.63447 -7.14415 0.613938 -0.165294 0.463479 
8283 1 9.53514 12.2854 15.0924 -7.43746 -0.393925 -1.06078 0.955566 
9443 1 12.1296 9.60245 12.719 -6.71405 -0.287006 2.24148 -1.24999 