ITEM: TIMESTEP
0
ITEM: NUMBER OF ATOMS
6000
ITEM: BOX BOUNDS pp pp pp
-1.8696025238902791e-01 2.7527960252388880e+01
-1.9096068780921271e-01 2.7531960687809672e+01
-7.9688366947802791e-01 1.1016088366947821e+02
ITEM: ATOMS id type x y z c_peratom fx fy fz 
122 2 5.49945 5.28543 4.78258 -25.6765 -1.58009 -1.63599 -1.54915 
601 2 5.29691 2.35631 1.96247 -25.0295 2.6731 -0.0134821 1.32813 
602 2 5.34773 2.34665 7.50152 -25.3853 0.236628 0.758524 0.803406 
1021 2 2.76221 5.07549 1.95423 -24.9337 -1.20995 0.439399 1.7591 
1022 2 2.689 5.07476 7.51323 -25.7295 -0.581831 1.9103 0.978749 
1502 2 2.71914 2.29024 4.69274 -25.249 -1.72906 2.56514 1.63725 
2001 1 1.37015 1.1901 0.754399 -7.20338 0.365133 -0.436833 -0.659143 
2002 1 1.33349 0.998747 6.12978 -7.09483 -0.978861 1.86441 -0.0636865 
2501 1 4.01293 3.86619 3.50575 -7.63169 1.52053 -0.235495 -0.838727 
3001 1 4.14168 3.79351 0.663959 -8.15664 -0.527161 -1.7335 -0.0838745 
3002 1 3.90542 3.73032 6.35578 -6.92192 0.0071567 -0.486277 -1.58598 
3501 1 1.28001 0.956596 3.4844 -7.13795 -0.419969 0.643846 -0.129626 
4001 1 3.97055 1.06825 3.45839 -7.84524 1.57929 0.0681649 -2.10963 
4501 1 1.3774 3.74829 0.317121 -7.97025 -0.281593 1.67844 0.752944 
4502 1 1.05806 4.13333 6.24058 -7.18175 0.356816 -0.496351 -0.571929 
5001 1 1.42565 3.59459 3.52315 -7.43606 -1.01003 1.33187 -2.24339 
5501 1 4.04763 0.779028 0.527474 -7.89031 -2.15471 3.704 2.13932 
5502 1 3.93042 1.17582 6.07751 -7.83769 2.49376 -1.45517 1.48559 
2021 1 0.84495 6.69255 0.811753 -7.52918 0.470465 -1.69945 -2.2904 
3521 1 1.39748 6.37814 3.27073 -6.92924 -1.00997 -0.0130958 1.56967 
2101 1 6.6593 1.12235 0.585949 -7.26585 0.813555 -0.983644 -0.58445 
4602 1 6.59684 3.78137 5.98925 -7.0376 1.43382 -0.245514 1.82552 
5521 1 3.72603 6.41424 0.5549 -7.68209 0.382889 1.324 -1.4031 
2121 1 6.55492 6.24946 0.939392 -7.11287 -0.159651 1.91806 -0.764417 
4021 1 4.0356 6.65786 3.22875 -7.51203 0.69031 -0.766278 1.45699 
5522 1 4.08896 6.42473 6.24198 -7.05369 -1.95643 0.677622 -1.62905 
2122 1 6.5719 6.43141 6.19754 -6.88981 3.22917 0.943885 2.63831 
1002 2 2.61294 -0.0823143 7.55705 -25.8977 -0.990131 -1.37091 -0.0364774 
501 2 0.119331 2.67185 1.87871 -24.7253 -0.901548 -1.9029 0.761006 
502 2 -0.087945 2.60121 7.50377 -26.4509 -0.830588 -0.531752 -0.328158 
2102 1 6.93895 1.20134 6.1821 -7.98832 0.247103 -1.68853 1.32237 
3601 1 6.85774 1.18311 3.46037 -6.67982 -0.207109 -1.16019 -0.542062 
4601 1 6.83477 3.78169 0.52691 -7.15011 0.516065 -0.893055 -0.471511 
5101 1 7.01552 3.81825 3.35564 -6.76209 -1.1574 0.700633 -0.483419 
222 2 10.9747 5.4445 4.64998 -24.8442 0.521571 -0.600991 3.33481 
701 2 10.8798 2.42825 1.98386 -23.9685 0.377105 0.541785 0.538756 
702 2 11.2773 2.39552 7.58315 -25.2176 -1.41211 2.22705 -0.078024 
1121 2 8.16486 5.24369 2.05714 -25.2364 -0.0656105 -0.218082 0.331323 
1122 2 8.13482 4.98191 7.4847 -25.1839 0.507616 1.93685 0.204815 
1602 2 8.46305 2.4234 4.75695 -24.9523 -2.97731 0.235944 -0.131911 
2201 1 12.417 1.26715 0.717938 -8.37708 -0.302597 0.163867 -0.0825081 
2202 1 12.7757 1.11147 6.11016 -7.19953 -3.3217 1.66917 -0.503708 
2601 1 9.60432 4.03936 3.49535 -8.10419 1.69541 -1.92822 -0.664949 
3101 1 9.61147 3.99703 0.667729 -8.52175 0.382702 -1.7667 -0.174054 
3102 1 9.52236 3.82581 6.24367 -7.35471 0.319265 -1.36067 -2.01528 
3701 1 12.2364 0.991486 3.43625 -8.06665 0.917112 1.10363 -0.808429 
4101 1 9.60418 0.820507 3.33384 -8.42251 -0.823371 1.90674 0.425716 
4701 1 12.6626 4.0823 0.432897 -7.32127 -2.38398 -0.39643 -1.40801 
4702 1 12.4164 4.33321 6.27789 -7.34888 -1.15572 -2.33828 -2.17313 
5201 1 12.4726 3.63297 2.97136 -7.95433 -0.172984 0.760077 2.76708 
5601 1 9.66058 1.16297 0.656763 -7.69086 -0.673126 0.901345 -0.16505 
5602 1 9.92952 0.984685 6.28579 -7.93771 -0.527314 0.266957 -1.37983 
5622 1 9.44837 6.64108 6.13986 -6.95585 -1.0336 -0.537667 0.502235 
3621 1 6.88134 6.69947 3.57382 -7.54301 -0.0866761 0.193977 -1.16479 
5621 1 9.66004 6.65263 0.582167 -7.76282 -1.42205 -0.697981 0.199853 
4121 1 9.67537 6.70957 3.51682 -7.7516 -0.573978 0.851808 -2.98985 
3721 1 12.5149 6.60195 3.42171 -8.13368 -0.596434 -0.405075 -1.42243 
201 2 11.2465 -0.0775692 -0.601958 -24.4725 -3.61519 0.322122 -3.01271 
221 2 10.9869 5.10418 -0.652245 -24.5762 0.619544 2.50324 -2.24029 
521 2 -0.186518 8.03568 2.14556 -25.4842 -0.468824 -0.0733335 0.297631 
522 2 -0.00689067 8.0203 7.4283 -25.6458 -1.79017 0.929808 1.03838 
2022 1 1.27976 6.90711 6.14935 -7.33181 1.19662 -0.720953 -1.64682 
142 2 5.19306 11.0697 4.78189 -25.2068 1.63914 -2.99971 -1.23008 
621 2 5.29586 7.97627 1.98765 -25.3613 0.541833 0.213863 0.071492 
622 2 5.41079 7.90567 7.55922 -25.9329 -0.086127 0.441304 -0.430294 
1041 2 2.63164 10.785 2.01607 -25.5751 0.331812 0.6473 0.644098 
1042 2 2.55909 10.9643 7.49898 -24.9925 1.91939 0.148016 1.79421 
1522 2 2.71626 7.94322 4.78513 -25.4651 0.268902 0.191127 -0.623792 
2041 1 1.47217 12.5577 0.981224 -7.24178 -0.634539 -1.35922 -2.02861 
2042 1 1.18117 12.3243 6.27583 -7.66833 -1.25967 1.02438 -0.869294 
2521 1 3.88853 9.3311 3.37726 -7.54533 0.0980166 1.03937 -0.786571 
3021 1 4.07622 9.2165 0.395809 -7.57573 -0.378708 -0.368078 -0.137584 
3022 1 4.22557 9.23328 6.12181 -6.95904 -2.50937 1.15007 -0.459538 
3541 1 1.01678 11.8124 3.41998 -7.52245 -0.486793 1.3506 0.727596 
4041 1 3.76209 12.1978 3.41424 -7.54103 0.655075 -0.497945 0.698788 
4521 1 1.38943 9.46388 0.804082 -7.5578 0.112268 -0.0603934 -1.52125 
4522 1 1.3178 9.79674 6.1963 -7.38354 -0.221561 -2.34562 -0.797155 
5021 1 1.12048 9.18132 3.49801 -7.12439 0.160959 -0.371839 0.966457 
5541 1 4.13372 11.9971 0.683715 -6.99298 -1.02403 0.881155 -0.636267 
5542 1 3.9848 12.3235 6.16793 -8.00386 -0.948719 -0.850224 -0.00850718 
2142 1 6.63648 12.1825 6.0894 -8.02295 0.726389 0.497814 -0.0602323 
1521 2 2.37361 7.82906 -0.56456 -24.414 -0.373263 1.03352 -0.598908 
5121 1 6.66085 9.66917 3.57313 -6.84081 0.826136 -0.509727 -1.12849 
2141 1 6.68383 12.0122 0.413373 -6.21057 0.960269 0.269099 -0.0698729 
541 2 -0.179603 13.4839 2.2234 -24.6312 0.381991 0.510687 -0.865773 
1542 2 2.4073 13.5244 4.93123 -25.0659 2.37937 1.4561 -0.904314 
742 2 10.8731 13.6675 7.63077 -25.3011 -1.23289 0.128195 -0.931231 
1642 2 8.22191 13.5789 4.80525 -25.8922 -0.536845 -0.806838 0.38183 
741 2 10.723 13.4674 1.86681 -25.8064 1.68747 0.479693 -0.273165 
3641 1 6.78013 12.3985 3.2286 -6.81002 -1.33786 -0.593796 0.460936 
2222 1 12.046 7.01506 6.07894 -7.04949 1.7811 -0.369554 -0.846414 
2221 1 12.3349 6.82222 0.538402 -7.66151 0.0942077 -1.35124 1.83024 
4622 1 6.75538 9.20337 6.17346 -6.40192 1.77838 0.749607 1.12883 
4621 1 6.86127 9.1065 0.869208 -7.26 0.851214 -0.485646 -0.429934 
242 2 11.1454 10.8939 4.79741 -25.2921 -2.68439 -0.505724 -2.09428 
721 2 10.9406 8.07083 1.86748 -24.9928 1.32076 0.177733 2.10313 
722 2 10.83 8.00044 7.55551 -25.3645 -0.80168 0.28163 -0.761843 
1141 2 8.14687 10.6583 1.9694 -26.1536 -0.777583 1.17845 0.355151 
1142 2 8.04861 10.9092 7.42422 -25.2345 0.492515 -1.31694 -0.0448086 
1622 2 8.25855 8.0602 4.69675 -25.8441 -0.732299 1.34703 1.72487 
2241 1 12.3539 12.3389 0.367506 -6.90632 -1.60788 -1.58679 0.279882 
2242 1 12.0458 12.5773 6.03117 -7.89647 1.24163 -1.19845 -1.17559 
2621 1 9.7586 9.41637 3.43143 -6.93798 -1.11236 -1.37512 -0.431374 
3121 1 9.65241 9.25782 0.651716 -7.70994 -1.29344 1.68798 -1.89953 
3122 1 9.50635 9.41563 6.15779 -7.15019 0.608507 0.548147 0.330001 
3741 1 12.4057 12.219 3.02191 -7.05157 -1.82298 1.36032 1.9895 
4141 1 9.3921 11.9235 3.35543 -6.7059 1.84681 1.50102 0.884742 
4721 1 12.4193 9.5303 0.559574 -7.74503 -0.908027 0.171972 -0.212417 
4722 1 12.4322 9.64327 6.09708 -7.87817 -0.208678 -0.0104969 -0.316434 
5221 1 12.4035 9.64236 3.20828 -6.98838 -0.210516 -2.2348 1.27883 
5641 1 9.43926 12.0852 0.671876 -7.10544 0.356668 0.0225532 -0.18128 
5642 1 9.3952 12.2341 6.15436 -7.50542 0.597636 -0.0430865 0.352428 
1721 2 13.6191 8.12254 -0.644529 -25.3452 1.52266 -0.390117 -2.84293 
23 2 -0.00639231 5.39505 10.1142 -25.4863 -1.99047 -1.857 2.11408 
4 2 -0.10636 -0.156909 15.8787 -24.9123 -0.346123 0.853591 -3.55249 
104 2 5.40154 -0.173985 15.9896 -25.0662 -0.621525 -0.133847 -0.515957 
2004 1 1.15364 1.31192 17.0171 -7.71592 -0.135953 -1.96626 1.19556 
123 2 5.32638 5.08768 10.2321 -25.7754 -0.61143 1.16983 0.595227 
124 2 5.34834 5.13945 16.0047 -24.3885 2.76712 2.58588 -1.33386 
603 2 5.31065 2.64936 13.0618 -25.3015 0.299295 -3.34814 0.934478 
1023 2 2.81307 5.37055 13.2715 -24.2739 -2.3037 -1.11596 -2.79248 
1503 2 2.53344 2.47537 10.4054 -25.5899 0.903025 0.95186 -1.43925 
1504 2 2.56164 2.42466 15.8688 -24.9105 1.7021 1.2897 -1.30687 
2003 1 1.31499 1.30368 11.7737 -7.3221 -0.0337904 -1.3402 -0.555763 
2502 1 4.07273 3.70055 8.9699 -7.44393 -0.184422 0.787635 0.367046 
2503 1 4.24993 3.80614 14.673 -8.21936 -0.87711 0.304932 -1.71515 
3003 1 3.86776 3.85996 11.7028 -7.87109 0.0975827 0.900088 1.34477 
3502 1 1.28195 1.33539 8.84504 -7.02985 -0.65089 -1.80144 1.00818 
3503 1 1.11451 1.22867 14.3996 -7.20154 -0.315701 -0.164033 0.72232 
4002 1 3.90601 1.061 8.85754 -6.90592 0.483012 0.432884 0.60449 
4003 1 3.85758 1.02953 14.2826 -7.13985 0.424994 2.45044 1.98462 
4503 1 1.03202 4.06773 11.8782 -7.01603 1.25319 0.492361 -1.77522 
5002 1 1.24332 3.7895 8.88029 -7.36035 1.16561 2.33535 1.63949 
5003 1 1.5286 3.92414 14.5071 -7.84565 0.548971 0.419936 0.856356 
5503 1 4.06503 1.21342 11.5989 -7.52647 -0.812846 -0.834967 0.621266 
5504 1 3.81112 1.28586 17.3791 -7.8296 1.84036 -0.21848 -1.39877 
4504 1 1.3238 3.97197 17.3876 -7.35094 0.751787 -0.88044 -1.06351 
3603 1 6.47053 1.10386 14.7212 -6.88718 2.41518 1.8554 -2.09448 
5523 1 3.83782 6.56148 11.4334 -6.89296 -1.15893 -0.697539 2.5172 
3004 1 4.07185 4.03363 17.2762 -7.93968 -1.15215 -1.51053 1.49051 
3602 1 6.4819 0.820449 9.10118 -7.14783 1.97011 1.72125 -1.2882 
4603 1 6.66585 3.62927 11.6844 -7.9347 0.693764 3.75182 -0.902831 
2124 1 6.73129 6.63099 17.2006 -7.67527 0.75093 -0.15099 -0.849683 
4022 1 4.06744 6.58809 8.84912 -6.9369 -0.491358 0.139297 -0.182958 
4023 1 3.89624 6.66497 14.5985 -8.50697 1.66712 0.0802567 0.29174 
2123 1 6.46044 6.57323 11.5547 -6.68698 1.58057 0.416341 3.70819 
2024 1 1.32025 6.58654 17.1868 -7.81871 0.872283 1.34773 -0.567566 
3522 1 1.22684 6.5873 8.80957 -7.39425 1.18915 0.375145 -0.380057 
24 2 0.18269 5.2293 15.8005 -25.3075 -2.29272 0.593024 0.692582 
503 2 -0.139319 2.58405 13.0205 -26.0056 -0.956205 0.335351 -0.400443 
4704 1 12.1947 3.83731 17.1951 -7.63831 -0.906783 -1.68071 1.00161 
4604 1 6.75842 3.79481 17.1616 -7.52305 -0.568789 0.376591 0.359557 
3622 1 6.77825 6.39269 9.22501 -6.80957 1.55715 1.12645 -4.14214 
5102 1 6.90388 3.69273 8.92984 -8.21566 -0.018978 -0.286015 -1.16171 
2103 1 6.78882 1.21063 11.8986 -6.68802 0.718485 -2.11063 0.268092 
5103 1 7.09265 3.89973 14.417 -7.51881 -0.819111 -0.498617 -0.517424 
2104 1 6.88269 1.17118 17.28 -7.23614 -0.818787 -0.978759 1.60025 
5623 1 9.44558 6.55483 11.518 -7.52874 -0.799543 -1.26858 1.47083 
2204 1 12.4707 0.819189 17.5546 -7.74593 -1.92619 1.61481 -3.1822 
3104 1 9.42472 3.81892 17.1838 -7.11236 0.873702 -1.94799 -0.0553506 
5604 1 9.59137 0.714581 17.237 -7.71315 1.90016 2.09122 -0.169482 
223 2 10.9331 5.39772 10.316 -25.678 -0.148959 -2.75928 -0.770841 
224 2 10.9397 5.19946 15.6816 -25.8871 1.34281 0.541992 2.07266 
703 2 11.059 2.42847 13.1521 -25.6086 -0.131263 -0.472319 -0.242934 
1123 2 8.18506 5.02223 12.8193 -24.4537 -0.317508 2.12646 1.37314 
1603 2 8.12147 2.4757 10.329 -25.0478 0.25497 -1.8998 0.649618 
1604 2 8.26602 2.45565 15.7531 -25.6452 -1.24296 -0.418294 1.134 
2203 1 12.1877 1.1305 11.6212 -7.72886 2.05326 0.0925628 0.127619 
2602 1 9.94378 3.9334 8.74404 -6.76215 -1.23003 0.268773 1.45416 
2603 1 9.86629 3.7462 14.5794 -7.47069 -1.73114 -0.269339 -2.3925 
3103 1 9.51394 3.72111 11.6243 -7.65802 -1.28905 0.733712 0.175221 
3702 1 12.4808 1.0039 8.76505 -7.44391 -2.36187 0.656248 1.56909 
3703 1 12.3843 0.933371 14.466 -7.66118 -0.495294 -1.41575 1.19209 
4102 1 9.43048 1.25102 8.96154 -7.76644 0.121539 -1.23805 -0.336201 
4103 1 9.5726 1.14923 14.4951 -7.64055 -0.335287 -1.69274 -1.0669 
4703 1 12.0358 3.91006 11.7465 -7.07643 1.6219 0.466655 0.72477 
5202 1 12.6713 3.81887 9.0406 -6.6124 0.356179 -2.51808 -0.140187 
5203 1 12.5221 3.67696 14.5413 -7.03347 0.0762365 0.437163 -1.00182 
5603 1 9.55495 1.02598 11.6574 -7.51617 -0.890036 0.320789 1.13584 
3623 1 6.90575 6.59592 14.3585 -7.63973 -1.33155 -0.347988 -0.549289 
2224 1 12.2091 6.50508 17.0516 -7.51939 1.09223 1.74774 2.05595 
2223 1 12.216 6.62857 11.8185 -8.02267 0.200028 1.31768 -1.42727 
5624 1 9.50147 6.40285 17.081 -7.02353 -0.3344 1.13015 0.156221 
3723 1 12.4146 6.50555 14.465 -7.21386 -0.221728 0.934223 -0.616279 
4123 1 9.66991 6.59128 14.3614 -7.73468 -0.898942 -1.01065 -0.379738 
3722 1 12.4322 6.26107 8.96825 -7.57891 1.32169 3.80831 0.0049367 
4122 1 9.58225 6.72687 8.92069 -7.35707 -0.237527 -0.323689 -0.330282 
1223 2 13.5912 5.28387 12.9444 -24.9251 -0.00933416 -1.64344 2.22001 
643 2 5.52246 13.563 13.0463 -25.549 -2.88454 -1.13236 0.33574 
523 2 -0.180273 8.37919 12.8867 -25.6123 0.00509866 -1.38551 1.10543 
3642 1 6.6231 12.3142 8.83966 -7.52647 0.561332 -2.41684 -0.424001 
5524 1 4.17721 6.75416 17.4958 -7.6659 -2.63748 -2.5769 -1.98885 
1543 2 2.58458 13.554 10.2603 -26.2996 1.00257 2.03199 0.752248 
4624 1 6.54864 9.48003 17.4567 -7.11043 0.702497 -1.30536 -1.33641 
44 2 -0.167445 11.1309 16.0433 -25.4139 0.296003 -1.42103 -3.72567 
2023 1 0.955595 6.88556 11.5135 -7.22487 1.13722 0.995769 0.140148 
3523 1 1.17307 6.80907 14.3716 -7.6946 0.324119 -0.803115 0.172569 
2044 1 1.40379 12.2186 17.2886 -8.3667 0.317074 1.04946 1.05077 
143 2 5.62726 10.7857 10.1596 -25.0168 -3.12282 1.21778 1.59907 
144 2 5.59758 10.8957 15.9345 -25.35 -1.04951 -3.53355 -3.69233 
623 2 5.5515 8.10683 13.2151 -25.0033 -1.40424 -0.0949938 -0.761611 
1043 2 2.6816 10.9022 13.1097 -26.4944 0.366801 0.215353 -0.238751 
1523 2 2.63149 8.16275 10.4275 -25.5002 0.168095 -0.555351 -1.47284 
1524 2 2.46921 8.10137 15.7738 -25.4224 0.358526 1.80939 0.265028 
2043 1 1.42231 12.4415 11.8672 -6.93879 -0.539889 0.120092 -1.15419 
2522 1 4.1229 9.60554 8.84078 -7.48049 -0.288173 -0.141133 0.750891 
2523 1 3.99473 9.51058 14.5151 -6.84747 1.49131 -1.19262 0.318773 
3023 1 3.9999 9.25257 11.8432 -6.87755 -0.147663 -0.0952886 -0.404969 
3542 1 1.26033 12.3974 8.8612 -7.92737 -0.948607 -1.52363 0.913242 
3543 1 1.19448 12.4922 14.513 -6.92441 -0.0915559 -0.957642 0.755003 
4042 1 3.93873 12.5231 8.87616 -6.62973 0.211458 -2.74453 -0.760975 
4043 1 3.93303 12.1588 14.551 -6.66077 -0.193935 1.08951 -0.616578 
4523 1 1.31642 9.70395 11.5352 -7.41857 -0.605339 -0.204726 0.11637 
4524 1 0.965905 9.51926 17.0784 -7.24571 1.40757 -0.92834 0.966578 
5022 1 1.2962 9.39065 8.88637 -7.75576 -0.241621 0.633642 -0.177462 
5023 1 1.31421 9.50696 14.2749 -7.02121 -0.0867725 0.191244 0.20709 
5543 1 4.07128 12.0248 11.6097 -6.71873 0.913334 -0.30064 0.1198 
4623 1 6.62004 9.5753 11.8586 -7.93201 0.818372 -1.14058 -1.56512 
3024 1 3.64805 9.36707 17.2692 -6.74285 0.337814 0.00352445 -0.129763 
3643 1 6.63828 12.0213 14.236 -7.79354 1.28587 0.728023 1.1458 
5544 1 4.45353 12.0739 17.1494 -7.31578 -3.32694 2.53867 2.93287 
43 2 -0.163722 10.8998 10.0205 -24.9477 1.30407 -0.480322 2.40774 
1643 2 8.01784 13.5779 10.2286 -25.3875 0.633214 1.21127 0.57829 
1644 2 8.22273 13.5314 15.867 -24.5363 -0.448154 -1.70647 -1.61023 
4143 1 9.56806 12.1982 14.4925 -7.31003 -1.52609 -1.22658 0.432897 
5222 1 12.2835 9.16855 8.93307 -8.20761 1.3698 -0.528327 -0.40915 
2623 1 9.33697 9.37869 14.3839 -6.62454 2.23947 0.384446 -0.472875 
243 2 11.0659 10.6429 10.1059 -24.7332 -2.72133 1.38223 1.35442 
244 2 10.907 10.7288 15.7507 -25.3853 -1.07231 -0.171356 0.688956 
1143 2 8.11223 10.7811 12.9192 -25.5365 1.58579 0.0657786 1.84326 
3123 1 9.39034 9.11447 11.7404 -7.13591 -0.335123 1.79779 -0.10125 
2622 1 9.603 9.42708 8.91209 -7.68972 -0.542086 0.79417 0.0690042 
2143 1 6.88859 12.2546 11.5624 -7.67185 -0.441305 -0.599196 0.323818 
743 2 10.8481 13.4709 13.0335 -26.003 0.752091 0.694017 -1.79233 
5223 1 12.0029 9.38453 14.6156 -7.28732 3.09557 -2.76294 -2.05173 
2243 1 12.34 12.1282 11.3978 -7.89755 0.861262 0.775846 -0.657455 
4724 1 12.4858 9.44785 17.1944 -7.62965 0.212739 -0.751808 1.30353 
5122 1 6.88427 9.44036 8.93381 -8.24659 0.221454 -0.570754 0.0857613 
1623 2 8.18965 8.06633 10.2692 -25.1632 -0.938062 -1.95678 -0.508191 
723 2 10.8701 7.99338 13.2149 -25.521 0.0987033 0.938962 -1.61489 
4142 1 9.21984 12.3624 8.92894 -7.32749 2.1757 -1.55984 -1.15983 
2244 1 12.6207 12.1765 17.3807 -7.53237 -1.65628 0.427342 -1.17854 
5644 1 9.80735 11.7492 17.278 -7.35002 -0.583179 2.0645 -0.129517 
5123 1 6.98162 9.31007 14.6092 -7.25578 -3.84531 0.756711 -0.0989223 
4723 1 12.0134 9.49515 11.6651 -7.47388 1.71175 -1.26521 1.14916 
5643 1 9.56252 12.0665 11.6775 -7.22299 0.281011 -0.430765 -0.168771 
1624 2 8.18159 7.85576 15.6807 -25.4672 1.60205 -0.0968081 1.76895 
3124 1 9.66487 9.13028 17.0385 -7.17922 -0.588938 -0.523765 1.5356 
2144 1 7.05346 11.8794 17.239 -7.83114 0.957697 4.41834 -1.23126 
3743 1 12.1638 11.9388 14.1287 -7.81396 0.944234 1.83274 1.91587 
3742 1 12.0911 11.9015 8.62695 -8.14599 1.33785 1.00201 0.0646956 
1243 2 13.5587 10.9562 12.8484 -24.2599 1.53476 -2.48241 0.659607 
125 2 5.56462 5.43962 21.3547 -25.9033 -1.05158 -0.687853 1.12292 
604 2 5.33763 2.59793 18.7222 -24.8402 0.406734 -0.698333 -0.0462561 
605 2 5.36163 2.48558 24.2083 -25.2367 2.06794 0.114869 0.0998281 
1024 2 2.75065 5.34571 18.517 -24.7914 -1.78449 0.0863406 2.14476 
1025 2 2.69251 5.33438 24.2364 -23.9718 -0.0963832 -0.03873 -0.817987 
1505 2 2.59036 2.80857 21.5318 -24.8828 -0.264316 -2.39733 -2.43038 
2005 1 1.09586 1.27562 22.5365 -7.71208 1.7029 1.21281 1.43114 
2504 1 4.04125 4.23027 20.0784 -7.86334 0.336588 -1.46573 -0.215749 
2505 1 4.34457 3.6988 25.7469 -7.84294 -1.10478 1.68989 -0.0524555 
3005 1 3.9643 3.7922 22.9 -8.0903 -0.201657 0.30217 1.05622 
3504 1 1.50448 1.23994 19.7416 -7.20392 -2.65868 -0.766871 0.948342 
3505 1 1.16272 1.24807 25.4107 -8.38211 0.27346 -0.524096 0.479354 
4004 1 3.94443 1.04711 19.9965 -6.53561 2.3259 2.01052 0.344651 
4005 1 4.01338 1.11864 25.5024 -8.27494 -0.794025 -0.808054 -0.302265 
4505 1 1.04027 4.04485 22.7108 -7.94703 1.62193 0.46421 1.88142 
5004 1 1.35073 3.99945 20.0823 -7.29168 0.197612 0.858042 -0.478073 
5005 1 1.43325 4.02853 25.6626 -8.14433 -0.101245 0.00373903 -0.907418 
5505 1 3.95875 1.02381 22.7318 -7.6445 -0.586972 1.70539 0.217887 
3525 1 0.701954 6.7081 25.702 -8.01091 3.19731 0.0794303 -0.773496 
3604 1 6.72889 1.01595 20.2281 -7.03391 0.333003 2.91694 -3.04304 
2105 1 6.54767 1.27579 22.7442 -7.37629 1.31969 -0.635663 1.92276 
5525 1 4.15184 6.49299 22.8917 -6.9154 -0.657468 0.160066 2.27247 
4025 1 3.88573 6.56016 25.7439 -7.63404 -1.37387 -1.2121 -2.31182 
3625 1 6.58563 6.5798 25.471 -8.05552 1.34492 -0.239012 0.710004 
105 2 5.42152 -0.180462 21.4045 -26.6221 -1.69952 -2.38673 -0.550818 
1506 2 2.63642 2.49901 26.8652 -25.031 0.00311963 1.19611 1.59113 
1005 2 2.77721 -0.111316 24.0995 -24.3561 -1.74125 -2.53494 0.710973 
25 2 -0.024882 5.4304 21.264 -25.003 -0.419554 -0.792887 0.0101862 
504 2 -0.000808592 2.35929 18.5866 -25.2164 -1.17835 3.06457 0.567635 
505 2 -0.166708 2.54176 24.1299 -25.1499 -1.2044 -0.290104 -1.05535 
3605 1 6.82058 1.09887 25.6005 -6.58144 -1.49622 -1.46349 -2.1315 
1224 2 13.6155 5.13903 18.3691 -24.6433 -0.88839 2.22993 3.00624 
4605 1 6.91513 3.91757 22.8387 -7.39879 -0.128513 -0.11511 -0.176106 
5105 1 7.1501 3.67005 25.5825 -7.33216 -1.04562 2.7495 -0.516674 
5104 1 6.7958 4.0983 19.9347 -7.38041 -0.929617 -1.8211 0.115817 
225 2 10.9686 5.07908 21.0661 -24.678 -0.982231 2.10858 2.33694 
704 2 10.777 2.43739 18.7295 -24.362 0.706726 -0.515061 -1.83438 
705 2 10.9671 2.2697 23.9983 -24.7711 0.281343 0.487921 -0.543092 
1124 2 8.09799 5.21524 18.3731 -25.6 0.334619 0.222514 1.74084 
1125 2 8.31638 5.16759 24.2741 -25.203 -0.965584 -1.06928 -0.97312 
1605 2 8.14036 2.38547 21.5795 -25.217 -0.723651 1.44513 -1.23469 
2205 1 12.2905 0.824347 22.5717 -7.6838 0.873388 1.29351 1.10777 
2604 1 9.44156 3.79864 19.7801 -7.60613 0.841181 0.946414 1.34987 
2605 1 9.95056 3.72255 25.2547 -7.28738 -0.286092 1.06546 0.715026 
3105 1 9.81309 3.741 22.5335 -7.60871 -0.365579 -0.948047 -0.356938 
3704 1 12.1249 1.09074 19.9508 -7.70333 0.0460203 -0.917817 1.50685 
3705 1 11.9776 0.902268 25.3814 -7.58669 2.25753 -0.224645 -0.488673 
4104 1 9.32532 1.12789 20.1371 -7.83246 2.39857 0.187016 -0.914616 
4105 1 9.4168 1.06384 25.8844 -6.6016 0.69627 -1.51306 -5.27918 
4705 1 12.5954 3.7685 23.0298 -7.3179 -1.23692 -2.06741 -0.71034 
5204 1 12.3596 3.80481 20.0202 -8.39162 -0.213745 -0.488031 -0.943656 
5205 1 12.7085 3.84872 26.0691 -6.91971 -1.28697 0.698686 -2.59938 
5605 1 9.4162 0.949614 22.7491 -8.13526 0.548712 -0.202559 2.25497 
4125 1 9.42302 6.42715 25.7705 -7.7381 0.563975 -0.523184 -0.624698 
3624 1 6.74895 6.7232 20.0008 -6.70223 1.31322 -1.88562 -1.48283 
3724 1 12.5055 6.62547 19.9333 -7.89096 -0.136275 -0.559009 -1.38254 
4124 1 9.5829 6.67875 19.9358 -7.94288 0.859524 -0.207438 0.0425045 
5625 1 9.48684 6.46674 22.9111 -7.63486 0.0866079 1.27273 -0.672224 
2125 1 6.9067 6.60431 22.6896 -7.08657 0.0135449 0.536045 1.44177 
2225 1 12.1046 6.41854 22.5822 -7.10345 1.32951 -0.474597 0.533812 
1225 2 13.6105 5.31588 24.0945 -25.1166 1.09514 -0.016555 1.5162 
645 2 5.56269 13.4477 24.0743 -25.9941 -1.43668 -0.0057755 1.32206 
3524 1 1.24738 6.96404 19.9269 -7.90875 -0.0723009 -1.97455 -0.178341 
2025 1 1.23849 6.88175 22.8708 -7.88467 1.92559 -1.6997 -0.594591 
4024 1 4.1387 6.96665 20.4441 -6.81602 -1.24125 -0.0546184 -2.57594 
145 2 5.38196 10.5489 21.5581 -25.1451 -0.805373 1.43549 -2.33852 
624 2 5.3507 8.01826 18.6186 -26.0805 1.39677 2.32272 2.65411 
625 2 5.39716 8.08179 24.2292 -25.6656 -2.19224 -1.33356 0.424782 
1044 2 2.6354 10.848 18.6618 -25.0515 0.623533 -0.561852 -0.784607 
1045 2 2.51713 10.9287 24.156 -25.6207 1.71514 -2.22109 0.258852 
1525 2 2.44545 8.16456 21.2946 -25.2326 1.92239 0.714283 2.06062 
2045 1 1.20192 12.1674 22.9994 -7.31875 -0.17413 1.30569 -1.81418 
2524 1 4.12503 9.6077 19.8996 -7.16613 -1.05624 -0.357022 1.07614 
2525 1 3.92316 9.28241 25.62 -6.90484 -0.487066 -0.175026 1.04178 
3025 1 3.8324 9.38381 22.9294 -7.23314 -0.882805 -0.923328 -1.45841 
3544 1 1.05325 12.285 20.2187 -7.86836 1.97949 -0.600931 -1.52342 
3545 1 1.10054 12.2503 25.4959 -8.06247 0.567662 -1.12644 2.36959 
4044 1 3.93678 12.2227 19.9734 -7.57791 0.432925 -0.194116 -0.820901 
4045 1 4.04087 11.9498 25.3875 -7.00267 0.387464 1.66652 1.13572 
4525 1 0.958195 9.5138 22.541 -7.07535 1.00603 -1.09565 1.87721 
5024 1 1.31149 9.58883 20.0477 -7.40397 -0.402036 0.947024 -2.23975 
5025 1 1.26599 9.33219 25.2038 -7.7318 -0.312748 0.859912 1.69799 
5545 1 4.08344 11.9758 22.7979 -7.2769 0.0590216 0.679961 -1.30154 
4625 1 6.49294 9.3398 22.8777 -7.55309 3.13964 0.00868346 -0.162317 
45 2 -0.116031 11.0178 21.5169 -25.2731 -2.25988 -1.44198 -0.685336 
5125 1 6.56046 9.52013 25.5616 -6.99277 1.71493 -0.870583 -1.00946 
544 2 -0.141022 13.5166 18.7783 -24.9462 -0.103349 2.3533 -0.845484 
1545 2 2.6807 13.4314 21.3322 -26.1904 0.37347 1.79527 1.15698 
1526 2 2.47547 7.95315 26.7885 -24.8707 0.382838 1.11093 0.855413 
644 2 5.58478 13.3634 18.5906 -24.924 -0.989922 1.0802 0.941805 
525 2 -0.140795 8.00673 24.155 -24.8802 -2.18332 1.33242 -1.19212 
744 2 10.9582 13.402 18.5117 -25.244 1.17192 -0.455761 0.813331 
1645 2 8.1824 13.3439 21.3889 -25.3049 1.55063 0.292007 -0.129516 
3644 1 6.84822 11.9243 20.023 -7.91354 -0.679547 0.550065 0.74731 
3645 1 6.99567 12.1648 25.5599 -7.27104 -1.04519 0.0295824 -0.197598 
2145 1 7.03752 12.1507 22.9107 -7.81788 -1.17124 -0.833478 -1.32024 
5124 1 6.74645 9.11402 20.0611 -6.48725 1.12245 2.5467 1.24754 
3725 1 12.3284 6.7879 25.5002 -7.67013 -0.894522 -1.13139 -0.541225 
245 2 10.9804 10.6738 21.518 -25.4978 0.178421 -0.309104 -1.28209 
724 2 11.0741 8.04375 18.611 -24.7376 -2.00417 -1.29432 -1.90857 
725 2 10.7331 7.8999 24.1415 -25.3925 0.863612 -0.141579 1.64249 
1144 2 8.14045 10.6779 18.6267 -25.5536 1.97141 -1.74446 1.6131 
1145 2 8.2463 10.7237 24.1595 -25.1872 -1.76341 1.91276 3.09331 
1625 2 8.21111 7.83718 21.3913 -25.3291 -0.224481 1.378 -0.731351 
2245 1 12.3843 11.9538 22.8964 -8.1955 0.756589 0.767498 -0.350241 
2624 1 9.48466 9.58065 20.1828 -7.3189 -0.369099 -1.63149 -0.575839 
2625 1 9.41218 9.06135 25.6689 -7.42714 -0.187128 1.29724 -0.981151 
3125 1 9.34591 9.49777 22.9575 -7.68104 1.348 -3.94087 -2.27102 
3744 1 12.5729 12.0295 20.1871 -7.10085 -0.758405 -0.185112 0.744084 
3745 1 12.5048 12.3619 25.613 -6.62103 0.253439 0.0300547 -0.311791 
4144 1 9.68254 12.1953 19.8224 -6.87431 -0.764298 -0.78422 1.67146 
4145 1 9.70898 11.9901 25.5787 -7.35854 0.122247 -0.252385 -1.02302 
4725 1 12.041 9.00686 22.8672 -7.25345 2.34247 1.94956 -2.47831 
5224 1 12.1472 9.28248 19.9366 -7.65325 2.05883 1.2406 1.54526 
5225 1 12.0791 9.57565 25.443 -6.60059 0.679136 -0.0107904 0.0574851 
5645 1 9.74274 12.0417 22.6927 -7.24108 -0.617237 1.27764 0.356644 
1626 2 8.02929 7.87006 26.8986 -25.5324 1.07577 0.465867 1.0789 
745 2 11.1915 13.5041 24.1388 -25.1531 -2.03829 -0.580547 1.35097 
1646 2 8.30001 13.3697 26.8402 -25.4664 -0.662063 1.11476 1.19511 
107 2 5.50844 -0.126171 32.4549 -25.2552 -0.571113 -1.03277 -0.672639 
126 2 5.498 5.23969 27.0346 -24.8155 -0.661665 -0.793858 -0.465587 
1007 2 2.5628 -0.101794 35.1537 -24.2947 2.16537 -1.9942 1.05507 
127 2 5.57333 5.47255 32.4027 -25.0338 -0.782194 -0.420677 -0.0893124 
606 2 5.38286 2.49435 29.7366 -25.0946 0.889356 0.444069 -0.393796 
607 2 5.39653 2.61863 35.3134 -25.3341 1.19022 0.37862 -0.475747 
1026 2 2.70981 5.52869 29.6084 -25.3312 -0.0475547 -1.71058 1.60393 
1027 2 2.78716 5.36311 35.2017 -24.9983 -1.66484 1.80084 0.381961 
1507 2 2.68494 2.68747 32.4997 -24.9551 2.20002 0.532973 -0.590996 
2006 1 1.34695 1.27779 28.419 -7.57628 0.124539 0.0820346 -1.0567 
2007 1 1.2743 1.10605 33.8394 -8.44845 1.74074 0.589232 0.0489259 
2506 1 4.13363 4.1493 31.2824 -7.42392 -0.637789 -0.53497 -1.01826 
3006 1 3.89604 3.8975 28.5204 -7.37253 1.14711 1.57785 -0.369159 
3007 1 3.9265 4.0449 33.9597 -7.55733 1.38595 -0.0622592 0.173631 
3506 1 1.43493 1.37779 31.3013 -7.95946 -1.99856 -1.82327 -1.73305 
4006 1 4.01747 1.16226 31.0719 -8.2167 1.62118 0.439845 -0.239488 
4506 1 1.20948 3.95949 28.4819 -6.79519 -1.26111 0.87777 -1.95098 
4507 1 1.28684 4.00574 33.5778 -7.95721 0.517305 -1.21515 3.09611 
5006 1 1.20309 3.98447 31.0109 -7.1668 1.25413 0.863965 0.989741 
5506 1 4.12924 1.33991 28.1793 -7.7791 -1.57617 -1.46588 1.32131 
5507 1 4.24532 1.42519 33.8584 -7.80121 -0.859189 -1.64185 -1.13082 
2106 1 6.72797 0.97109 28.183 -6.3398 0.265841 0.456752 1.68393 
3526 1 1.3467 6.668 31.2821 -7.51946 -0.720822 0.893698 -1.17134 
506 2 -0.0660498 2.65974 29.891 -25.1567 -0.097802 -1.06505 -2.61341 
27 2 0.00750587 5.26575 32.4688 -24.9988 -1.72664 2.79157 -0.8252 
507 2 0.0288632 2.56227 35.039 -24.6695 -1.24005 0.606215 1.60358 
1006 2 2.58346 -0.0140443 29.6605 -24.7405 1.01063 -1.7346 1.22149 
106 2 5.24615 -0.186556 26.9916 -25.3372 2.81038 -0.285974 -1.3399 
226 2 11.1793 5.17944 27.0017 -25.4678 -1.46968 0.402445 -0.534882 
1606 2 8.30717 2.52272 26.9871 -26.1654 -2.23702 -0.900213 0.344809 
1707 2 13.5385 2.26563 32.5327 -24.6496 1.21982 -1.10424 -1.81603 
2227 1 12.452 6.6588 33.5131 -8.39197 -2.01248 -2.13564 2.66301 
4606 1 6.81893 3.69889 28.451 -7.61199 -0.562434 1.31344 -0.629339 
3606 1 7.17042 1.03326 30.8579 -7.38125 -1.8321 1.63861 0.952415 
5106 1 6.82114 3.96707 31.1286 -7.45351 0.0640019 -1.22913 -0.245598 
4607 1 6.85631 4.25152 33.7627 -7.07385 -0.207887 -2.22981 0.314062 
2107 1 7.05562 1.1313 33.5861 -7.45079 -1.73322 0.757215 0.869904 
227 2 10.8268 5.3547 32.3401 -24.4722 0.168142 0.317587 -0.594388 
706 2 11.1287 2.44648 29.6633 -24.99 -0.922701 0.266465 0.406697 
707 2 10.9427 2.55815 35.2528 -25.7725 0.173155 0.0888056 0.584796 
1126 2 8.10189 5.30284 29.7429 -25.4973 3.22713 -1.45827 -1.05746 
1127 2 8.25973 5.37661 35.1639 -25.2709 0.558442 -1.95634 1.94024 
1607 2 8.37662 2.49629 32.3384 -25.528 -0.321245 0.0812562 0.466875 
2206 1 12.5335 1.02921 28.1298 -8.11746 -1.33195 0.945759 -0.711988 
2207 1 12.3264 0.943607 33.9752 -7.79538 -0.396656 -1.1372 -0.528954 
2606 1 9.57923 3.96727 31.0635 -7.67811 -1.0578 -0.108179 -1.07319 
3106 1 9.5379 3.99976 28.0702 -7.4725 0.757451 0.0257185 1.13118 
3107 1 9.6818 4.00204 33.8282 -7.91785 0.836945 0.578859 -0.383752 
3706 1 12.3774 0.990122 30.9409 -6.96251 0.284992 1.46977 0.155339 
4106 1 9.90599 1.19289 31.2034 -7.04441 -0.873256 0.0781295 -0.305647 
4706 1 12.362 4.01799 28.5569 -7.19241 -0.155167 -1.34658 1.54275 
4707 1 12.833 3.496 34.0537 -7.91743 -1.71443 3.1576 1.58791 
5206 1 12.1465 3.86959 31.2591 -7.46097 1.89367 -0.872643 0.81834 
5606 1 9.45737 1.13846 28.212 -7.19517 2.50251 -1.31033 4.69141 
5607 1 9.58894 1.29673 33.9532 -6.87843 0.889043 -1.16083 -1.81407 
2226 1 12.4453 6.63731 28.2133 -8.03929 0.668752 0.0256419 0.340287 
3626 1 6.94074 6.65531 30.8962 -7.59211 -2.26924 1.17453 3.27998 
2126 1 6.90165 6.51134 28.3579 -7.89333 -0.879379 -0.360828 -2.05961 
3726 1 12.2436 6.62293 30.8482 -8.08496 1.03538 -0.0569055 0.514558 
647 2 5.49562 13.6204 35.2303 -25.5409 -1.60827 0.115966 -1.12799 
146 2 5.2944 10.7506 26.9936 -25.8505 0.474991 0.377933 -1.95087 
2027 1 1.46643 6.84504 34.0122 -6.38627 0.11155 -0.392055 -1.30076 
4026 1 4.01857 7.04065 30.9114 -7.29836 0.743906 -1.43434 -1.07854 
3646 1 6.65801 12.0778 30.9188 -7.50962 -0.689202 0.182066 0.705443 
2026 1 1.37693 6.77896 28.428 -7.70172 -0.019298 0.375486 -0.322509 
5527 1 4.20872 6.94131 33.5047 -7.64276 0.668669 -0.620598 1.12352 
5526 1 4.25642 6.83654 28.1495 -7.37479 -1.20344 -1.28473 1.4974 
5126 1 6.64332 9.31978 30.9836 -7.99905 0.361579 1.02139 -0.15585 