# LAMMPS data file written by Ovito Basic 3.0.0-dev791
360 atoms
5 atom types
0.0 14.200258255 xlo xhi
0.0 17.040309906 ylo yhi
0.0 17.040309906 zlo zhi

Atoms  # atomic

1 1 0.0 0.0 0.0
2 1 0.0 0.0 2.8400516567
3 1 0.0 0.0 5.6801032963
4 1 0.0 0.0 8.520154953
5 1 0.0 0.0 11.3602066097
6 1 0.0 0.0 14.2002582493
7 1 0.0 2.8400516567 0.0
8 1 0.0 2.8400516567 2.8400516567
9 1 0.0 2.8400516567 5.6801032963
10 1 0.0 2.8400516567 8.520154953
11 1 0.0 2.8400516567 11.3602066097
12 1 0.0 2.8400516567 14.2002582493
13 1 0.0 5.6801032963 0.0
14 1 0.0 5.6801032963 2.8400516567
15 1 0.0 5.6801032963 5.6801032963
16 1 0.0 5.6801032963 8.520154953
17 1 0.0 5.6801032963 11.3602066097
18 1 0.0 5.6801032963 14.2002582493
19 1 0.0 8.520154953 0.0
20 1 0.0 8.520154953 2.8400516567
21 1 0.0 8.520154953 5.6801032963
22 1 0.0 8.520154953 8.520154953
23 1 0.0 8.520154953 11.3602066097
24 1 0.0 8.520154953 14.2002582493
25 1 0.0 11.3602066097 0.0
26 1 0.0 11.3602066097 2.8400516567
27 1 0.0 11.3602066097 5.6801032963
28 1 0.0 11.3602066097 8.520154953
29 1 0.0 11.3602066097 11.3602066097
30 1 0.0 11.3602066097 14.2002582493
31 1 0.0 14.2002582493 0.0
32 1 0.0 14.2002582493 2.8400516567
33 1 0.0 14.2002582493 5.6801032963
34 1 0.0 14.2002582493 8.520154953
35 1 0.0 14.2002582493 11.3602066097
36 1 0.0 14.2002582493 14.2002582493
37 1 2.840051651 0.0 0.0
38 1 2.840051651 0.0 2.8400516567
39 1 2.840051651 0.0 5.6801032963
40 1 2.840051651 0.0 8.520154953
41 1 2.840051651 0.0 11.3602066097
42 1 2.840051651 0.0 14.2002582493
43 1 2.840051651 2.8400516567 0.0
44 1 2.840051651 2.8400516567 2.8400516567
45 1 2.840051651 2.8400516567 5.6801032963
46 1 2.840051651 2.8400516567 8.520154953
47 1 2.840051651 2.8400516567 11.3602066097
48 1 2.840051651 2.8400516567 14.2002582493
49 1 2.840051651 5.6801032963 0.0
50 1 2.840051651 5.6801032963 2.8400516567
51 1 2.840051651 5.6801032963 5.6801032963
52 1 2.840051651 5.6801032963 8.520154953
53 1 2.840051651 5.6801032963 11.3602066097
54 1 2.840051651 5.6801032963 14.2002582493
55 1 2.840051651 8.520154953 0.0
56 1 2.840051651 8.520154953 2.8400516567
57 1 2.840051651 8.520154953 5.6801032963
58 1 2.840051651 8.520154953 8.520154953
59 1 2.840051651 8.520154953 11.3602066097
60 1 2.840051651 8.520154953 14.2002582493
61 1 2.840051651 11.3602066097 0.0
62 1 2.840051651 11.3602066097 2.8400516567
63 1 2.840051651 11.3602066097 5.6801032963
64 1 2.840051651 11.3602066097 8.520154953
65 1 2.840051651 11.3602066097 11.3602066097
66 1 2.840051651 11.3602066097 14.2002582493
67 1 2.840051651 14.2002582493 0.0
68 1 2.840051651 14.2002582493 2.8400516567
69 1 2.840051651 14.2002582493 5.6801032963
70 1 2.840051651 14.2002582493 8.520154953
71 1 2.840051651 14.2002582493 11.3602066097
72 1 2.840051651 14.2002582493 14.2002582493
73 2 5.680103302 0.0 0.0
74 2 5.680103302 0.0 2.8400516567
75 2 5.680103302 0.0 5.6801032963
76 2 5.680103302 0.0 8.520154953
77 2 5.680103302 0.0 11.3602066097
78 2 5.680103302 0.0 14.2002582493
79 2 5.680103302 2.8400516567 0.0
80 2 5.680103302 2.8400516567 2.8400516567
81 2 5.680103302 2.8400516567 5.6801032963
82 2 5.680103302 2.8400516567 8.520154953
83 2 5.680103302 2.8400516567 11.3602066097
84 2 5.680103302 2.8400516567 14.2002582493
85 2 5.680103302 5.6801032963 0.0
86 2 5.680103302 5.6801032963 2.8400516567
87 2 5.680103302 5.6801032963 5.6801032963
88 2 5.680103302 5.6801032963 8.520154953
89 2 5.680103302 5.6801032963 11.3602066097
90 2 5.680103302 5.6801032963 14.2002582493
91 2 5.680103302 8.520154953 0.0
92 2 5.680103302 8.520154953 2.8400516567
93 2 5.680103302 8.520154953 5.6801032963
94 2 5.680103302 8.520154953 8.520154953
95 2 5.680103302 8.520154953 11.3602066097
96 2 5.680103302 8.520154953 14.2002582493
97 2 5.680103302 11.3602066097 0.0
98 2 5.680103302 11.3602066097 2.8400516567
99 2 5.680103302 11.3602066097 5.6801032963
100 2 5.680103302 11.3602066097 8.520154953
101 2 5.680103302 11.3602066097 11.3602066097
102 2 5.680103302 11.3602066097 14.2002582493
103 2 5.680103302 14.2002582493 0.0
104 2 5.680103302 14.2002582493 2.8400516567
105 2 5.680103302 14.2002582493 5.6801032963
106 2 5.680103302 14.2002582493 8.520154953
107 2 5.680103302 14.2002582493 11.3602066097
108 2 5.680103302 14.2002582493 14.2002582493
109 2 8.520154953 0.0 0.0
110 2 8.520154953 0.0 2.8400516567
111 2 8.520154953 0.0 5.6801032963
112 2 8.520154953 0.0 8.520154953
113 2 8.520154953 0.0 11.3602066097
114 2 8.520154953 0.0 14.2002582493
115 2 8.520154953 2.8400516567 0.0
116 2 8.520154953 2.8400516567 2.8400516567
117 2 8.520154953 2.8400516567 5.6801032963
118 2 8.520154953 2.8400516567 8.520154953
119 2 8.520154953 2.8400516567 11.3602066097
120 2 8.520154953 2.8400516567 14.2002582493
121 2 8.520154953 5.6801032963 0.0
122 2 8.520154953 5.6801032963 2.8400516567
123 2 8.520154953 5.6801032963 5.6801032963
124 2 8.520154953 5.6801032963 8.520154953
125 2 8.520154953 5.6801032963 11.3602066097
126 2 8.520154953 5.6801032963 14.2002582493
127 2 8.520154953 8.520154953 0.0
128 2 8.520154953 8.520154953 2.8400516567
129 2 8.520154953 8.520154953 5.6801032963
130 2 8.520154953 8.520154953 8.520154953
131 2 8.520154953 8.520154953 11.3602066097
132 2 8.520154953 8.520154953 14.2002582493
133 2 8.520154953 11.3602066097 0.0
134 2 8.520154953 11.3602066097 2.8400516567
135 2 8.520154953 11.3602066097 5.6801032963
136 2 8.520154953 11.3602066097 8.520154953
137 2 8.520154953 11.3602066097 11.3602066097
138 2 8.520154953 11.3602066097 14.2002582493
139 2 8.520154953 14.2002582493 0.0
140 2 8.520154953 14.2002582493 2.8400516567
141 2 8.520154953 14.2002582493 5.6801032963
142 2 8.520154953 14.2002582493 8.520154953
143 2 8.520154953 14.2002582493 11.3602066097
144 2 8.520154953 14.2002582493 14.2002582493
145 3 11.360206604 0.0 0.0
146 3 11.360206604 0.0 2.8400516567
147 3 11.360206604 0.0 5.6801032963
148 3 11.360206604 0.0 8.520154953
149 3 11.360206604 0.0 11.3602066097
150 3 11.360206604 0.0 14.2002582493
151 3 11.360206604 2.8400516567 0.0
152 3 11.360206604 2.8400516567 2.8400516567
153 3 11.360206604 2.8400516567 5.6801032963
154 3 11.360206604 2.8400516567 8.520154953
155 3 11.360206604 2.8400516567 11.3602066097
156 3 11.360206604 2.8400516567 14.2002582493
157 3 11.360206604 5.6801032963 0.0
158 3 11.360206604 5.6801032963 2.8400516567
159 3 11.360206604 5.6801032963 5.6801032963
160 3 11.360206604 5.6801032963 8.520154953
161 3 11.360206604 5.6801032963 11.3602066097
162 3 11.360206604 5.6801032963 14.2002582493
163 3 11.360206604 8.520154953 0.0
164 3 11.360206604 8.520154953 2.8400516567
165 3 11.360206604 8.520154953 5.6801032963
166 3 11.360206604 8.520154953 8.520154953
167 3 11.360206604 8.520154953 11.3602066097
168 3 11.360206604 8.520154953 14.2002582493
169 3 11.360206604 11.3602066097 0.0
170 3 11.360206604 11.3602066097 2.8400516567
171 3 11.360206604 11.3602066097 5.6801032963
172 3 11.360206604 11.3602066097 8.520154953
173 3 11.360206604 11.3602066097 11.3602066097
174 3 11.360206604 11.3602066097 14.2002582493
175 3 11.360206604 14.2002582493 0.0
176 3 11.360206604 14.2002582493 2.8400516567
177 3 11.360206604 14.2002582493 5.6801032963
178 3 11.360206604 14.2002582493 8.520154953
179 3 11.360206604 14.2002582493 11.3602066097
180 3 11.360206604 14.2002582493 14.2002582493
181 3 1.4200258255 1.4200258198 1.4200258198
182 3 1.4200258255 1.4200258198 4.2600774765
183 3 1.4200258255 1.4200258198 7.1001296103
184 3 1.4200258255 1.4200258198 9.9401807728
185 3 1.4200258255 1.4200258198 12.7802324295
186 3 1.4200258255 1.4200258198 15.6202831319
187 3 1.4200258255 4.2600774765 1.4200258198
188 3 1.4200258255 4.2600774765 4.2600774765
189 3 1.4200258255 4.2600774765 7.1001296103
190 3 1.4200258255 4.2600774765 9.9401807728
191 3 1.4200258255 4.2600774765 12.7802324295
192 3 1.4200258255 4.2600774765 15.6202831319
193 3 1.4200258255 7.1001296103 1.4200258198
194 3 1.4200258255 7.1001296103 4.2600774765
195 3 1.4200258255 7.1001296103 7.1001296103
196 3 1.4200258255 7.1001296103 9.9401807728
197 3 1.4200258255 7.1001296103 12.7802324295
198 3 1.4200258255 7.1001296103 15.6202831319
199 3 1.4200258255 9.9401807728 1.4200258198
200 3 1.4200258255 9.9401807728 4.2600774765
201 3 1.4200258255 9.9401807728 7.1001296103
202 3 1.4200258255 9.9401807728 9.9401807728
203 3 1.4200258255 9.9401807728 12.7802324295
204 3 1.4200258255 9.9401807728 15.6202831319
205 3 1.4200258255 12.7802324295 1.4200258198
206 3 1.4200258255 12.7802324295 4.2600774765
207 3 1.4200258255 12.7802324295 7.1001296103
208 3 1.4200258255 12.7802324295 9.9401807728
209 3 1.4200258255 12.7802324295 12.7802324295
210 3 1.4200258255 12.7802324295 15.6202831319
211 3 1.4200258255 15.6202831319 1.4200258198
212 3 1.4200258255 15.6202831319 4.2600774765
213 3 1.4200258255 15.6202831319 7.1001296103
214 3 1.4200258255 15.6202831319 9.9401807728
215 3 1.4200258255 15.6202831319 12.7802324295
216 3 1.4200258255 15.6202831319 15.6202831319
217 4 4.2600774765 1.4200258198 1.4200258198
218 4 4.2600774765 1.4200258198 4.2600774765
219 4 4.2600774765 1.4200258198 7.1001296103
220 4 4.2600774765 1.4200258198 9.9401807728
221 4 4.2600774765 1.4200258198 12.7802324295
222 4 4.2600774765 1.4200258198 15.6202831319
223 4 4.2600774765 4.2600774765 1.4200258198
224 4 4.2600774765 4.2600774765 4.2600774765
225 4 4.2600774765 4.2600774765 7.1001296103
226 4 4.2600774765 4.2600774765 9.9401807728
227 4 4.2600774765 4.2600774765 12.7802324295
228 4 4.2600774765 4.2600774765 15.6202831319
229 4 4.2600774765 7.1001296103 1.4200258198
230 4 4.2600774765 7.1001296103 4.2600774765
231 4 4.2600774765 7.1001296103 7.1001296103
232 4 4.2600774765 7.1001296103 9.9401807728
233 4 4.2600774765 7.1001296103 12.7802324295
234 4 4.2600774765 7.1001296103 15.6202831319
235 4 4.2600774765 9.9401807728 1.4200258198
236 4 4.2600774765 9.9401807728 4.2600774765
237 4 4.2600774765 9.9401807728 7.1001296103
238 4 4.2600774765 9.9401807728 9.9401807728
239 4 4.2600774765 9.9401807728 12.7802324295
240 4 4.2600774765 9.9401807728 15.6202831319
241 4 4.2600774765 12.7802324295 1.4200258198
242 4 4.2600774765 12.7802324295 4.2600774765
243 4 4.2600774765 12.7802324295 7.1001296103
244 4 4.2600774765 12.7802324295 9.9401807728
245 4 4.2600774765 12.7802324295 12.7802324295
246 4 4.2600774765 12.7802324295 15.6202831319
247 4 4.2600774765 15.6202831319 1.4200258198
248 4 4.2600774765 15.6202831319 4.2600774765
249 4 4.2600774765 15.6202831319 7.1001296103
250 4 4.2600774765 15.6202831319 9.9401807728
251 4 4.2600774765 15.6202831319 12.7802324295
252 4 4.2600774765 15.6202831319 15.6202831319
253 4 7.1001291275 1.4200258198 1.4200258198
254 4 7.1001291275 1.4200258198 4.2600774765
255 4 7.1001291275 1.4200258198 7.1001296103
256 4 7.1001291275 1.4200258198 9.9401807728
257 4 7.1001291275 1.4200258198 12.7802324295
258 4 7.1001291275 1.4200258198 15.6202831319
259 4 7.1001291275 4.2600774765 1.4200258198
260 4 7.1001291275 4.2600774765 4.2600774765
261 4 7.1001291275 4.2600774765 7.1001296103
262 4 7.1001291275 4.2600774765 9.9401807728
263 4 7.1001291275 4.2600774765 12.7802324295
264 4 7.1001291275 4.2600774765 15.6202831319
265 4 7.1001291275 7.1001296103 1.4200258198
266 4 7.1001291275 7.1001296103 4.2600774765
267 4 7.1001291275 7.1001296103 7.1001296103
268 4 7.1001291275 7.1001296103 9.9401807728
269 4 7.1001291275 7.1001296103 12.7802324295
270 4 7.1001291275 7.1001296103 15.6202831319
271 4 7.1001291275 9.9401807728 1.4200258198
272 4 7.1001291275 9.9401807728 4.2600774765
273 4 7.1001291275 9.9401807728 7.1001296103
274 4 7.1001291275 9.9401807728 9.9401807728
275 4 7.1001291275 9.9401807728 12.7802324295
276 4 7.1001291275 9.9401807728 15.6202831319
277 4 7.1001291275 12.7802324295 1.4200258198
278 4 7.1001291275 12.7802324295 4.2600774765
279 4 7.1001291275 12.7802324295 7.1001296103
280 4 7.1001291275 12.7802324295 9.9401807728
281 4 7.1001291275 12.7802324295 12.7802324295
282 4 7.1001291275 12.7802324295 15.6202831319
283 4 7.1001291275 15.6202831319 1.4200258198
284 4 7.1001291275 15.6202831319 4.2600774765
285 4 7.1001291275 15.6202831319 7.1001296103
286 4 7.1001291275 15.6202831319 9.9401807728
287 4 7.1001291275 15.6202831319 12.7802324295
288 4 7.1001291275 15.6202831319 15.6202831319
289 5 9.9401817299 1.4200258198 1.4200258198
290 5 9.9401817299 1.4200258198 4.2600774765
291 5 9.9401817299 1.4200258198 7.1001296103
292 5 9.9401817299 1.4200258198 9.9401807728
293 5 9.9401817299 1.4200258198 12.7802324295
294 5 9.9401817299 1.4200258198 15.6202831319
295 5 9.9401817299 4.2600774765 1.4200258198
296 5 9.9401817299 4.2600774765 4.2600774765
297 5 9.9401817299 4.2600774765 7.1001296103
298 5 9.9401817299 4.2600774765 9.9401807728
299 5 9.9401817299 4.2600774765 12.7802324295
300 5 9.9401817299 4.2600774765 15.6202831319
301 5 9.9401817299 7.1001296103 1.4200258198
302 5 9.9401817299 7.1001296103 4.2600774765
303 5 9.9401817299 7.1001296103 7.1001296103
304 5 9.9401817299 7.1001296103 9.9401807728
305 5 9.9401817299 7.1001296103 12.7802324295
306 5 9.9401817299 7.1001296103 15.6202831319
307 5 9.9401817299 9.9401807728 1.4200258198
308 5 9.9401817299 9.9401807728 4.2600774765
309 5 9.9401817299 9.9401807728 7.1001296103
310 5 9.9401817299 9.9401807728 9.9401807728
311 5 9.9401817299 9.9401807728 12.7802324295
312 5 9.9401817299 9.9401807728 15.6202831319
313 5 9.9401817299 12.7802324295 1.4200258198
314 5 9.9401817299 12.7802324295 4.2600774765
315 5 9.9401817299 12.7802324295 7.1001296103
316 5 9.9401817299 12.7802324295 9.9401807728
317 5 9.9401817299 12.7802324295 12.7802324295
318 5 9.9401817299 12.7802324295 15.6202831319
319 5 9.9401817299 15.6202831319 1.4200258198
320 5 9.9401817299 15.6202831319 4.2600774765
321 5 9.9401817299 15.6202831319 7.1001296103
322 5 9.9401817299 15.6202831319 9.9401807728
323 5 9.9401817299 15.6202831319 12.7802324295
324 5 9.9401817299 15.6202831319 15.6202831319
325 5 12.7802333809 1.4200258198 1.4200258198
326 5 12.7802333809 1.4200258198 4.2600774765
327 5 12.7802333809 1.4200258198 7.1001296103
328 5 12.7802333809 1.4200258198 9.9401807728
329 5 12.7802333809 1.4200258198 12.7802324295
330 5 12.7802333809 1.4200258198 15.6202831319
331 5 12.7802333809 4.2600774765 1.4200258198
332 5 12.7802333809 4.2600774765 4.2600774765
333 5 12.7802333809 4.2600774765 7.1001296103
334 5 12.7802333809 4.2600774765 9.9401807728
335 5 12.7802333809 4.2600774765 12.7802324295
336 5 12.7802333809 4.2600774765 15.6202831319
337 5 12.7802333809 7.1001296103 1.4200258198
338 5 12.7802333809 7.1001296103 4.2600774765
339 5 12.7802333809 7.1001296103 7.1001296103
340 5 12.7802333809 7.1001296103 9.9401807728
341 5 12.7802333809 7.1001296103 12.7802324295
342 5 12.7802333809 7.1001296103 15.6202831319
343 5 12.7802333809 9.9401807728 1.4200258198
344 5 12.7802333809 9.9401807728 4.2600774765
345 5 12.7802333809 9.9401807728 7.1001296103
346 5 12.7802333809 9.9401807728 9.9401807728
347 5 12.7802333809 9.9401807728 12.7802324295
348 5 12.7802333809 9.9401807728 15.6202831319
349 5 12.7802333809 12.7802324295 1.4200258198
350 5 12.7802333809 12.7802324295 4.2600774765
351 5 12.7802333809 12.7802324295 7.1001296103
352 5 12.7802333809 12.7802324295 9.9401807728
353 5 12.7802333809 12.7802324295 12.7802324295
354 5 12.7802333809 12.7802324295 15.6202831319
355 5 12.7802333809 15.6202831319 1.4200258198
356 5 12.7802333809 15.6202831319 4.2600774765
357 5 12.7802333809 15.6202831319 7.1001296103
358 5 12.7802333809 15.6202831319 9.9401807728
359 5 12.7802333809 15.6202831319 12.7802324295
360 5 12.7802333809 15.6202831319 15.6202831319
