# LAMMPS data file written by Ovito Basic 3.0.0-dev791
192 atoms
3 atom types
0.0 10.9370994568 xlo xhi
0.0 14.5827999115 ylo yhi
0.0 14.5827999115 zlo zhi

Atoms  # atomic

1 1 1.8228499897 0.0 1.8228499889
2 1 1.8228499897 0.0 5.4685497335
3 1 1.8228499897 0.0 9.114250178
4 1 1.8228499897 0.0 12.7599496892
5 1 1.8228499897 3.6456999779 1.8228499889
6 1 1.8228499897 3.6456999779 5.4685497335
7 1 1.8228499897 3.6456999779 9.114250178
8 1 1.8228499897 3.6456999779 12.7599496892
9 1 1.8228499897 7.2913999558 1.8228499889
10 1 1.8228499897 7.2913999558 5.4685497335
11 1 1.8228499897 7.2913999558 9.114250178
12 1 1.8228499897 7.2913999558 12.7599496892
13 1 1.8228499897 10.9370994524 1.8228499889
14 1 1.8228499897 10.9370994524 5.4685497335
15 1 1.8228499897 10.9370994524 9.114250178
16 1 1.8228499897 10.9370994524 12.7599496892
17 1 5.4685497284 0.0 1.8228499889
18 1 5.4685497284 0.0 5.4685497335
19 1 5.4685497284 0.0 9.114250178
20 1 5.4685497284 0.0 12.7599496892
21 1 5.4685497284 3.6456999779 1.8228499889
22 1 5.4685497284 3.6456999779 5.4685497335
23 1 5.4685497284 3.6456999779 9.114250178
24 1 5.4685497284 3.6456999779 12.7599496892
25 1 5.4685497284 7.2913999558 1.8228499889
26 1 5.4685497284 7.2913999558 5.4685497335
27 1 5.4685497284 7.2913999558 9.114250178
28 1 5.4685497284 7.2913999558 12.7599496892
29 1 5.4685497284 10.9370994524 1.8228499889
30 1 5.4685497284 10.9370994524 5.4685497335
31 1 5.4685497284 10.9370994524 9.114250178
32 1 5.4685497284 10.9370994524 12.7599496892
33 1 9.114250178 0.0 1.8228499889
34 1 9.114250178 0.0 5.4685497335
35 1 9.114250178 0.0 9.114250178
36 1 9.114250178 0.0 12.7599496892
37 1 9.114250178 3.6456999779 1.8228499889
38 1 9.114250178 3.6456999779 5.4685497335
39 1 9.114250178 3.6456999779 9.114250178
40 1 9.114250178 3.6456999779 12.7599496892
41 1 9.114250178 7.2913999558 1.8228499889
42 1 9.114250178 7.2913999558 5.4685497335
43 1 9.114250178 7.2913999558 9.114250178
44 1 9.114250178 7.2913999558 12.7599496892
45 1 9.114250178 10.9370994524 1.8228499889
46 1 9.114250178 10.9370994524 5.4685497335
47 1 9.114250178 10.9370994524 9.114250178
48 1 9.114250178 10.9370994524 12.7599496892
49 1 1.8228499897 1.8228499889 0.0
50 1 1.8228499897 1.8228499889 3.6456999779
51 1 1.8228499897 1.8228499889 7.2913999558
52 1 1.8228499897 1.8228499889 10.9370994524
53 1 1.8228499897 5.4685497335 0.0
54 1 1.8228499897 5.4685497335 3.6456999779
55 1 1.8228499897 5.4685497335 7.2913999558
56 1 1.8228499897 5.4685497335 10.9370994524
57 1 1.8228499897 9.114250178 0.0
58 1 1.8228499897 9.114250178 3.6456999779
59 1 1.8228499897 9.114250178 7.2913999558
60 1 1.8228499897 9.114250178 10.9370994524
61 1 1.8228499897 12.7599496892 0.0
62 1 1.8228499897 12.7599496892 3.6456999779
63 1 1.8228499897 12.7599496892 7.2913999558
64 1 1.8228499897 12.7599496892 10.9370994524
65 2 5.4685497284 1.8228499889 0.0
66 2 5.4685497284 1.8228499889 3.6456999779
67 2 5.4685497284 1.8228499889 7.2913999558
68 2 5.4685497284 1.8228499889 10.9370994524
69 2 5.4685497284 5.4685497335 0.0
70 2 5.4685497284 5.4685497335 3.6456999779
71 2 5.4685497284 5.4685497335 7.2913999558
72 2 5.4685497284 5.4685497335 10.9370994524
73 2 5.4685497284 9.114250178 0.0
74 2 5.4685497284 9.114250178 3.6456999779
75 2 5.4685497284 9.114250178 7.2913999558
76 2 5.4685497284 9.114250178 10.9370994524
77 2 5.4685497284 12.7599496892 0.0
78 2 5.4685497284 12.7599496892 3.6456999779
79 2 5.4685497284 12.7599496892 7.2913999558
80 2 5.4685497284 12.7599496892 10.9370994524
81 2 9.114250178 1.8228499889 0.0
82 2 9.114250178 1.8228499889 3.6456999779
83 2 9.114250178 1.8228499889 7.2913999558
84 2 9.114250178 1.8228499889 10.9370994524
85 2 9.114250178 5.4685497335 0.0
86 2 9.114250178 5.4685497335 3.6456999779
87 2 9.114250178 5.4685497335 7.2913999558
88 2 9.114250178 5.4685497335 10.9370994524
89 2 9.114250178 9.114250178 0.0
90 2 9.114250178 9.114250178 3.6456999779
91 2 9.114250178 9.114250178 7.2913999558
92 2 9.114250178 9.114250178 10.9370994524
93 2 9.114250178 12.7599496892 0.0
94 2 9.114250178 12.7599496892 3.6456999779
95 2 9.114250178 12.7599496892 7.2913999558
96 2 9.114250178 12.7599496892 10.9370994524
97 2 0.0 0.0 0.0
98 2 0.0 0.0 3.6456999779
99 2 0.0 0.0 7.2913999558
100 2 0.0 0.0 10.9370994524
101 2 0.0 3.6456999779 0.0
102 2 0.0 3.6456999779 3.6456999779
103 2 0.0 3.6456999779 7.2913999558
104 2 0.0 3.6456999779 10.9370994524
105 2 0.0 7.2913999558 0.0
106 2 0.0 7.2913999558 3.6456999779
107 2 0.0 7.2913999558 7.2913999558
108 2 0.0 7.2913999558 10.9370994524
109 2 0.0 10.9370994524 0.0
110 2 0.0 10.9370994524 3.6456999779
111 2 0.0 10.9370994524 7.2913999558
112 2 0.0 10.9370994524 10.9370994524
113 2 3.6456999793 0.0 0.0
114 2 3.6456999793 0.0 3.6456999779
115 2 3.6456999793 0.0 7.2913999558
116 2 3.6456999793 0.0 10.9370994524
117 2 3.6456999793 3.6456999779 0.0
118 2 3.6456999793 3.6456999779 3.6456999779
119 2 3.6456999793 3.6456999779 7.2913999558
120 2 3.6456999793 3.6456999779 10.9370994524
121 2 3.6456999793 7.2913999558 0.0
122 2 3.6456999793 7.2913999558 3.6456999779
123 2 3.6456999793 7.2913999558 7.2913999558
124 2 3.6456999793 7.2913999558 10.9370994524
125 2 3.6456999793 10.9370994524 0.0
126 2 3.6456999793 10.9370994524 3.6456999779
127 2 3.6456999793 10.9370994524 7.2913999558
128 2 3.6456999793 10.9370994524 10.9370994524
129 3 7.2913999587 0.0 0.0
130 3 7.2913999587 0.0 3.6456999779
131 3 7.2913999587 0.0 7.2913999558
132 3 7.2913999587 0.0 10.9370994524
133 3 7.2913999587 3.6456999779 0.0
134 3 7.2913999587 3.6456999779 3.6456999779
135 3 7.2913999587 3.6456999779 7.2913999558
136 3 7.2913999587 3.6456999779 10.9370994524
137 3 7.2913999587 7.2913999558 0.0
138 3 7.2913999587 7.2913999558 3.6456999779
139 3 7.2913999587 7.2913999558 7.2913999558
140 3 7.2913999587 7.2913999558 10.9370994524
141 3 7.2913999587 10.9370994524 0.0
142 3 7.2913999587 10.9370994524 3.6456999779
143 3 7.2913999587 10.9370994524 7.2913999558
144 3 7.2913999587 10.9370994524 10.9370994524
145 3 0.0 1.8228499889 1.8228499889
146 3 0.0 1.8228499889 5.4685497335
147 3 0.0 1.8228499889 9.114250178
148 3 0.0 1.8228499889 12.7599496892
149 3 0.0 5.4685497335 1.8228499889
150 3 0.0 5.4685497335 5.4685497335
151 3 0.0 5.4685497335 9.114250178
152 3 0.0 5.4685497335 12.7599496892
153 3 0.0 9.114250178 1.8228499889
154 3 0.0 9.114250178 5.4685497335
155 3 0.0 9.114250178 9.114250178
156 3 0.0 9.114250178 12.7599496892
157 3 0.0 12.7599496892 1.8228499889
158 3 0.0 12.7599496892 5.4685497335
159 3 0.0 12.7599496892 9.114250178
160 3 0.0 12.7599496892 12.7599496892
161 3 3.6456999793 1.8228499889 1.8228499889
162 3 3.6456999793 1.8228499889 5.4685497335
163 3 3.6456999793 1.8228499889 9.114250178
164 3 3.6456999793 1.8228499889 12.7599496892
165 3 3.6456999793 5.4685497335 1.8228499889
166 3 3.6456999793 5.4685497335 5.4685497335
167 3 3.6456999793 5.4685497335 9.114250178
168 3 3.6456999793 5.4685497335 12.7599496892
169 3 3.6456999793 9.114250178 1.8228499889
170 3 3.6456999793 9.114250178 5.4685497335
171 3 3.6456999793 9.114250178 9.114250178
172 3 3.6456999793 9.114250178 12.7599496892
173 3 3.6456999793 12.7599496892 1.8228499889
174 3 3.6456999793 12.7599496892 5.4685497335
175 3 3.6456999793 12.7599496892 9.114250178
176 3 3.6456999793 12.7599496892 12.7599496892
177 3 7.2913999587 1.8228499889 1.8228499889
178 3 7.2913999587 1.8228499889 5.4685497335
179 3 7.2913999587 1.8228499889 9.114250178
180 3 7.2913999587 1.8228499889 12.7599496892
181 3 7.2913999587 5.4685497335 1.8228499889
182 3 7.2913999587 5.4685497335 5.4685497335
183 3 7.2913999587 5.4685497335 9.114250178
184 3 7.2913999587 5.4685497335 12.7599496892
185 3 7.2913999587 9.114250178 1.8228499889
186 3 7.2913999587 9.114250178 5.4685497335
187 3 7.2913999587 9.114250178 9.114250178
188 3 7.2913999587 9.114250178 12.7599496892
189 3 7.2913999587 12.7599496892 1.8228499889
190 3 7.2913999587 12.7599496892 5.4685497335
191 3 7.2913999587 12.7599496892 9.114250178
192 3 7.2913999587 12.7599496892 12.7599496892
