# LAMMPS data file written by Ovito Basic 3.0.0-dev791
300 atoms
3 atom types
0.0 14.200258255 xlo xhi
0.0 14.200258255 ylo yhi
0.0 17.040309906 zlo zhi

Atoms  # atomic

1 1 0.0 0.0 0.0
2 1 0.0 0.0 2.8400516567
3 1 0.0 0.0 5.6801032963
4 1 0.0 0.0 8.520154953
5 1 0.0 0.0 11.3602066097
6 1 0.0 0.0 14.2002582493
7 1 0.0 2.840051651 0.0
8 1 0.0 2.840051651 2.8400516567
9 1 0.0 2.840051651 5.6801032963
10 1 0.0 2.840051651 8.520154953
11 1 0.0 2.840051651 11.3602066097
12 1 0.0 2.840051651 14.2002582493
13 1 0.0 5.680103302 0.0
14 1 0.0 5.680103302 2.8400516567
15 1 0.0 5.680103302 5.6801032963
16 1 0.0 5.680103302 8.520154953
17 1 0.0 5.680103302 11.3602066097
18 1 0.0 5.680103302 14.2002582493
19 1 0.0 8.520154953 0.0
20 1 0.0 8.520154953 2.8400516567
21 1 0.0 8.520154953 5.6801032963
22 1 0.0 8.520154953 8.520154953
23 1 0.0 8.520154953 11.3602066097
24 1 0.0 8.520154953 14.2002582493
25 1 0.0 11.360206604 0.0
26 1 0.0 11.360206604 2.8400516567
27 1 0.0 11.360206604 5.6801032963
28 1 0.0 11.360206604 8.520154953
29 1 0.0 11.360206604 11.3602066097
30 1 0.0 11.360206604 14.2002582493
31 1 2.840051651 0.0 0.0
32 1 2.840051651 0.0 2.8400516567
33 1 2.840051651 0.0 5.6801032963
34 1 2.840051651 0.0 8.520154953
35 1 2.840051651 0.0 11.3602066097
36 1 2.840051651 0.0 14.2002582493
37 1 2.840051651 2.840051651 0.0
38 1 2.840051651 2.840051651 2.8400516567
39 1 2.840051651 2.840051651 5.6801032963
40 1 2.840051651 2.840051651 8.520154953
41 1 2.840051651 2.840051651 11.3602066097
42 1 2.840051651 2.840051651 14.2002582493
43 1 2.840051651 5.680103302 0.0
44 1 2.840051651 5.680103302 2.8400516567
45 1 2.840051651 5.680103302 5.6801032963
46 1 2.840051651 5.680103302 8.520154953
47 1 2.840051651 5.680103302 11.3602066097
48 1 2.840051651 5.680103302 14.2002582493
49 1 2.840051651 8.520154953 0.0
50 1 2.840051651 8.520154953 2.8400516567
51 1 2.840051651 8.520154953 5.6801032963
52 1 2.840051651 8.520154953 8.520154953
53 1 2.840051651 8.520154953 11.3602066097
54 1 2.840051651 8.520154953 14.2002582493
55 1 2.840051651 11.360206604 0.0
56 1 2.840051651 11.360206604 2.8400516567
57 1 2.840051651 11.360206604 5.6801032963
58 1 2.840051651 11.360206604 8.520154953
59 1 2.840051651 11.360206604 11.3602066097
60 1 2.840051651 11.360206604 14.2002582493
61 1 5.680103302 0.0 0.0
62 1 5.680103302 0.0 2.8400516567
63 1 5.680103302 0.0 5.6801032963
64 1 5.680103302 0.0 8.520154953
65 1 5.680103302 0.0 11.3602066097
66 1 5.680103302 0.0 14.2002582493
67 1 5.680103302 2.840051651 0.0
68 1 5.680103302 2.840051651 2.8400516567
69 1 5.680103302 2.840051651 5.6801032963
70 1 5.680103302 2.840051651 8.520154953
71 1 5.680103302 2.840051651 11.3602066097
72 1 5.680103302 2.840051651 14.2002582493
73 1 5.680103302 5.680103302 0.0
74 1 5.680103302 5.680103302 2.8400516567
75 1 5.680103302 5.680103302 5.6801032963
76 1 5.680103302 5.680103302 8.520154953
77 1 5.680103302 5.680103302 11.3602066097
78 1 5.680103302 5.680103302 14.2002582493
79 1 5.680103302 8.520154953 0.0
80 1 5.680103302 8.520154953 2.8400516567
81 1 5.680103302 8.520154953 5.6801032963
82 1 5.680103302 8.520154953 8.520154953
83 1 5.680103302 8.520154953 11.3602066097
84 1 5.680103302 8.520154953 14.2002582493
85 1 5.680103302 11.360206604 0.0
86 1 5.680103302 11.360206604 2.8400516567
87 1 5.680103302 11.360206604 5.6801032963
88 1 5.680103302 11.360206604 8.520154953
89 1 5.680103302 11.360206604 11.3602066097
90 1 5.680103302 11.360206604 14.2002582493
91 1 8.520154953 0.0 0.0
92 1 8.520154953 0.0 2.8400516567
93 1 8.520154953 0.0 5.6801032963
94 1 8.520154953 0.0 8.520154953
95 1 8.520154953 0.0 11.3602066097
96 1 8.520154953 0.0 14.2002582493
97 1 8.520154953 2.840051651 0.0
98 1 8.520154953 2.840051651 2.8400516567
99 1 8.520154953 2.840051651 5.6801032963
100 1 8.520154953 2.840051651 8.520154953
101 2 8.520154953 2.840051651 11.3602066097
102 2 8.520154953 2.840051651 14.2002582493
103 2 8.520154953 5.680103302 0.0
104 2 8.520154953 5.680103302 2.8400516567
105 2 8.520154953 5.680103302 5.6801032963
106 2 8.520154953 5.680103302 8.520154953
107 2 8.520154953 5.680103302 11.3602066097
108 2 8.520154953 5.680103302 14.2002582493
109 2 8.520154953 8.520154953 0.0
110 2 8.520154953 8.520154953 2.8400516567
111 2 8.520154953 8.520154953 5.6801032963
112 2 8.520154953 8.520154953 8.520154953
113 2 8.520154953 8.520154953 11.3602066097
114 2 8.520154953 8.520154953 14.2002582493
115 2 8.520154953 11.360206604 0.0
116 2 8.520154953 11.360206604 2.8400516567
117 2 8.520154953 11.360206604 5.6801032963
118 2 8.520154953 11.360206604 8.520154953
119 2 8.520154953 11.360206604 11.3602066097
120 2 8.520154953 11.360206604 14.2002582493
121 2 11.360206604 0.0 0.0
122 2 11.360206604 0.0 2.8400516567
123 2 11.360206604 0.0 5.6801032963
124 2 11.360206604 0.0 8.520154953
125 2 11.360206604 0.0 11.3602066097
126 2 11.360206604 0.0 14.2002582493
127 2 11.360206604 2.840051651 0.0
128 2 11.360206604 2.840051651 2.8400516567
129 2 11.360206604 2.840051651 5.6801032963
130 2 11.360206604 2.840051651 8.520154953
131 2 11.360206604 2.840051651 11.3602066097
132 2 11.360206604 2.840051651 14.2002582493
133 2 11.360206604 5.680103302 0.0
134 2 11.360206604 5.680103302 2.8400516567
135 2 11.360206604 5.680103302 5.6801032963
136 2 11.360206604 5.680103302 8.520154953
137 2 11.360206604 5.680103302 11.3602066097
138 2 11.360206604 5.680103302 14.2002582493
139 2 11.360206604 8.520154953 0.0
140 2 11.360206604 8.520154953 2.8400516567
141 2 11.360206604 8.520154953 5.6801032963
142 2 11.360206604 8.520154953 8.520154953
143 2 11.360206604 8.520154953 11.3602066097
144 2 11.360206604 8.520154953 14.2002582493
145 2 11.360206604 11.360206604 0.0
146 2 11.360206604 11.360206604 2.8400516567
147 2 11.360206604 11.360206604 5.6801032963
148 2 11.360206604 11.360206604 8.520154953
149 2 11.360206604 11.360206604 11.3602066097
150 2 11.360206604 11.360206604 14.2002582493
151 2 1.4200258255 1.4200258255 1.4200258198
152 2 1.4200258255 1.4200258255 4.2600774765
153 2 1.4200258255 1.4200258255 7.1001296103
154 2 1.4200258255 1.4200258255 9.9401807728
155 2 1.4200258255 1.4200258255 12.7802324295
156 2 1.4200258255 1.4200258255 15.6202831319
157 2 1.4200258255 4.2600774765 1.4200258198
158 2 1.4200258255 4.2600774765 4.2600774765
159 2 1.4200258255 4.2600774765 7.1001296103
160 2 1.4200258255 4.2600774765 9.9401807728
161 2 1.4200258255 4.2600774765 12.7802324295
162 2 1.4200258255 4.2600774765 15.6202831319
163 2 1.4200258255 7.1001291275 1.4200258198
164 2 1.4200258255 7.1001291275 4.2600774765
165 2 1.4200258255 7.1001291275 7.1001296103
166 2 1.4200258255 7.1001291275 9.9401807728
167 2 1.4200258255 7.1001291275 12.7802324295
168 2 1.4200258255 7.1001291275 15.6202831319
169 2 1.4200258255 9.9401817299 1.4200258198
170 2 1.4200258255 9.9401817299 4.2600774765
171 2 1.4200258255 9.9401817299 7.1001296103
172 2 1.4200258255 9.9401817299 9.9401807728
173 2 1.4200258255 9.9401817299 12.7802324295
174 2 1.4200258255 9.9401817299 15.6202831319
175 2 1.4200258255 12.7802333809 1.4200258198
176 2 1.4200258255 12.7802333809 4.2600774765
177 2 1.4200258255 12.7802333809 7.1001296103
178 2 1.4200258255 12.7802333809 9.9401807728
179 2 1.4200258255 12.7802333809 12.7802324295
180 2 1.4200258255 12.7802333809 15.6202831319
181 2 4.2600774765 1.4200258255 1.4200258198
182 2 4.2600774765 1.4200258255 4.2600774765
183 2 4.2600774765 1.4200258255 7.1001296103
184 2 4.2600774765 1.4200258255 9.9401807728
185 2 4.2600774765 1.4200258255 12.7802324295
186 2 4.2600774765 1.4200258255 15.6202831319
187 2 4.2600774765 4.2600774765 1.4200258198
188 2 4.2600774765 4.2600774765 4.2600774765
189 2 4.2600774765 4.2600774765 7.1001296103
190 2 4.2600774765 4.2600774765 9.9401807728
191 2 4.2600774765 4.2600774765 12.7802324295
192 2 4.2600774765 4.2600774765 15.6202831319
193 2 4.2600774765 7.1001291275 1.4200258198
194 2 4.2600774765 7.1001291275 4.2600774765
195 2 4.2600774765 7.1001291275 7.1001296103
196 2 4.2600774765 7.1001291275 9.9401807728
197 2 4.2600774765 7.1001291275 12.7802324295
198 2 4.2600774765 7.1001291275 15.6202831319
199 2 4.2600774765 9.9401817299 1.4200258198
200 2 4.2600774765 9.9401817299 4.2600774765
201 3 4.2600774765 9.9401817299 7.1001296103
202 3 4.2600774765 9.9401817299 9.9401807728
203 3 4.2600774765 9.9401817299 12.7802324295
204 3 4.2600774765 9.9401817299 15.6202831319
205 3 4.2600774765 12.7802333809 1.4200258198
206 3 4.2600774765 12.7802333809 4.2600774765
207 3 4.2600774765 12.7802333809 7.1001296103
208 3 4.2600774765 12.7802333809 9.9401807728
209 3 4.2600774765 12.7802333809 12.7802324295
210 3 4.2600774765 12.7802333809 15.6202831319
211 3 7.1001291275 1.4200258255 1.4200258198
212 3 7.1001291275 1.4200258255 4.2600774765
213 3 7.1001291275 1.4200258255 7.1001296103
214 3 7.1001291275 1.4200258255 9.9401807728
215 3 7.1001291275 1.4200258255 12.7802324295
216 3 7.1001291275 1.4200258255 15.6202831319
217 3 7.1001291275 4.2600774765 1.4200258198
218 3 7.1001291275 4.2600774765 4.2600774765
219 3 7.1001291275 4.2600774765 7.1001296103
220 3 7.1001291275 4.2600774765 9.9401807728
221 3 7.1001291275 4.2600774765 12.7802324295
222 3 7.1001291275 4.2600774765 15.6202831319
223 3 7.1001291275 7.1001291275 1.4200258198
224 3 7.1001291275 7.1001291275 4.2600774765
225 3 7.1001291275 7.1001291275 7.1001296103
226 3 7.1001291275 7.1001291275 9.9401807728
227 3 7.1001291275 7.1001291275 12.7802324295
228 3 7.1001291275 7.1001291275 15.6202831319
229 3 7.1001291275 9.9401817299 1.4200258198
230 3 7.1001291275 9.9401817299 4.2600774765
231 3 7.1001291275 9.9401817299 7.1001296103
232 3 7.1001291275 9.9401817299 9.9401807728
233 3 7.1001291275 9.9401817299 12.7802324295
234 3 7.1001291275 9.9401817299 15.6202831319
235 3 7.1001291275 12.7802333809 1.4200258198
236 3 7.1001291275 12.7802333809 4.2600774765
237 3 7.1001291275 12.7802333809 7.1001296103
238 3 7.1001291275 12.7802333809 9.9401807728
239 3 7.1001291275 12.7802333809 12.7802324295
240 3 7.1001291275 12.7802333809 15.6202831319
241 3 9.9401817299 1.4200258255 1.4200258198
242 3 9.9401817299 1.4200258255 4.2600774765
243 3 9.9401817299 1.4200258255 7.1001296103
244 3 9.9401817299 1.4200258255 9.9401807728
245 3 9.9401817299 1.4200258255 12.7802324295
246 3 9.9401817299 1.4200258255 15.6202831319
247 3 9.9401817299 4.2600774765 1.4200258198
248 3 9.9401817299 4.2600774765 4.2600774765
249 3 9.9401817299 4.2600774765 7.1001296103
250 3 9.9401817299 4.2600774765 9.9401807728
251 3 9.9401817299 4.2600774765 12.7802324295
252 3 9.9401817299 4.2600774765 15.6202831319
253 3 9.9401817299 7.1001291275 1.4200258198
254 3 9.9401817299 7.1001291275 4.2600774765
255 3 9.9401817299 7.1001291275 7.1001296103
256 3 9.9401817299 7.1001291275 9.9401807728
257 3 9.9401817299 7.1001291275 12.7802324295
258 3 9.9401817299 7.1001291275 15.6202831319
259 3 9.9401817299 9.9401817299 1.4200258198
260 3 9.9401817299 9.9401817299 4.2600774765
261 3 9.9401817299 9.9401817299 7.1001296103
262 3 9.9401817299 9.9401817299 9.9401807728
263 3 9.9401817299 9.9401817299 12.7802324295
264 3 9.9401817299 9.9401817299 15.6202831319
265 3 9.9401817299 12.7802333809 1.4200258198
266 3 9.9401817299 12.7802333809 4.2600774765
267 3 9.9401817299 12.7802333809 7.1001296103
268 3 9.9401817299 12.7802333809 9.9401807728
269 3 9.9401817299 12.7802333809 12.7802324295
270 3 9.9401817299 12.7802333809 15.6202831319
271 3 12.7802333809 1.4200258255 1.4200258198
272 3 12.7802333809 1.4200258255 4.2600774765
273 3 12.7802333809 1.4200258255 7.1001296103
274 3 12.7802333809 1.4200258255 9.9401807728
275 3 12.7802333809 1.4200258255 12.7802324295
276 3 12.7802333809 1.4200258255 15.6202831319
277 3 12.7802333809 4.2600774765 1.4200258198
278 3 12.7802333809 4.2600774765 4.2600774765
279 3 12.7802333809 4.2600774765 7.1001296103
280 3 12.7802333809 4.2600774765 9.9401807728
281 3 12.7802333809 4.2600774765 12.7802324295
282 3 12.7802333809 4.2600774765 15.6202831319
283 3 12.7802333809 7.1001291275 1.4200258198
284 3 12.7802333809 7.1001291275 4.2600774765
285 3 12.7802333809 7.1001291275 7.1001296103
286 3 12.7802333809 7.1001291275 9.9401807728
287 3 12.7802333809 7.1001291275 12.7802324295
288 3 12.7802333809 7.1001291275 15.6202831319
289 3 12.7802333809 9.9401817299 1.4200258198
290 3 12.7802333809 9.9401817299 4.2600774765
291 3 12.7802333809 9.9401817299 7.1001296103
292 3 12.7802333809 9.9401817299 9.9401807728
293 3 12.7802333809 9.9401817299 12.7802324295
294 3 12.7802333809 9.9401817299 15.6202831319
295 3 12.7802333809 12.7802333809 1.4200258198
296 3 12.7802333809 12.7802333809 4.2600774765
297 3 12.7802333809 12.7802333809 7.1001296103
298 3 12.7802333809 12.7802333809 9.9401807728
299 3 12.7802333809 12.7802333809 12.7802324295
300 3 12.7802333809 12.7802333809 15.6202831319
