ITEM: TIMESTEP
0
ITEM: NUMBER OF ATOMS
6000
ITEM: BOX BOUNDS pp pp pp
9.1963920025577295e-03 2.7331803607997450e+01
1.2592514135494781e-02 2.7328407485864126e+01
3.0594317631184254e-02 1.0933340568236825e+02
ITEM: ATOMS id type x y z c_peratom fx fy fz 
122 2 5.12753 5.36185 5.5857 -25.6304 1.88027 1.08432 -0.319106 
601 2 5.43535 2.80085 2.98669 -25.6072 -0.48968 -1.7451 -1.9066 
602 2 5.17346 2.52056 8.31526 -25.3852 2.14327 0.511794 -0.0844028 
1021 2 2.50673 5.47069 2.61981 -25.7089 1.59111 1.27772 2.11494 
1022 2 2.69379 5.34512 8.16158 -24.7318 -1.88761 0.347889 1.65969 
1502 2 2.48389 2.72115 5.50272 -25.0645 1.21642 0.57246 -1.37972 
2001 1 1.29267 1.18902 1.38927 -7.19355 0.80222 1.80557 -0.264899 
2002 1 1.14813 1.7149 6.87373 -8.39075 0.530069 -1.30068 -0.158426 
2501 1 4.07487 3.96233 4.19244 -7.09341 -3.27807 0.727429 0.581256 
3001 1 4.28686 4.30295 1.4591 -7.16202 -1.23593 -2.35279 -0.044681 
3002 1 3.77978 3.81141 6.96155 -8.31098 0.874149 1.21989 0.436666 
3501 1 1.40941 1.09168 4.04258 -7.43918 -1.65956 3.34965 0.926461 
4001 1 3.90495 1.29224 4.12352 -7.44983 -0.287227 1.00896 -1.69458 
4501 1 1.2977 4.03915 1.30596 -8.21415 1.36694 -0.658379 1.37127 
4502 1 1.2557 4.64917 6.47957 -6.61267 1.14553 -2.17468 2.24794 
5001 1 1.36783 4.08079 4.06887 -7.40494 -0.235219 -1.45753 -1.64314 
5501 1 4.14119 1.30074 1.29829 -7.48052 -0.043656 1.66773 0.366534 
5502 1 3.98369 1.14119 6.82689 -7.71458 -1.10042 0.981053 0.893588 
5521 1 4.06467 6.78726 1.56342 -6.49006 -0.865778 2.17462 0.748477 
4021 1 3.45726 6.7887 4.34478 -6.66219 1.77476 -2.42768 -0.488392 
5522 1 3.93918 6.83958 7.01459 -8.48552 0.0541137 -2.43036 0.021019 
2121 1 6.6666 6.60234 1.27561 -7.76765 0.327344 1.4268 -0.804122 
2 2 0.0215604 0.027316 5.43422 -25.0352 -0.768475 -0.295904 0.806703 
4602 1 6.56923 4.09635 6.9204 -7.01899 -0.253096 -1.21058 1.47444 
3601 1 6.48958 1.4343 4.56335 -7.37189 2.38671 1.47881 -1.79713 
5101 1 6.49608 4.18876 4.25385 -6.24338 2.32667 0.0634184 0.556028 
3521 1 0.82504 6.79087 3.99897 -6.27558 -0.3514 -0.815324 -0.66125 
3621 1 6.60581 6.75503 4.16736 -7.26497 -0.411909 2.14799 -0.75328 
3522 1 1.30944 6.78543 9.10399 -7.29933 0.0528384 0.538843 1.28945 
102 2 5.11977 0.0838022 5.38549 -24.8827 1.47041 -4.35344 1.93069 
2102 1 6.96934 1.35527 7.21881 -6.86653 -0.661438 1.56827 -0.357347 
1101 2 8.13397 0.0833218 2.8527 -25.2092 0.57916 -0.952515 -1.6791 
2122 1 6.91959 6.69783 6.90322 -6.44533 -1.58084 0.614832 -0.565093 
1601 3 7.93102 2.78249 0.227091 -28.1081 2.63227 -2.31659 0.344233 
4601 1 6.9263 3.86222 1.69625 -7.60633 -0.544427 0.0905119 -2.15669 
2101 1 6.85492 1.32125 1.59991 -7.6528 -0.477849 0.182053 -0.00852082 
222 2 10.7126 5.36539 5.5289 -24.6412 2.5636 -0.867655 1.12686 
701 2 10.8277 2.78773 2.74073 -24.547 0.469181 0.902296 0.48985 
702 2 11.1321 2.69434 8.32603 -25.3086 -0.757383 0.336505 0.0740034 
1121 2 7.90423 5.51368 2.72436 -25.6861 0.945545 -0.153026 2.52486 
1122 2 8.12229 5.21337 8.42717 -25.7586 -0.726927 2.3241 -1.33597 
1602 2 8.20545 2.6838 5.70121 -25.6987 -2.75796 1.02284 0.204215 
2201 1 12.3419 1.2988 1.46027 -7.91952 -0.179185 1.3625 -0.257553 
2202 1 12.2864 1.11595 7.13307 -7.11831 -0.547827 0.544836 0.305392 
2601 1 9.1237 3.94004 3.99925 -7.554 2.3872 0.241917 0.591747 
3101 1 9.42453 4.53162 1.29071 -7.36498 -1.79082 -2.71452 0.999846 
3102 1 9.40715 4.18644 6.98415 -7.61812 0.555589 0.447994 -1.98311 
3701 1 12.3299 1.22901 4.22078 -7.59408 -1.46876 1.2609 -0.193121 
4101 1 9.25538 1.28202 4.27995 -8.15532 1.56842 0.638909 -0.0614952 
4701 1 12.0465 4.48427 1.48612 -7.47958 0.927905 -2.83898 -0.255798 
4702 1 12.1499 3.83191 6.56774 -7.56062 0.110929 0.837265 2.2732 
5201 1 12.1973 4.01191 4.05574 -7.46668 -0.716039 0.218548 -0.640761 
5601 1 9.67687 1.5406 1.48329 -7.13718 -1.83218 0.384582 1.19837 
5602 1 9.69722 1.62198 6.99523 -7.18554 -0.0378556 -2.01123 -0.718037 
2222 1 12.2564 6.73957 6.79891 -7.5429 0.3594 -0.422822 0.423204 
4121 1 9.51426 6.68111 4.40562 -8.29535 -0.666158 1.90124 -0.974341 
1221 2 13.6695 5.3942 2.63152 -25.1359 0.513771 1.83404 1.28574 
2021 1 1.22202 6.95086 1.36558 -7.48109 2.33736 -1.60333 -0.628086 
542 3 0.118194 13.4933 8.26035 -30.2962 -0.440646 1.97445 0.873376 
2022 1 0.863431 7.07066 6.64821 -6.65146 0.868723 2.07473 0.602217 
142 2 5.38 10.6645 5.50362 -25.5113 0.538592 1.08697 0.605387 
621 2 5.51926 8.38422 2.78437 -24.8822 -1.45955 -2.58092 -0.0745037 
622 2 5.30294 7.94307 8.37137 -25.8252 2.10264 0.927183 0.208659 
1041 2 2.6416 10.8793 2.56996 -25.9238 -1.1459 0.240903 1.11439 
1042 2 2.61457 10.9393 8.33056 -25.4207 1.44111 -0.388655 -1.09305 
1522 2 2.49296 8.13684 5.71931 -25.9053 -1.07043 1.00074 -2.5347 
2041 1 1.41626 12.2294 1.19631 -7.24702 -0.264067 0.384251 -0.422899 
2042 1 1.7977 12.7476 7.3272 -6.56561 0.507837 -1.15438 -3.47177 
2521 1 4.06718 9.32891 4.29968 -7.28923 0.718457 0.858967 -1.23786 
3021 1 4.09115 9.61128 1.4836 -7.55442 0.187593 -0.690188 -0.18076 
3022 1 3.77035 9.42187 6.89973 -6.89203 1.38541 1.47683 0.978605 
3541 1 1.06413 12.0754 3.86406 -6.5797 0.516888 1.50632 0.474456 
4041 1 3.65858 12.1267 4.12777 -7.15173 2.20752 -1.05985 0.395447 
4521 1 1.35571 9.50957 1.09209 -7.20022 0.135334 0.642078 1.81861 
4522 1 1.21238 9.78292 6.88791 -7.84819 -1.48009 0.143026 0.662253 
5021 1 1.12449 9.48307 4.10515 -6.87465 2.80229 -1.66275 -1.03858 
5541 1 4.32826 12.2731 1.56947 -7.44889 -0.1937 0.515773 -0.929566 
5542 1 4.30189 12.1618 6.9703 -7.42433 -0.802365 -1.47789 -2.06719 
4622 1 6.59082 9.40959 7.08193 -7.46307 -0.128839 0.352515 -0.554625 
3641 1 6.52396 12.1403 4.0653 -6.89358 -0.490184 0.562933 -0.1978 
1542 2 2.95582 13.6 5.42176 -25.0448 -2.12704 0.560389 2.19776 
4621 1 6.76566 9.60933 1.30749 -8.25829 1.59506 -2.19995 2.25538 
642 2 5.46616 13.3947 8.25022 -25.5781 0.251567 3.09791 -0.345613 
141 2 5.75214 11.0183 0.12897 -25.675 -2.51707 -0.208877 -1.14262 
1241 2 13.6542 11.0159 2.53104 -25.4637 1.02011 0.132436 2.39522 
2221 1 12.0412 7.06646 1.19392 -7.36109 0.580638 0.0793241 -0.45585 
5621 1 9.2659 7.13294 1.64656 -7.39397 -1.01042 -1.74786 -0.335962 
3721 1 12.3952 6.85589 4.09959 -7.5742 -0.886953 -0.850367 -1.20055 
1722 2 13.5293 8.24582 5.39787 -25.0584 0.564474 -0.739338 0.233218 
1242 2 13.6092 10.9201 8.28294 -25.3421 0.389638 0.523397 0.393373 
5121 1 6.96577 9.56211 4.05368 -7.75812 -1.34263 -1.2052 0.949002 
2142 1 6.90371 12.1962 6.69106 -7.48271 -0.413559 -0.888427 1.8364 
5622 1 9.44159 6.99045 7.31825 -7.01584 1.3056 -0.28845 -2.42912 
2141 1 7.28506 12.2468 1.39405 -7.01754 -0.857798 0.684731 1.26091 
242 2 10.9335 11.014 5.63904 -24.1662 -0.593393 -1.36183 -1.82271 
721 2 10.776 8.14763 2.79401 -25.2664 2.41017 1.26226 0.637841 
722 3 10.6368 8.26799 8.42279 -28.4285 0.759128 -0.686941 0.331553 
1141 3 8.37544 10.7712 2.7659 -29.3693 -0.802767 1.98957 -0.667686 
1142 3 8.14318 10.8466 8.44785 -28.4006 -0.962738 -1.03031 -0.438312 
1622 2 8.27468 8.16268 5.68994 -25.0847 -2.21024 -0.481062 0.0392674 
2241 1 12.5808 12.1421 1.00391 -6.89062 -0.434037 1.5639 -0.206996 
2242 1 12.6973 12.4947 7.00028 -7.59908 -2.1006 -2.32062 -1.99713 
2621 1 9.45287 9.62373 4.07334 -7.61793 2.19732 -1.85876 2.2009 
3121 1 9.56424 9.54659 1.43284 -7.32347 -0.188701 0.375424 -1.16619 
3122 1 9.23324 9.62774 7.03808 -8.06878 1.40589 0.943579 -0.13266 
3741 1 12.1545 12.105 4.14627 -7.69693 0.825654 1.8771 -0.47619 
4141 1 9.34467 12.2554 4.00124 -7.62558 0.689645 1.79058 1.79457 
4721 1 12.4122 9.6393 1.46088 -7.0731 -2.06502 -1.85642 -1.88468 
4722 1 11.9437 9.48408 6.8883 -7.81913 -0.305231 0.792366 0.566476 
5221 1 12.2995 9.56213 4.14728 -7.20968 -0.39676 -0.33819 0.0808161 
5641 1 9.93844 12.0712 1.4195 -6.92233 -0.261557 2.0514 -0.121303 
5642 1 9.55693 12.3582 6.8851 -8.47553 0.930662 -2.19746 -0.442946 
1642 2 8.10945 13.5333 5.53834 -24.8635 0.393615 0.136491 -0.885117 
742 2 10.8811 13.6235 8.00479 -24.0189 1.94412 -0.259432 3.92937 
1621 2 8.08128 8.25384 0.0588227 -25.0981 1.68943 -1.89342 -0.514649 
5524 1 4.3387 6.6152 17.8446 -7.53423 -1.21637 2.5068 0.854504 
2004 1 0.931399 1.50542 17.7465 -7.72865 -0.302604 0.28276 0.888887 
5002 1 1.14648 4.01818 9.45141 -7.97418 1.52318 -0.541898 -1.32238 
123 3 5.54092 5.18019 11.021 -28.7834 -1.3581 0.754982 -0.791389 
124 2 5.53196 5.3861 16.529 -25.4422 -0.832719 0.883674 -1.4068 
603 2 5.26061 2.59564 13.8516 -24.9633 1.9632 0.164187 -2.30813 
1023 2 2.78456 5.37441 13.8221 -24.5107 -2.57308 0.266672 -2.33776 
1503 2 2.56186 2.8493 10.9694 -25.3607 -0.313059 -1.73311 0.101777 
1504 3 2.63838 2.7986 16.3477 -28.1617 -1.82423 -0.927041 0.547492 
2003 1 1.22688 1.49412 12.4651 -7.68854 -0.11774 0.659083 -0.0566236 
2502 1 4.06952 4.05896 9.75861 -7.81589 -0.224081 0.5021 -0.977119 
2503 1 3.74397 3.98906 15.0711 -7.94321 2.05755 -1.25522 0.124933 
3003 1 3.97705 3.80729 12.4368 -8.00802 0.602567 1.76025 0.339162 
3502 1 1.02249 1.17043 9.56418 -7.53856 -0.807776 2.14366 -0.083773 
3503 1 1.25592 0.968317 15.2457 -7.54512 -0.30864 1.12821 -0.411771 
4002 1 3.49461 1.52761 9.37573 -7.25529 1.45067 -0.0788047 0.912515 
4003 1 3.92307 1.31894 14.9159 -7.67328 -0.89298 0.756762 2.05059 
4503 1 1.15233 4.18792 12.013 -7.79022 -0.0564899 0.490611 2.07405 
5003 1 1.09343 3.85109 14.9976 -8.0684 0.816286 -1.06391 0.256034 
5503 1 4.00793 1.16892 12.2705 -6.52873 -0.446332 2.05726 -0.531532 
3602 1 6.50728 1.25256 9.81958 -7.12064 -0.00617249 0.737608 -0.662067 
3603 1 6.56859 1.23027 15.2499 -8.01825 1.11407 0.607527 -1.21619 
4022 1 4.03871 6.73267 9.88434 -6.80348 -0.242811 -0.44765 -2.12964 
3004 1 4.01975 4.09605 17.5666 -7.31084 -1.22904 -1.66319 0.126829 
5102 1 6.7658 3.93049 9.81929 -7.81927 1.08383 -0.960189 -0.608515 
5103 1 6.71616 4.04193 15.2863 -7.60559 -0.399273 -2.20146 -2.6108 
2103 1 6.78674 1.23507 12.4959 -7.11638 0.632653 1.00714 0.805795 
2123 1 6.63262 6.74389 12.0261 -8.26638 -0.722425 -0.270861 2.27838 
5523 1 3.74826 6.66511 12.3321 -7.45402 2.59679 0.123799 2.56356 
3523 1 1.07583 6.36906 14.7165 -7.72755 -0.405782 1.02587 -0.204772 
4504 1 1.1239 4.48598 17.7552 -7.51604 -0.346544 -2.24877 -1.71747 
3623 1 6.75289 6.51857 14.9018 -8.11344 0.165694 1.8848 -0.583106 
4604 1 6.65753 4.12078 17.8125 -6.54124 1.85982 -1.14188 2.18947 
3622 1 6.66784 6.46323 9.49864 -7.07039 0.140447 1.04968 0.388324 
2104 1 6.69627 1.39604 17.9006 -7.39946 -1.34536 -0.5888 -0.226757 
4023 1 3.92669 6.6707 15.1559 -7.61096 0.700906 1.22043 -0.200063 
104 2 5.17366 0.138914 16.5729 -25.2352 -0.419845 -2.68744 -1.5117 
5504 1 3.75291 1.48245 17.601 -8.31057 -0.0448995 -0.497218 0.89464 
1223 2 13.5769 5.39256 13.6163 -25.1653 -0.178506 -0.558773 2.11966 
203 2 11.0004 0.0504381 11.0546 -24.9351 0.440222 -0.19503 1.59675 
1704 2 13.4453 2.56296 16.447 -24.4207 0.684814 2.33798 0.706366 
4603 1 6.86096 4.12949 12.5244 -7.42096 -3.22421 -0.906746 0.191997 
2223 1 12.1996 6.6868 12.5223 -7.18199 -1.69073 0.715485 0.198366 
5604 1 9.29199 1.19888 17.6162 -7.48412 1.67793 -0.103043 0.219767 
223 2 10.8226 5.3697 11.0911 -25.7362 1.02349 1.29465 -1.43716 
224 3 10.7823 5.22469 16.3209 -28.5583 0.158418 1.38321 -0.860995 
703 2 10.8979 2.64801 13.743 -25.1516 -0.276613 0.152257 -1.41472 
1123 3 7.99982 5.30504 13.6231 -28.8797 1.8957 -0.256076 0.510528 
1603 3 8.3673 2.71906 10.7584 -28.7575 -2.0593 -0.159685 2.38878 
1604 2 8.03631 2.52838 16.3399 -25.4574 0.234721 1.64732 1.30706 
2203 1 12.5753 1.42257 12.6689 -7.40135 -0.610635 -0.0142059 -1.18096 
2602 1 9.63958 3.95013 9.51967 -7.74674 0.373866 0.908794 0.696837 
2603 1 9.44259 4.12201 14.8049 -7.30845 -0.929691 -0.376366 -0.291727 
3103 1 9.26477 4.21831 12.0607 -6.9186 1.13181 -2.27822 0.394825 
3702 1 12.3735 1.49691 10.0305 -8.11975 -0.5498 -1.36219 -2.37812 
3703 1 12.2757 1.35957 15.2057 -7.73846 -2.07144 -0.909 0.590737 
4102 1 9.37847 1.4394 9.71288 -7.18881 0.858604 -1.43156 -1.93746 
4103 1 9.46719 1.33815 14.932 -8.02969 -0.171645 0.318042 0.11447 
4703 1 12.2702 4.07693 12.1648 -7.69431 0.372412 -0.920134 1.40004 
5202 1 12.4687 4.13882 9.55979 -7.14231 -0.01274 -0.837266 -1.76819 
5203 1 11.9587 4.10215 14.9096 -7.59199 1.17986 0.56733 1.04952 
5603 1 9.75882 1.52322 12.1871 -7.45943 -0.230625 0.0956115 0.990241 
5623 1 9.31022 6.6053 12.4223 -7.3964 0.432991 2.68475 0.856754 
2204 1 11.9987 1.16496 18.0687 -8.12608 1.32337 -0.806802 -4.19124 
3722 1 12.3107 6.68705 9.68429 -7.58046 -0.0822163 1.71159 -0.36039 
4122 1 9.53047 6.7523 9.75815 -7.30626 -0.155407 -0.4687 1.44179 
4704 1 12.0636 4.00521 17.7644 -8.26734 0.940174 0.221261 -1.04652 
3104 1 9.42616 4.02507 17.4043 -7.67967 -0.00371954 0.0637605 1.29815 
2124 1 6.98778 6.78955 17.8294 -8.41811 0.385643 1.1807 0.265116 
3723 1 12.2424 6.78016 15.4214 -7.38097 -0.114393 0.431828 -0.802869 
5624 1 9.79785 6.75644 17.8144 -8.41968 -0.456359 -1.19756 -0.648138 
543 2 0.114625 13.587 13.8329 -24.92 -0.0546809 0.270522 -1.04286 
643 2 5.47176 13.6319 13.5865 -26.0971 -1.01173 -0.755941 0.360062 
2144 1 6.62634 12.3648 17.4329 -7.14543 -0.464735 -0.783615 0.480786 
2023 1 1.22533 7.08645 11.8995 -6.92262 -4.16345 -2.81339 1.5295 
2024 1 1.34299 7.06792 17.3758 -7.35249 0.676984 -0.64513 0.400603 
2044 1 1.4275 12.3457 17.5516 -6.8434 -1.2691 1.5541 -0.147372 
5544 1 3.99159 12.4807 17.6587 -7.29405 0.326517 0.856454 0.0257767 
3024 1 3.92688 9.43844 17.4105 -7.67381 0.218281 -0.257587 1.50108 
4524 1 1.33145 9.79594 17.6463 -7.45369 -1.15545 -2.19045 -0.262645 
143 2 5.28613 11.003 10.8903 -25.4822 1.13102 -1.63602 1.5846 
144 2 5.40336 10.7144 16.2374 -25.4723 -3.13438 4.15619 1.21578 
623 2 5.47335 7.97642 13.5325 -24.6837 -2.79412 0.867921 1.52336 
1043 3 2.64447 10.8662 13.517 -30.1744 0.996695 0.404163 1.28514 
1523 2 2.66587 8.20599 11.054 -25.6441 2.45288 1.46214 -1.88632 
1524 3 2.41608 8.31447 16.3479 -28.8913 1.84299 0.294581 -1.81771 
2043 1 1.48646 12.4858 12.2235 -7.16777 -1.94822 -0.991102 0.295314 
2522 1 4.12337 9.37693 9.52921 -7.42459 -1.86918 2.16384 0.949628 
2523 1 3.65678 9.52623 14.8461 -6.57621 0.865968 -0.754239 0.314821 
3023 1 4.06406 9.63645 12.2944 -7.13545 0.679488 -1.91177 -1.48087 
3542 1 1.26409 12.1623 9.58428 -6.95715 0.397843 -1.53747 2.19586 
3543 1 1.21316 11.8325 14.7916 -7.48748 0.49742 1.3499 -0.429463 
4042 1 4.08473 12.3582 9.64081 -8.11686 -1.87076 -1.72061 0.856392 
4043 1 4.24712 12.1754 15.0187 -6.53247 -0.306912 0.677626 0.287994 
4523 1 1.47852 9.58615 12.5344 -6.90558 -1.12659 0.77348 -1.50998 
5022 1 1.36829 9.63891 9.68693 -8.28803 -0.91293 -1.6722 0.445627 
5023 1 1.05157 9.09796 15.1402 -6.59418 -0.0724642 -0.760164 -0.40344 
5543 1 4.02568 12.1559 12.4825 -6.76321 0.522699 0.808364 -1.77475 
5123 1 6.50235 9.28381 15.3277 -7.8242 2.85709 -2.89837 -1.87519 
4624 1 6.55847 9.76472 17.9758 -7.73905 0.0742479 -1.04497 0.342768 
1543 3 2.55948 13.5895 10.7979 -29.605 1.4692 0.19783 1.3027 
2143 1 6.75121 12.302 12.1284 -7.88062 1.39754 0.0717148 0.238609 
3642 1 6.80994 12.124 9.50978 -7.60749 0.416658 -1.3152 -0.591898 
4623 1 6.77704 9.46088 12.6531 -7.67899 2.45315 0.447277 -0.319712 
5122 1 6.67346 9.43674 9.96383 -6.97933 0.803765 -0.473502 -0.679057 
1724 2 13.6407 8.19973 16.5588 -25.2436 -0.57285 -0.432076 0.0719302 
243 2 11.0876 10.9848 11.0764 -25.3753 -1.03405 -1.85839 -0.907457 
4724 1 12.1288 9.7139 17.9695 -8.06262 -0.636692 -1.60203 -0.280968 
5222 1 12.1814 9.55865 9.62998 -7.68214 0.0618776 -0.741999 -1.31206 
2224 1 12.4903 6.95165 18.0734 -7.50367 0.787884 -1.04523 0.00576324 
3743 1 12.4354 12.4677 15.1657 -7.16668 0.27893 -0.0476035 -0.471245 
2244 1 11.9693 12.267 17.8492 -8.00584 1.65665 0.495949 -0.683589 
1643 2 8.34949 13.5799 10.9316 -24.7494 -1.23743 0.468935 -0.18492 
723 2 10.9126 8.28739 13.9462 -24.9555 1.79866 -1.63193 -1.95371 
1623 2 8.19071 8.04151 11.1617 -24.9678 -0.614512 1.15933 -1.80425 
1644 2 8.1498 13.5302 16.4321 -25.6408 0.23068 0.597478 -1.46969 
2622 1 9.31589 9.38954 9.79927 -7.47346 0.999118 0.0700465 -1.2116 
4123 1 9.57675 6.90698 15.0716 -7.53892 -1.16446 -1.09107 0.649746 
4723 1 12.3813 9.31026 12.2131 -7.01912 0.350826 0.879474 1.9467 
5644 1 9.28974 11.8549 17.866 -7.69557 1.486 2.54237 -1.39074 
3643 1 7.04987 12.3451 14.7997 -7.22027 0.204675 -2.06383 -0.487238 
3742 1 12.1213 12.2379 9.57831 -7.54299 0.502127 1.35622 -0.278577 
3124 1 9.16121 9.31404 17.8906 -7.37546 1.60482 -0.312796 0.236239 
4142 1 9.45286 11.987 9.70407 -7.92231 0.302908 1.72543 -0.365758 
4143 1 9.77284 12.2006 15.1207 -7.02336 -0.718119 0.183565 0.624998 
5643 1 9.76063 12.454 12.4345 -7.97017 -1.5515 -0.487816 -1.04409 
2623 1 9.69737 9.49674 15.2251 -7.61018 -2.56845 1.03228 0.467186 
5223 1 12.2494 9.72754 15.2061 -8.03974 0.968339 -1.00223 -0.480581 
3123 1 9.7597 9.73675 12.3946 -8.0699 -1.38341 -1.68342 1.05459 
244 3 10.9558 10.8799 16.5931 -28.7571 -1.06391 0.283904 -1.4755 
1143 2 8.30652 11.018 13.4785 -24.4913 -0.255543 0.587216 1.6345 
1624 2 8.16219 8.06254 16.4602 -24.4519 0.416725 0.262518 -1.63992 
2243 1 12.3838 12.1522 12.3148 -7.72444 1.659 0.731347 1.29716 
125 3 5.37213 5.72339 21.9479 -28.2484 -0.55509 -2.38519 -0.997805 
604 2 5.23032 2.52441 19.1597 -25.7853 0.767244 2.65886 -0.230677 
605 2 4.98643 2.71536 24.2352 -25.307 2.04366 -0.99388 0.599876 
1024 2 2.69142 5.45439 18.736 -25.1671 -0.581889 1.51985 2.45755 
1025 3 2.33145 5.42467 24.4608 -28.0488 2.09414 0.745436 1.31713 
1505 3 2.46429 2.82706 21.4261 -28.5803 -0.546986 -1.25459 0.831417 
2005 1 1.08795 1.57936 23.0236 -8.00341 1.92682 -0.697517 1.73326 
2504 1 3.54359 3.95375 20.1454 -6.77002 1.89454 0.480049 -1.55031 
2505 1 3.9135 3.97991 25.5605 -7.91858 -1.29773 1.45898 0.794116 
3005 1 3.7341 3.68941 22.6389 -7.36767 2.33443 0.0614618 2.18202 
3504 1 1.19347 1.37453 20.3872 -7.90534 -1.53887 1.43496 0.854069 
3505 1 1.55312 1.32464 25.9058 -8.08701 -2.34398 0.41374 -0.85458 
4004 1 3.82649 1.20742 20.2894 -7.96068 0.857804 1.15166 1.58138 
4005 1 4.11989 1.28177 25.6913 -6.37751 0.094113 0.517079 1.62446 
4505 1 1.31411 4.14533 23.2598 -8.56759 -2.0636 0.537583 0.354708 
5004 1 1.15535 4.09767 20.4024 -7.62257 -2.15333 0.542947 0.989203 
5005 1 1.22993 4.06417 26.002 -8.43039 -0.451337 -0.621032 -0.981455 
5505 1 3.84024 0.815384 23.2775 -7.27941 -4.02284 2.20886 0.709906 
4025 1 4.1025 6.64929 25.6937 -7.71745 -0.7466 0.0996393 2.45487 
5104 1 6.2458 3.83571 20.596 -6.41251 0.893255 2.02709 0.891799 
5525 1 3.65279 6.4312 23.1912 -7.51931 0.270911 0.288656 -1.53156 
505 3 0.0218528 2.60851 24.59 -27.5252 -0.745434 0.603281 0.472889 
2105 1 6.4989 1.37245 23.2626 -7.70344 1.32911 0.26798 0.386912 
5105 1 6.73409 3.87351 25.9475 -6.43001 -1.28244 0.522598 -1.55142 
3604 1 6.64603 1.33797 20.5676 -6.90638 -0.568122 -0.909301 0.481106 
4605 1 6.66946 4.07912 23.2065 -7.52133 -0.466178 0.10451 0.00990751 
2125 1 6.49975 6.69521 23.3863 -7.88479 0.337326 0.998308 -0.589224 
3525 1 1.41133 6.72987 25.9862 -7.29412 0.642813 -0.753396 -1.03778 
1506 2 2.73885 2.8419 27.196 -25.1857 -0.287236 -2.77415 0.0475673 
126 2 5.30963 5.45497 27.2744 -25.3852 1.81962 -1.59486 -1.32427 
105 2 5.21893 0.137852 21.9993 -25.142 2.07768 -4.22957 -3.80532 
25 2 0.0313554 5.33483 21.9254 -24.2011 -2.08139 1.50309 -1.80084 
1004 2 2.32391 0.0570821 19.1405 -25.2705 0.585147 -1.70268 -1.66953 
1705 2 13.533 2.57989 21.7774 -25.4389 1.01503 -0.012997 0.739918 
3605 1 6.89123 1.06592 26.1183 -6.27952 1.00152 -0.504542 -1.48613 
225 2 10.9941 5.46135 21.8329 -24.3263 1.38614 -2.61913 2.56777 
704 2 10.7681 2.49531 19.0908 -25.1124 -2.52613 2.75672 0.907966 
705 2 10.9338 2.56456 24.6081 -24.9512 -2.33659 2.53538 0.486518 
1124 2 8.44407 5.5676 19.075 -24.1138 -2.76502 -1.12897 0.10529 
1125 2 8.06546 5.28015 24.6414 -26.0158 -0.444718 0.139586 1.06432 
1605 2 8.00903 2.5889 21.9679 -25.3012 -0.568891 0.68397 -1.02115 
2205 1 11.96 1.37787 23.1929 -7.53845 2.10708 -1.44114 -0.725476 
2604 1 9.43398 4.07387 20.2377 -8.05823 0.818269 -0.269091 1.69089 
2605 1 9.29272 4.38014 26.2359 -6.2218 0.655291 -1.41808 -1.25656 
3105 1 9.48084 3.94935 23.3708 -7.85821 0.665097 -0.866481 -1.11675 
3704 1 11.9081 1.21579 20.5511 -7.27208 1.98328 -0.9842 0.373585 
3705 1 12.2453 1.30225 25.9196 -7.92855 -0.508989 0.799011 0.891029 
4104 1 9.21544 1.35575 20.3247 -7.54365 0.683767 -0.550086 1.40788 
4105 1 9.62329 1.2541 25.9519 -7.42862 -0.786756 0.560131 -1.03684 
4705 1 12.4859 3.97289 23.1845 -7.20168 -3.58301 1.80267 0.899067 
5204 1 12.3657 3.64514 20.3635 -7.37724 -1.38153 3.39419 -0.882132 
5205 1 11.9685 4.00282 26.1243 -7.36273 0.75033 -0.373983 -1.63422 
5605 1 9.33799 1.09691 23.2811 -7.74191 -0.436222 0.53195 -1.48058 
1225 2 13.6481 5.5222 24.6903 -25.232 -0.0123372 -0.841945 -1.50716 
3624 1 6.88187 6.78907 20.7508 -7.76291 0.69994 -0.23681 -1.02393 
3625 1 6.88578 6.81478 26.0032 -7.52716 -1.03417 -1.93036 0.00680831 
3724 1 12.3593 6.78943 20.7471 -7.0127 0.699658 -1.00059 -0.121169 
4124 1 9.79034 6.7601 20.7485 -8.00521 -2.85247 0.671954 -2.10927 
5625 1 9.3587 6.64741 23.4315 -7.54952 0.320148 1.1539 -1.21514 
3725 1 12.4634 6.80458 26.1504 -7.66668 -0.114517 -0.0134285 -0.565764 
1205 2 13.3359 0.0413187 24.6524 -24.6619 3.39267 -1.83433 -2.6717 
1204 2 13.5718 0.0259683 19.1051 -24.8231 -2.01101 -1.74233 0.390916 
2025 1 1.0229 6.99877 23.077 -8.37959 1.57931 -1.70208 -0.261007 
4024 1 4.17629 7.02393 20.5521 -7.75382 0.310432 -1.29674 0.931709 
3524 1 1.54685 7.19751 20.0499 -7.5194 1.54147 -1.90172 1.1192 
145 2 5.25805 10.9016 21.9097 -24.0009 1.44688 -1.45763 -1.03273 
624 2 5.44371 8.18243 19.1132 -24.9066 0.918944 -0.536409 -0.047011 
625 2 5.3524 8.07984 24.7055 -25.3302 0.578778 1.60045 -0.208259 
1044 2 2.71156 10.8701 18.8166 -25.6113 1.58854 3.42826 1.1478 
1045 2 2.56565 10.8141 24.5076 -25.0951 0.54939 0.483366 0.0262923 
1525 2 2.65876 8.25784 21.7265 -24.8012 -0.768972 -0.410525 -0.446046 
2045 1 1.06703 12.4727 23.0936 -7.69789 1.38472 0.509466 -0.444896 
2524 1 4.22781 9.6452 20.1944 -8.03127 -1.27234 1.10858 1.30861 
2525 1 3.93445 9.5709 25.8541 -6.85563 -0.104722 -0.566167 -0.134234 
3025 1 4.08395 9.23121 23.1512 -8.3041 -0.0198665 0.49991 -0.980971 
3544 1 1.4704 12.5134 20.2724 -7.58491 -1.36582 0.690381 0.0167925 
3545 1 1.29752 12.0897 25.8303 -7.42302 -1.26525 -0.555946 0.617919 
4044 1 4.21258 12.4399 20.2449 -7.41875 0.17724 -2.42121 2.87366 
4045 1 3.93429 12.3162 25.8983 -7.57129 1.27341 -0.025734 0.44612 
4525 1 1.23258 9.65396 22.9154 -7.31884 4.01739 -0.314517 0.839056 
5024 1 1.36257 9.93907 20.3195 -7.15026 0.217748 -1.69762 0.283514 
5025 1 1.38463 9.35574 25.5647 -7.78027 -1.57538 -0.572511 1.69517 
5545 1 3.8733 12.0097 23.1976 -8.42796 -0.432861 1.01122 -0.864834 
5125 1 6.41884 9.35649 26.3082 -6.84695 1.02648 -0.0870386 -1.35051 
2145 1 6.63416 12.1952 23.2291 -8.21595 -0.365854 1.20526 -0.873033 
525 3 0.0191653 8.23476 24.3431 -29.272 -1.17569 -0.120361 1.46018 
1526 2 2.64893 8.0756 27.2564 -25.3527 -0.95888 -0.248267 -0.554448 
645 2 5.1985 13.5021 24.5399 -24.1719 1.94987 0.261399 -0.12384 
524 2 0.0182601 8.24962 19.002 -25.7283 -0.166013 0.362509 0.394626 
644 2 5.5028 13.6532 19.0316 -25.4628 -0.116465 1.6051 -1.24526 
5124 1 6.91295 9.58421 20.77 -7.37514 -2.00607 1.04547 0.189076 
4625 1 6.86954 9.57828 23.6303 -7.485 -1.0649 -1.70264 -1.59293 
3644 1 7.20274 12.6358 19.9797 -7.61685 -0.00870966 -1.55855 2.11957 
4125 1 9.73346 7.04804 26.0747 -6.11999 0.647273 -1.41999 -0.627505 
3645 1 7.01252 12.2905 26.1489 -8.32989 -1.91851 -0.652333 -0.0653422 
2225 1 12.1523 6.87358 23.4098 -8.31 0.734798 -0.554198 -0.534982 
245 2 10.8802 10.882 22.1053 -24.8644 0.534489 -0.0303322 0.109445 
724 2 10.8962 8.06307 19.2025 -25.2318 1.08654 1.82729 1.29803 
725 2 10.9371 8.18456 24.5862 -25.0095 -1.32413 0.218077 2.76765 
1144 3 8.07164 10.8329 18.9756 -28.9863 -0.141012 -0.523507 2.1651 
1145 2 8.15483 10.9313 24.7288 -25.412 -0.305069 -0.93436 1.76844 
1625 2 8.1949 8.18776 22.0995 -25.1549 -0.566916 0.0261625 -0.570467 
2245 1 12.0479 12.3135 23.6968 -6.9126 0.70218 0.0718144 -2.04896 
2624 1 9.39049 9.34561 20.5363 -6.88492 2.10138 0.229851 0.666312 
2625 1 9.08003 9.41461 26.1748 -6.57802 1.37536 3.83389 -0.716956 
3125 1 9.61358 9.54806 23.4665 -8.04339 0.391488 -1.56943 -1.59592 
3744 1 12.3206 12.2008 20.6801 -8.21233 0.840015 -1.57453 0.165914 
3745 1 12.446 12.0723 26.3061 -6.93895 -0.599992 0.613673 1.25316 
4144 1 9.76257 12.0255 20.5363 -7.71385 -1.48194 0.452657 1.3567 
4145 1 9.68009 12.1518 26.0059 -7.50714 0.0932565 1.21227 1.09373 
4725 1 12.4653 9.75281 23.4007 -8.12663 -0.502252 -1.99533 -0.167258 
5224 1 12.3394 9.38832 20.6901 -8.02352 -1.47541 0.451834 1.19211 
5225 1 11.8715 9.46458 26.2272 -7.75686 1.8325 -0.966866 -0.626828 
5645 1 9.34423 12.0513 23.4086 -7.42323 0.861721 2.75812 -2.74131 
1244 2 13.5855 10.6127 19.423 -24.5349 1.41323 2.23504 -0.807504 
1645 2 8.19751 13.5162 21.9038 -25.0817 -1.06935 0.0617433 -0.658694 
1745 2 13.5856 13.3685 22.0597 -25.2718 0.801912 1.9652 1.21042 
744 2 10.8411 13.3748 19.2455 -24.5164 -0.593127 3.14873 0.884881 
1725 3 13.6242 8.23472 22.1237 -28.4242 0.346939 -0.125178 -1.57983 
107 2 5.26228 0.016931 32.7039 -25.1832 -1.64985 -1.04354 -1.1006 
127 2 5.49986 5.32807 32.6221 -25.131 -2.05508 2.96855 3.12547 
606 2 5.41899 2.91674 30.0096 -25.3795 -1.50658 -2.86611 -1.3657 
607 2 5.39773 2.75187 35.6188 -24.9114 -0.208104 1.38706 -0.819516 
1026 2 2.62919 5.44965 30.2295 -25.137 -0.985841 -0.217576 -0.660026 
1027 2 2.44001 5.5338 35.5049 -26.1592 2.71949 -1.66005 -0.702334 
1507 2 2.37108 2.61824 32.8666 -25.5724 3.01759 -2.08677 1.44512 
2006 1 1.30947 1.11458 28.7091 -6.46139 -1.84663 4.69778 -1.1673 
2007 1 1.17055 1.26389 34.2662 -7.08385 -0.0042168 0.908133 -0.139535 
2506 1 3.9905 4.15465 31.5251 -7.50004 -0.18139 -1.1493 -1.40004 
3006 1 4.05062 4.01223 28.5058 -7.75005 -0.728976 -1.1523 1.03407 
3007 1 3.80238 3.7939 34.2281 -6.94292 0.136629 0.479829 0.448082 
3506 1 1.02448 1.07025 31.3163 -7.57179 -0.0234701 0.312835 1.61251 
4006 1 3.87681 1.43273 31.3403 -7.03897 0.539567 -0.315372 -0.528076 
4506 1 1.03614 4.01155 28.733 -8.0198 1.26432 -0.638797 0.777073 
4507 1 1.04388 4.00736 34.4402 -7.37567 -0.553436 -0.4024 -0.284605 
5006 1 1.28012 3.94898 31.7279 -7.7123 -1.96057 1.67132 -2.64921 
5506 1 3.89376 1.24975 28.4648 -6.71668 0.234646 -0.00938195 0.17107 
5507 1 3.70844 0.966378 34.0233 -6.87801 0.276555 0.390366 1.12583 
5526 1 3.8524 6.42209 28.6238 -7.3474 -0.212657 3.12647 -0.541945 
4606 1 6.72631 4.00333 28.4366 -6.96539 -0.258168 0.220038 1.98154 
2106 1 6.50964 1.32609 28.5698 -6.48773 -0.193776 -0.0316374 1.60785 
2107 1 6.29887 1.36773 33.9016 -7.79835 3.00547 0.744753 2.3886 
5106 1 6.68474 4.28891 31.1664 -8.28776 1.23571 -0.611236 1.08928 
4607 1 6.59592 4.02921 34.1234 -8.07487 1.37975 0.136266 -0.245524 
4026 1 4.16041 6.73387 31.3707 -7.57433 0.0231703 1.30767 -0.174399 
2027 1 1.07051 6.67025 34.1991 -7.41832 -1.1829 1.61427 -0.639494 
3526 1 1.3308 6.78794 31.5328 -7.27055 -0.34739 -1.38671 -0.317146 
2126 1 6.59542 6.65883 28.8071 -7.83068 -0.0271198 1.17678 -0.153336 
2127 1 6.54155 6.77897 34.077 -7.07744 2.04752 -0.669798 1.28584 
207 2 10.9386 0.0588131 32.8045 -25.1562 -0.153478 -0.246418 -1.00261 
1606 3 7.93421 2.54789 27.4179 -30.0248 -0.271074 0.772695 -1.7531 
226 2 10.9705 5.57011 27.3919 -25.9509 -4.07813 1.64309 -2.44071 
1707 2 13.6482 2.99741 32.7773 -25.2952 -1.38359 -2.29706 0.545906 
1706 2 13.4182 2.60592 27.3967 -25.3627 0.973628 3.90626 -2.07246 
3606 1 6.93209 1.71472 31.1925 -7.0964 -0.458495 -0.741012 0.575563 
227 3 10.8152 5.61834 32.887 -28.6267 1.26952 -1.67462 -1.35135 
706 2 10.7151 2.82677 29.9773 -25.1979 2.05324 0.0378277 1.00761 
707 2 10.9112 2.7138 35.6992 -25.4322 -0.271853 0.483522 -1.54504 
1126 2 8.1831 5.33447 29.9937 -25.1926 -0.365541 2.7435 -0.472835 
1127 2 8.12624 5.39489 35.591 -24.9469 -3.09366 -1.42559 -1.39332 
1607 2 8.07949 2.7528 32.7937 -24.7555 0.123968 0.604387 -0.924024 
2206 1 11.949 1.61973 28.5286 -7.57542 -2.23223 -0.685037 1.70328 
2207 1 12.1115 1.51277 34.1082 -7.76756 0.379759 -0.333475 1.0558 
2606 1 9.55423 4.17753 31.4092 -8.01208 -0.781614 -0.00402621 1.2715 
3106 1 9.33373 4.02607 28.7509 -7.28295 1.37269 -2.61473 0.101315 
3107 1 9.44089 3.90315 34.235 -6.79847 -0.985255 -0.579082 -1.02276 
3706 1 12.3072 1.35 31.4496 -7.18107 0.517862 0.193295 -0.355442 
4106 1 9.59081 1.32469 31.1429 -7.50418 0.391215 -0.0646659 1.48448 
4706 1 12.1605 4.5674 28.7171 -7.24489 0.373701 -2.55938 1.53233 
4707 1 11.9872 4.32123 34.2376 -7.46744 1.65765 0.674567 -0.55296 
5206 1 12.3375 3.9616 31.2907 -6.93002 -0.666784 0.441936 0.461353 
5606 1 9.08834 1.05474 28.5193 -7.07152 2.21015 4.09309 -2.00205 
5607 1 9.23093 1.29866 33.9632 -8.10916 0.931374 -0.55316 0.237588 
3726 1 12.0571 6.61417 31.4065 -6.81425 0.308231 -0.649384 0.638804 
1226 2 13.5491 5.68172 30.039 -25.6182 -0.939099 -1.7332 2.50379 
5627 1 9.39031 6.38522 34.105 -8.69861 -0.0285406 3.27429 -0.110427 
5626 1 9.32382 6.6588 28.584 -7.0071 0.774333 0.391262 1.7407 
1227 2 13.6198 5.52733 35.5926 -25.0441 -2.62053 -1.5792 -1.2428 
647 2 5.57974 13.497 35.4626 -25.5082 0.0618845 -0.378712 0.970498 
5527 1 3.91965 6.93348 34.1796 -6.55943 -1.20849 -0.568489 -0.137679 
2026 1 1.17855 6.91278 28.8 -7.38671 0.33272 -0.643318 -0.843715 
1546 2 2.66757 13.6278 27.4642 -24.4625 1.92602 1.26385 -2.81079 
5126 1 6.78551 9.48976 31.4957 -6.93307 -1.12775 0.626984 -0.0207197 
146 2 5.53714 10.9295 27.4195 -25.162 -2.24965 0.158569 0.0208281 
4627 1 6.8002 9.35753 34.0705 -7.71913 -0.255417 0.699712 2.10792 
147 3 5.41751 10.6206 32.9457 -29.3995 0.252079 2.12928 -1.18576 
626 2 5.49908 8.11895 30.1363 -25.0934 -0.375944 0.92484 0.606504 
627 2 5.40871 8.3097 35.6317 -25.275 -2.12754 -1.75181 -2.84493 
1046 2 2.82305 11.0775 29.9596 -25.3407 -0.0489859 -2.38297 0.173278 
1047 3 2.5667 10.9083 35.4592 -28.9758 1.52629 0.626806 0.180454 
1527 2 2.50093 8.31377 32.758 -25.5921 0.964518 -1.10852 1.2939 
2046 1 1.4724 12.4312 28.6965 -8.03075 -0.257938 -0.558282 -0.560556 