ITEM: TIMESTEP
0
ITEM: NUMBER OF ATOMS
12000
ITEM: BOX BOUNDS pp pp pp
1.8726387414369405e-01 2.7153736125856440e+01
1.9220228518320681e-01 2.7148797714816837e+01
1.4927678139562914e+00 2.1723523218604419e+02
ITEM: ATOMS id type x y z c_peratom fx fy fz 
242 2 5.46308 5.60552 6.89391 -25.665 0.141461 -0.11738 0.410132 
1201 2 5.56221 3.04547 4.20802 -25.3607 -0.185902 -1.25673 -0.665849 
1202 2 5.58448 2.87553 9.56562 -25.6181 -0.217425 -0.281828 0.849941 
2041 2 2.72225 5.63168 4.08837 -25.3796 0.0792963 0.64986 0.657058 
2042 2 2.89762 5.62454 9.62178 -25.6735 -0.17207 0.0143418 -1.19625 
3002 2 2.86337 2.95245 6.88669 -25.6464 -0.520947 -0.351025 -0.131081 
4001 1 1.43143 1.59514 2.76165 -7.7115 0.8686 0.408832 -0.624377 
4002 1 1.56933 1.58052 8.12841 -7.20209 -0.603931 0.298072 0.492614 
5001 1 4.17859 4.36001 5.49987 -7.59541 -0.203656 -1.6284 0.230641 
6001 1 4.12851 4.37837 2.81911 -7.5805 0.0264974 -0.915902 0.24191 
6002 1 4.15959 4.20743 8.28816 -7.7183 0.442611 0.324951 -0.0879519 
7001 1 1.5275 1.56166 5.44785 -7.46062 -0.570796 0.0972423 -0.105403 
8001 1 4.16868 1.48866 5.59836 -7.82791 0.314599 0.668713 -0.825762 
9001 1 1.40571 4.36118 2.64811 -7.79342 0.138112 -0.276666 1.33431 
9002 1 1.49235 4.4034 8.15733 -7.21688 -0.241276 -1.09557 0.00656375 
10001 1 1.50958 4.27772 5.44713 -7.75217 -0.672693 -0.188095 -0.538905 
11001 1 4.16634 1.64806 2.69836 -7.4635 0.193815 0.100986 1.3793 
11002 1 4.21087 1.532 8.2968 -7.358 0.254141 -0.0597932 -0.42982 
4202 1 6.92304 1.54967 8.23423 -7.55049 -0.27707 -0.791232 0.131157 
9201 1 6.86037 4.37134 2.83086 -7.54608 0.0749592 -0.631815 0.318727 
4201 1 6.88455 1.53296 2.84052 -7.54135 0.0996266 -0.180332 0.527821 
7201 1 6.85699 1.58616 5.56364 -7.35282 -0.0978178 -0.345064 -0.562912 
10201 1 6.88482 4.25967 5.58043 -7.2588 -0.214408 0.21032 -0.235897 
9202 1 6.87216 4.19245 8.24635 -7.32482 -0.175296 0.224319 0.220677 
8041 1 4.11099 6.91733 5.47994 -7.46854 -0.581421 1.17465 0.0835369 
4242 1 6.81437 6.84859 8.33157 -7.76988 0.319714 0.89354 -0.551679 
7241 1 6.82019 6.92604 5.5879 -7.92966 0.128326 0.769568 -0.337542 
2001 2 2.90064 0.281252 4.12384 -25.6676 -0.330065 -1.12736 -0.241914 
442 2 10.9811 5.71973 6.94863 -25.3819 -0.660357 -1.01657 -0.272963 
1401 2 10.8692 2.89256 4.26469 -25.5972 1.13296 0.0195142 -0.629614 
1402 2 10.8968 2.95836 9.6766 -25.5269 0.802243 -0.768507 -1.19372 
2241 2 8.24604 5.68975 4.25666 -25.5642 -0.374178 -0.707138 -0.974642 
2242 2 8.19209 5.55009 9.60731 -25.6979 0.404052 0.549748 0.594669 
3202 2 8.30996 2.84077 6.90825 -25.7126 -1.42039 1.04113 -0.571743 
4401 1 12.3215 1.61292 2.9071 -7.26808 -0.35458 -0.155897 -0.302924 
4402 1 12.2967 1.60825 8.25994 -7.05415 -0.399081 0.222975 0.0500613 
5201 1 9.49108 4.26885 5.55976 -7.48317 1.11216 -0.0654064 0.19347 
6201 1 9.5995 4.21781 2.86983 -7.54116 0.327335 0.243668 0.405897 
6202 1 9.53259 4.31123 8.26205 -7.56924 0.99228 -0.697498 -0.189224 
7401 1 12.354 1.57206 5.64624 -7.5417 -0.252404 0.379979 -0.867846 
8201 1 9.53033 1.45831 5.44381 -7.74509 0.997077 0.572534 1.09986 
9401 1 12.426 4.2352 2.83029 -7.69416 -0.250422 1.33494 0.38285 
9402 1 12.2891 4.31573 8.24176 -7.62138 0.0758398 -0.071491 0.300983 
10401 1 12.208 4.30302 5.54132 -7.45585 0.510913 -0.197835 -0.172776 
11201 1 9.60795 1.57498 2.81275 -7.22004 0.0205661 -0.0666612 -0.561986 
11202 1 9.56368 1.47739 8.14355 -7.84641 0.833802 0.204388 1.07179 
3201 2 8.25666 2.93635 1.53376 -25.7477 -0.461563 0.48952 -0.469538 
7441 1 12.4883 6.89934 5.70826 -7.80555 -0.274155 0.679874 -0.891286 
11241 1 9.59425 6.86904 2.83077 -7.33325 0.141666 0.783462 0.902924 
402 2 11.0047 0.2142 6.8923 -25.6022 -0.178313 -0.951786 -0.0220754 
441 2 10.9592 5.54141 1.55356 -25.6835 0.0558186 1.22996 -0.397847 
2442 2 13.7085 5.67909 9.46918 -25.3453 -0.410594 -0.802805 1.91912 
2402 2 13.7347 0.204328 9.57095 -26.123 -0.693277 0.14719 -0.325425 
3402 2 13.672 2.95866 6.89293 -25.771 -0.0511819 -0.101978 0.0893847 
642 2 16.4695 5.57671 6.82845 -25.2982 -0.453352 0.279674 0.209742 
1601 2 16.4735 2.94218 4.17199 -25.7609 -0.37535 0.0924677 -0.615161 
1602 2 16.3823 2.82682 9.59142 -25.4021 -0.176726 1.63218 -0.710621 
2441 2 13.7374 5.67582 4.20484 -25.3064 -0.0178386 -0.512147 -0.220431 
2641 3 18.9937 5.66053 4.15092 -29.2436 1.07765 -0.593599 -0.21038 
2642 3 19.0566 5.68277 9.5454 -29.3322 1.02328 -0.931908 -0.493669 
3602 3 19.1177 2.96483 6.82606 -29.1809 -0.269344 0.440498 0.345024 
4601 1 17.7461 1.58012 2.8079 -7.53928 -0.0781097 -0.0711014 -0.808882 
4602 1 17.7441 1.61233 8.13615 -7.83997 0.272222 -0.00709813 0.716741 
5401 1 15.0521 4.26369 5.55458 -7.80129 -0.402768 0.742091 -0.165668 
6401 1 15.2218 4.34173 2.76591 -7.68956 -0.813777 -0.0767349 0.406056 
6402 1 15.0481 4.27071 8.33989 -7.59165 0.0265645 0.0749804 -0.875243 
7601 1 17.8174 1.60642 5.48103 -7.48237 0.0192039 0.00689556 0.52687 
8401 1 15.1629 1.66138 5.4998 -7.18875 -0.85125 -0.700067 0.230982 
9601 1 17.8516 4.22799 2.79978 -7.26844 -0.25829 0.475687 0.370085 
9602 1 17.7118 4.28543 8.14527 -7.41847 0.273056 -0.558372 0.500228 
10601 1 17.791 4.26995 5.47243 -7.82296 0.0624744 0.301007 0.0529756 
11401 1 14.9684 1.57176 2.84738 -7.42467 0.936434 0.407157 -0.690239 
11402 1 14.9944 1.58818 8.16597 -7.50238 0.609283 -0.271887 0.462809 
2601 2 19.0432 0.238566 4.13254 -25.583 0.684627 0.381801 0.512888 
602 2 16.4235 0.246973 6.84002 -25.6408 -0.154103 0.448244 -0.485949 
2602 3 19.0252 0.29563 9.49359 -28.5928 0.403071 -0.740623 0.190665 
11602 1 20.4097 1.71403 8.2298 -7.90028 -0.689178 -0.952757 -1.00933 
4642 1 17.8546 6.91865 8.16232 -8.21189 -0.69174 0.675305 -0.0890771 
8601 1 20.403 1.52416 5.52683 -7.67714 0.341233 0.948121 0.671052 
6602 1 20.3298 4.4128 8.19029 -6.93176 -0.161097 -0.919673 0.0996648 
5601 1 20.3909 4.2942 5.60692 -7.63814 0.290313 -0.535201 -0.365479 
4641 1 17.7163 6.87292 2.7907 -7.6297 0.412248 0.751077 0.174186 
2401 2 13.678 0.225999 4.18161 -25.9012 -0.248381 0.598766 -0.274728 
3401 2 13.7425 2.96435 1.52229 -25.4197 0.0402429 -0.195491 -0.548136 
6601 1 20.4605 4.34881 2.92736 -7.40081 0.105011 -0.368902 0.180853 
11601 1 20.4772 1.76031 2.93099 -7.57359 0.402162 -0.731871 -0.675634 
42 2 27.0245 5.64641 6.72087 -25.9703 -0.331784 -0.0808166 0.95445 
1001 2 27.0944 2.94032 4.08584 -25.3643 -0.0805125 0.695217 0.987893 
1002 2 27.1332 2.98587 9.50793 -25.629 0.245187 -0.781568 -0.695916 
842 3 21.7095 5.68185 6.79007 -29.5159 -0.158991 -0.239734 0.13388 
1801 3 21.7026 2.95355 4.31366 -28.8212 -0.21363 0.648287 -1.13181 
1802 2 21.7491 2.88364 9.52021 -25.6207 -0.370166 1.77939 0.265332 
2841 3 24.2884 5.67795 4.00631 -29.1058 0.779131 0.0736727 1.23048 
2842 2 24.4037 5.67919 9.42003 -25.6744 -0.365788 -0.952152 0.378833 
3802 2 24.3514 2.86688 6.81634 -25.4688 1.08566 1.2527 0.0254772 
4801 1 23.2101 1.64011 2.70686 -7.703 -0.688907 -0.357945 0.9232 
4802 1 23.0874 1.62355 8.26866 -7.86765 0.497231 -0.772599 -0.996976 
5801 1 25.7119 4.23231 5.49323 -7.63102 -0.0866949 0.290149 -1.09224 
6801 1 25.7487 4.42563 2.77066 -7.51071 -0.359113 -0.8608 0.502023 
6802 1 25.7162 4.29913 8.12248 -7.49723 -0.215765 -0.894451 0.463415 
7801 1 23.0194 1.62362 5.50224 -8.29157 0.0466153 -0.0393914 -0.672104 
8801 1 25.7113 1.47846 5.52262 -7.46839 0.0296658 0.559654 -0.663911 
9801 1 23.1193 4.36036 2.73621 -7.7042 0.783071 -1.06627 0.894952 
9802 1 22.9436 4.26481 8.00658 -7.53544 0.498263 0.466821 -0.0882002 
10801 1 23.0194 4.34531 5.33414 -7.60743 -0.0108799 -0.314773 0.31818 
11801 1 25.798 1.72146 2.81761 -7.71262 -0.754871 -0.412365 -0.968649 
11802 1 25.7994 1.52684 8.16498 -7.38552 -0.199204 0.475136 0.411719 
802 2 21.8089 0.263751 6.83416 -25.1765 -0.762662 -0.595306 0.58191 
841 2 21.7834 5.56229 1.53403 -25.742 -1.29565 1.02141 -1.37526 
11641 1 20.4799 6.92435 2.90537 -7.42325 -1.94629 0.620309 -0.583451 
11842 1 25.7037 6.93119 8.10838 -7.34017 0.0115382 1.15635 -0.414822 
2802 3 24.4636 0.271944 9.50891 -29.4071 -0.00241742 -0.218125 -0.0999161 
3801 3 24.4752 2.98298 1.55243 -29.1904 -0.137017 0.11445 -1.22438 
4042 1 1.36022 7.01819 8.12199 -6.97661 0.659574 0.706039 0.507808 
11042 1 4.10648 6.94946 8.23076 -7.29336 0.2547 0.227068 -0.260638 
4241 1 6.83661 7.03819 2.8285 -7.62884 -0.201362 0.000647706 0.365725 
4041 1 1.40877 7.04353 2.81272 -7.74124 0.00767219 0.28558 0.509683 
11041 1 4.0464 6.97957 2.79191 -7.90322 0.527981 0.216588 -0.630876 
282 2 5.46604 10.9948 6.78488 -25.5494 -0.0550823 0.305755 0.649276 
1241 2 5.43628 8.29193 4.14829 -25.1937 0.366693 0.0726108 -0.0428769 
1242 2 5.58869 8.36282 9.60737 -25.4109 -1.4641 -0.78909 -0.0167992 
2081 3 2.87078 11.0211 4.05862 -29.0652 -1.62093 0.226109 0.0967406 
2082 2 2.79283 11.0276 9.53037 -25.5995 0.670532 -0.263591 -0.686586 
3042 2 2.671 8.35688 6.76491 -25.6066 0.602648 -0.367706 0.446708 
4081 1 1.48445 12.3601 2.73795 -7.25898 -0.280494 0.205562 -0.177939 
4082 1 1.42412 12.4477 8.13015 -7.35684 0.511563 -1.29804 -0.0476405 
5041 1 4.06445 9.63084 5.40851 -8.09812 -0.149921 0.392501 -0.0703152 
6041 1 4.12068 9.55995 2.69881 -7.77162 -0.0170816 1.06548 0.75771 
6042 1 4.1143 9.64371 8.18778 -7.51599 0.0938456 0.363646 -0.195387 
7041 1 1.29658 7.01138 5.51482 -7.67595 0.871492 0.550307 -1.86854 
7081 1 1.45516 12.4061 5.46039 -7.08807 -0.166146 -0.363741 -0.580205 
8081 1 4.07486 12.3402 5.45585 -7.43258 0.796127 -0.504018 -1.37212 
9041 1 1.47232 9.73273 2.816 -7.22854 0.306367 -0.614935 -0.120186 
9042 1 1.39798 9.76543 8.05762 -7.6468 0.0595506 -0.351372 0.901018 
10041 1 1.28116 9.74813 5.3761 -7.48395 0.510669 -1.12423 -0.123001 
11081 1 4.13092 12.368 2.76557 -7.91046 0.337363 -0.0719531 0.224457 
11082 1 4.16828 12.4271 8.03352 -7.41512 0.110021 -0.680953 1.63991 
10241 1 6.83777 9.69542 5.49876 -7.89871 -0.361031 -0.73138 -0.038197 
7281 1 6.78797 12.4309 5.55113 -7.41371 0.200221 -0.567057 -0.134524 
9241 1 6.77702 9.69808 2.74755 -7.57584 0.0676908 -0.00205451 0.268325 
3041 3 2.87287 8.2749 1.50641 -29.0878 -1.13012 0.297719 -0.784441 
4281 1 6.91934 12.3559 2.84066 -7.46666 -0.354558 0.580656 -0.27137 
4282 1 6.84815 12.2431 8.25394 -7.41854 -0.2632 0.872306 -0.444211 
9242 1 6.83552 9.61154 8.21239 -7.74614 0.190705 -0.36721 -0.128788 
11242 1 9.58993 6.99655 8.30786 -7.73641 -0.0554298 -0.148816 -0.136209 
4441 1 12.3014 7.08352 2.94751 -7.72341 0.208809 -1.49539 0.333685 
4442 1 12.3217 6.97719 8.30347 -7.71119 -0.296028 0.470849 -0.215856 
8241 1 9.60118 7.00259 5.57539 -8.00311 0.802501 -0.123812 -0.142991 
482 2 10.8599 10.8957 6.7449 -25.7415 0.7239 0.411174 1.28946 
1441 3 10.9875 8.31223 4.13779 -28.8078 -0.747732 0.063486 0.0933511 
1442 3 10.9991 8.23412 9.54346 -29.3633 -0.514483 0.257367 0.464922 
2281 2 8.21076 10.9615 4.20045 -25.5343 -0.318532 0.78545 -0.974972 
2282 2 8.22198 10.9898 9.5415 -25.5905 -0.119474 -0.517792 0.100816 
3242 2 8.14796 8.2143 6.9051 -25.1994 0.827103 0.941246 0.0800963 
4481 1 12.2556 12.417 2.74973 -7.61829 0.514139 -0.658984 -0.926021 
4482 1 12.2461 12.354 8.17933 -7.32082 -0.0848667 -0.61544 -0.563781 
5241 1 9.54924 9.61363 5.38227 -7.60915 0.0970075 -0.259216 0.589134 
6241 1 9.55794 9.60666 2.76927 -7.48948 0.26172 -0.145576 -0.0486419 
6242 1 9.55477 9.62045 8.12846 -7.51131 0.127403 -0.140542 0.160992 
7481 1 12.2058 12.14 5.38509 -7.2084 -0.748345 1.19375 0.64196 
8281 1 9.49271 12.355 5.5888 -7.68668 -0.203144 0.0563273 -0.503227 
9441 1 12.2762 9.61944 2.82672 -7.99973 0.14082 0.969627 -0.568869 
9442 1 12.315 9.5518 8.10775 -7.46368 -0.196253 0.684337 0.426926 
10441 1 12.2163 9.55501 5.47144 -7.35845 0.222024 -0.916496 -0.264682 
11281 1 9.63264 12.2892 2.83584 -7.76524 -0.636513 0.695595 -0.406928 
11282 1 9.4989 12.2919 8.21749 -7.36215 0.542951 0.53568 -0.104038 
1482 2 10.8881 13.6253 9.61904 -25.5099 0.148512 0.0147673 -1.26494 
2482 2 13.669 10.9015 9.52817 -25.3785 -0.816781 0.0585299 -0.610385 
2481 2 13.5946 11.0008 4.05077 -25.5456 0.419455 -0.0273254 0.887332 
7641 1 17.7949 6.93446 5.46186 -7.8003 0.555909 0.0525612 0.190052 
3442 3 13.6849 8.30294 6.85176 -29.1076 -0.0579851 0.355244 -0.13032 
8441 1 15.2196 6.97344 5.45119 -7.60207 -1.13518 -0.0207536 0.801541 
11441 1 15.053 7.02531 2.83646 -7.59287 -0.517795 0.0473852 -0.617765 
682 2 16.3342 10.9601 6.8308 -25.525 -0.303893 0.358109 -0.171273 
1641 2 16.3912 8.37439 4.15066 -25.4244 -0.0271428 -0.49806 -0.653798 
1642 2 16.4564 8.24825 9.46984 -25.0036 -0.460587 0.563752 0.318372 
2681 2 19.0715 11.0123 4.04394 -25.4183 -0.399919 0.171657 0.992585 
2682 3 18.9739 10.9333 9.54976 -28.9191 0.796908 0.164015 -0.44038 
3642 3 18.993 8.24435 6.80068 -29.2846 1.1979 0.635915 0.0906887 
4681 1 17.5951 12.2962 2.72865 -7.89203 0.43198 0.27238 0.218088 
4682 1 17.7592 12.2592 8.24377 -7.74289 -0.341097 0.497732 0.178846 
5441 1 14.9229 9.68249 5.48433 -7.64573 0.104564 -0.500021 -0.312647 
6441 1 15.0571 9.75471 2.74832 -7.77301 -0.400226 -0.255757 0.406387 
6442 1 14.996 9.57082 8.14342 -7.76441 0.154794 0.59484 0.40004 
7681 1 17.6025 12.2606 5.47232 -7.59173 0.439775 0.503142 -0.173838 
8481 1 14.8349 12.3631 5.43316 -7.47576 1.17507 0.380703 -0.118723 
9641 1 17.7201 9.65949 2.73486 -7.92311 0.0976185 -0.281009 0.867458 
9642 1 17.6799 9.64543 8.12208 -7.90968 0.299201 -0.782202 1.53917 
10641 1 17.6676 9.58991 5.55291 -7.5295 -0.316733 -0.113988 -0.990283 
11442 1 14.997 6.98428 8.13656 -7.82383 0.87743 -0.396164 -0.556362 
11481 1 14.9078 12.3922 2.68184 -7.83404 0.194243 0.224407 -0.31538 
11482 1 14.9889 12.3486 8.16133 -7.70915 0.380919 -1.13851 0.101808 
1682 2 16.3278 13.6206 9.59505 -25.3711 1.03814 1.09811 -1.02565 
6642 1 20.3678 9.50525 8.13548 -7.30241 -0.607781 1.0011 -0.438096 
5641 1 20.2341 9.59397 5.45055 -7.44113 0.33441 0.420816 0.150011 
8681 1 20.3731 12.2973 5.43193 -7.63655 0.198211 -0.0163243 0.515438 
3682 2 19.1171 13.6529 6.90422 -25.4999 -1.20158 -0.333556 -1.45136 
1681 2 16.3169 13.651 4.09104 -25.5606 -0.31265 0.724758 0.16363 
11642 1 20.4936 6.95234 8.17438 -7.26822 -0.59778 -0.232968 -0.151152 
4841 1 23.0303 7.01695 2.76428 -7.75039 0.946747 -0.0806514 0.624602 
11841 1 25.7462 6.94743 2.72649 -7.7314 -0.430564 0.512015 0.473183 
7841 1 23.0684 7.01895 5.37373 -7.43743 -0.0568235 -0.333746 0.5588 
8641 1 20.4439 6.98045 5.53467 -7.6061 -0.716723 -0.615827 0.352353 
11682 1 20.4183 12.2292 8.13901 -7.88054 -0.182426 -0.415255 0.207686 
4842 1 23.1236 7.0157 8.03756 -7.71296 -0.471167 -0.310666 0.149484 
1042 2 27.0872 8.32972 9.52062 -25.6547 0.00221123 -0.452967 -0.593591 
1882 2 21.696 13.5942 9.48347 -25.5502 -0.0566775 0.783029 0.762044 
6641 1 20.4714 9.72885 2.76663 -7.81946 -0.489931 -0.176367 -0.107166 
11681 1 20.421 12.4432 2.76605 -7.61742 -0.28678 -0.669386 -0.00461883 
3841 2 24.3463 8.28728 1.50001 -25.6057 0.298781 0.942723 -1.2068 
82 2 26.9975 11.0049 6.71683 -25.8982 -0.341561 0.980839 -0.0402515 
1041 3 26.9992 8.34305 3.97004 -29.038 0.451797 0.057588 1.40858 
882 3 21.707 10.9869 6.8074 -29.1113 -0.253782 -0.344275 0.18395 
1841 2 21.6504 8.32348 4.18404 -25.6931 0.911936 0.329861 -0.270094 
1842 2 21.7133 8.29339 9.46843 -25.7251 0.133961 0.499702 -0.174972 
2881 3 24.3095 11.0949 4.14571 -29.2632 0.516172 -0.202347 -0.254039 
2882 2 24.3649 11.0015 9.52787 -25.6289 0.365166 -0.269415 -1.04519 
3842 3 24.3496 8.33528 6.81088 -29.2859 0.0617976 0.102718 -0.851036 
4881 1 23.0656 12.3511 2.71997 -7.63757 -0.222945 0.126676 0.754828 
4882 1 23.042 12.3367 8.14878 -7.48682 0.177075 -0.129657 -0.514852 
5841 1 25.4809 9.86826 5.40248 -7.36648 0.213263 -1.49565 0.443197 
6841 1 25.8065 9.57013 2.80919 -7.77078 -0.734906 0.0185886 -0.214117 
6842 1 25.6584 9.63545 8.07492 -7.68433 0.179316 -0.0487318 0.438097 
7881 1 23.0302 12.4255 5.48558 -7.84784 0.703954 -0.915146 0.0251729 
8841 1 25.6416 7.07438 5.39167 -7.4552 0.221829 -0.0226121 -0.189723 
8881 1 25.7348 12.3913 5.40394 -7.25913 -0.470565 0.849221 0.312972 
9841 1 23.1142 9.74894 2.77844 -7.52238 0.175874 -0.168266 0.663332 
9842 1 23.0145 9.6645 8.18321 -7.6119 0.10568 0.224075 -0.42259 
10841 1 22.8644 9.67337 5.50887 -7.73479 0.326398 0.650101 0.134354 
11881 1 25.6492 12.3045 2.7738 -7.41081 0.542038 0.0838231 -0.12707 
11882 1 25.681 12.4092 8.12944 -7.51009 0.0532322 -0.232397 -0.674856 
243 3 5.59826 5.58088 12.2744 -29.492 0.531302 0.0853512 0.652127 
244 2 5.47057 5.45238 17.6848 -25.5541 1.43131 0.986914 -0.367258 
1203 2 5.54957 2.80527 14.8218 -25.7027 0.0141071 1.14653 1.40704 
2043 2 2.92338 5.62264 14.9187 -25.4863 -0.0922444 -0.393833 0.156345 
3003 2 2.92092 2.88606 12.2025 -25.6404 0.10989 -0.839107 0.237597 
3004 2 2.83285 2.859 17.6241 -25.5051 0.0892421 0.210845 0.319861 
4003 1 1.60711 1.55184 13.5584 -7.61339 -0.629096 0.0147053 0.426646 
4004 1 1.51984 1.56008 18.9669 -7.84251 -0.135027 -0.260381 0.384888 
5002 1 4.33804 4.18605 11.0131 -7.82223 -0.244723 0.832836 -0.427039 
5003 1 4.27049 4.17127 16.3357 -7.45112 -0.999142 -0.459539 -0.0910484 
6003 1 4.23247 4.22387 13.6657 -7.48782 -0.0219176 -0.0955879 -0.799758 
6004 1 4.10717 4.11167 19.106 -7.4592 -0.156087 -0.0660281 -0.708658 
7002 1 1.51786 1.54169 10.8685 -7.39394 -0.0901248 0.116826 -0.449365 
7003 1 1.49891 1.51334 16.3127 -7.52073 -0.351936 -0.00320013 -0.388183 
8002 1 4.21494 1.41558 10.906 -7.46366 0.274714 0.196692 -0.0887099 
8003 1 4.13502 1.46266 16.3236 -7.54584 0.74393 0.138418 -0.661358 
9003 1 1.60965 4.31265 13.5436 -7.59535 -0.62426 -0.594889 0.113274 
9004 1 1.46585 4.34143 19.0127 -7.65128 0.0351937 -0.182481 -0.376956 
10002 1 1.61187 4.23599 10.8463 -7.6318 -0.539265 -0.56333 0.454952 
10003 1 1.53732 4.24366 16.2631 -7.73013 0.190878 0.272367 0.134473 
11003 1 4.28544 1.45208 13.5308 -7.516 -0.42716 0.050964 0.211416 
11004 1 4.28125 1.46031 18.9602 -7.75136 -0.712103 -0.264301 0.80753 
7042 1 1.54209 6.87193 10.8487 -7.37677 -0.859761 0.899349 0.688313 
1003 2 0.187439 2.93916 14.9195 -25.3957 0.806326 -0.735442 0.772573 
11043 1 4.41003 6.92574 13.6416 -7.33885 -1.33362 0.0256429 -0.555429 
11044 1 4.22917 6.67645 19.0834 -7.81678 -1.07617 1.65022 -0.162015 
4203 1 6.86729 1.57929 13.5654 -7.45277 0.89488 -0.445556 -0.799814 
7203 1 6.88201 1.52287 16.2141 -7.76773 -0.346183 -0.407768 0.77325 
7202 1 6.92448 1.56166 10.9056 -7.63859 0.016394 -0.0858777 0.118248 
9203 1 6.88475 4.27468 13.5993 -7.1585 -0.0110202 -0.265673 -0.144264 
10203 1 6.90398 4.20889 16.2442 -7.23391 -0.14354 -0.320735 0.502309 
9204 1 6.853 4.21861 18.9662 -7.75062 0.160762 -0.356563 0.49224 
7242 1 6.87576 6.86011 10.9883 -7.52979 0.128281 0.914443 -0.530515 
8043 1 4.22528 6.85613 16.2823 -7.86385 -0.442505 1.31225 1.00424 
203 3 5.62477 0.2177 12.1711 -29.357 -0.356782 -0.43758 0.543434 
2403 2 13.6296 0.25123 14.9227 -25.7596 0.457581 -0.704539 0.460028 
443 3 10.8838 5.63634 12.2976 -29.4681 0.0680655 -0.386356 -0.103524 
444 2 11.0917 5.6027 17.6649 -25.3581 -1.48162 0.388718 0.560441 
1403 2 10.8723 2.89225 14.9861 -25.5301 0.84637 0.0379693 -0.316003 
2243 2 8.26166 5.53654 15.0098 -26.045 -0.667596 1.22952 -0.82415 
3203 3 8.29035 2.90427 12.2764 -29.3702 -0.710019 0.0889128 0.12607 
3204 2 8.21359 2.80555 17.6098 -25.7454 0.214818 0.0817798 0.460199 
4204 1 6.96902 1.46034 19.0038 -7.44526 -0.994319 0.0036163 -0.176164 
4403 1 12.3306 1.5608 13.5167 -7.50046 -0.681995 0.576183 0.922585 
4404 1 12.2491 1.5305 19.1243 -8.06029 0.474985 -0.426576 -1.50114 
5202 1 9.51518 4.24621 10.9149 -7.61075 0.478513 -0.0966014 0.907666 
5203 1 9.56627 4.2975 16.3626 -7.55473 1.00646 -0.818785 -0.170125 
6203 1 9.50922 4.20756 13.6407 -7.50112 0.537722 -0.255587 -0.484078 
6204 1 9.54565 4.04465 18.9782 -7.50326 0.929198 0.696721 0.536379 
7402 1 12.3271 1.44441 10.88 -6.99414 -0.349926 1.29987 0.289073 
7403 1 12.3231 1.53396 16.2729 -7.43944 -0.686044 0.591704 0.923596 
8202 1 9.61251 1.55627 10.9489 -7.73197 -0.283128 0.12009 -0.392812 
8203 1 9.62074 1.50012 16.309 -7.67615 0.170063 0.730007 -0.221327 
9403 1 12.1931 4.28028 13.6937 -7.38136 0.410944 -0.421158 -0.468343 
9404 1 12.3297 4.24866 19.0427 -8.05947 -0.176375 0.252607 0.368039 
10202 1 6.95034 4.22845 11.0164 -7.27941 -0.379446 -0.415349 -0.619047 
10402 1 12.1737 4.1923 11.0197 -7.41303 0.683751 0.265758 0.0806389 
10403 1 12.3437 4.22637 16.3336 -7.63554 -0.223206 0.138583 0.448683 
11203 1 9.5312 1.58521 13.6068 -7.47043 0.332431 -0.027886 0.116415 
11204 1 9.51746 1.33763 18.9245 -7.22016 1.32869 0.512144 0.494524 
4443 1 12.2772 6.87167 13.6742 -7.50919 -0.0385961 -0.00782717 -0.640726 
8242 1 9.65252 6.92495 11.0045 -7.1762 -1.0441 -0.26122 -0.382834 
2443 2 13.6448 5.60455 14.9644 -25.5096 0.359365 -0.385502 0.754109 
3403 2 13.6696 2.95224 12.3074 -25.7189 -0.355631 -0.227426 -0.540224 
11243 1 9.60556 6.83629 13.6406 -7.25529 0.25838 0.551722 -0.0454361 
11244 1 9.58491 6.89538 19.1286 -7.42452 0.83799 -0.139103 -1.18434 
7442 1 12.2062 6.84724 10.9077 -7.45648 1.57516 0.0992135 0.383341 
404 3 11.014 0.217291 17.6835 -29.1283 -0.634067 -0.369194 0.14779 
2603 2 19.0609 0.248122 14.882 -25.592 0.212068 -1.10582 1.22071 
643 2 16.5092 5.62872 12.2667 -25.3855 -2.01123 -0.809327 -0.3874 
644 3 16.3534 5.68818 17.5909 -29.6411 0.982035 -0.72498 1.02313 
1603 2 16.3718 2.96831 14.9467 -25.422 -0.193625 -0.737226 0.763267 
2643 2 19.1031 5.61811 14.9489 -25.5119 -0.129483 0.130922 0.498186 
3404 2 13.6905 2.90501 17.8266 -25.3318 0.0771319 0.0957626 -1.70856 
3603 2 19.0479 2.86763 12.2026 -25.2087 0.759364 0.534717 0.078048 
3604 2 19.1044 2.86138 17.6013 -25.7497 -0.540594 0.79887 1.06386 
4603 1 17.79 1.47921 13.5851 -7.67665 -0.999218 0.616531 -0.406496 
4604 1 17.7385 1.5686 19.073 -7.43466 0.0577358 -0.268393 -0.78445 
5402 1 14.9899 4.31976 11.0297 -7.37925 0.0424488 -0.0652193 -0.442848 
5403 1 15.0422 4.30618 16.3996 -7.35559 -0.286449 -0.479091 -0.0887569 
6403 1 15.0311 4.32728 13.6902 -7.64801 -0.0113679 -1.11009 -0.148035 
6404 1 15.0063 4.30542 19.072 -7.5175 -0.29031 -0.00654752 0.497757 
7602 1 17.665 1.49449 10.8844 -8.0677 1.01448 0.23087 -0.383983 
7603 1 17.6797 1.59713 16.3476 -7.60845 0.0707737 0.335256 -0.573409 
8402 1 15.0142 1.56591 10.8907 -7.4518 0.268406 0.182975 0.378485 
8403 1 14.9655 1.5461 16.4135 -7.45585 0.176519 0.717645 -0.681795 
9603 1 17.7795 4.18904 13.5922 -7.7394 -0.336141 0.260469 -0.271463 
9604 1 17.6436 4.19916 18.9031 -7.31613 0.935221 0.76931 0.0280409 
10602 1 17.7538 4.28659 10.8833 -7.72065 0.0594784 -1.20683 -0.402268 
10603 1 17.7167 4.33727 16.2431 -7.4506 0.0815241 0.173401 0.173171 
11403 1 15.0329 1.52139 13.5994 -7.63711 0.411576 0.539273 0.421425 
11404 1 14.9949 1.55321 19.1139 -7.87945 -0.00194357 0.283961 0.599178 
8602 1 20.3951 1.51488 10.8433 -8.14679 -0.342373 -0.0788211 0.556391 
8443 1 15.2862 6.91728 16.3284 -7.34737 -2.7386 -0.244657 -0.224347 
604 2 16.3388 0.317459 17.741 -25.7892 0.388211 -1.87855 -0.486898 
4643 1 17.6582 6.92793 13.6618 -7.99547 1.11351 -0.167421 -0.608485 
11604 1 20.4072 1.57733 19.1107 -7.50366 0.358087 -0.739084 -0.426562 
4644 1 17.6826 6.89456 18.9554 -7.32228 0.157408 0.122313 1.01362 
11443 1 14.9369 6.90159 13.5677 -7.63363 0.853286 0.442197 0.291114 
7642 1 17.7119 6.85519 10.8397 -7.86846 1.05422 1.6518 0.093821 
2803 2 24.5521 0.245637 14.9171 -25.5822 -1.43807 -0.452843 0.18569 
804 2 21.7223 0.214262 17.645 -25.6205 0.689126 0.313054 -0.384961 
44 2 27.0854 5.57537 17.6311 -25.5617 0.0467684 0.630028 0.316779 
5602 1 20.4352 4.35444 10.8415 -7.49418 -0.496331 -0.920262 0.13468 
6603 1 20.44 4.31645 13.5528 -7.49069 -0.00732799 -0.676945 -0.105977 
6604 1 20.4606 4.211 18.9475 -7.47469 -0.811343 0.464249 0.88544 
11643 1 20.4214 6.9136 13.514 -7.74878 0.0223407 1.27135 0.955909 
8843 1 25.7257 6.86039 16.2694 -6.98493 0.488094 0.526061 -0.123233 
11603 1 20.4526 1.61257 13.6638 -7.53468 -0.385609 -0.446282 -1.62389 
5603 1 20.4297 4.20332 16.2975 -7.58759 -0.000984283 0.816041 -0.567424 
8603 1 20.4308 1.57778 16.3043 -7.35313 -0.373642 -0.499221 0.314726 
43 2 27.1403 5.5601 12.268 -25.4757 0.270116 1.00447 -0.606705 
843 2 21.7887 5.61201 12.2025 -25.7342 -0.0677624 0.167807 -0.527009 
844 2 21.7586 5.56137 17.6183 -25.6059 -0.0677805 0.57461 -0.151579 
1803 2 21.7932 2.97364 14.8443 -25.7579 0.177199 -0.484714 0.958022 
2843 3 24.4509 5.60095 14.9155 -29.5999 0.224176 0.553816 0.299401 
3803 2 24.4963 2.90325 12.2389 -25.4059 -0.838883 0.591565 -0.612025 
3804 2 24.4243 2.89644 17.6602 -25.6125 -0.201311 0.0284082 -0.678379 
4803 1 23.0954 1.56965 13.513 -7.51067 0.655769 0.146142 0.342558 
4804 1 23.0828 1.56378 19.0056 -7.88298 -0.505068 0.379167 0.937511 
5802 1 25.7984 4.30603 10.8773 -7.62564 0.217992 -0.321004 0.162831 
5803 1 25.8101 4.2488 16.362 -7.52742 -0.401899 -0.589761 -0.600834 
6803 1 25.8644 4.20309 13.6382 -7.86964 -0.683663 0.438648 -0.363473 
6804 1 25.7239 4.18537 19.0513 -7.71471 0.657424 0.359326 -0.0466967 
7802 1 23.148 1.5721 10.8864 -7.3022 -0.618146 -0.185128 0.0305939 
7803 1 23.0869 1.61223 16.2499 -7.27825 0.509559 0.299175 0.261485 
8802 1 25.7603 1.60132 10.8741 -7.687 0.63579 -0.0516443 -0.497284 
8803 1 25.8198 1.54068 16.2421 -7.4452 0.0922622 0.364806 0.214169 
9803 1 23.1564 4.35547 13.5447 -7.6461 0.395894 -1.24256 -0.720915 
9804 1 23.0639 4.29513 19.0145 -7.44526 0.365275 -1.13622 -0.385865 
10802 1 23.105 4.24532 10.7237 -7.47043 0.335806 0.306667 0.816502 
10803 1 23.1314 4.31115 16.1546 -7.58587 0.118191 -0.0226226 1.13929 
11803 1 25.8425 1.5578 13.5647 -7.88495 0.0215964 0.0573001 -0.101953 
11804 1 25.7341 1.48042 18.8865 -7.46875 0.999146 0.350552 0.180679 
4844 1 23.0635 6.87101 18.94 -7.79103 0.0675524 1.04063 0.513646 
4843 1 23.178 6.90377 13.5809 -7.28305 -0.627444 0.700699 -0.565811 
11843 1 25.8237 6.87366 13.639 -7.42797 0.401549 0.232147 -0.742581 
3 2 27.1231 0.270604 12.1707 -25.3427 1.12414 -0.958551 -0.0978598 
4044 1 1.47464 7.06566 19.1249 -7.72321 0.685474 -1.25786 -0.318375 
8042 1 4.19475 7.04786 10.941 -7.65527 0.740946 -1.23438 0.0136429 
7043 1 1.44225 6.9953 16.4039 -7.76282 0.465782 -0.566096 -0.969035 
4043 1 1.62871 6.98649 13.5729 -7.66336 -0.484228 0.0161496 0.651881 
283 3 5.52627 10.9503 12.325 -29.0616 -0.163268 0.791516 -0.397987 
284 2 5.58108 10.9693 17.7527 -25.0769 -0.381268 0.117557 -0.196687 
1243 2 5.57047 8.36373 15.0019 -25.4027 0.391658 -0.826757 -0.114366 
2083 2 2.81387 10.9613 15.0006 -25.642 0.806443 1.06122 -0.657167 
3043 2 2.88689 8.3126 12.244 -25.6359 -0.0805679 0.0876086 -0.0863839 
3044 2 2.80462 8.20322 17.6874 -25.1757 0.349451 1.36767 0.383093 
4083 1 1.45845 12.3105 13.5765 -7.40524 0.539885 0.981078 0.213568 
4084 1 1.4449 12.3797 19.0148 -7.35886 0.723831 -0.337209 -0.473326 
5042 1 4.20214 9.70509 10.9429 -7.43853 0.745436 0.059683 -0.246788 
5043 1 4.11354 9.72729 16.4199 -7.87704 0.838782 -1.05514 -0.446765 
6043 1 4.15966 9.62832 13.5948 -7.67924 0.626339 0.0828577 0.926824 
6044 1 4.12096 9.53952 19.1108 -7.63633 0.442466 -0.712206 -0.345896 
7082 1 1.52846 12.3481 10.8666 -7.6748 -0.492116 0.651301 0.152329 
7083 1 1.60976 12.4082 16.2424 -7.60527 -0.528043 -0.179702 0.9573 
8082 1 4.15363 12.3215 10.8414 -7.40108 0.631803 0.721525 -0.138021 
8083 1 4.32715 12.4135 16.2235 -7.4862 0.347632 -0.246195 0.782871 
9043 1 1.53522 9.6827 13.577 -7.58032 -0.683918 -0.479686 0.37018 
9044 1 1.43291 9.69925 19.0297 -7.58302 0.342631 0.401196 -0.120233 
10042 1 1.53132 9.60432 10.8604 -7.62925 -0.302214 0.187859 -0.332373 
10043 1 1.43919 9.67186 16.3284 -7.49164 0.118229 0.302077 0.164371 
11083 1 4.22578 12.3252 13.5394 -7.43609 0.0777094 -0.123587 -0.0570564 
11084 1 4.17584 12.2421 19.0416 -7.95419 0.310805 0.37934 -0.690946 
7282 1 6.83183 12.3583 10.9463 -7.38867 -0.388628 -0.0389381 0.538568 
4283 1 6.91914 12.3567 13.7084 -7.48082 -0.053366 0.731839 -0.94682 
9244 1 6.88644 9.61167 19.1782 -7.58585 0.420327 0.15004 -0.655056 
10243 1 6.91583 9.66828 16.4435 -7.93525 -0.220219 0.219402 -0.192514 
4244 1 6.87974 6.94568 19.0852 -7.27542 0.255207 -0.591721 -0.234802 
9243 1 6.80944 9.793 13.6769 -7.63057 0.451021 -1.0317 -0.0239473 
83 2 0.209191 11.0305 12.2529 -25.529 -0.958623 -0.734657 -0.592646 
4243 1 6.94933 6.97276 13.567 -7.08408 0.412697 0.569926 0.883095 
8243 1 9.68807 6.96474 16.3324 -7.37869 0.221492 -0.382685 0.465494 
4284 1 6.96213 12.3014 19.1412 -7.84992 0.0429285 -0.240693 -1.1047 
10242 1 6.93517 9.64722 10.9557 -8.09837 -0.0749278 -0.00166003 0.125706 
4444 1 12.3502 6.96713 19.0637 -7.55327 0.0765926 -0.610307 0.276778 
7443 1 12.4233 7.01159 16.39 -7.86609 0.441809 -0.575312 -0.382866 
483 2 10.9075 10.8709 12.239 -25.4839 0.490005 0.547902 -0.202541 
484 2 11.0389 11.0014 17.7265 -25.505 0.191363 -0.713301 -0.792205 
1443 2 11.0059 8.27061 14.9374 -25.6719 -0.536585 -0.0575357 0.503983 
2283 2 8.32797 11.0011 15.0913 -25.5737 -0.446083 0.256083 -1.16391 
3243 2 8.24359 8.32276 12.2539 -25.5079 0.339391 -1.28939 0.390834 
3244 2 8.29609 8.23924 17.7312 -25.5901 0.124539 -0.0193336 0.359957 
4483 1 12.4055 12.2164 13.5287 -7.62255 -0.771787 -0.104958 0.021641 
4484 1 12.3728 12.3095 19.0238 -8.00692 -0.364287 -0.225981 1.35936 
5242 1 9.69678 9.52556 10.8569 -7.58968 -1.17203 0.665554 -0.179161 
5243 1 9.62066 9.60159 16.3146 -7.62616 0.229416 0.628492 1.08561 
6243 1 9.56073 9.57004 13.6274 -7.82013 -0.168877 0.48306 -0.171066 
6244 1 9.74797 9.60775 19.1881 -7.75731 -0.339402 -0.608545 -0.948656 
7243 1 6.95689 6.96629 16.3587 -7.33764 -0.364869 -0.196361 -0.228693 
7283 1 7.06836 12.4409 16.2808 -7.58205 -1.42881 -0.575572 1.25621 
7482 1 12.22 12.2125 10.7827 -7.67237 0.212962 0.302389 1.18484 
7483 1 12.3297 12.3781 16.3221 -7.17048 0.0871548 -0.399869 -0.464591 
8282 1 9.46377 12.2803 10.9282 -7.77171 0.90479 -0.271506 0.92025 
8283 1 9.69146 12.3962 16.3778 -7.38343 -0.000417874 -0.398345 0.491288 
9443 1 12.2581 9.45963 13.4038 -7.48088 0.448425 0.868596 1.67474 
9444 1 12.4088 9.59297 19.0916 -7.52331 -0.520018 0.950606 0.140281 
10442 1 12.2794 9.5208 10.8313 -7.37484 1.38161 -0.0259324 -0.800117 
10443 1 12.3307 9.70712 16.3221 -7.52371 -0.203443 -0.221533 -0.545954 