# LAMMPS data file written by OVITO Basic 3.8.4

4 atoms
1 atom types

0.0 3.843898 xlo xhi
0.0 3.843898 ylo yhi
0.0 3.843898 zlo zhi

Masses

1 102.9055  # Rh

Atoms  # atomic

1 1 0.0 0.0 0.0
2 1 0.0 1.921949 1.921949
3 1 1.921949 0.0 1.921949
4 1 1.921949 1.921949 0.0
