Output produced by LAMMPSStructureWriter


12000 atoms
3 atom types
0.00000000 54.68000000 xlo xhi
0.00000000 54.68000000 ylo yhi
0.00000000 54.68000000 zlo zhi
0.00000000 0.00000000 0.00000000 xy xz yz



Masses

1 15.99939999999999962199 #O
2 91.22400000000000375167 #Zr
3 238.02890999999999621650 #U

Atoms

1 0 1 0.0 1.36700000000000021494 1.36700000000000021494 4.10099999999999997868
2 0 1 0.0 1.36700000000000065903 1.36700000000000065903 9.56899999999999906208
3 0 1 0.0 1.36700000000000088107 1.36700000000000088107 15.03700000000000081002
4 0 1 0.0 1.36700000000000132516 1.36700000000000132516 20.50499999999999900524
5 0 1 0.0 1.36700000000000154721 1.36700000000000154721 25.97299999999999897682
6 0 1 0.0 1.36700000000000199130 1.36700000000000199130 31.44099999999999894840
7 0 1 0.0 1.36700000000000221334 1.36700000000000221334 36.90899999999999891998
8 0 1 0.0 1.36700000000000265743 1.36700000000000265743 42.37700000000000244427
9 0 1 0.0 1.36700000000000287947 1.36700000000000287947 47.84499999999999886313
10 0 1 0.0 1.36700000000000332356 1.36700000000000332356 53.31299999999999528200
11 0 1 0.0 1.36700000000000065903 6.83499999999999996447 4.10099999999999997868
12 0 1 0.0 1.36700000000000110312 6.83500000000000085265 9.56899999999999906208
13 0 1 0.0 1.36700000000000132516 6.83500000000000085265 15.03700000000000081002
14 0 1 0.0 1.36700000000000176925 6.83500000000000085265 20.50499999999999900524
15 0 1 0.0 1.36700000000000199130 6.83500000000000174083 25.97299999999999897682
16 0 1 0.0 1.36700000000000243539 6.83500000000000174083 31.44099999999999894840
17 0 1 0.0 1.36700000000000265743 6.83500000000000262901 36.90899999999999891998
18 0 1 0.0 1.36700000000000310152 6.83500000000000262901 42.37700000000000244427
19 0 1 0.0 1.36700000000000332356 6.83500000000000262901 47.84499999999999886313
20 0 1 0.0 1.36700000000000376765 6.83500000000000351719 53.31299999999999528200
21 0 1 0.0 1.36700000000000088107 12.30300000000000082423 4.10099999999999997868
22 0 1 0.0 1.36700000000000132516 12.30300000000000082423 9.56899999999999906208
23 0 1 0.0 1.36700000000000154721 12.30300000000000260059 15.03700000000000081002
24 0 1 0.0 1.36700000000000199130 12.30300000000000260059 20.50499999999999900524
25 0 1 0.0 1.36700000000000221334 12.30300000000000260059 25.97299999999999897682
26 0 1 0.0 1.36700000000000265743 12.30300000000000260059 31.44099999999999894840
27 0 1 0.0 1.36700000000000287947 12.30300000000000260059 36.90899999999999891998
28 0 1 0.0 1.36700000000000332356 12.30300000000000260059 42.37700000000000244427
29 0 1 0.0 1.36700000000000354561 12.30300000000000437694 47.84499999999999886313
30 0 1 0.0 1.36700000000000398970 12.30300000000000437694 53.31299999999999528200
31 0 1 0.0 1.36700000000000132516 17.77100000000000079581 4.10099999999999997868
32 0 1 0.0 1.36700000000000176925 17.77100000000000079581 9.56899999999999906208
33 0 1 0.0 1.36700000000000199130 17.77100000000000079581 15.03700000000000081002
34 0 1 0.0 1.36700000000000243539 17.77100000000000079581 20.50499999999999900524
35 0 1 0.0 1.36700000000000265743 17.77100000000000079581 25.97299999999999897682
36 0 1 0.0 1.36700000000000310152 17.77100000000000434852 31.44099999999999894840
37 0 1 0.0 1.36700000000000332356 17.77100000000000434852 36.90899999999999891998
38 0 1 0.0 1.36700000000000376765 17.77100000000000434852 42.37700000000000244427
39 0 1 0.0 1.36700000000000398970 17.77100000000000434852 47.84499999999999886313
40 0 1 0.0 1.36700000000000443379 17.77100000000000434852 53.31299999999999528200
41 0 1 0.0 1.36700000000000154721 23.23900000000000076739 4.10099999999999997868
42 0 1 0.0 1.36700000000000199130 23.23900000000000076739 9.56899999999999906208
43 0 1 0.0 1.36700000000000221334 23.23900000000000076739 15.03700000000000081002
44 0 1 0.0 1.36700000000000265743 23.23900000000000076739 20.50499999999999900524
45 0 1 0.0 1.36700000000000287947 23.23900000000000076739 25.97299999999999897682
46 0 1 0.0 1.36700000000000332356 23.23900000000000432010 31.44099999999999894840
47 0 1 0.0 1.36700000000000354561 23.23900000000000432010 36.90899999999999891998
48 0 1 0.0 1.36700000000000398970 23.23900000000000432010 42.37700000000000244427
49 0 1 0.0 1.36700000000000421174 23.23900000000000432010 47.84499999999999886313
50 0 1 0.0 1.36700000000000465583 23.23900000000000432010 53.31299999999999528200
51 0 1 0.0 1.36700000000000199130 28.70700000000000073896 4.10099999999999997868
52 0 1 0.0 1.36700000000000243539 28.70700000000000073896 9.56899999999999906208
53 0 1 0.0 1.36700000000000265743 28.70700000000000073896 15.03700000000000081002
54 0 1 0.0 1.36700000000000310152 28.70700000000000073896 20.50499999999999900524
55 0 1 0.0 1.36700000000000332356 28.70700000000000073896 25.97299999999999897682
56 0 1 0.0 1.36700000000000376765 28.70700000000000429168 31.44099999999999894840
57 0 1 0.0 1.36700000000000398970 28.70700000000000429168 36.90899999999999891998
58 0 1 0.0 1.36700000000000443379 28.70700000000000429168 42.37700000000000244427
59 0 1 0.0 1.36700000000000465583 28.70700000000000429168 47.84499999999999886313
60 0 1 0.0 1.36700000000000509992 28.70700000000000429168 53.31299999999999528200
61 0 1 0.0 1.36700000000000221334 34.17499999999999715783 4.10099999999999997868
62 0 1 0.0 1.36700000000000265743 34.17499999999999715783 9.56899999999999906208
63 0 1 0.0 1.36700000000000287947 34.17499999999999715783 15.03700000000000081002
64 0 1 0.0 1.36700000000000332356 34.17499999999999715783 20.50499999999999900524
65 0 1 0.0 1.36700000000000354561 34.17499999999999715783 25.97299999999999897682
66 0 1 0.0 1.36700000000000398970 34.17499999999999715783 31.44099999999999894840
67 0 1 0.0 1.36700000000000421174 34.17499999999999715783 36.90899999999999891998
68 0 1 0.0 1.36700000000000465583 34.17499999999999715783 42.37700000000000244427
69 0 1 0.0 1.36700000000000487788 34.17499999999999715783 47.84499999999999886313
70 0 1 0.0 1.36700000000000532197 34.17499999999999715783 53.31299999999999528200
71 0 1 0.0 1.36700000000000265743 39.64300000000000068212 4.10099999999999997868
72 0 1 0.0 1.36700000000000310152 39.64300000000000068212 9.56899999999999906208
73 0 1 0.0 1.36700000000000332356 39.64300000000000068212 15.03700000000000081002
74 0 1 0.0 1.36700000000000376765 39.64300000000000068212 20.50499999999999900524
75 0 1 0.0 1.36700000000000398970 39.64300000000000068212 25.97299999999999897682
76 0 1 0.0 1.36700000000000443379 39.64300000000000068212 31.44099999999999894840
77 0 1 0.0 1.36700000000000465583 39.64300000000000068212 36.90899999999999891998
78 0 1 0.0 1.36700000000000509992 39.64300000000000068212 42.37700000000000244427
79 0 1 0.0 1.36700000000000532197 39.64300000000000068212 47.84499999999999886313
80 0 1 0.0 1.36700000000000576605 39.64300000000000068212 53.31299999999999528200
81 0 1 0.0 1.36700000000000287947 45.11099999999999710099 4.10099999999999997868
82 0 1 0.0 1.36700000000000332356 45.11099999999999710099 9.56899999999999906208
83 0 1 0.0 1.36700000000000354561 45.11099999999999710099 15.03700000000000081002
84 0 1 0.0 1.36700000000000398970 45.11099999999999710099 20.50499999999999900524
85 0 1 0.0 1.36700000000000421174 45.11099999999999710099 25.97299999999999897682
86 0 1 0.0 1.36700000000000465583 45.11099999999999710099 31.44099999999999894840
87 0 1 0.0 1.36700000000000487788 45.11099999999999710099 36.90899999999999891998
88 0 1 0.0 1.36700000000000532197 45.11099999999999710099 42.37700000000000244427
89 0 1 0.0 1.36700000000000554401 45.11099999999999710099 47.84499999999999886313
90 0 1 0.0 1.36700000000000598810 45.11099999999999710099 53.31299999999999528200
91 0 1 0.0 1.36700000000000332356 50.57900000000000062528 4.10099999999999997868
92 0 1 0.0 1.36700000000000376765 50.57900000000000062528 9.56899999999999906208
93 0 1 0.0 1.36700000000000398970 50.57900000000000062528 15.03700000000000081002
94 0 1 0.0 1.36700000000000443379 50.57900000000000062528 20.50499999999999900524
95 0 1 0.0 1.36700000000000465583 50.57900000000000062528 25.97299999999999897682
96 0 1 0.0 1.36700000000000509992 50.57900000000000062528 31.44099999999999894840
97 0 1 0.0 1.36700000000000532197 50.57900000000000062528 36.90899999999999891998
98 0 1 0.0 1.36700000000000576605 50.57900000000000062528 42.37700000000000244427
99 0 1 0.0 1.36700000000000598810 50.57900000000000062528 47.84499999999999886313
100 0 1 0.0 1.36700000000000643219 50.57900000000000062528 53.31299999999999528200
101 0 1 0.0 6.83499999999999996447 1.36700000000000021494 4.10099999999999997868
102 0 1 0.0 6.83500000000000085265 1.36700000000000065903 9.56899999999999906208
103 0 1 0.0 6.83500000000000085265 1.36700000000000088107 15.03700000000000081002
104 0 1 0.0 6.83500000000000085265 1.36700000000000132516 20.50499999999999900524
105 0 1 0.0 6.83500000000000174083 1.36700000000000154721 25.97299999999999897682
106 0 1 0.0 6.83500000000000174083 1.36700000000000199130 31.44099999999999894840
107 0 1 0.0 6.83500000000000262901 1.36700000000000221334 36.90899999999999891998
108 0 1 0.0 6.83500000000000262901 1.36700000000000265743 42.37700000000000244427
109 0 1 0.0 6.83500000000000262901 1.36700000000000287947 47.84499999999999886313
110 0 1 0.0 6.83500000000000351719 1.36700000000000332356 53.31299999999999528200
111 0 1 0.0 6.83499999999999996447 6.83499999999999996447 4.10099999999999997868
112 0 1 0.0 6.83500000000000085265 6.83500000000000085265 9.56899999999999906208
113 0 1 0.0 6.83500000000000085265 6.83500000000000085265 15.03700000000000081002
114 0 1 0.0 6.83500000000000085265 6.83500000000000085265 20.50499999999999900524
115 0 1 0.0 6.83500000000000174083 6.83500000000000174083 25.97299999999999897682
116 0 1 0.0 6.83500000000000174083 6.83500000000000174083 31.44099999999999894840
117 0 1 0.0 6.83500000000000262901 6.83500000000000262901 36.90899999999999891998
118 0 1 0.0 6.83500000000000262901 6.83500000000000262901 42.37700000000000244427
119 0 1 0.0 6.83500000000000262901 6.83500000000000262901 47.84499999999999886313
120 0 1 0.0 6.83500000000000351719 6.83500000000000351719 53.31299999999999528200
121 0 1 0.0 6.83500000000000085265 12.30300000000000082423 4.10099999999999997868
122 0 1 0.0 6.83500000000000174083 12.30300000000000082423 9.56899999999999906208
123 0 1 0.0 6.83500000000000174083 12.30300000000000260059 15.03700000000000081002
124 0 1 0.0 6.83500000000000174083 12.30300000000000260059 20.50499999999999900524
125 0 1 0.0 6.83500000000000262901 12.30300000000000260059 25.97299999999999897682
126 0 1 0.0 6.83500000000000262901 12.30300000000000260059 31.44099999999999894840
127 0 1 0.0 6.83500000000000351719 12.30300000000000260059 36.90899999999999891998
128 0 1 0.0 6.83500000000000351719 12.30300000000000260059 42.37700000000000244427
129 0 1 0.0 6.83500000000000351719 12.30300000000000437694 47.84499999999999886313
130 0 1 0.0 6.83500000000000440536 12.30300000000000437694 53.31299999999999528200
131 0 1 0.0 6.83500000000000085265 17.77100000000000079581 4.10099999999999997868
132 0 1 0.0 6.83500000000000174083 17.77100000000000079581 9.56899999999999906208
133 0 1 0.0 6.83500000000000174083 17.77100000000000079581 15.03700000000000081002
134 0 1 0.0 6.83500000000000174083 17.77100000000000079581 20.50499999999999900524
135 0 1 0.0 6.83500000000000262901 17.77100000000000079581 25.97299999999999897682
136 0 1 0.0 6.83500000000000262901 17.77100000000000434852 31.44099999999999894840
137 0 1 0.0 6.83500000000000351719 17.77100000000000434852 36.90899999999999891998
138 0 1 0.0 6.83500000000000351719 17.77100000000000434852 42.37700000000000244427
139 0 1 0.0 6.83500000000000351719 17.77100000000000434852 47.84499999999999886313
140 0 1 0.0 6.83500000000000440536 17.77100000000000434852 53.31299999999999528200
141 0 1 0.0 6.83500000000000174083 23.23900000000000076739 4.10099999999999997868
142 0 1 0.0 6.83500000000000262901 23.23900000000000076739 9.56899999999999906208
143 0 1 0.0 6.83500000000000262901 23.23900000000000076739 15.03700000000000081002
144 0 1 0.0 6.83500000000000262901 23.23900000000000076739 20.50499999999999900524
145 0 1 0.0 6.83500000000000351719 23.23900000000000076739 25.97299999999999897682
146 0 1 0.0 6.83500000000000351719 23.23900000000000432010 31.44099999999999894840
147 0 1 0.0 6.83500000000000440536 23.23900000000000432010 36.90899999999999891998
148 0 1 0.0 6.83500000000000440536 23.23900000000000432010 42.37700000000000244427
149 0 1 0.0 6.83500000000000440536 23.23900000000000432010 47.84499999999999886313
150 0 1 0.0 6.83500000000000529354 23.23900000000000432010 53.31299999999999528200
151 0 1 0.0 6.83500000000000174083 28.70700000000000073896 4.10099999999999997868
152 0 1 0.0 6.83500000000000262901 28.70700000000000073896 9.56899999999999906208
153 0 1 0.0 6.83500000000000262901 28.70700000000000073896 15.03700000000000081002
154 0 1 0.0 6.83500000000000262901 28.70700000000000073896 20.50499999999999900524
155 0 1 0.0 6.83500000000000351719 28.70700000000000073896 25.97299999999999897682
156 0 1 0.0 6.83500000000000351719 28.70700000000000429168 31.44099999999999894840
157 0 1 0.0 6.83500000000000440536 28.70700000000000429168 36.90899999999999891998
158 0 1 0.0 6.83500000000000440536 28.70700000000000429168 42.37700000000000244427
159 0 1 0.0 6.83500000000000440536 28.70700000000000429168 47.84499999999999886313
160 0 1 0.0 6.83500000000000529354 28.70700000000000429168 53.31299999999999528200
161 0 1 0.0 6.83500000000000174083 34.17499999999999715783 4.10099999999999997868
162 0 1 0.0 6.83500000000000262901 34.17499999999999715783 9.56899999999999906208
163 0 1 0.0 6.83500000000000262901 34.17499999999999715783 15.03700000000000081002
164 0 1 0.0 6.83500000000000262901 34.17499999999999715783 20.50499999999999900524
165 0 1 0.0 6.83500000000000351719 34.17499999999999715783 25.97299999999999897682
166 0 1 0.0 6.83500000000000351719 34.17499999999999715783 31.44099999999999894840
167 0 1 0.0 6.83500000000000440536 34.17499999999999715783 36.90899999999999891998
168 0 1 0.0 6.83500000000000440536 34.17499999999999715783 42.37700000000000244427
169 0 1 0.0 6.83500000000000440536 34.17499999999999715783 47.84499999999999886313
170 0 1 0.0 6.83500000000000529354 34.17499999999999715783 53.31299999999999528200
171 0 1 0.0 6.83500000000000262901 39.64300000000000068212 4.10099999999999997868
172 0 1 0.0 6.83500000000000351719 39.64300000000000068212 9.56899999999999906208
173 0 1 0.0 6.83500000000000351719 39.64300000000000068212 15.03700000000000081002
174 0 1 0.0 6.83500000000000351719 39.64300000000000068212 20.50499999999999900524
175 0 1 0.0 6.83500000000000440536 39.64300000000000068212 25.97299999999999897682
176 0 1 0.0 6.83500000000000440536 39.64300000000000068212 31.44099999999999894840
177 0 1 0.0 6.83500000000000529354 39.64300000000000068212 36.90899999999999891998
178 0 1 0.0 6.83500000000000529354 39.64300000000000068212 42.37700000000000244427
179 0 1 0.0 6.83500000000000529354 39.64300000000000068212 47.84499999999999886313
180 0 1 0.0 6.83500000000000618172 39.64300000000000068212 53.31299999999999528200
181 0 1 0.0 6.83500000000000262901 45.11099999999999710099 4.10099999999999997868
182 0 1 0.0 6.83500000000000351719 45.11099999999999710099 9.56899999999999906208
183 0 1 0.0 6.83500000000000351719 45.11099999999999710099 15.03700000000000081002
184 0 1 0.0 6.83500000000000351719 45.11099999999999710099 20.50499999999999900524
185 0 1 0.0 6.83500000000000440536 45.11099999999999710099 25.97299999999999897682
186 0 1 0.0 6.83500000000000440536 45.11099999999999710099 31.44099999999999894840
187 0 1 0.0 6.83500000000000529354 45.11099999999999710099 36.90899999999999891998
188 0 1 0.0 6.83500000000000529354 45.11099999999999710099 42.37700000000000244427
189 0 1 0.0 6.83500000000000529354 45.11099999999999710099 47.84499999999999886313
190 0 1 0.0 6.83500000000000618172 45.11099999999999710099 53.31299999999999528200
191 0 1 0.0 6.83500000000000262901 50.57900000000000062528 4.10099999999999997868
192 0 1 0.0 6.83500000000000351719 50.57900000000000062528 9.56899999999999906208
193 0 1 0.0 6.83500000000000351719 50.57900000000000062528 15.03700000000000081002
194 0 1 0.0 6.83500000000000351719 50.57900000000000062528 20.50499999999999900524
195 0 1 0.0 6.83500000000000440536 50.57900000000000062528 25.97299999999999897682
196 0 1 0.0 6.83500000000000440536 50.57900000000000062528 31.44099999999999894840
197 0 1 0.0 6.83500000000000529354 50.57900000000000062528 36.90899999999999891998
198 0 1 0.0 6.83500000000000529354 50.57900000000000062528 42.37700000000000244427
199 0 1 0.0 6.83500000000000529354 50.57900000000000062528 47.84499999999999886313
200 0 1 0.0 6.83500000000000618172 50.57900000000000062528 53.31299999999999528200
201 0 1 0.0 12.30300000000000082423 1.36700000000000021494 4.10099999999999997868
202 0 1 0.0 12.30300000000000082423 1.36700000000000065903 9.56899999999999906208
203 0 1 0.0 12.30300000000000260059 1.36700000000000088107 15.03700000000000081002
204 0 1 0.0 12.30300000000000260059 1.36700000000000132516 20.50499999999999900524
205 0 1 0.0 12.30300000000000260059 1.36700000000000154721 25.97299999999999897682
206 0 1 0.0 12.30300000000000260059 1.36700000000000199130 31.44099999999999894840
207 0 1 0.0 12.30300000000000260059 1.36700000000000221334 36.90899999999999891998
208 0 1 0.0 12.30300000000000260059 1.36700000000000265743 42.37700000000000244427
209 0 1 0.0 12.30300000000000437694 1.36700000000000287947 47.84499999999999886313
210 0 1 0.0 12.30300000000000437694 1.36700000000000332356 53.31299999999999528200
211 0 1 0.0 12.30300000000000082423 6.83499999999999996447 4.10099999999999997868
212 0 1 0.0 12.30300000000000082423 6.83500000000000085265 9.56899999999999906208
213 0 1 0.0 12.30300000000000260059 6.83500000000000085265 15.03700000000000081002
214 0 1 0.0 12.30300000000000260059 6.83500000000000085265 20.50499999999999900524
215 0 1 0.0 12.30300000000000260059 6.83500000000000174083 25.97299999999999897682
216 0 1 0.0 12.30300000000000260059 6.83500000000000174083 31.44099999999999894840
217 0 1 0.0 12.30300000000000260059 6.83500000000000262901 36.90899999999999891998
218 0 1 0.0 12.30300000000000260059 6.83500000000000262901 42.37700000000000244427
219 0 1 0.0 12.30300000000000437694 6.83500000000000262901 47.84499999999999886313
220 0 1 0.0 12.30300000000000437694 6.83500000000000351719 53.31299999999999528200
221 0 1 0.0 12.30300000000000082423 12.30300000000000082423 4.10099999999999997868
222 0 1 0.0 12.30300000000000082423 12.30300000000000082423 9.56899999999999906208
223 0 1 0.0 12.30300000000000260059 12.30300000000000260059 15.03700000000000081002
224 0 1 0.0 12.30300000000000260059 12.30300000000000260059 20.50499999999999900524
225 0 1 0.0 12.30300000000000260059 12.30300000000000260059 25.97299999999999897682
226 0 1 0.0 12.30300000000000260059 12.30300000000000260059 31.44099999999999894840
227 0 1 0.0 12.30300000000000260059 12.30300000000000260059 36.90899999999999891998
228 0 1 0.0 12.30300000000000260059 12.30300000000000260059 42.37700000000000244427
229 0 1 0.0 12.30300000000000437694 12.30300000000000437694 47.84499999999999886313
230 0 1 0.0 12.30300000000000437694 12.30300000000000437694 53.31299999999999528200
231 0 1 0.0 12.30300000000000260059 17.77100000000000079581 4.10099999999999997868
232 0 1 0.0 12.30300000000000260059 17.77100000000000079581 9.56899999999999906208
233 0 1 0.0 12.30300000000000437694 17.77100000000000079581 15.03700000000000081002
234 0 1 0.0 12.30300000000000437694 17.77100000000000079581 20.50499999999999900524
235 0 1 0.0 12.30300000000000437694 17.77100000000000079581 25.97299999999999897682
236 0 1 0.0 12.30300000000000437694 17.77100000000000434852 31.44099999999999894840
237 0 1 0.0 12.30300000000000437694 17.77100000000000434852 36.90899999999999891998
238 0 1 0.0 12.30300000000000437694 17.77100000000000434852 42.37700000000000244427
239 0 1 0.0 12.30300000000000615330 17.77100000000000434852 47.84499999999999886313
240 0 1 0.0 12.30300000000000615330 17.77100000000000434852 53.31299999999999528200
241 0 1 0.0 12.30300000000000260059 23.23900000000000076739 4.10099999999999997868
242 0 1 0.0 12.30300000000000260059 23.23900000000000076739 9.56899999999999906208
243 0 1 0.0 12.30300000000000437694 23.23900000000000076739 15.03700000000000081002
244 0 1 0.0 12.30300000000000437694 23.23900000000000076739 20.50499999999999900524
245 0 1 0.0 12.30300000000000437694 23.23900000000000076739 25.97299999999999897682
246 0 1 0.0 12.30300000000000437694 23.23900000000000432010 31.44099999999999894840
247 0 1 0.0 12.30300000000000437694 23.23900000000000432010 36.90899999999999891998
248 0 1 0.0 12.30300000000000437694 23.23900000000000432010 42.37700000000000244427
249 0 1 0.0 12.30300000000000615330 23.23900000000000432010 47.84499999999999886313
250 0 1 0.0 12.30300000000000615330 23.23900000000000432010 53.31299999999999528200
251 0 1 0.0 12.30300000000000260059 28.70700000000000073896 4.10099999999999997868
252 0 1 0.0 12.30300000000000260059 28.70700000000000073896 9.56899999999999906208
253 0 1 0.0 12.30300000000000437694 28.70700000000000073896 15.03700000000000081002
254 0 1 0.0 12.30300000000000437694 28.70700000000000073896 20.50499999999999900524
255 0 1 0.0 12.30300000000000437694 28.70700000000000073896 25.97299999999999897682
256 0 1 0.0 12.30300000000000437694 28.70700000000000429168 31.44099999999999894840
257 0 1 0.0 12.30300000000000437694 28.70700000000000429168 36.90899999999999891998
258 0 1 0.0 12.30300000000000437694 28.70700000000000429168 42.37700000000000244427
259 0 1 0.0 12.30300000000000615330 28.70700000000000429168 47.84499999999999886313
260 0 1 0.0 12.30300000000000615330 28.70700000000000429168 53.31299999999999528200
261 0 1 0.0 12.30300000000000260059 34.17499999999999715783 4.10099999999999997868
262 0 1 0.0 12.30300000000000260059 34.17499999999999715783 9.56899999999999906208
263 0 1 0.0 12.30300000000000437694 34.17499999999999715783 15.03700000000000081002
264 0 1 0.0 12.30300000000000437694 34.17499999999999715783 20.50499999999999900524
265 0 1 0.0 12.30300000000000437694 34.17499999999999715783 25.97299999999999897682
266 0 1 0.0 12.30300000000000437694 34.17499999999999715783 31.44099999999999894840
267 0 1 0.0 12.30300000000000437694 34.17499999999999715783 36.90899999999999891998
268 0 1 0.0 12.30300000000000437694 34.17499999999999715783 42.37700000000000244427
269 0 1 0.0 12.30300000000000615330 34.17499999999999715783 47.84499999999999886313
270 0 1 0.0 12.30300000000000615330 34.17499999999999715783 53.31299999999999528200
271 0 1 0.0 12.30300000000000260059 39.64300000000000068212 4.10099999999999997868
272 0 1 0.0 12.30300000000000260059 39.64300000000000068212 9.56899999999999906208
273 0 1 0.0 12.30300000000000437694 39.64300000000000068212 15.03700000000000081002
274 0 1 0.0 12.30300000000000437694 39.64300000000000068212 20.50499999999999900524
275 0 1 0.0 12.30300000000000437694 39.64300000000000068212 25.97299999999999897682
276 0 1 0.0 12.30300000000000437694 39.64300000000000068212 31.44099999999999894840
277 0 1 0.0 12.30300000000000437694 39.64300000000000068212 36.90899999999999891998
278 0 1 0.0 12.30300000000000437694 39.64300000000000068212 42.37700000000000244427
279 0 1 0.0 12.30300000000000615330 39.64300000000000068212 47.84499999999999886313
280 0 1 0.0 12.30300000000000615330 39.64300000000000068212 53.31299999999999528200
281 0 1 0.0 12.30300000000000437694 45.11099999999999710099 4.10099999999999997868
282 0 1 0.0 12.30300000000000437694 45.11099999999999710099 9.56899999999999906208
283 0 1 0.0 12.30300000000000615330 45.11099999999999710099 15.03700000000000081002
284 0 1 0.0 12.30300000000000615330 45.11099999999999710099 20.50499999999999900524
285 0 1 0.0 12.30300000000000615330 45.11099999999999710099 25.97299999999999897682
286 0 1 0.0 12.30300000000000615330 45.11099999999999710099 31.44099999999999894840
287 0 1 0.0 12.30300000000000615330 45.11099999999999710099 36.90899999999999891998
288 0 1 0.0 12.30300000000000615330 45.11099999999999710099 42.37700000000000244427
289 0 1 0.0 12.30300000000000792966 45.11099999999999710099 47.84499999999999886313
290 0 1 0.0 12.30300000000000792966 45.11099999999999710099 53.31299999999999528200
291 0 1 0.0 12.30300000000000437694 50.57900000000000062528 4.10099999999999997868
292 0 1 0.0 12.30300000000000437694 50.57900000000000062528 9.56899999999999906208
293 0 1 0.0 12.30300000000000615330 50.57900000000000062528 15.03700000000000081002
294 0 1 0.0 12.30300000000000615330 50.57900000000000062528 20.50499999999999900524
295 0 1 0.0 12.30300000000000615330 50.57900000000000062528 25.97299999999999897682
296 0 1 0.0 12.30300000000000615330 50.57900000000000062528 31.44099999999999894840
297 0 1 0.0 12.30300000000000615330 50.57900000000000062528 36.90899999999999891998
298 0 1 0.0 12.30300000000000615330 50.57900000000000062528 42.37700000000000244427
299 0 1 0.0 12.30300000000000792966 50.57900000000000062528 47.84499999999999886313
300 0 1 0.0 12.30300000000000792966 50.57900000000000062528 53.31299999999999528200
301 0 1 0.0 17.77100000000000079581 1.36700000000000021494 4.10099999999999997868
302 0 1 0.0 17.77100000000000079581 1.36700000000000065903 9.56899999999999906208
303 0 1 0.0 17.77100000000000079581 1.36700000000000088107 15.03700000000000081002
304 0 1 0.0 17.77100000000000079581 1.36700000000000132516 20.50499999999999900524
305 0 1 0.0 17.77100000000000079581 1.36700000000000154721 25.97299999999999897682
306 0 1 0.0 17.77100000000000434852 1.36700000000000199130 31.44099999999999894840
307 0 1 0.0 17.77100000000000434852 1.36700000000000221334 36.90899999999999891998
308 0 1 0.0 17.77100000000000434852 1.36700000000000265743 42.37700000000000244427
309 0 1 0.0 17.77100000000000434852 1.36700000000000287947 47.84499999999999886313
310 0 1 0.0 17.77100000000000434852 1.36700000000000332356 53.31299999999999528200
311 0 1 0.0 17.77100000000000079581 6.83499999999999996447 4.10099999999999997868
312 0 1 0.0 17.77100000000000079581 6.83500000000000085265 9.56899999999999906208
313 0 1 0.0 17.77100000000000079581 6.83500000000000085265 15.03700000000000081002
314 0 1 0.0 17.77100000000000079581 6.83500000000000085265 20.50499999999999900524
315 0 1 0.0 17.77100000000000079581 6.83500000000000174083 25.97299999999999897682
316 0 1 0.0 17.77100000000000434852 6.83500000000000174083 31.44099999999999894840
317 0 1 0.0 17.77100000000000434852 6.83500000000000262901 36.90899999999999891998
318 0 1 0.0 17.77100000000000434852 6.83500000000000262901 42.37700000000000244427
319 0 1 0.0 17.77100000000000434852 6.83500000000000262901 47.84499999999999886313
320 0 1 0.0 17.77100000000000434852 6.83500000000000351719 53.31299999999999528200
321 0 1 0.0 17.77100000000000079581 12.30300000000000082423 4.10099999999999997868
322 0 1 0.0 17.77100000000000079581 12.30300000000000082423 9.56899999999999906208
323 0 1 0.0 17.77100000000000079581 12.30300000000000260059 15.03700000000000081002
324 0 1 0.0 17.77100000000000079581 12.30300000000000260059 20.50499999999999900524
325 0 1 0.0 17.77100000000000079581 12.30300000000000260059 25.97299999999999897682
326 0 1 0.0 17.77100000000000434852 12.30300000000000260059 31.44099999999999894840
327 0 1 0.0 17.77100000000000434852 12.30300000000000260059 36.90899999999999891998
328 0 1 0.0 17.77100000000000434852 12.30300000000000260059 42.37700000000000244427
329 0 1 0.0 17.77100000000000434852 12.30300000000000437694 47.84499999999999886313
330 0 1 0.0 17.77100000000000434852 12.30300000000000437694 53.31299999999999528200
331 0 1 0.0 17.77100000000000079581 17.77100000000000079581 4.10099999999999997868
332 0 1 0.0 17.77100000000000079581 17.77100000000000079581 9.56899999999999906208
333 0 1 0.0 17.77100000000000079581 17.77100000000000079581 15.03700000000000081002
334 0 1 0.0 17.77100000000000079581 17.77100000000000079581 20.50499999999999900524
335 0 1 0.0 17.77100000000000079581 17.77100000000000079581 25.97299999999999897682
336 0 1 0.0 17.77100000000000434852 17.77100000000000434852 31.44099999999999894840
337 0 1 0.0 17.77100000000000434852 17.77100000000000434852 36.90899999999999891998
338 0 1 0.0 17.77100000000000434852 17.77100000000000434852 42.37700000000000244427
339 0 1 0.0 17.77100000000000434852 17.77100000000000434852 47.84499999999999886313
340 0 1 0.0 17.77100000000000434852 17.77100000000000434852 53.31299999999999528200
341 0 1 0.0 17.77100000000000079581 23.23900000000000076739 4.10099999999999997868
342 0 1 0.0 17.77100000000000079581 23.23900000000000076739 9.56899999999999906208
343 0 1 0.0 17.77100000000000079581 23.23900000000000076739 15.03700000000000081002
344 0 1 0.0 17.77100000000000079581 23.23900000000000076739 20.50499999999999900524
345 0 1 0.0 17.77100000000000079581 23.23900000000000076739 25.97299999999999897682
346 0 1 0.0 17.77100000000000434852 23.23900000000000432010 31.44099999999999894840
347 0 1 0.0 17.77100000000000434852 23.23900000000000432010 36.90899999999999891998
348 0 1 0.0 17.77100000000000434852 23.23900000000000432010 42.37700000000000244427
349 0 1 0.0 17.77100000000000434852 23.23900000000000432010 47.84499999999999886313
350 0 1 0.0 17.77100000000000434852 23.23900000000000432010 53.31299999999999528200
351 0 1 0.0 17.77100000000000079581 28.70700000000000073896 4.10099999999999997868
352 0 1 0.0 17.77100000000000079581 28.70700000000000073896 9.56899999999999906208
353 0 1 0.0 17.77100000000000079581 28.70700000000000073896 15.03700000000000081002
354 0 1 0.0 17.77100000000000079581 28.70700000000000073896 20.50499999999999900524
355 0 1 0.0 17.77100000000000079581 28.70700000000000073896 25.97299999999999897682
356 0 1 0.0 17.77100000000000434852 28.70700000000000429168 31.44099999999999894840
357 0 1 0.0 17.77100000000000434852 28.70700000000000429168 36.90899999999999891998
358 0 1 0.0 17.77100000000000434852 28.70700000000000429168 42.37700000000000244427