ITEM: TIMESTEP
0
ITEM: NUMBER OF ATOMS
18000
ITEM: BOX BOUNDS pp pp pp
2.1606966757055979e-01 2.7124930332429678e+01
2.1249583618084067e-01 2.7128504163819013e+01
2.5058197543021379e+00 3.2558618024569671e+02
ITEM: ATOMS id type x y z c_peratom fx fy fz 
362 3 5.51693 5.63761 7.8759 -29.3725 0.157511 2.15113 1.28682 
1801 2 5.64136 2.91193 4.87043 -23.7331 2.8976 0.00831381 2.39298 
3061 3 2.87523 5.48373 5.10973 -28.0281 0.176962 2.12292 0.408754 
4502 2 2.96763 3.01392 7.58466 -24.796 -2.44907 -1.85799 3.85937 
6001 1 1.9312 1.68895 4.08193 -7.73596 0.0997562 -0.269327 -1.3243 
7501 1 4.2785 4.35634 6.692 -8.44171 0.413305 0.225959 -3.65558 
9001 1 4.14466 4.27114 3.83184 -9.31765 2.2915 0.813824 0.486223 
10501 1 1.50821 1.6198 6.56035 -7.5208 0.0995234 -2.02286 1.21773 
12001 1 4.11985 1.35936 6.56136 -8.18239 -0.0412049 1.46931 -0.596403 
13501 1 1.57417 4.54926 3.83693 -7.37702 -1.02136 -0.814329 0.112807 
15001 1 1.41139 4.25575 6.33522 -7.51519 1.73747 1.10573 -0.445713 
16501 1 4.55938 1.39409 3.87821 -8.16189 -0.30158 -0.0667689 -1.43413 
302 2 5.52004 0.286159 7.85537 -25.0124 1.25388 -0.739372 0.270833 
10801 1 6.81797 1.49379 6.45108 -7.68358 0.337912 2.06299 0.116704 
4501 2 3.06279 2.94677 2.52721 -24.6643 -2.41515 -1.15128 -1.75328 
13502 1 1.44537 4.27426 8.75352 -7.31744 0.449591 1.22145 1.60267 
1501 2 0.303739 2.79901 5.18051 -25.2884 -1.77154 0.968939 -0.879475 
9002 1 4.21641 4.37346 9.23653 -7.38864 -0.313035 -1.16383 0.145663 
6301 1 7.34938 1.56745 3.55969 -7.39958 -2.21213 -1.086 1.76847 
13801 1 7.07073 4.41625 3.95575 -7.67862 -1.20785 0.22781 0.237553 
15301 1 6.94907 4.39804 6.85416 -7.96407 0.33438 0.296216 -1.87112 
662 2 10.8749 5.73847 7.94416 -24.3434 2.44908 0.968696 -0.531498 
2101 3 11.2051 3.21273 4.8668 -28.4674 -1.16656 -2.43227 0.0639713 
3361 3 8.59488 5.89408 5.28196 -27.482 -3.10474 -0.812125 -0.0127691 
4802 2 8.11539 3.09528 8.01709 -24.3042 0.532447 -2.15772 0.00360845 
6601 1 12.1617 1.6326 3.41066 -6.95401 4.99702 0.40073 2.8358 
7801 1 9.96649 4.5826 6.26269 -8.60948 -0.709351 -0.155095 -0.682246 
9301 1 9.73345 4.02945 3.42031 -8.00125 0.715851 0.556139 1.88217 
11101 1 12.2994 1.99274 6.19872 -7.88217 1.31913 -1.19243 0.107601 
12301 1 9.60679 1.51137 6.58544 -7.29691 -1.21415 1.33899 1.387 
14101 1 12.635 4.17223 3.54554 -7.91793 -2.2224 1.55091 2.77989 
15601 1 12.7064 4.59533 6.50755 -7.4857 -2.21016 0.758183 -0.253393 
16801 1 9.93474 1.33885 4.00343 -5.77843 -1.26893 0.460772 -0.0668033 
602 2 10.9933 0.377907 7.7887 -25.0615 -0.68696 0.222547 -0.0538382 
3601 2 13.6519 0.419304 4.83622 -24.6927 0.449058 1.10934 2.2409 
16861 1 9.61882 6.89141 3.93069 -8.50099 1.37874 0.266531 -0.817316 
6661 1 12.3516 6.85722 3.59195 -7.19052 -3.15134 0.180822 -0.792663 
6602 1 12.2397 1.77597 9.13593 -7.81963 0.503672 -0.677531 0.33141 
9302 1 9.42301 4.53829 9.06352 -8.29063 0.90935 0.401574 0.0180532 
3661 2 13.8145 5.72083 4.95215 -25.0408 -2.04453 0.294848 0.56413 
5102 2 13.7972 3.03657 7.70132 -25.5792 -1.5783 0.389489 -0.294904 
962 2 16.3163 5.66305 7.74078 -25.0074 -0.35022 -1.45187 -0.0372176 
2401 3 16.4922 3.14279 5.00809 -28.6922 0.147245 -1.99877 0.660297 
3961 3 18.8744 5.68937 5.03106 -28.2276 -0.0410201 -0.645214 0.506592 
5402 2 19.1669 2.93161 7.84741 -24.9441 -0.797639 1.29398 -0.926177 
6901 1 18.1146 1.46514 3.79696 -7.18127 -1.98941 2.64329 0.0176296 
8101 1 15.1624 4.30533 6.05933 -7.66832 0.614899 2.74584 0.825108 
9601 1 15.1375 4.76854 3.3799 -7.83604 -0.230459 -0.700773 -0.387309 
11401 1 18.0942 1.33628 6.42257 -7.50487 -0.00976057 -0.395357 0.972887 
12601 1 15.2912 1.89057 6.43243 -6.98805 -0.102602 -2.04055 -0.456401 
14401 1 17.6269 4.34903 3.80951 -8.03528 0.993836 -0.787456 1.36473 
15901 1 17.7266 4.14323 6.50905 -7.64719 -0.53799 0.0747271 -0.512447 
17101 1 15.1844 2.0447 3.76919 -7.6243 0.188794 -0.312278 2.06019 
902 2 16.593 0.337918 7.80179 -24.9314 -3.58713 -0.269012 -3.25362 
8401 1 20.2379 4.48153 6.35124 -7.88088 1.28869 2.00839 0.263161 
17461 1 19.9294 6.43647 3.49074 -7.14361 0.182794 0.616937 1.91835 
9602 1 14.8416 4.42983 9.06073 -7.69488 2.9418 1.09658 -0.687111 
11461 1 17.5638 6.86598 6.36356 -7.44132 0.554044 -1.36126 -3.10511 
6902 1 17.6478 1.6025 9.11909 -8.08651 2.74414 2.64858 2.14953 
14402 1 17.9028 4.52369 9.09908 -7.86098 -1.17598 -1.18694 1.1816 
17102 1 15.1453 1.81229 9.00282 -7.70986 -1.70764 -1.35276 1.66334 
5401 2 19.1374 2.84885 2.51493 -24.5717 1.25819 0.499269 -0.514451 
1261 3 21.6444 5.60141 2.51952 -29.365 -0.942206 0.628223 -1.66567 
12901 1 20.7005 1.95624 6.44549 -8.05313 -0.706114 -0.964614 0.882025 
9901 1 20.4437 4.02452 3.81224 -8.20698 1.28862 -1.55123 -0.340498 
17401 1 20.5769 1.01982 3.62506 -7.68149 0.928511 1.72608 -0.144495 
62 2 27.0004 5.73417 7.75872 -24.2777 3.01743 0.676019 1.19691 
1262 3 21.3485 5.77517 7.7083 -27.7679 2.87944 0.662781 1.00569 
2701 3 21.8076 2.99617 5.16586 -28.2856 0.910028 -0.811176 -0.826928 
4261 3 24.2065 5.59577 5.05038 -28.4147 1.3311 -0.331397 1.45281 
5702 2 24.4866 3.07613 7.80751 -25.481 -0.193137 -2.30333 -0.358891 
7201 1 23.3944 1.88093 4.04407 -7.12776 -1.16085 0.435006 0.672445 
8701 1 25.6691 4.62178 6.69689 -7.34788 -2.11699 -2.54646 -0.975519 
10201 1 25.554 4.00266 4.22603 -7.37476 1.14622 0.48734 -1.93045 
11701 1 23.248 1.28261 6.55335 -6.40947 -0.752944 0.512066 -0.59234 
13201 1 25.7459 1.51913 6.49773 -7.20095 1.64412 0.959883 -0.982706 
14701 1 23.1609 4.59623 3.62371 -7.86538 -1.14768 -0.331082 1.76825 
16201 1 23.0831 4.07336 6.44868 -8.1611 -1.64647 0.742882 -0.85423 
17701 1 26.0442 1.37552 3.87102 -8.01 1.38486 0.519652 -2.34983 
17702 1 25.8558 1.28595 8.94867 -6.59317 0.202221 2.56503 0.209384 
1202 2 21.6654 0.490741 7.8763 -24.9609 2.4447 -0.799558 -1.36511 
11761 1 23.0123 6.80116 6.43536 -7.81887 -0.840576 0.0372362 -0.210878 
17761 1 25.528 6.87541 3.64831 -8.34083 0.400361 -3.10185 1.85593 
5701 3 24.3558 2.93673 2.53975 -28.6353 0.442547 0.51627 1.31842 
9902 1 20.5181 4.44892 8.9973 -8.00433 0.108483 -0.0868173 0.278253 
7202 1 23.1469 1.72237 9.07536 -8.07408 -0.401494 1.684 1.88419 
17762 1 25.5608 6.9143 9.188 -8.54475 1.30512 -1.56582 -0.0546773 
10561 1 1.72076 6.96373 6.00703 -7.76416 -0.482665 -0.747969 1.74188 
12061 1 4.43466 7.08227 6.44866 -6.99613 -0.9068 -1.44904 0.229127 
16561 1 4.17483 7.18278 3.76816 -7.72632 1.09739 -3.22246 -0.0215686 
6061 1 1.39343 7.14503 3.38023 -7.79281 -0.427212 0.535993 0.723301 
422 2 5.77361 11.0611 7.79521 -26.0967 -2.08997 2.13514 1.31989 
1861 2 5.63495 8.44497 5.18677 -26.1899 -0.45826 0.272406 -0.769617 
3121 3 2.68452 10.9149 4.97661 -30.0603 1.9139 2.47218 1.68623 
4562 2 2.96196 8.56465 7.78202 -25.9843 0.488295 -1.25869 -0.448996 
6121 1 1.63667 12.7612 3.68028 -7.15238 -0.483835 -2.04772 -0.707923 
7561 1 4.38072 9.72919 6.55685 -6.906 -0.196132 0.956347 -1.17464 
9061 1 3.96767 9.6779 3.99726 -6.33986 0.895358 -1.02978 -0.397606 
10621 1 1.41598 12.2651 6.1835 -6.99689 -0.421855 -0.167907 1.14165 
12121 1 4.15271 12.5159 6.43892 -6.56126 0.146783 -0.0047474 1.2426 
13561 1 1.54897 9.95033 3.6868 -7.66044 -2.74446 -0.338047 -1.3218 
15061 1 1.57899 9.59266 6.30281 -7.51917 -0.843153 -0.307238 -0.139294 
16621 1 4.21957 12.1927 3.90842 -6.91537 -0.235873 0.95242 -2.08521 
6421 1 6.85323 12.4462 3.77378 -7.45782 1.26083 1.83504 -1.60831 
9062 1 4.42622 9.78016 9.0481 -6.67047 0.191011 -1.73091 2.26525 
13861 1 6.70408 10.032 3.92856 -6.82725 0.698951 -2.29741 0.318267 
16562 1 4.05007 7.05609 9.07258 -6.70012 0.694145 -0.359302 -0.309987 
6062 1 1.50551 7.11328 9.03171 -8.59045 -2.31338 0.585451 0.0197243 
16622 1 4.17534 12.2491 9.1197 -7.1085 1.04796 2.55292 0.814613 
13562 1 1.75512 10.0812 8.84411 -7.35284 -1.01765 -0.704573 1.2744 
6122 1 1.63177 12.6425 9.06599 -7.44667 -0.65781 0.858697 0.421781 
4561 3 3.02194 8.3103 2.60487 -29.6476 -1.48845 1.91793 -1.54454 
6361 1 7.02047 7.24481 3.63243 -7.70039 -2.00886 -1.41915 2.00885 
15361 1 7.09107 9.83981 6.62005 -8.17982 1.57719 -0.652011 -1.07205 
10861 1 7.0535 7.12653 6.39586 -7.30597 1.09095 -0.435974 0.324442 
10921 1 7.03223 12.5656 6.384 -7.56003 -0.392488 -0.173236 1.04429 
11161 1 12.3591 7.37556 6.17289 -7.16325 0.227986 -0.938981 0.954934 
12361 1 9.69539 7.33846 6.5745 -8.23531 0.26501 -1.90873 0.414217 
722 3 11.3173 11.0766 7.6937 -29.5827 -1.82643 1.26708 0.609304 
2161 3 10.9487 8.51713 5.0958 -28.3316 1.23856 -1.41692 1.51755 
3421 2 8.2577 11.1388 5.02909 -25.1797 0.656322 0.906791 1.24592 
4862 2 8.47233 8.67356 7.90561 -24.7399 -0.924257 -0.59323 -0.180483 
6721 1 12.5012 12.3322 3.59611 -8.35362 -0.401031 -0.555751 0.642809 
7861 1 9.97758 9.83129 6.48162 -7.73247 -1.4743 1.20103 -1.56918 
9361 1 9.69413 9.62583 3.71128 -9.01372 -0.845911 -0.186698 0.547196 
11221 1 12.3117 12.4751 6.29468 -7.85518 -0.214934 0.507452 -0.661178 
12421 1 9.65513 12.6647 6.10211 -6.81175 -0.0908896 -0.218719 1.1404 
14161 1 12.364 9.64106 4.03093 -8.53888 -2.0174 -0.641638 -1.70033 
15661 1 12.5296 9.89882 6.66818 -7.41908 0.910755 -0.145733 -1.02747 
16921 1 9.76273 12.3267 3.71762 -8.07562 -0.542184 -1.40097 -3.04552 
3721 3 13.6603 10.8772 4.93951 -28.6336 0.530646 2.58551 3.65475 
2221 3 11.0817 13.4929 4.84518 -29.0264 0.183216 2.6998 1.21362 
6422 1 7.02699 12.4028 9.11353 -6.99608 -0.790795 0.860898 0.611438 
6722 1 12.3465 12.3774 8.97294 -7.36672 -1.38799 -0.224763 1.15187 
6662 1 12.0939 7.26406 9.13277 -8.30289 0.473407 -0.969119 -0.387751 
9362 1 9.91251 10.0439 9.03502 -8.00834 -0.8514 -2.47657 2.26694 
14162 1 12.3909 9.83039 9.20866 -7.46213 0.547655 -0.81355 1.37174 
16922 1 9.5706 12.4065 8.67522 -6.69194 1.02132 1.57326 1.40472 
5162 3 13.7601 8.44679 7.70115 -28.9172 -0.846867 0.923879 0.664876 
6961 1 17.3158 6.98925 3.6106 -8.36634 -0.504715 -1.32136 -0.334897 
12961 1 20.2037 7.30248 6.68184 -8.5686 1.56813 -1.08201 -0.734173 
12661 1 14.9921 7.15928 6.72755 -8.34114 -0.352204 -1.47234 -1.38075 
17161 1 14.618 7.38591 3.84685 -8.05877 4.2754 1.74351 1.35303 
1022 3 16.516 10.939 7.81854 -28.9229 -1.65231 0.300066 -1.36817 
2461 3 16.2543 8.10889 5.03693 -28.3059 0.889912 2.5456 1.76799 
4021 2 18.8504 10.8574 5.17975 -25.5653 0.369614 0.227692 -2.65282 
5462 3 19.1726 8.41733 8.11027 -28.4902 -2.90579 1.71782 -2.47573 
7021 1 17.8938 12.2216 3.42031 -7.66458 -0.668812 -0.386712 1.76748 
8161 1 15.0771 9.72587 6.30172 -7.39433 0.489455 -0.447548 -0.152905 
9661 1 14.779 10.1864 3.65482 -7.4766 1.45909 -3.0707 -1.66074 
11521 1 17.5039 12.0814 6.26929 -7.21596 -0.419785 0.506852 -0.196258 
12721 1 14.9271 12.4669 6.26126 -6.98371 -0.173719 0.316389 -1.34416 
14461 1 17.4139 9.49053 3.59086 -7.32341 -1.59133 1.16506 1.88914 
15961 1 17.7473 9.46563 6.55004 -7.16253 -0.878306 -0.0090761 -0.371288 
17221 1 15.2544 12.5269 3.26594 -7.54802 -0.760244 1.08882 0.26239 
8461 1 20.2259 10.0557 6.55541 -7.47306 3.14159 -1.4931 1.14266 
9961 1 19.9844 9.11455 3.90477 -7.68287 1.1035 1.21341 0.103905 
13021 1 20.2103 12.6674 6.65221 -7.61055 0.877975 1.01327 0.93434 
14462 1 17.6772 9.6905 9.15207 -8.3166 0.742184 1.49566 1.44836 
9662 1 14.9753 9.69265 9.08347 -8.02154 0.859076 0.499023 -0.347599 
7022 1 17.7258 12.5667 8.88958 -8.12698 -0.43029 -1.03967 1.77737 
6962 1 17.334 7.07579 8.85223 -6.94105 2.86667 1.75971 2.3301 
17222 1 14.826 12.4106 8.9576 -7.15797 2.76345 -1.43686 0.841451 
5761 3 24.3474 8.15335 2.66278 -28.1693 -1.36751 -1.09683 -2.82541 
7261 1 22.7428 7.16 3.8412 -8.2378 0.357633 -0.743481 0.430892 
17521 1 20.6881 12.053 4.04857 -7.2169 0.0646775 -2.21799 -0.814711 
1321 2 22.0795 11.022 2.55349 -23.9024 -3.14621 1.02771 -3.52752 
1561 2 27.0698 8.14683 5.03407 -24.5884 0.93399 1.99659 -1.36288 
122 3 27.0183 11.1252 7.58862 -28.7837 1.82272 0.287608 1.41266 
13261 1 25.7802 7.10647 6.48703 -8.38109 -0.0174849 1.0507 -1.06486 
1322 3 21.8261 11.2081 7.89604 -29.35 -1.17089 -1.28833 1.10144 
2761 2 21.6986 8.5283 5.12977 -24.0617 -1.47995 -0.926966 3.3309 
4321 3 24.4024 11.0418 5.11982 -27.4123 1.13417 0.077711 1.15781 
5762 2 24.5446 8.3701 7.84201 -25.2233 -3.02573 0.318165 1.1922 
7321 1 23.3505 12.3255 3.93452 -8.23488 -0.347911 1.73128 -2.18837 
8761 1 25.8182 9.81559 6.33274 -8.64351 -0.893835 0.307392 -0.457848 
10261 1 25.7956 9.25416 3.48366 -8.45341 0.223236 3.34342 0.502325 
11821 1 23.0587 12.0497 6.48428 -8.04391 0.122218 1.94246 -0.330605 
13321 1 25.7819 12.5906 6.43916 -8.19163 -1.04604 -1.75947 -0.524932 
14761 1 23.0578 9.76333 3.92469 -9.0413 1.73218 -0.831073 1.75124 
16261 1 23.0498 9.55844 6.74869 -7.61183 -0.50138 -0.609141 -3.04707 
17821 1 25.9146 12.2117 3.63953 -7.70892 -0.442085 -1.72664 1.90747 
2821 2 21.7707 13.6255 5.34718 -24.784 -1.4413 -1.0642 -1.13166 
7262 1 22.6917 7.35377 9.2147 -6.1829 0.402108 -1.57176 -2.75563 
7322 1 23.1027 12.4364 9.08219 -7.66067 0.77945 1.2446 0.223145 
10262 1 26.0024 9.45996 9.17858 -7.54735 -0.163312 0.534626 -2.47362 
17822 1 25.8029 12.2381 9.18091 -7.12342 -0.229579 -1.23463 -2.29428 
14762 1 23.1581 9.7554 9.17504 -6.95005 1.22553 2.0703 1.7912 
4681 2 3.02001 19.222 2.52334 -24.5317 0.56573 -0.472307 -1.21372 
4622 3 2.77353 13.9514 7.78007 -29.4661 1.05236 -2.07978 -2.09232 
1921 2 5.51293 13.675 5.10955 -26.189 -1.21204 0.629626 -0.507812 
482 2 5.62605 16.4681 7.58198 -24.7194 -1.6922 0.534511 1.0798 
1981 3 5.33503 19.0433 4.89304 -29.7927 2.75078 1.23874 0.118839 
3181 3 2.7625 16.4814 4.94563 -28.726 -0.389907 -1.17005 0.350927 
4682 3 2.92406 19.0683 7.56287 -29.0963 -1.51524 1.04897 0.630356 
6181 1 1.87142 17.8451 3.52349 -7.76534 -1.93584 -1.16864 2.21053 
7621 1 4.23497 15.1807 6.39021 -7.32697 -1.48761 0.795872 -1.18413 
9121 1 4.09975 14.8694 3.65507 -7.88769 -0.741394 1.14718 0.135094 
10681 1 1.27396 17.7524 6.31138 -7.20239 1.01605 0.577435 -1.29614 
12181 1 3.79874 17.9013 5.99093 -7.9156 0.59009 -0.0673167 0.508101 
13621 1 1.19968 15.2483 3.69525 -7.8552 1.07931 1.69967 -0.0459298 
15121 1 1.50706 15.0904 6.40747 -7.06424 0.00576908 -0.565048 -2.90146 
16681 1 4.47094 17.7636 3.46308 -7.58648 0.481362 -0.728549 2.08458 
15421 1 6.77485 15.227 6.2546 -7.99475 3.16751 0.0987453 -0.520804 
13622 1 1.60097 15.3118 8.75565 -6.94807 1.68046 -1.44955 2.02285 
13921 1 6.78716 15.1013 3.49692 -7.66438 0.233578 0.363665 -0.408283 
13922 1 6.89028 15.0618 8.95243 -8.40985 1.90756 0.718626 -0.997801 
10981 1 6.46035 18.0474 6.37228 -6.95649 -0.261999 -0.788985 2.55837 
15181 1 1.38285 20.3706 6.25003 -7.68998 2.93634 1.05997 1.27018 
13981 1 6.3493 20.1326 3.24256 -6.41446 0.583059 -0.220883 0.761667 
9122 1 4.31472 15.1023 8.94051 -7.82183 -1.17628 -0.405324 1.47408 
6182 1 1.4651 17.7854 8.98824 -7.42278 1.08285 1.73643 0.889929 
16682 1 4.16233 17.8041 8.81749 -8.22854 1.14195 0.145116 0.0126474 
13682 1 1.69415 20.3791 8.91478 -7.0341 -0.122844 0.476827 0.905349 
6481 1 7.33282 17.8449 4.15099 -6.26714 0.368988 -0.925092 -2.50841 
4922 3 8.37427 13.9644 7.62235 -28.872 0.417843 -3.13462 -0.00286552 
782 3 11.1289 16.3799 7.91305 -28.9611 -0.896739 0.278607 -1.24106 
2281 2 10.8163 19.0672 5.18032 -24.7023 -0.805814 2.04286 -3.88012 
3481 3 8.42288 16.4258 5.13169 -28.9807 -0.609125 0.216378 -1.06393 
4982 3 8.3134 19.327 7.63496 -29.4351 -0.424299 -0.0932024 -0.17621 
6781 1 12.569 17.5378 3.72269 -7.63017 -0.318679 1.70098 -1.31546 
7921 1 9.54044 15.409 6.77633 -7.39738 -2.47697 0.258316 0.788528 
9421 1 9.54366 14.876 4.13176 -7.458 -0.226495 1.11267 -0.82561 
11281 1 12.2252 18.229 6.41795 -8.04053 0.630359 -3.30399 0.73346 
12481 1 9.39353 17.9626 6.28498 -8.07267 -0.971417 -0.262253 0.620685 
14221 1 12.4236 15.048 3.56668 -7.30844 -1.70347 -1.48051 -0.505317 
15721 1 11.9637 15.4228 6.23083 -6.95275 1.99942 -0.320065 -0.228853 
16981 1 9.95733 17.7816 3.47927 -7.21048 0.312857 -1.81176 0.832188 
5282 2 13.5541 19.2616 7.71718 -24.5435 1.05093 -1.80108 0.497825 
14281 1 12.1401 20.2272 3.73875 -8.48252 0.110135 1.38332 0.129902 
9481 1 9.38866 20.2261 3.64808 -7.52091 -0.378473 1.71861 1.44297 
6482 1 7.20249 17.9851 9.08259 -7.79116 -1.96643 -2.09602 0.248534 
14222 1 12.1775 14.9122 8.90908 -7.15133 2.41372 0.563447 -0.167287 
6782 1 12.3618 17.5759 9.15926 -7.99731 -0.957204 1.11275 0.815937 
16982 1 9.69459 17.94 8.92491 -7.55403 1.25557 -0.74145 0.965435 
5222 2 13.6829 13.7588 7.67858 -25.785 -0.453346 -0.489815 -0.380914 
3781 3 13.6879 16.5496 4.99895 -29.5453 0.0495955 -1.23195 0.124142 
2521 2 16.3109 13.738 4.72348 -25.1623 -0.757032 -1.87532 4.09647 
5522 3 18.8788 13.8276 7.8263 -28.336 0.793862 -0.840541 0.241456 
1082 2 16.3032 16.4122 7.64316 -25.5122 -1.46505 -1.42712 0.388885 
2581 3 16.277 19.2118 5.34751 -28.7364 1.06695 -3.30208 -1.15034 
4081 3 18.9584 16.4051 5.17908 -28.2397 0.694572 -1.12615 -1.24134 
5582 3 19.2769 19.3019 7.92047 -28.516 -1.78377 0.431805 0.660737 
7081 1 17.725 17.686 3.56918 -7.36253 2.28427 1.08427 -1.26606 
8221 1 14.7236 15.2599 6.23827 -7.68852 0.786559 -1.77332 1.50864 
9721 1 14.9425 15.0313 3.57981 -7.30057 -0.204165 0.15688 -0.920104 
11581 1 17.5245 17.2628 6.01366 -7.46853 -0.756298 2.27521 2.01909 
12781 1 14.8985 17.7508 6.50556 -7.63704 -0.33892 2.90115 -0.615949 
14521 1 17.5677 15.109 3.81654 -7.68042 2.33166 0.478142 -0.994268 
16021 1 17.5876 14.6942 6.65375 -7.52821 -1.57953 0.900208 -1.2202 
17281 1 15.1838 17.599 3.87753 -6.78886 -0.669277 0.907901 0.129276 
10021 1 20.3815 14.6061 3.81911 -7.27195 -0.956977 1.80927 0.0337455 
8521 1 20.0765 15.4783 6.7518 -8.08758 0.307549 -0.756133 -1.16046 
13081 1 20.1794 18.1358 6.53794 -7.80022 -0.463455 -0.281967 0.096774 
9781 1 14.7719 20.2057 3.56832 -8.1346 0.649389 2.47688 1.25848 
16081 1 17.7743 20.2529 6.84546 -6.96408 -0.225104 -1.11909 1.30063 
7082 1 17.2584 17.9529 8.85515 -7.30061 3.93508 0.927701 -0.483686 
17282 1 14.8817 17.4632 9.05691 -7.00713 -1.62612 1.30149 1.42608 
9782 1 14.9964 20.3958 8.89713 -8.64451 0.730307 1.3434 -0.0893934 
1381 2 21.6266 16.3408 2.55063 -24.1387 2.60179 -2.0146 -3.15919 
17581 1 20.7637 17.4258 3.99285 -8.53229 -4.49891 2.26528 2.03775 
5822 2 24.557 13.7986 7.84415 -24.807 -0.424676 -2.33495 3.39331 
1621 2 26.9237 13.8106 4.87217 -25.5257 2.41407 -1.23365 2.54494 
182 2 27.0599 16.5293 7.69566 -26.3981 -1.42834 0.161766 0.274415 
1681 3 26.9548 19.4314 5.19249 -29.3826 -0.831381 -3.17868 -1.1568 
1382 2 21.6393 16.4028 7.95845 -24.2548 0.203928 2.74647 1.24229 
2881 2 21.6048 19.2418 5.07624 -24.7734 1.90349 -0.308996 1.43681 
4381 2 24.1372 16.4881 5.37741 -24.7956 2.97668 0.712727 -0.91054 
5882 3 24.3866 19.2854 7.76659 -29.4956 1.03793 -2.09543 1.25779 
7381 1 23.3432 17.951 3.88754 -7.54407 -0.471997 0.557112 0.0960275 
8821 1 25.6314 15.1656 6.61401 -7.96806 -0.296523 1.77824 -2.29919 
10321 1 25.4296 14.9629 3.8339 -8.02183 0.775845 2.66751 -0.0348186 
11881 1 22.8235 17.7521 6.55184 -7.94726 -0.515029 0.0847201 -0.163176 
13381 1 25.578 17.9712 6.58154 -7.18808 -1.22718 -1.19103 0.235926 
14821 1 22.9349 15.1268 4.13813 -8.10103 -0.808002 -0.049661 -1.42063 
16321 1 22.8415 14.8672 6.9492 -8.84908 -0.107956 -0.069811 -1.58132 
17881 1 26.0235 17.8747 4.01003 -7.09912 0.784777 -1.16632 -1.71098 
10381 1 25.3876 20.3649 3.65273 -7.87391 0.52043 0.743149 0.107563 
10322 1 26.0803 14.784 9.20625 -6.57609 -2.49519 0.842698 -1.84466 
7382 1 22.9996 17.9701 9.11181 -7.25104 -0.0502706 -0.88585 -0.8963 
10382 1 26.0118 19.9844 8.8414 -7.2613 -0.437585 2.15308 1.54663 
3001 3 3.16358 26.9414 5.16957 -28.9377 -1.35159 0.233534 -0.591028 
2 3 0.253761 26.9948 7.62491 -29.4863 0.505094 0.512413 0.702865 
9181 1 3.97952 20.647 3.97465 -7.80636 -1.7918 -1.68162 -1.56775 
7681 1 4.22304 20.4945 6.40619 -7.45563 -0.68274 -1.7002 0.800832 
13681 1 1.16011 20.6058 3.75841 -7.54919 0.507113 -0.634416 0.608688 
542 2 5.51478 21.8272 7.5355 -26.0667 0.911575 -1.44441 0.787952 
2041 3 5.65799 24.4663 5.10425 -29.1792 -0.295411 -1.80981 -0.846787 
3241 3 2.53177 21.775 5.06555 -29.2418 1.30336 0.748989 0.337845 
4742 3 3.06628 24.4841 7.65259 -29.4788 -1.97736 -1.06101 0.268166 
6241 1 1.63618 23.1709 3.646 -7.49788 -1.00298 -0.856518 2.3319 
7741 1 4.38871 25.5988 6.31808 -7.25337 -1.00829 0.34124 2.38921 
9241 1 4.40851 25.7072 3.9282 -7.57712 -0.561812 -0.0649046 -1.91604 
10741 1 1.26653 23.063 6.29577 -7.47401 0.39925 -0.874922 -0.0562956 
12241 1 3.97298 23.0506 6.20546 -7.63748 0.64183 0.519536 0.501095 
13741 1 1.63004 25.7583 3.67326 -7.88704 0.139295 1.10595 0.182695 
15241 1 1.80798 25.6668 6.36552 -7.34779 0.521253 1.13784 -0.30174 
16741 1 4.30491 23.0985 3.53012 -7.48488 0.595706 1.06118 0.95983 
15541 1 6.79489 25.842 6.23212 -7.37659 1.90488 0.129891 2.7201 
11041 1 6.91539 23.1637 6.49944 -7.68343 -1.8934 0.920646 -2.29319 
6242 1 1.69701 23.0314 8.99485 -7.19286 -1.20843 0.408292 0.662469 
13742 1 1.68821 25.7124 8.98999 -7.64316 -1.18326 0.630554 0.709979 
9182 1 4.34086 20.6007 9.11343 -7.00625 -0.116662 -1.44514 -0.101873 
14042 1 6.89227 25.7566 9.19504 -7.84118 -0.121569 0.798596 -1.79775 
9242 1 4.22969 25.7775 8.95175 -7.61992 0.431856 -0.199872 1.27288 
16742 1 4.2588 23.1189 8.95555 -7.54587 1.22837 1.25655 -0.0860298 
3301 2 8.43399 27.0548 5.11977 -25.8308 -0.538748 1.38222 -1.50029 
6541 1 6.99477 22.8281 3.73991 -7.30983 1.07664 -0.110695 0.840187 
15481 1 7.12366 20.5457 6.2098 -6.67985 0.349388 0.715013 -2.01179 
14041 1 7.1021 25.3994 3.83865 -7.78282 0.232996 1.56795 -2.00002 
15781 1 12.2859 20.8168 6.79662 -7.20928 2.15476 1.30494 -3.31294 
7981 1 9.86242 20.7306 6.35083 -7.71582 -1.50234 -1.52736 -0.283023 
842 3 10.8663 22.0755 7.82723 -29.2132 0.72905 0.0241863 -0.55432 
2341 3 11.0361 24.5502 5.12732 -28.2559 -0.182564 0.482325 -0.557746 
3541 3 8.56631 21.8807 5.00934 -28.7242 -2.69151 -1.61276 -0.411591 
5042 2 8.05885 24.5481 7.73555 -24.9997 2.92009 0.0339563 0.219677 
6841 1 12.478 23.1303 3.67689 -8.24421 0.206228 -0.229438 1.12042 
8041 1 9.57255 25.6611 6.40777 -8.11393 0.545419 0.771861 0.547896 
9541 1 9.79505 25.7368 3.54089 -7.71297 -0.529853 -1.90404 0.159751 
11341 1 12.1423 23.4945 6.64833 -8.00123 -1.24035 -1.7552 -1.67887 
12541 1 9.44192 23.1541 6.18094 -7.5648 1.56661 1.26314 0.0420796 
14341 1 12.3606 25.8508 3.85731 -8.03586 1.00616 -0.646435 -1.48466 
15841 1 12.3118 26.0145 6.39961 -7.63661 -0.527418 1.72955 -0.701218 
17041 1 9.90166 22.8063 3.44727 -8.0065 -0.862557 1.15175 1.95594 
5342 2 13.5578 24.7039 7.70933 -25.2316 1.50013 -0.0730736 1.8137 
3841 2 13.6386 21.8522 4.99276 -23.5739 -1.06439 -1.47399 0.357694 
14282 1 12.3809 20.4271 9.15729 -8.07942 -0.246624 -0.116983 2.71864 
13982 1 7.03464 20.5031 8.68127 -6.45022 -0.167993 -0.407041 0.884201 
6542 1 7.08596 23.0129 8.99565 -7.4791 -0.567483 1.10844 1.63423 
9482 1 9.81031 20.8508 9.04335 -7.73149 -0.730455 -0.431392 -0.661373 
14342 1 12.1785 25.9735 9.0349 -7.75738 2.09971 -0.45685 1.52539 
17042 1 9.83853 23.5538 8.97157 -7.31741 -2.73014 -0.428473 -1.43136 
3901 3 19.2615 26.8603 5.04756 -29.2391 -1.1494 1.43846 -1.2447 
1141 2 16.3389 21.6867 2.61587 -24.5115 0.300134 -0.447151 -1.63533 
8281 1 15.1797 20.6206 6.21755 -8.47255 -2.24973 0.246295 0.454761 
14581 1 17.4932 20.4479 4.45764 -7.57836 0.318998 1.66031 -4.20665 
1142 2 16.3304 21.8949 7.7532 -24.659 1.58997 -0.0688519 -0.343285 
2641 2 16.3149 24.4764 4.93671 -25.0014 1.49205 1.86986 0.582156 
4141 3 19.1536 21.8841 5.12661 -28.4409 0.0721919 -0.00616622 0.926274 
5642 3 19.3383 24.8304 7.78234 -28.8463 -0.485939 -2.93055 -0.50808 
7141 1 17.8301 23.4036 3.65255 -8.41412 1.02228 -2.21586 -0.533671 
8341 1 14.9973 26.023 6.55921 -7.39728 1.3515 -0.00615278 -1.18919 
9841 1 15.165 26.1598 3.80379 -7.83207 -0.454889 -0.702585 -0.898265 
11641 1 17.6505 22.8209 6.18074 -7.27733 -0.841517 0.0742403 -0.274525 
12841 1 14.7869 23.3076 6.18196 -8.42604 0.979784 0.0362853 0.133148 
14641 1 17.7749 26.04 3.61693 -7.34218 1.02159 -2.53733 -0.859716 
16141 1 18.0117 25.4097 6.30725 -7.59733 -1.82077 1.31633 -0.589473 
17341 1 15.155 23.3907 3.27215 -7.96458 -0.646021 -0.0486447 4.78147 
14642 1 17.884 26.0091 9.00371 -8.46442 0.462653 -1.24717 1.57356 
10081 1 20.2585 20.4439 3.87029 -8.302 -1.41056 -0.696442 -0.843399 
7142 1 17.9465 23.3999 8.78622 -7.85584 -2.29695 -0.892986 0.901578 
9842 1 14.9886 25.9891 9.17878 -7.58139 0.475806 -0.328713 -0.234516 
17342 1 14.8545 23.1855 9.08965 -8.05075 1.24948 -0.454199 -1.64213 
5641 3 19.3371 24.2615 2.52685 -27.9622 0.0510769 1.19286 0.0250259 
4201 2 24.6761 27.0742 5.0434 -25.5945 -2.37181 0.276466 0.555957 
10442 1 25.9283 25.8264 8.92611 -7.38302 -0.524393 -3.02362 -0.0897642 
14882 1 23.23 20.5525 9.22605 -7.7948 0.147291 0.542695 0.0919195 
10082 1 20.5393 20.5384 9.09815 -8.04352 1.31656 -0.227787 0.686891 
8581 1 20.4448 20.7597 6.57168 -8.24671 -0.0431939 -0.107967 -1.77381 
17641 1 20.7296 23.0552 3.6904 -7.16762 -1.44083 -2.24348 2.09947 
8641 1 20.4596 26.0759 6.47798 -7.70794 1.1086 1.951 0.151285 
16381 1 23.3584 20.4319 6.62833 -7.52026 -2.22889 -0.30222 -2.04753 
10141 1 20.6451 25.3817 4.00289 -7.49572 -1.93363 2.28356 -1.62336 
13141 1 20.5376 23.5478 6.41197 -7.3744 -1.64162 -1.34151 1.14348 
242 3 27.0737 21.785 7.83121 -29.4229 1.09624 -0.218697 -0.595153 
14881 1 22.8344 20.7648 3.75469 -7.85883 0.429635 -1.00872 1.41028 
1741 3 27.1025 24.3224 4.89276 -29.0776 1.39221 0.655684 1.31805 
8881 1 25.8499 20.5116 6.41431 -7.36873 -1.03179 2.93279 -1.19355 
1442 2 21.8618 21.8838 7.76678 -24.9068 -0.969918 -0.179376 1.17604 
2941 3 21.9531 24.5388 5.09351 -29.3274 -0.390751 -1.90318 0.0273456 
4441 3 24.4757 21.8492 5.06818 -29.056 -0.855034 -0.587497 0.0587132 
5942 3 24.5279 24.4554 7.5917 -28.5838 -0.509215 1.65258 1.69502 
7441 1 23.3887 23.4827 3.76339 -7.55271 1.19046 0.0118563 0.319953 
8941 1 26.1769 25.6781 6.24364 -7.99901 -1.97719 1.1223 -0.609047 
10441 1 25.8561 25.7249 3.59559 -7.92137 -0.0936707 -1.7334 0.732089 
11941 1 22.8987 22.8056 6.17511 -7.376 2.17556 1.83534 -1.03992 
13441 1 25.6315 23.2494 6.72331 -7.49401 -0.600584 -2.04887 -2.76118 
14941 1 23.2767 26.0754 3.31951 -7.77276 -0.26563 0.311283 2.14363 
16441 1 23.227 25.5534 6.26986 -7.84663 1.72184 -0.520121 -1.66854 
17941 1 26.0508 22.785 4.08678 -7.90191 -0.766122 0.858561 -0.573146 
7442 1 23.2842 23.177 8.81064 -8.12662 -0.51025 0.980586 1.20846 
17942 1 25.9024 23.0361 9.13356 -7.92291 0.652198 -0.403022 1.83052 
14942 1 23.1505 25.8922 8.84329 -7.80431 0.860996 -0.323331 2.53795 
10142 1 20.5861 25.8931 9.01223 -7.92821 -1.04517 0.299806 1.56625 
3063 3 2.81331 5.71197 15.7977 -29.659 -0.661364 0.999403 0.789551 
6002 1 1.5148 1.64403 9.27124 -7.33088 1.20715 -1.47531 0.405135 
6302 1 6.93708 1.72929 9.40411 -7.80583 -1.22316 0.0276632 -1.17543 
13802 1 6.82997 4.60605 9.47247 -7.02841 -0.255934 -2.58107 -2.30611 
16502 1 4.28857 1.53684 9.34367 -7.47435 -0.29272 0.447535 -1.48364 
363 2 5.31808 5.73605 13.2165 -25.2853 -0.344026 0.376507 -1.10932 
1802 3 5.42374 2.96551 10.6103 -29.0401 0.191478 1.50355 -0.168692 
3062 2 2.71568 5.71353 10.4159 -25.8355 1.61789 -0.972361 -0.430795 
4503 2 2.78999 2.9112 13.2859 -26.0866 0.616084 1.39278 -0.277888 
6003 1 1.47911 2.01701 14.9192 -7.71393 -0.62912 -0.755923 0.306038 
7502 1 3.87174 4.51418 11.9673 -7.00375 1.71021 0.122621 0.383144 
9003 1 4.19679 3.99012 14.5248 -7.45921 -0.0830399 2.11644 1.96288 
10502 1 1.65082 1.39163 12.3154 -7.56268 0.0765538 -0.232494 -2.25853 
12002 1 4.25971 1.74385 11.8498 -7.53878 0.456859 -0.197343 0.0714731 
13503 1 1.44946 4.63897 14.3377 -7.62398 -0.442698 -0.364887 -1.88666 
15002 1 1.56452 4.0098 11.3633 -6.85882 -2.22425 -0.279084 1.02685 
16503 1 4.15455 1.39855 14.4641 -7.07513 0.606548 -0.0856056 0.67251 
303 2 5.6264 0.337491 12.9901 -25.3796 -1.80419 -1.65104 1.60524 
15302 1 6.61497 4.37058 11.8571 -7.25825 0.579212 -0.949309 1.46426 
13803 1 6.64459 4.64485 14.4646 -8.16761 2.2829 -0.886608 2.02038 
10562 1 1.34274 6.72513 11.8326 -8.23504 -1.20302 1.24022 -0.177947 
1502 3 0.22572 2.92401 10.2106 -29.2767 0.977286 -1.36129 1.11594 
3003 3 2.9872 0.262706 15.8862 -28.6839 0.308361 1.43427 -1.13888 
14102 1 12.3628 4.43949 9.27576 -7.05128 -2.46253 1.13203 0.588503 
10802 1 7.02674 1.6526 12.0759 -7.6586 -0.410267 1.02794 -1.75523 
6303 1 7.01792 1.94843 14.6722 -8.24654 -1.44397 -0.490357 1.55732 
16802 1 9.42894 1.93863 9.47148 -7.67193 0.744788 -0.497844 -1.56645 
663 2 10.8458 5.83614 13.4224 -25.8373 0.516764 -1.64056 -2.15222 
2102 2 10.8032 2.98525 10.7547 -24.8667 2.76828 2.44011 -0.0533558 
3362 3 8.1478 5.74739 10.4519 -28.9181 -0.844819 1.06628 1.11511 
4803 2 8.09904 3.19089 13.3036 -24.8899 1.50138 0.201486 -2.13571 
6603 1 12.4523 2.10098 14.385 -6.93064 0.608924 -1.00112 3.61614 
7802 1 9.41798 4.71051 11.7742 -8.10394 0.119483 -1.5635 0.963521 
9303 1 9.41468 4.37417 14.6377 -7.70097 -1.4147 -0.537296 -1.87385 
11102 1 12.241 1.58609 12.0336 -7.56857 1.27672 -0.102285 -3.69019 
12302 1 9.59724 1.67738 12.0399 -7.38502 -0.430373 0.506419 -0.910713 
14103 1 11.9213 4.66262 15.0293 -6.54969 0.657464 -0.402387 0.842017 
15602 1 12.2115 4.39956 12.1253 -7.39842 -0.253891 -0.837503 -0.246338 
16803 1 9.76189 1.78073 14.4988 -7.17435 -0.756502 0.208206 2.86309 
603 2 11.0291 0.311548 13.2943 -25.4712 -1.68694 2.31182 -1.95745 
3662 3 13.616 5.84539 10.6273 -28.7277 -0.257979 -1.63706 -0.118001 
3302 3 8.42264 0.427429 10.6213 -29.4415 -0.97518 -1.25846 0.599394 
3602 2 13.6612 0.40682 10.558 -24.7293 0.0372077 -0.684009 -0.373843 
16863 1 9.51665 6.93283 14.7881 -7.90908 -0.234978 1.77084 -0.161623 
3363 3 8.07851 5.61121 15.8064 -29.3807 0.856999 1.38865 0.500234 
3303 2 8.24789 0.519581 15.8676 -25.1855 0.659325 -1.93301 -0.0228953 
3603 2 13.7891 0.606412 15.9353 -24.9501 -1.36246 -1.34604 -0.401109 
5103 3 13.7467 3.08448 13.3344 -28.6328 -1.24367 1.16044 -1.23467 
963 3 16.168 5.73006 13.4307 -28.3229 0.843116 -0.0858916 -0.179718 
2402 2 16.2941 3.04795 10.3951 -24.4308 0.510399 1.63943 1.18001 
3962 3 19.0148 5.94105 10.448 -28.968 -0.411028 -1.55787 0.84568 
5403 2 19.0198 3.2534 13.1358 -24.8457 -0.419572 -0.707267 -0.421062 
6903 1 17.8914 1.76344 14.7183 -7.96839 -0.703628 0.580998 0.591208 