LAMMPS data file via write_data, version 22 Dec 2022, timestep = 100000

6249 atoms
3 atom types

-1.1899513691890888 101.18995136918727 xlo xhi
-1.1899513691890888 101.18995136918727 ylo yhi
-0.1189951369187554 10.118995136919146 zlo zhi

Masses

1 26.982
2 24.32
3 65.39

Atoms # atomic

252 1 1.1379760582536314 1.8219025007213703 1.310096573299121 0 0 0
253 1 1.069318147081304 -0.635090585783453 2.8178234229837824 0 0 0
258 1 3.119860392345368 1.4521396339524881 3.016905161404669 0 0 0
576 2 -1.10911887083779 11.10804359246011 7.046729508377225 0 0 0
2724 1 19.641331748242212 -1.0570097178797642 8.655804480115126 0 1 -1
251 1 -0.7107416021049946 -0.04727407423669794 0.7536979267858447 0 0 0
304 1 -1.0299593990580718 5.497408509701683 3.815882075318967 0 0 0
255 1 3.211162710875514 -0.20182659978515982 0.5796892834496159 0 0 0
256 1 5.044108650924564 1.7707543710826812 0.9357328800809106 0 0 0
2956 1 5.086451655469507 -0.6221927997445265 2.66420423835572 0 1 0
2962 1 7.422738832456432 -0.9042132334123236 4.734774249279346 0 1 0
259 1 7.419505317143702 -0.07950768544359832 0.6549266964434705 0 0 0
262 1 7.279019134146132 1.5883125056882568 2.9266759732264234 0 0 0
260 1 9.397853965861557 2.280064456419448 1.0926330973086367 0 0 0
2960 1 9.497208489734568 -0.2758136785002142 2.5283935792061527 0 1 0
266 1 11.47210027065144 1.5850167390581111 2.9107350582482057 0 0 0
263 2 11.425481768138958 0.09192519836936319 0.6568400733411445 0 0 0
507 1 11.582051752439748 -0.6841408338143921 4.5247408011140156 0 0 0
261 1 9.621557130991755 1.1853944040085627 5.083033466268876 0 0 0
264 1 13.617010138851915 2.2592136066983093 0.9377047676388195 0 0 0
265 1 13.582132478180649 -0.25430758000175313 2.540123054808068 0 0 0
270 1 15.377840454235294 2.0388481247415715 3.029413171193078 0 0 0
3110 1 15.566298319815278 -0.3973495208383374 4.5604359990521885 0 1 0
267 1 15.67589814929589 0.25802116899710925 0.35508576428300975 0 0 0
268 1 17.567663936492245 2.6903642903386227 1.052389932311246 0 0 0
269 1 17.65091025058442 0.16236869686267164 2.6162212455454603 0 0 0
274 1 19.76332869887155 2.1741595607256836 3.0263220333184564 0 0 0
271 1 19.846287388675382 0.4386009824089412 0.859961830929812 0 0 0
2974 1 19.73235527992242 -0.3045368613870707 4.606560454928175 0 1 0
272 1 21.840485899701438 2.6325079377530693 1.099743143592429 0 0 0
273 1 21.841884511944915 0.09449892215433753 2.8014010156953426 0 0 0
278 2 24.054844500444258 2.224309954014094 3.004870435764465 0 0 0
2978 1 23.89181979419099 0.9536796565691987 0.519202014214138 0 1 0
277 1 26.12841157028384 0.45941778203985595 2.372402300457418 0 0 0
279 1 28.259770154913614 0.8522500323035551 0.7413263066486182 0 0 0
282 1 27.913456163239 2.5265692577824295 3.01115373866703 0 0 0
276 1 26.125425832772088 2.8552888633399522 0.8243114569884 0 0 0
281 1 30.168306483733318 0.4631924274955599 2.6318457105625197 0 0 0
3116 1 32.23715200717336 0.429634115603051 4.440677751653365 0 1 0
283 1 32.33491742135541 1.0597270018396792 0.734780976956761 0 0 0
286 1 32.18666550750845 2.7478960447571925 3.0342998580345446 0 0 0
54 1 -0.930556566336378 6.291313050700592 -0.08017067463313157 0 0 0
285 1 34.2757282421766 0.9544615795279165 2.43286315574289 0 0 0
290 1 36.0853689239861 3.1647067389934707 2.7175622689144205 0 0 0
287 1 36.70700269309247 0.8427525774969937 0.6423769983732361 0 0 0
449 1 49.98905014425581 11.540059039977484 2.946818712372148 0 0 0
289 1 38.67380426246008 0.7576607422602384 2.831121062705694 0 0 0
294 1 40.864721881358626 2.662317450025042 3.515193275959257 0 0 0
288 1 38.424847109486926 3.2103508167931603 1.0802510324909176 0 0 0
291 1 41.28049500238534 0.24114220739501846 1.3822116409658327 0 0 0
292 1 43.7115520410021 1.6746816117706764 2.0863777633021954 0 0 0
295 1 45.64152685427842 -0.336982677417745 2.49665165327039 0 0 0
293 1 42.92380488218332 -0.2681762687254813 3.6737134854758393 0 0 0
298 1 45.25878657936186 1.6368023435790149 4.343831650260055 0 0 0
43 1 43.731133174497714 -0.11199361609794889 0.16661874285018818 0 0 0
48 1 46.02165028403919 1.8804656972879843 0.19841833637768758 0 0 0
296 1 47.666458005103415 1.6479874214946033 2.8167609785210046 0 0 0
47 1 47.82207694585864 -0.40302942717204693 0.8798875586322193 0 0 0
299 1 49.336310263462295 -0.5580060575080229 3.1912920431090543 0 0 0
297 1 47.084719326729775 -0.23677711619134223 4.799077552372344 0 0 0
472 1 21.344906142480728 18.73336603523998 4.154858396815222 0 0 0
302 1 0.9554696332477812 5.751046954525136 1.755269358679042 0 0 0
303 1 1.04812062325106 3.570260915852005 3.5314065481749983 0 0 0
625 1 49.74659652095043 15.244509975475044 7.119633957888092 0 0 0
351 1 -1.1751030865449092 7.7981066161924915 2.242755900786373 0 0 0
621 1 41.43011332072675 15.064637314618462 7.48374243356581 0 0 0
305 2 3.0213763582845097 3.8542309260105627 1.4992126954515308 0 0 0
308 1 3.2237499349396863 5.466270604773651 3.8759925717279224 0 0 0
306 1 4.989205928247825 5.910451418881 1.7219580361178446 0 0 0
307 1 5.344184329280363 3.468502412470797 3.378969674036627 0 0 0
62 1 7.0736285147197275 6.293963062173294 -0.08656404978397347 0 0 0
58 2 2.7948958962510884 6.261067259353732 10.050753353457548 0 0 -1
309 1 7.051321377901603 3.910788579977866 1.2825864721755134 0 0 0
312 1 7.076792954585693 5.598015414121518 3.746460472304358 0 0 0
310 1 9.144361010892084 6.0096326230603525 1.8204792069575886 0 0 0
311 1 9.24947584606242 3.724922315774773 3.3818169238845894 0 0 0
313 1 11.536132073325664 4.485248342366162 1.4451617274675912 0 0 0
316 1 11.289215704895286 5.86646861234066 3.8303470564088076 0 0 0
66 1 11.410010638768155 6.802428287937075 -0.10704984510323162 0 0 0
314 1 13.397395409241241 6.593279021067932 1.8809073778426229 0 0 0
315 1 13.5965816313309 3.8936500408211145 3.4944865786926105 0 0 0
320 1 15.404148008946631 6.032373723115036 3.8416045155869116 0 0 0
317 1 15.64555971704646 4.7010680601293116 1.4316072781539417 0 0 0
70 1 15.433775437692034 6.906952726486663 10.056789856182219 0 0 -1
318 1 17.608574777113507 6.6184353715724695 1.943209027270524 0 0 0
319 1 17.674441855790317 4.107581392363973 3.2982139405783863 0 0 0
324 1 19.56369687479172 6.190482534829624 3.7745736620701957 0 0 0
321 1 19.61705030344665 4.581909091375872 1.5242487824603337 0 0 0
74 2 19.7665040763126 6.979861378634011 -0.045822037520350634 0 0 0
325 1 23.67079719131229 4.6085267534696985 1.597220243714851 0 0 0
323 1 21.52631045740083 4.377150439597204 3.5467425275800912 0 0 0
328 1 23.653865055501107 6.498044081430499 3.8584776289757015 0 0 0
322 3 21.642262350403513 6.756037196480999 1.9009238301628604 0 0 0
329 1 27.777877574400225 5.020706629720299 1.3748341300710087 0 0 0
327 1 25.853847482680724 4.23814130742941 3.3453742380541933 0 0 0
332 1 27.904196752102347 6.308256156220268 3.7530651820988616 0 0 0
326 1 25.572565320005697 6.856322756846206 2.0244362552211417 0 0 0
280 1 30.054551229664327 2.9000522963060504 1.2863013214686827 0 0 0
333 1 31.987973682308564 5.058327664568457 1.5437685137980441 0 0 0
331 1 29.99636283392429 4.421216768494761 3.4506433050294816 0 0 0
336 1 31.957015668391975 6.57587124597074 3.950346847739712 0 0 0
284 1 34.09134031683375 3.084836864594811 0.6721130442560852 0 0 0
335 1 34.02457754986315 4.786707574612171 3.4933127943170104 0 0 0
337 1 36.02529906648731 5.244449329722823 1.3012073611338537 0 0 0
340 1 35.81349389067246 7.0974855710212434 3.8311483371161636 0 0 0
338 1 39.722387571863244 5.755555883540265 1.5135029237224005 0 0 0
339 1 37.987884646470356 5.143272347532613 3.3344625023151995 0 0 0
341 1 41.94694906200841 3.7685606553260325 1.2578903055441344 0 0 0
344 1 41.76128447414292 5.8396459959340525 3.461809912096271 0 0 0
342 2 43.86483002920516 5.781095736845074 1.6985582075257313 0 0 0
343 1 43.495276140573274 3.7224371283275 3.7545753264465516 0 0 0
348 1 45.59823646110042 5.696609134811531 3.966503056529117 0 0 0
93 1 44.169062236120446 4.120402171368374 9.921275055254137 0 0 -1
345 2 45.799230008337915 3.625816772942252 2.1027375386967404 0 0 0
98 1 46.02796622464782 5.9672961313259565 0.13836696799968184 0 0 0
97 1 48.263073498692805 3.596889184336887 0.6599459721539324 0 0 0
346 1 47.73460588696279 5.681267692348866 2.568491359532459 0 0 0
347 1 47.330149845245764 3.4654151507781776 4.710936507529515 0 0 0
493 1 43.56341258535974 15.735125085706553 5.557868088840251 0 0 0
249 1 49.974298315932685 16.69106396371212 9.59789054850143 0 0 -1
353 1 0.877867129978021 7.474619688968328 4.3316750099936545 0 0 0
352 1 0.7346461828827764 9.967573767025831 2.7430075505958555 0 0 0
103 1 0.7419646648858127 8.21504213571204 0.4654958813172877 0 0 0
108 1 2.8463782846168426 10.048152995507094 0.5958865406784277 0 0 0
1128 1 2.7048673671947268 18.965400964050936 8.53504644277965 0 0 0
358 1 3.050056183434468 9.3322469546561 4.765617459004765 0 0 0
355 1 2.801268693157277 7.777510870842804 2.434641443006059 0 0 0
356 1 4.9098314229976285 10.216141740152485 2.5521815766352476 0 0 0
357 1 5.037172742394729 7.518375299374711 4.222994322329414 0 0 0
107 1 4.918947411473715 8.194221934498323 0.1718714968788918 0 0 0
112 2 7.2147809513905425 10.598412879658875 0.7101368985782277 0 0 0
359 1 6.82051025863092 8.238530260250887 2.1167267488827948 0 0 0
362 1 6.985938169847456 9.709865032493477 4.496203167516872 0 0 0
360 1 8.986598170910137 10.237730903629343 2.6880751636884703 0 0 0
361 1 8.83427345225782 7.585506239802802 4.214595705254968 0 0 0
116 1 11.112640161492978 10.490554195966304 0.8413769016881878 0 0 0
363 1 10.818983027048093 8.138724714637457 2.3964015799349703 0 0 0
111 1 8.996764504140247 8.417460677689633 0.17339721910059275 0 0 0
366 1 11.13836942481405 10.030108350764236 4.75041412585401 0 0 0
365 1 13.522224323412832 8.126526884360517 4.321743117713673 0 0 0
364 1 13.182364385866245 10.16066214270319 2.6931082828049977 0 0 0
367 1 15.434193574943126 8.362685079662967 2.2962134582440856 0 0 0
370 1 15.075609458635416 10.340683481478349 4.357018710621228 0 0 0
115 2 13.409597946635353 8.686437228865474 0.36087611365242594 0 0 0
120 1 15.332306385319722 10.841803693112258 0.8300036252942854 0 0 0
369 1 17.561065609577597 8.429118465312214 4.2995695026898275 0 0 0
368 1 17.348643796620973 10.835073641636763 2.715896849380512 0 0 0
371 1 19.492101537467622 8.750467480913285 2.3571880458121863 0 0 0
119 1 17.49659381250184 9.049833476886025 0.2726826378313588 0 0 0
374 1 19.43192939386509 10.516802870937054 4.650312717539323 0 0 0
124 1 19.713655120088468 11.487011935285635 0.6144736711504971 0 0 0
372 1 21.486218289611312 11.069762389032581 2.7531071022026827 0 0 0
375 2 23.717674234752185 8.896309215397661 2.3247115171666057 0 0 0
373 1 21.521093087335856 8.476968919989947 4.1635898430911595 0 0 0
123 1 21.629984621505244 9.294054371011214 0.433738660269132 0 0 0
378 1 23.8463131344868 10.388270303112252 4.741705445609387 0 0 0
78 1 23.676129264289937 7.452865730071387 0.07639153297367152 0 0 0
379 1 27.81471520869248 9.236134942965505 2.5499262092438784 0 0 0
377 1 25.734131795739295 8.369986125414547 4.434995799706223 0 0 0
382 1 27.62756652363742 10.65897799512121 4.943376388116298 0 0 0
127 1 25.821648142270217 9.59421355866683 0.34500061323861597 0 0 0
376 1 25.46978104991374 11.076005684164654 2.6314211540726844 0 0 0
82 1 27.666313413354672 7.380322052486788 0.02622000535790467 0 0 0
330 2 29.84433911935774 6.98343588480806 2.0387682709866435 0 0 0
383 1 31.761166411565092 9.140783461998076 2.494757437114371 0 0 0
381 1 29.56873097267121 8.663770302541364 4.554406929393164 0 0 0
131 1 29.656141830303117 9.524621829047534 0.6551744946727615 0 0 0
386 1 31.51662479705847 11.039251740147776 4.615893812295833 0 0 0
86 1 31.642938850777263 7.573884885345574 0.1019321524398887 0 0 0
334 1 33.79312071415439 7.1994219344715855 1.714492106982455 0 0 0
384 1 35.59327267382771 9.504457434582811 2.0352731690509955 0 0 0
385 1 33.7792514632576 9.01306294535401 4.3363184024302575 0 0 0
136 1 33.69732676039908 9.775006266516469 0.2824697276082919 0 0 0
135 1 35.92148714112082 7.6152898842117285 9.994094453900708 0 0 -1
390 1 37.71952552786423 9.289570065505579 4.1612062584144605 0 0 0
387 1 37.85979455358568 7.763506512404238 1.9196171357550296 0 0 0
388 1 39.70856771658593 9.77021542605522 1.9812716749072026 0 0 0
389 1 39.527129119205334 7.566303749283943 3.7159720437190926 0 0 0
140 1 37.510902282902116 9.899967452752284 0.11293750865524116 0 0 0
139 1 39.69958634508285 8.006351701234898 10.040767688206083 0 0 -1
394 1 41.35193253554119 9.665442432718947 4.084937771090906 0 0 0
391 1 41.760091477086156 7.8029284936702386 1.4573853136274875 0 0 0
392 1 43.91154218347289 9.979795763046399 2.286291121728574 0 0 0
393 1 43.53764132209884 7.674928566238124 3.80954244883564 0 0 0
144 1 41.87238879996059 10.067106534732778 0.12587796412420452 0 0 0
143 1 44.04417138855428 8.041453385240125 10.000222902052908 0 0 -1
398 1 45.730249068274944 9.556254250903145 4.331549246496871 0 0 0
245 1 45.76824004879559 16.80688498262306 9.788138442641358 0 0 -1
395 1 45.9620715029094 7.983805813673774 1.892065850270599 0 0 0
147 1 48.216774516190746 7.6566446694720725 0.6730211092614605 0 0 0
396 1 48.02217193818635 9.59068806754627 2.4924950354349487 0 0 0
397 1 47.96254641713703 7.64825066655407 4.606868890342883 0 0 0
148 1 46.033979432495386 10.3882992369823 0.29087869351454243 0 0 0
153 1 0.8046650563675042 12.114962085278208 1.1661704201811507 0 0 0
402 1 0.859673555716304 14.006812308384966 3.336249467614663 0 0 0
158 1 2.8315279857456526 14.258723367624718 1.3563449884200718 0 0 0
405 1 3.048104992986036 12.093317994359186 3.1717401766873268 0 0 0
623 1 45.772766392300596 15.132322413557873 7.271975099651052 0 0 0
157 1 5.081694548244963 12.474118160466366 1.1594268021156402 0 0 0
406 1 4.76564415579299 14.281433742926758 3.397804629579661 0 0 0
409 1 7.164012964206755 12.29853035246404 3.2022539229090623 0 0 0
162 1 6.934775594114047 14.370398101753885 1.5337544185227092 0 0 0
407 1 5.113774951958489 11.567128921297515 5.016911015316134 0 0 0
161 1 8.986490577125162 12.762560192452861 1.0397006157557829 0 0 0
410 1 9.04433379759303 14.337443445412024 3.587156596234874 0 0 0
413 1 11.092396376687413 12.289556448079445 2.9207743120609657 0 0 0
166 1 10.95664375342996 14.640965353278439 1.312849293141046 0 0 0
165 1 13.067191697845125 12.620676202962937 1.1355861743675704 0 0 0
414 1 13.227179817455744 14.395455812836213 3.435160340804457 0 0 0
417 1 15.242844355528316 12.549390467789816 3.0644706270936344 0 0 0
170 1 15.049346268022553 14.929580872575883 1.447368771954439 0 0 0
169 1 17.34092123968019 13.051923241592755 1.016140360964893 0 0 0
418 1 17.005048443120252 14.829634745844121 3.270441117465319 0 0 0
421 1 19.26345622664043 13.03543406413764 3.0660698532850112 0 0 0
128 1 23.50683480373525 11.475096620401585 0.9045308640760523 0 0 0
173 2 21.472809005030577 13.31280317192643 1.0147244511227833 0 0 0
422 1 21.35359515536912 15.043050868092827 3.3185744074213535 0 0 0
425 1 23.625752060223824 12.976099652216849 3.2036447732573996 0 0 0
132 1 27.51213206585115 11.735531801034615 0.7882253053102489 0 0 0
177 2 25.582095110445092 13.549617026311184 1.3184727575847623 0 0 0
429 1 27.588920321045016 13.272182881612148 3.103431867420266 0 0 0
426 1 25.48393510788952 15.123424076594958 3.50865226069451 0 0 0
380 1 29.657473377074766 11.226654560841894 2.746937471095475 0 0 0
181 1 31.637382740571823 11.818390335618995 0.8601969501419828 0 0 0
182 1 29.78651776672833 14.110567943539897 1.1108575340907427 0 0 0
430 1 31.575772965793533 13.292372860113518 3.1315921423427215 0 0 0
435 1 35.601026104701276 11.159554726650125 4.322490652096914 0 0 0
433 1 33.73599201725642 11.27100103353916 2.5637131700630897 0 0 0
186 1 33.6969394677716 13.765627246930267 1.0839921021602719 0 0 0
434 1 35.627848716722454 13.603646619331665 2.903386665664302 0 0 0
185 1 35.55502688253012 11.857818689050681 0.4900973620410043 0 0 0
439 1 39.34187471319698 11.519940010047991 4.615263056135188 0 0 0
190 1 37.61045541374746 14.177336661321654 0.9026656866635434 0 0 0
437 1 37.64270235024836 11.609281668405867 2.463873729319649 0 0 0
438 1 39.639065446043745 13.52518950455235 2.8587492577471645 0 0 0
189 1 39.62612628709265 12.05643854567037 0.29793543592303595 0 0 0
440 1 37.299744623319896 13.206660685262392 5.113414660694827 0 0 0
194 1 41.660522896012786 14.23698257566345 1.0249725037859811 0 0 0
441 1 41.729847399149385 11.920796384463527 2.4976184864618634 0 0 0
443 1 43.49369522473106 11.607420799419074 4.530817127694688 0 0 0
193 1 43.832898142493335 12.244645796537283 0.8334795722731425 0 0 0
442 1 43.602131431763816 14.131091782252296 2.8848052099678516 0 0 0
198 1 45.77923813048935 14.360629597076983 0.9297076231447634 0 0 0
445 1 45.642891742602785 12.151042088352755 2.646853435952409 0 0 0
197 1 48.15932263347163 12.07769565072267 0.5912172393782739 0 0 0
446 1 48.059752713779254 14.006121691269241 2.9543900665020155 0 0 0
447 1 47.785687966699534 11.396734429420889 4.686392761892986 0 0 0
203 1 0.6473071400192414 16.363033587684278 1.9947922004371064 0 0 0
452 1 0.631113905834503 17.74387088186019 4.282183377449134 0 0 0
202 2 0.6520144479745789 18.562313712068732 0.3683056632527326 0 0 0
455 1 2.7984476127864832 15.942955750770992 3.6891617969997554 0 0 0
208 1 2.6489113452477806 18.295815413651805 2.2940944949551163 0 0 0
206 1 2.744899676409346 16.55756593565881 10.073106362046996 0 0 -1
207 1 4.889969611358045 16.436514296572643 1.8213389959811004 0 0 0
456 1 4.785718951693655 18.0778927855683 4.092380505587603 0 0 0
212 1 6.830683561617278 18.47598037913315 2.0247380422415553 0 0 0
459 1 7.089095201407384 16.12634366312368 3.788162903194623 0 0 0
630 1 4.615419161232145 18.852356684357954 0.21910558721081969 0 0 0
210 1 6.918886996073038 16.92328964126564 9.875969967966814 0 0 -1
241 1 41.4449421502964 16.62335505469927 9.78459589692127 0 0 -1
211 1 8.976007250364717 16.639141439735845 1.7640698866958004 0 0 0
460 1 8.860364720982298 18.36440229571538 4.116616916549798 0 0 0
463 1 10.900372710502195 16.133794956012892 3.7881144261691153 0 0 0
216 1 10.77283785971753 18.647095596496246 2.227626740633033 0 0 0
213 1 10.97396906322698 17.108277367880834 -0.009648658430550794 0 0 0
215 2 12.999608467330722 16.798421316198716 1.9719584572660218 0 0 0
464 1 12.892760138802405 18.286012554038457 4.260368759596995 0 0 0
467 1 15.106280114501935 16.61808007620809 4.057527497156541 0 0 0
497 2 47.81700086812504 15.532071352012466 5.245722717748544 0 0 0
217 1 14.919447666219142 17.388158842343188 0.004258471288510909 0 0 0
174 1 19.232177783430874 15.288543557376304 1.4571157648758315 0 0 0
219 1 17.018275652768857 17.06491761303678 1.7177868457300884 0 0 0
468 1 16.876288972017534 18.67430554073795 4.426728988059499 0 0 0
471 1 19.05762518156447 16.715751611011004 3.925136320244314 0 0 0
221 1 19.088784559775526 17.536381586468796 0.009151156713967268 0 0 0
178 1 23.534520789277234 15.48790927264007 1.4269680391228887 0 0 0
223 1 21.1914117156308 17.280793980423777 1.6826268400723152 0 0 0
475 2 23.35018625993724 16.916460774867176 3.8879389833790885 0 0 0
900 1 25.12212113092737 19.121980769450076 4.145353791437211 0 0 0
222 2 23.10297507828805 17.753289726514375 -0.04936735929728088 0 0 0
172 1 21.181015525143483 15.597787166357872 9.754753515157539 0 0 -1
227 1 27.426875738343718 15.723562945295708 1.5145242869310978 0 0 0
228 1 25.16763105157011 17.584070648599887 1.7494718576753512 0 0 0
476 1 27.317181768253924 17.12662906421846 3.7882887114739567 0 0 0
226 1 27.444559102740104 18.034608535582873 -0.03802169734993299 0 0 0
225 1 25.45126027703349 15.838332942402115 9.778157265086387 0 0 -1
450 1 49.94815817796387 13.621585004653525 4.994220583791543 0 0 0
479 1 29.38999484930264 15.52080463670276 3.2786593961960104 0 0 0
232 1 29.252103766076385 18.058049768217806 1.8485943376196523 0 0 0
231 1 31.384981718753956 16.014673547614283 1.2872828602978252 0 0 0
480 1 31.296195495720596 17.62611839552064 3.7561901503220985 0 0 0
230 1 31.65556663535677 18.37129050398632 9.8046579488847 0 0 -1
214 1 12.932367983162415 19.246590113129706 0.2297658403227279 0 0 0
236 1 33.454045429041365 18.051101993249873 1.8959439638852653 0 0 0
483 2 33.26044721787608 15.609430985891297 3.200144073729795 0 0 0
235 1 35.39326236796335 16.070261040747578 1.3003407215445182 0 0 0
484 1 35.45695375808575 17.660123021817938 3.5996024742754615 0 0 0
234 1 35.485821171428356 18.457984840522663 9.834672466988154 0 0 -1
240 1 37.295814630774544 18.22596277688956 1.7613511439394811 0 0 0
487 1 37.47672315922606 15.709474068679011 3.3141628030497885 0 0 0
239 1 39.32832400847898 16.113873560110427 1.4133954126816362 0 0 0
488 1 39.65424604917467 17.7916845126393 3.8058258017202466 0 0 0
238 1 39.681244654964495 18.52162320979049 -0.058890297878868125 0 0 0
244 1 41.61782056205552 18.200860758787694 1.873343226158991 0 0 0
491 1 41.622854808236994 16.00274378761059 3.5701200223168366 0 0 0
243 2 43.66032238929766 16.488196947939198 1.421010256973772 0 0 0
492 1 43.57228468983777 17.919943370975787 3.9322549670213496 0 0 0
242 1 43.568666681229324 18.786037971873903 -0.07782246316091809 0 0 0
248 1 45.51794104428819 18.334322459712006 1.9657869991441572 0 0 0
495 1 45.51951984324255 15.92680564954754 3.534966486477342 0 0 0
246 1 47.899292281523444 18.822663303906673 -0.009060598074206894 0 0 0
247 1 47.927915074440186 16.36399665204807 1.3135870998117727 0 0 0
496 1 47.67962716335364 17.79194393435169 3.7245079372487 0 0 0
622 2 43.692981850730156 17.173500101119856 7.663980571491962 0 0 0
502 1 0.9020237044333439 1.1018411613559822 4.995086990340204 0 0 0
3 1 1.243554424481851 0.29714972193530453 9.077145772367226 0 0 -1
2 1 0.8092225134858222 2.601924968520109 7.264772449944272 0 0 -1
504 1 3.0146772940542403 0.6284718927634039 7.05821198000802 0 0 0
624 1 47.77115055710503 17.137742573671144 7.748582306542101 0 0 0
257 1 5.363313627400305 0.6346043418051406 5.038407080878387 0 0 0
8 1 3.1787403579336067 2.449531219286568 9.207705628670617 0 0 -1
6 1 5.385076468827927 0.17604063597518516 8.640111661799683 0 0 -1
530 1 5.365593090362117 2.653652874934075 7.172083906358393 0 0 0
12 1 7.479697187446321 2.143975021975744 9.286334512177852 0 0 -1
349 1 49.79214119349897 3.7348870954806666 3.042272575981711 0 0 0
505 1 7.478554531337515 0.8227305514740015 6.8511639040987475 0 0 0
11 1 9.73051389862804 0.4445968346578464 8.579994657564935 0 0 -1
13 1 11.515819794658706 1.155640307389679 6.854715451859264 0 0 -1
16 1 11.336976733692085 2.805217558535767 9.484392512246632 0 0 -1
508 1 13.357437413913253 1.5276609710578737 4.780850445137151 0 0 0
3108 1 13.455322950058138 -0.754046117389094 6.458358218832019 0 1 0
15 1 13.404449699799523 0.7402448592478197 8.852418733513458 0 0 -1
14 1 15.543580586105165 1.3436347746407895 6.859646469018678 0 0 -1
20 1 15.327733334742344 3.031420476705808 9.270084799715612 0 0 -1
498 1 45.691465450562994 17.641497102921047 5.693139089887354 0 0 0
509 1 17.833711462641144 1.6845782132098508 4.937753007055647 0 0 0
19 1 17.763319809747017 1.0372028629693792 8.83987052562395 0 0 -1
21 2 19.673013733741975 1.5668441027930946 6.981458601006594 0 0 -1
511 1 17.679389422692207 -0.5083685925415877 6.617187645668828 0 0 0
515 1 24.032238712543563 0.02722704639364215 4.5490176032538 0 0 0
22 1 21.777278405819235 1.9153379658841239 5.076112131291148 0 0 -1
2721 1 24.03839031578612 -0.8049425234220757 8.46913791180873 0 1 -1
23 1 22.042087857776277 1.0789841384252918 8.99097173030579 0 0 -1
2722 1 23.757016073594947 1.530517933513861 6.859940010122708 0 1 -1
3112 1 21.58423271052647 -0.4176709047679674 6.788147185795522 0 1 0
514 1 28.201483143406765 0.18065397182275644 4.527664241469325 0 0 0
2732 1 28.28345557527896 -0.7413955390443022 8.322996856036923 0 1 -1
513 1 25.853041663178956 2.0103486288111667 5.055222061902857 0 0 0
2726 1 26.01575360311462 -0.20324067010224178 6.48381377362963 0 1 -1
275 1 26.151319849228784 1.076110647462094 8.869210819325273 0 0 -1
27 1 28.11875131150254 1.860514806138584 7.068128721823618 0 0 -1
2736 2 32.36692854842237 -0.9101397040237525 8.618195512289516 0 1 -1
517 1 30.12154172877471 2.2381551845283005 5.080357210768532 0 0 0
25 1 30.30301561607104 -0.14740943994593558 6.583830189453024 0 0 -1
31 1 30.20143370603106 1.2330722769321354 9.0233875233363 0 0 -1
33 1 32.048518496580805 1.916923136331767 7.073066416728293 0 0 -1
519 1 36.134739126471 0.5145189725406527 4.6056201613836265 0 0 0
518 1 34.04385489434094 2.4704011677555644 4.942425826808304 0 0 0
2730 1 33.99390286273983 0.4931985247915507 6.718194627613164 0 1 -1
35 1 34.27170543055043 1.0628421571789408 9.186808909650393 0 0 -1
34 1 36.32115958460926 2.2681667805609536 7.0009507490553355 0 0 -1
520 1 38.32568626803901 2.6481420802913953 4.9814749269975955 0 0 0
521 1 40.4543804559439 0.337595009649188 4.755193558390518 0 0 0
37 1 38.18883116184933 0.603221286708636 6.736081240835827 0 0 -1
39 1 39.62139143239377 0.2476969978670136 9.112089492180546 0 0 -1
38 1 40.333934213065135 2.3961110768004406 6.732027315123877 0 0 -1
44 2 41.819337929460076 2.103382859451547 9.413681161390265 0 0 -1
41 1 42.37362470758113 -0.06065141048155542 7.561656915913061 0 0 -1
522 1 42.75876565412286 1.8677178618213146 5.617044988862764 0 0 0
42 1 44.29677760740171 1.84886968787263 7.971372689667689 0 0 -1
523 1 44.57660936832839 -0.25077982779325514 6.369517049921647 0 0 0
300 1 49.2023031065526 1.5302261390826133 5.260288058012549 0 0 0
45 1 46.156941837541105 -0.37266358298564295 8.705748712314769 0 0 -1
524 1 46.736937535107785 1.6453620421782444 6.742393997062391 0 0 0
46 1 48.50767925527025 1.467064241185001 9.135143258857688 0 0 -1
525 1 48.81521364399375 -0.6403723027859405 7.1104917012612345 0 0 0
53 1 1.0646757040644363 4.5076432971878395 9.645554494277128 0 0 -1
527 1 0.8149408871244859 5.102173669391887 5.742455952785536 0 0 0
52 1 1.0775165529879032 6.873269341121658 8.139771203497485 0 0 -1
220 1 14.756287147810426 19.036307362796215 2.3089981724100865 0 0 0
50 1 49.97064162843435 1.6281573649774703 1.2494117102387994 0 0 0
638 1 8.69475921113338 18.99815762342814 0.04574545181359868 0 0 0
55 1 3.2498699890356004 4.797912397758818 7.675400446331706 0 0 -1
528 1 3.0788725323057404 3.139252371067654 5.517035541078478 0 0 0
57 1 5.200464117381375 4.33620603470438 9.827678392612247 0 0 -1
529 1 5.148637561416013 5.038703296923508 5.634483145146444 0 0 0
59 1 7.123550899131592 4.5923633009493 7.667888342768049 0 0 -1
56 1 5.280113583868329 6.646320869460656 8.191999100197215 0 0 -1
10 1 9.426819663239659 3.007524113512745 7.313713492446316 0 0 -1
506 2 7.569667461512127 2.959871123273299 5.316613081580556 0 0 0
61 1 9.10142899819713 4.642437566853614 9.7403147743411 0 0 -1
531 2 9.244269660511728 5.231097652830208 5.758254412394341 0 0 0
63 1 11.286271574057725 5.091025891148819 7.744322207480913 0 0 -1
533 1 11.432022396748863 3.3618001150077896 5.344304237365875 0 0 0
65 1 13.293094370927115 4.766668021456429 9.720653004275594 0 0 -1
532 1 13.695000045581827 3.352826898173478 7.337197039855078 0 0 0
534 1 13.235000096389399 5.694472599366875 5.829303485943843 0 0 0
510 1 15.742893231120188 3.8275863692174097 5.2391870027921295 0 0 0
67 1 15.654562567254118 5.458718470573501 7.719724365997921 0 0 -1
64 1 13.41764505765799 7.438587001452145 8.10897830025711 0 0 -1
24 1 19.84937110607024 3.072421609110788 9.528362048471124 0 0 -1
69 1 17.700306910417435 5.071372389599365 9.803494602872739 0 0 -1
18 1 17.5318840414376 3.5379356911843605 7.486590603101568 0 0 -1
536 1 19.428733816737356 3.94940832803975 5.322986220071874 0 0 0
535 1 17.621463347529474 6.008087692653833 5.693364130670929 0 0 0
71 1 19.806661475398126 5.444757475975271 7.571047528272478 0 0 -1
73 1 21.507777564021453 5.166926078265759 9.608858307337478 0 0 -1
28 1 23.773354498057824 3.309268626750079 9.275431506167404 0 0 -1
538 1 23.707280124976354 3.9443499330832745 5.525214309353469 0 0 0
512 2 21.673651121028538 3.605618083773205 7.568070607101262 0 0 0
75 1 23.647053494491768 5.692474239312228 7.883950206957776 0 0 -1
537 1 21.793626324611015 6.1385095447368805 5.837963122851468 0 0 0
77 1 25.674676751670336 5.140066052962865 9.858350123474722 0 0 -1
540 1 27.78260884062505 4.092781935955053 5.424621932382948 0 0 0
32 1 28.08871386267041 3.3151650601727374 9.377314453881466 0 0 -1
26 1 25.839379131899218 3.4939691139712483 7.356362774569778 0 0 -1
79 1 27.638881320433857 5.703310673112546 8.052319121279469 0 0 -1
539 1 25.619449380093794 5.853717143033532 5.8687938561077235 0 0 0
81 1 29.870063593714907 5.2995105612347375 9.882400672074585 0 0 -1
542 1 32.027434987347036 4.062100459521482 5.502808824381526 0 0 0
30 1 29.93911108682295 3.921741808147834 7.435911107250374 0 0 -1
541 1 29.84509778532762 6.204944689883187 5.981765163455061 0 0 0
36 1 31.960342427078494 3.4753333111742304 9.283572842065615 0 0 -1
83 2 31.978823735165946 5.902105328299994 7.926635808836158 0 0 -1
40 1 36.21938007534266 3.721228201485788 9.42692650043018 0 0 -1
544 1 36.28066517728853 4.476241244211519 5.230460918906735 0 0 0
516 1 34.267322438353865 3.8856897951936773 7.34501589832869 0 0 0
543 1 33.95668805504349 6.357069373662146 5.839946221413778 0 0 0
85 1 33.790091698495424 5.55987241233138 9.744754130378945 0 0 -1
84 1 36.12410271007784 5.6595370086344365 7.57103021747143 0 0 -1
90 1 37.90737685067796 5.637992779861874 9.577686260288807 0 0 -1
89 1 40.0917205273259 4.162587984715186 9.405502023483377 0 0 -1