LAMMPS data file via write_data, version 22 Dec 2022, timestep = 100000

6249 atoms
3 atom types

0 100 xlo xhi
0 100 ylo yhi
0 10 zlo zhi

Masses

1 26.982
2 24.32
3 65.39

Atoms # atomic

252 1 2.380822260149947 2.8492131355495007 1.1584613390492302 0 0 0
253 1 2.3943959316286665 0.6279594973730424 2.5962593530842786 0 0 0
254 1 0.4865559547100454 2.235355631200788 3.138643268957352 0 0 0
251 1 0.7528606130269077 0.653797453960291 0.602554710932853 0 0 0
258 1 4.475536090093885 2.809434595759566 2.9122395437156423 0 0 0
246 1 47.99809524090778 19.929443621980155 9.76812101078655 0 0 -1
255 1 4.500433728944178 0.8467855290086804 0.7520646981535748 0 0 0
256 1 6.570349974896631 3.0099467032444855 0.9497553876391983 0 0 0
2956 1 6.496931105375862 0.5331868941632513 2.466414148226673 0 1 0
152 1 0.07659028994202244 13.135628856751769 9.152456429741559 0 0 -1
257 1 6.308236194294255 2.344864355401417 4.734767626020059 0 0 0
259 1 8.38227321401751 0.8185013345097263 0.6213093426209201 0 0 0
262 1 8.232854644413168 2.818122973837271 3.0819453711434606 0 0 0
2962 1 8.263492573413712 0.38132943025496757 4.643597412589005 0 1 0
260 1 10.511877570372535 3.1387404399139447 0.9175020919205038 0 0 0
2960 1 10.171106052903108 0.7541973453492576 2.5061872185945497 0 1 0
261 1 10.419168455162499 2.364771903827069 4.728398296841655 0 0 0
263 2 12.446822353143352 1.3308304947473555 0.36048154516313535 0 0 0
266 1 12.568602952155052 2.5022106510843427 2.8368509273727898 0 0 0
507 1 12.404223653775729 0.1979633311818145 4.475248743754929 0 0 0
264 1 14.541161257077816 3.3844314114597953 0.8285065781653224 0 0 0
265 1 14.30104393265432 0.6393702789117811 2.4651943225238133 0 0 0
508 1 14.797736286448131 2.2604299179249763 4.515939732262081 0 0 0
270 1 16.562987339329926 3.253943598976794 2.588212311163487 0 0 0
267 1 16.381936719467767 1.4470001080717763 0.22495836521442497 0 0 0
3110 1 16.754868384985556 0.40425249597392743 4.061035642166817 0 1 0
268 1 18.583998848898897 3.7174600527332275 0.441442110631778 0 0 0
269 1 18.44218289072887 1.5124242886731085 2.0787588640702204 0 0 0
509 1 18.700971398542098 2.7509337548587744 4.641806457943373 0 0 0
274 1 20.72694263541113 3.213055108615836 2.6348311677820226 0 0 0
271 1 20.58341819069856 2.021941555237948 0.14170126031358826 0 0 0
272 1 22.825561882157967 3.0622192797781564 0.751089450590856 0 0 0
273 1 21.960024956125377 0.8712846540850364 3.1430785789605604 0 0 0
278 2 24.73604210097394 3.1811641003219835 2.434999320990583 0 0 0
22 1 22.73297547094727 2.9535456222611423 4.500154054113768 0 0 -1
2978 1 24.236965262471255 0.7041588445510742 1.9179641924276383 0 1 0
515 1 24.59458751125536 0.8361363830321519 4.619426015846779 0 0 0
277 1 26.927915312268706 1.3496267370803094 1.7455187873313753 0 0 0
282 1 28.740683070563808 3.388631989324668 1.8661564943923636 0 0 0
514 1 28.46061054395289 1.5679010089764023 3.827847812387262 0 0 0
513 1 26.352993155764587 2.982613146414088 4.625259836750435 0 0 0
276 1 26.87514385393605 3.9393463069478023 0.42494729924201896 0 0 0
281 1 30.5766752271858 1.4205875850584333 1.9570042293811907 0 0 0
3116 1 32.451138143601035 1.2516303926950185 4.329485548875048 0 1 0
517 1 30.719338171580763 3.296677754523753 4.059641257846767 0 0 0
286 1 32.49206143969588 3.6151259600835854 2.18149026350406 0 0 0
280 1 30.86841699824597 3.900034249489299 9.888083201931728 0 0 -1
283 1 33.00079009943071 1.432213507666689 0.40808291588551726 0 0 0
285 1 34.494878449337584 1.3847183764791051 2.659648934976495 0 0 0
290 1 36.88205327499231 3.3323474616733324 3.0632259427261026 0 0 0
287 1 37.09062476144374 1.1658750633756434 1.1713675925388214 0 0 0
518 1 34.70710256353584 3.2866761881990363 4.486283455470226 0 0 0
284 1 35.03458006239459 3.4691057772846974 0.9667395686543134 0 0 0
519 1 36.4519567179476 1.0733912110096475 4.96022407909193 0 0 0
288 1 39.29743489742721 3.4002835300777976 1.7106884474815687 0 0 0
291 1 41.00667003347129 1.1796913807197618 2.1953530482528127 0 0 0
289 1 38.65783054512025 1.308301634274724 3.5865200765448995 0 0 0
294 1 41.0692723511055 3.429615000502224 3.7828026885503454 0 0 0
43 1 43.58446652922908 0.9270187992963136 0.10005575985917543 0 0 0
292 1 43.62522327442259 3.0997021526434074 2.2250052671400478 0 0 0
295 1 45.18176660849597 0.7556226359678861 2.362299336164718 0 0 0
293 1 42.726132460044816 0.9361053987000064 4.246793970326359 0 0 0
298 1 44.924400941352445 2.7113317966614354 4.329588592454545 0 0 0
48 1 45.93311697552655 2.790614215631797 0.7101093762576468 0 0 0
296 1 47.36242906509347 2.62497460820733 3.094986112625391 0 0 0
47 1 47.557885435548506 0.6943193387745616 0.8174718976124014 0 0 0
299 1 49.17732609167886 0.7103613301801152 3.2715787898707576 0 0 0
297 1 46.8535365957849 0.6451846024850991 4.799365197053603 0 0 0
50 1 49.69145526340468 2.6525404255617175 1.3352949188288201 0 0 0
302 1 2.3520938894570316 6.5999795377463935 1.7490258145527797 0 0 0
303 1 2.5099066394575162 4.469845543678119 3.405953141639073 0 0 0
301 1 0.5858176760608951 4.725458579604751 1.4859319373985866 0 0 0
304 1 0.3703271889391762 6.477236945308859 3.758170144479083 0 0 0
308 1 4.313931959206649 6.5988633385955975 3.4985597142393425 0 0 0
305 2 4.409062898582211 4.880547885514891 1.321472334478268 0 0 0
306 1 6.510230966709584 7.07085369123855 1.595578333073932 0 0 0
307 1 6.437300620495765 4.790994196074856 3.2570944728609 0 0 0
309 1 8.414904454709909 5.12079411511831 1.3498594945499451 0 0 0
312 1 8.387377312528638 6.801817899632625 3.6065136322711964 0 0 0
310 1 10.430393130264962 7.1348623587308095 1.3359302260370514 0 0 0
311 1 10.549302380465363 4.566092806242009 3.335811488909647 0 0 0
316 1 12.234517586027714 6.802210026580107 3.412615883780959 0 0 0
313 1 12.413339467878709 5.194086323417165 1.4092714805210949 0 0 0
314 1 14.462173269286854 7.148577394865222 1.646448509126192 0 0 0
315 1 14.343891618918548 4.649863690703625 3.282216174827204 0 0 0
320 1 16.545923928208776 6.906745807669725 3.5260719494213695 0 0 0
533 1 12.594090821435215 4.360687840393181 5.185189417857405 0 0 0
510 1 16.61987516208849 4.419113807727264 5.0884952468084 0 0 0
317 1 16.266965167233458 5.3559229362498195 1.1163408652779452 0 0 0
318 1 18.605720654864168 7.422254372499473 1.5331534923745374 0 0 0
319 1 18.73541960506496 4.9811051160222455 3.0347521842455847 0 0 0
324 1 20.720405749501815 7.139800827826977 3.4503061021771178 0 0 0
321 1 20.81147233097726 5.445105662858381 1.0955664363551445 0 0 0
322 3 22.410597124168298 7.754693716499607 1.3522432460510097 0 0 0
325 1 24.781548939506578 5.36304547185593 0.8476511945080619 0 0 0
323 1 22.684244958183807 5.221762453168867 2.999378035411812 0 0 0
328 1 24.460217736659033 7.150926651398088 3.1575526869293946 0 0 0
326 1 26.486643047427258 7.764081992168593 1.4029702254199452 0 0 0
329 1 28.548006641536897 6.012812617543812 0.5357539353375936 0 0 0
327 1 26.646498472556036 5.243206605637401 3.058744323333716 0 0 0
332 1 28.593440529244376 7.4071953445720755 3.110478507246651 0 0 0
540 1 28.606122619962207 5.106611347473886 4.762772050411269 0 0 0
333 1 32.59767140855035 6.094129080024491 0.7758993919431396 0 0 0
336 1 32.58732608216551 7.727890315734204 3.101693656858139 0 0 0
331 1 30.47316785227314 5.36348143481111 2.523934793319463 0 0 0
542 1 32.621430827398825 5.357059869526362 4.385756017316934 0 0 0
330 2 30.58414388989039 7.787590490789908 1.2023394691659555 0 0 0
335 1 34.82378219478579 5.478008202081107 2.5427123198130657 0 0 0
340 1 36.50830963888094 7.472287362880792 3.426793526949275 0 0 0
544 1 36.474939417078495 5.31121767303075 5.171300686902629 0 0 0
337 1 37.10031913065977 5.390512354223258 1.238355964394772 0 0 0
338 1 39.95808826299341 6.684226989305055 1.4231963284611182 0 0 0
339 1 38.92624700834329 5.379966617145626 3.559858250337691 0 0 0
344 1 41.621812719538596 6.689196281358613 3.5942914865092606 0 0 0
341 1 41.980813032177906 4.90721821334807 1.7099385919701073 0 0 0
342 2 43.94959099077115 6.750006718125606 2.2305819210304136 0 0 0
343 1 43.425389271003084 4.792078817972915 4.05414126152183 0 0 0
348 1 45.40529026829246 6.835627809952589 4.323636559075304 0 0 0
93 1 43.95302166531547 5.028667751389898 0.09319436855218381 0 0 0
345 2 45.74886467838216 4.737636538462729 2.508809821467275 0 0 0
98 1 46.19583902465804 6.69466192323694 0.36399382999567154 0 0 0
97 1 48.05370894169254 4.661432839078422 0.859574099641098 0 0 0
349 1 49.476111526745186 4.578112799761532 3.2615136211471634 0 0 0
346 1 47.73369341905007 6.86916325260001 2.7286612649015916 0 0 0
347 1 47.16737978120752 4.749519867373327 4.712866451510048 0 0 0
104 2 0.21825325091298536 10.900671415984176 0.6164840567535078 0 0 0
352 1 2.1447188153914776 10.713662204914515 2.6303314114598813 0 0 0
353 1 2.2510206535973976 8.388922443342235 4.208174508454664 0 0 0
103 1 2.293422442468918 9.149558900206609 0.14621100344555715 0 0 0
351 1 0.15577010392253818 8.726448647050164 2.1607805113612186 0 0 0
354 2 0.10267450663251158 10.139259388277818 4.432250245610304 0 0 0
108 1 4.124900299861486 11.241228435400695 0.5290934780925802 0 0 0
358 1 4.259670766400757 10.605688739360518 4.318343400704812 0 0 0
355 1 4.200492717178243 8.791740334457288 1.984910453298182 0 0 0
356 1 6.2162552474719535 10.789055615983061 2.372750598088728 0 0 0
357 1 6.19879599046656 8.424615459165407 3.8441202123878866 0 0 0
362 1 8.111537193032532 10.498889246961687 4.377000459704838 0 0 0
107 1 6.279356232573359 9.317869094388458 0.12094527039580921 0 0 0
112 2 8.124989337124278 11.259788605873549 0.5116209601156818 0 0 0
359 1 8.218978741868531 8.973300015600916 2.0155309976299303 0 0 0
360 1 10.251988000372613 11.015527080906436 2.3789427620016723 0 0 0
361 1 10.297627523935866 8.684724579270931 3.954530596335876 0 0 0
116 1 12.229627373115553 11.301105915772519 0.45516985021865664 0 0 0
363 1 12.39540586498802 9.010447053114563 2.06389602677559 0 0 0
111 1 10.221872491806243 9.560481947174988 0.12975969873608761 0 0 0
366 1 12.213284837774387 10.585975914262308 4.501036960099445 0 0 0
365 1 14.441388410474016 8.687677547665777 4.023187050243852 0 0 0
364 1 14.20500888644641 11.180084281129332 2.4353598936940597 0 0 0
120 1 16.42487115172799 11.678850050027062 0.550960606629239 0 0 0
367 1 16.428277142458704 9.102554545574831 1.9393033382923575 0 0 0
370 1 16.21939465331666 10.786701105896547 4.324775109125444 0 0 0
115 2 14.38134643297628 9.555662636759095 0.12837576141038376 0 0 0
369 1 18.38869522585648 8.770593003277167 3.752400834441526 0 0 0
368 1 18.34400910314591 11.32770120548387 2.445147178566793 0 0 0
371 1 20.467317830814633 9.407118344004083 1.9579620555005188 0 0 0
374 1 20.26970748609467 10.94326383299271 4.471194112872319 0 0 0
124 1 20.594283931455745 11.934234082954005 0.5343474964592188 0 0 0
119 1 18.506174293699818 9.6710087843707 0.29450737913378155 0 0 0
372 1 22.27026948905889 11.683048230048854 2.2545704595821507 0 0 0
375 2 24.415618163810585 9.770712489693738 1.7673742961582073 0 0 0
373 1 22.42758438314693 9.342651461679308 3.632462351755631 0 0 0
378 1 24.330952807981927 11.214801007791054 4.0441449635032525 0 0 0
123 1 22.393792133227137 9.959396354357562 9.72015707909254 0 0 -1
376 1 26.392730805283357 11.786004464797138 2.3774467785034 0 0 0
379 1 28.396642923358034 9.883400279206166 1.6715755688064469 0 0 0
377 1 26.331487133169553 9.080829158864614 3.6158910876646004 0 0 0
382 1 28.17419342813246 11.48104081712918 4.1437487634648065 0 0 0
127 1 26.37216190657588 10.327864275375369 0.09355577792983105 0 0 0
383 1 32.40193893404286 10.08617371459497 1.653930717811979 0 0 0
381 1 30.41870125598232 9.423397415704057 3.7593685269728936 0 0 0
386 1 32.21329682991728 11.582268104513526 4.168678522985679 0 0 0
380 1 30.348527607115976 11.95335769968703 2.1394362854082605 0 0 0
334 1 34.48044408352228 8.269151937151602 1.2286745819486582 0 0 0
384 1 36.23886102360069 10.32647612140179 1.8380238961000548 0 0 0
385 1 34.17686773071612 9.783855529232373 3.6711324916463384 0 0 0
435 1 35.81280863680021 11.971984532175986 4.042257234409858 0 0 0
390 1 37.92532376408298 10.43279643955321 3.813433516363432 0 0 0
387 1 38.144384191853106 8.757405277224903 1.6392331217929363 0 0 0
388 1 39.92725465908938 10.912818262929035 1.7512956606049077 0 0 0
389 1 39.71585406386123 8.419931096850524 3.628174221560667 0 0 0
394 1 41.700736947598806 10.448969250844819 3.8233124857859373 0 0 0
391 1 41.984482309986966 8.81024439323704 1.7286749333844202 0 0 0
392 1 43.93234336710461 10.935259839740324 2.15636450922673 0 0 0
393 1 43.5920375515534 8.692839295169644 4.089816910160457 0 0 0
398 1 45.69530678876429 10.749931253853193 4.504080407703071 0 0 0
395 1 45.8166738018674 8.889540321063642 2.4392672879844275 0 0 0
148 1 46.11175653598447 11.258181111583706 0.7494918421940814 0 0 0
147 1 48.20971784091721 8.803841142517944 0.8565688054226195 0 0 0
396 1 47.87697795063177 11.033574271565216 2.5053173873896735 0 0 0
397 1 47.33536557813304 8.632510163690178 4.7001097497510775 0 0 0
399 1 49.69607922483064 8.72475279437784 3.227867648461928 0 0 0
403 1 2.150262897028105 12.253918810535707 4.6996354353592045 0 0 0
153 1 2.118564097732903 13.037563834249964 1.1037002609374171 0 0 0
402 1 2.2107111762069196 14.698897127671124 3.2172592412548298 0 0 0
158 1 4.090259615722819 14.999607696908827 1.1525627232816842 0 0 0
405 1 4.040795078701694 12.831744383343217 2.7644486203166854 0 0 0
454 1 0.0027771030870979985 18.100539507004484 5.93367048621293 0 0 0
401 1 0.19327617244942494 12.298979342915194 2.972483327135891 0 0 0
157 1 6.054891183869628 13.267951027574322 0.8870239257162176 0 0 0
406 1 6.060876102698869 14.859765970512862 3.070724480474399 0 0 0
409 1 8.227280759687254 12.86187503791239 2.7133802318522573 0 0 0
407 1 6.2444851503512515 12.348802387962053 4.684899510646654 0 0 0
162 1 8.187379675176194 15.220829452280976 1.288144295224962 0 0 0
161 1 10.175645359722981 13.290116209665197 0.8490104455023878 0 0 0
410 1 10.097582600951545 14.895855241236253 3.231565875189915 0 0 0
413 1 12.07718922929801 12.913569142965304 2.8907778922607865 0 0 0
166 1 12.003546713807955 15.325720556505336 1.3700785433625748 0 0 0
411 1 10.15006614439292 12.472221783001977 4.734445098979721 0 0 0
165 1 14.305821651758238 13.57037317705551 1.0434006384234995 0 0 0
170 1 15.93039815708084 15.643604434464953 1.2769673963646746 0 0 0
414 1 13.931437181852681 15.1330187987791 3.330672486169801 0 0 0
417 1 16.237581121052685 13.265820696813728 2.76161346600879 0 0 0
415 1 14.048058126179917 12.554428727888265 4.969861894181539 0 0 0
169 1 18.20237154083442 13.716448660235036 0.8855492001188013 0 0 0
174 1 20.026071633022738 15.796207184382844 1.2839738605708535 0 0 0
418 1 18.051319371642514 15.323574218374302 3.100969909229762 0 0 0
421 1 20.22348193800276 13.500010800849795 2.965791897400096 0 0 0
419 1 18.24269706929469 12.688413698970802 4.6388784728470185 0 0 0
128 1 24.11408171273519 11.967056241569143 0.46267418124290627 0 0 0
173 2 22.17929927048491 13.98833357304474 0.9004862926207353 0 0 0
422 1 22.006201949870867 15.448775066415104 3.248817245393003 0 0 0
425 1 24.030993130375574 13.664382336763536 2.786889694176933 0 0 0
423 1 22.187522420867374 13.135066949071687 4.8323877520955385 0 0 0
428 1 23.8724552940967 15.142312973238818 5.167016854933742 0 0 0
132 1 28.27951598849261 12.303944804524695 0.17521766946568268 0 0 0
177 2 26.19121375291545 14.14957791097754 0.828098204678774 0 0 0
426 1 25.816432831939743 15.690252516072869 3.238560691521658 0 0 0
429 1 28.066848358136756 13.9409099766016 2.626382404785214 0 0 0
427 1 26.129383019335876 13.307636126772989 4.571806034917701 0 0 0
432 1 27.66142137760292 15.516693413025203 4.9381277137974635 0 0 0
181 1 32.32227131103249 12.50588502489829 0.21547379688061785 0 0 0
182 1 30.116944554283588 14.378451356587599 0.7580624005147218 0 0 0
430 1 32.112126350905086 14.158835198297947 2.629381776381677 0 0 0
431 1 30.00736584171989 13.438958905994008 4.4861429493535905 0 0 0
481 1 31.685675433800373 15.82717914733242 5.014733365883997 0 0 0
433 1 34.12772948004256 12.291939524647816 2.2694249618607834 0 0 0
436 1 34.04932633014447 13.913955013978786 4.346767726569448 0 0 0
186 1 33.91737843638412 14.784438616514803 0.5948333979906539 0 0 0
434 1 36.02700762503052 14.510954275650077 2.5381845775076033 0 0 0
185 1 35.73119593323651 12.688012533893115 0.18991700124897193 0 0 0
440 1 37.75727668899246 14.32223634402277 4.546413479384535 0 0 0
190 1 37.78086266488373 14.90943356307624 0.623620495995262 0 0 0
439 1 39.79248892173703 12.577622959591107 4.12069291479373 0 0 0
437 1 37.96025475327487 12.746681574398782 2.0829296422128376 0 0 0
438 1 39.88187992454338 14.805368159074515 2.5032962433220183 0 0 0
189 1 40.0860764615714 12.912580283378059 0.3466357303429096 0 0 0
444 1 41.83847676636855 14.680367019421201 4.425293803997749 0 0 0
194 1 41.964073145703814 15.188995411589527 0.8150140001523658 0 0 0
441 1 41.90922838753472 12.846535125876965 2.3739805309861652 0 0 0
443 1 43.83072136046838 12.943677614994765 4.572152385247128 0 0 0
193 1 43.95078251484288 13.527537278580573 0.4030497735130717 0 0 0
442 1 43.90337157607305 15.011698873129902 2.678726667525778 0 0 0
448 1 45.81532894540259 14.90692525347844 4.791833849439782 0 0 0
445 1 45.93391972044014 13.067220440790228 2.4748350310499063 0 0 0
198 1 46.05127178620847 15.46992242489484 1.0051361937849157 0 0 0
197 1 47.92290710606968 13.145954799663201 0.6047403917059743 0 0 0
446 1 47.81276295275377 15.16811588030154 2.800115545098113 0 0 0
447 1 47.8698896464454 12.807997035757639 4.771962504204539 0 0 0
450 1 49.89431611878301 14.597769347535749 4.974692335454982 0 0 0
203 1 2.211024076898213 16.928658187210853 1.6213096721228348 0 0 0
452 1 1.833136102377272 18.63598107214842 3.9511341566617753 0 0 0
208 1 3.9164865927399117 18.98758997473698 2.0772591519797228 0 0 0
202 2 1.876452489648792 19.230001593681028 9.962640625899756 0 0 -1
455 1 4.292709551762298 16.713499487618098 3.5167831182704257 0 0 0
207 1 6.133227971500674 17.08943750384638 1.6067043901230582 0 0 0
456 1 5.982627631600711 18.592214990336593 3.753543628668755 0 0 0
212 1 8.130518679637673 19.168538610277846 2.2249472915054493 0 0 0
459 1 8.114389601292142 16.794125338630348 3.666611247330407 0 0 0
630 1 5.844216744191047 19.28261987847599 9.97989022686669 0 0 -1
211 1 10.189234549113294 17.220674500778102 1.6483834319552573 0 0 0
460 1 10.00808259299907 18.647033256077908 4.034686554287932 0 0 0
463 1 11.980483285160247 16.92787576750613 3.6357953642804453 0 0 0
216 1 11.773745652499432 19.334679560409764 2.026532271077246 0 0 0
638 1 10.079885705937372 19.69244508371116 0.10950133576159053 0 0 0
215 2 13.941042642008263 17.380864004985614 1.5999737753627197 0 0 0
220 1 15.760923034326419 19.68991111056327 2.018807650491213 0 0 0
464 1 13.92369141366793 18.890818151136887 3.892683845784633 0 0 0
467 1 15.822421238811847 17.193352038147367 3.6221640489700975 0 0 0
245 1 45.84862601847164 17.85708896910632 9.351438765823435 0 0 -1
219 1 17.843491807346783 17.834682780229663 1.7040177616885972 0 0 0
468 1 17.727352976807705 19.276726638207197 3.9995343303017794 0 0 0
471 1 19.7436709544531 17.370649689423832 3.6202521149285354 0 0 0
224 1 19.804278998708334 19.890513317387246 2.049535126418395 0 0 0
497 2 47.95597187022869 16.7207553110838 5.163432430675277 0 0 0
178 1 23.965729909393303 16.014403913168636 1.2347580107218137 0 0 0
223 1 22.08804414598959 17.948950554241843 1.4981685081070755 0 0 0
472 1 21.644131022045745 19.34839713964983 3.8433922503577946 0 0 0
475 2 23.613879656663784 17.620549943132048 3.479389266595501 0 0 0
624 1 47.90420203729798 18.26843925693271 7.373319412827722 0 0 0
227 1 27.844200145269337 16.26229613793451 1.1574871460915046 0 0 0
228 1 25.82113912878708 17.937607666300863 1.738188320476545 0 0 0
476 1 27.580779172091095 17.914387193370466 3.493754557628067 0 0 0
900 1 25.70504037236746 19.633435734754855 3.952369234407907 0 0 0
479 1 29.80552982374955 16.08467574059598 3.1655078062407624 0 0 0
232 1 29.810699169900246 18.476204565925418 1.5533167826848622 0 0 0
231 1 31.80211406902449 16.452047089352607 1.1433396321446554 0 0 0
480 1 31.669288200008612 18.22408100840226 3.503297790616314 0 0 0
451 1 0.060383654560557304 16.45177931478658 3.7458947625591437 0 0 0
485 1 35.91171424390126 16.044499920629505 4.738835985996139 0 0 0
483 2 33.87395965195527 16.181146859364755 3.010143939958384 0 0 0
236 1 33.894083879988266 18.51894900224202 1.5007223290875937 0 0 0
235 1 35.75932723017874 16.79817480306486 1.188411693253184 0 0 0
484 1 35.644855550247804 18.350555536384242 3.573552692862067 0 0 0
240 1 37.80102393040118 18.988837431287468 1.4086801891324776 0 0 0
487 1 37.76708946285835 16.60751366427803 2.8996784047065 0 0 0
239 1 39.82074151277294 17.20286075001832 1.0688018187597206 0 0 0
488 1 39.74594676260873 18.99928649999081 3.478613647382255 0 0 0
244 1 41.8300069919942 19.179850220289364 1.5212850145743306 0 0 0
489 1 39.511327623015795 16.333634245817663 4.911556843019208 0 0 0
491 1 41.745879691458384 16.75470241755231 3.1284835227519285 0 0 0
243 2 43.98652941951773 17.444157147554872 1.1627754064774891 0 0 0
492 1 43.733026145543015 18.939218693243063 3.5099040388973592 0 0 0
248 1 45.85144923110072 19.507990590494945 1.4316503813318993 0 0 0
495 1 45.92889316720656 17.29719318691052 3.287247178681511 0 0 0
247 1 47.93205514659653 17.42600509596409 1.2375225927007496 0 0 0
496 1 47.850166805113986 19.16880174813193 3.5147684953476652 0 0 0
3104 1 6.350147340881905 0.019860493819348936 6.47810175201376 0 1 0
214 1 13.78087964966186 19.839560548403927 0.1926628590655027 0 0 0
502 1 2.39243729438974 2.142113839573566 4.909303349841356 0 0 0
4 1 0.4468322830748214 3.1615974481461944 9.303782599211827 0 0 -1
3 1 2.512929565333227 1.5091796491296896 8.849799137527102 0 0 -1
2 1 2.2798192946019156 3.7071011133389566 7.2696296936254035 0 0 -1
1 1 0.508628239964572 1.7278124316918557 7.061250863936773 0 0 -1
8 1 4.497470241692521 3.38360225844037 9.212830873419204 0 0 -1
504 1 4.266677888791336 1.7369668894111425 6.961437013200335 0 0 0
6 1 6.260529948305983 1.0303033100438574 8.85514639415312 0 0 -1
494 1 41.748517260243425 18.344716563109397 5.181689774664316 0 0 0
530 1 6.390431871944144 3.947569912627249 7.194525066943584 0 0 0
528 1 4.487486660041587 4.269641816128297 5.363322097536513 0 0 0
12 1 8.256349291414343 3.2903218057403727 8.977521143954519 0 0 -1
505 1 8.414615665200547 1.9084212081283993 6.718689957242495 0 0 0
11 1 10.250974598899846 1.321339330346024 8.527244787944637 0 0 -1
10 1 10.477012872743119 3.9699475742337476 7.035327900449802 0 0 -1
3106 1 10.332409004773295 0.051894744770259106 6.300773713167999 0 1 0
449 1 49.845319749295975 12.74001277556249 2.9861420034287383 0 0 0
16 1 12.604513257376835 3.6570659050859002 8.854760555907944 0 0 -1
13 1 12.327724222632343 1.9067240113303574 6.574775643934948 0 0 -1
15 1 14.29635157685775 1.8764904632411736 8.211017013109416 0 0 -1
20 1 16.732705067682023 3.596259295502391 8.68577413207019 0 0 -1
14 1 16.420292516776414 2.1571979020337477 6.530773389070318 0 0 -1
19 1 18.481980517281873 1.723701867477758 8.443241211979894 0 0 -1
622 2 43.706735569157814 18.012505841093223 7.3221128514649205 0 0 0
21 2 20.577948070557188 2.45199958987542 6.848361162419554 0 0 -1
24 1 20.878093853283733 4.1058179418466345 8.89584892183202 0 0 -1
498 1 45.88759442753698 18.598934332082134 5.512853992812021 0 0 0
23 1 22.595170098063868 1.3559096458860753 8.454159202720923 0 0 -1
3112 1 21.849877976551067 0.2342472601092999 5.596755905146938 0 1 0
279 1 28.974798027629475 1.608690415273286 9.714327880102495 0 0 -1
2722 1 24.4217259456773 2.3040110888955687 6.735442303836366 0 1 -1
275 1 25.055820105361356 1.7351288997470184 9.532549188283044 0 0 -1
27 1 27.24512235091957 1.9316334251880027 7.088283022299937 0 0 -1
25 1 29.625084078863534 1.57876541114352 6.058055006784586 0 0 -1
31 1 31.315877533042915 2.1989477711866945 8.081067849371452 0 0 -1
516 1 32.80640029052774 3.5214226040577237 6.4046075951261585 0 0 0
33 1 34.050523031612286 1.3056902660779401 6.45618045416176 0 0 -1
35 1 35.30549575740571 1.4926263778527558 8.839929484110675 0 0 -1
34 1 35.955828085076284 3.2889752986124674 6.9381761436992235 0 0 -1
40 1 37.432836652693325 3.5340485480605253 9.378277229839282 0 0 -1
37 1 38.02998854290301 1.6224653777809712 7.42546280966304 0 0 -1
39 1 39.676391452219214 1.4494272415861684 9.662909801614912 0 0 -1
520 1 38.50361700819491 3.4837238880487087 5.402006319092367 0 0 0
38 1 40.15130937085403 3.064810687384797 7.468258780397545 0 0 -1
521 1 40.42832774980815 1.111319916785321 5.724087121353269 0 0 0
44 2 41.8836410113254 3.1240805452689773 0.01244992067190509 0 0 0
41 1 42.12366629091018 1.0613250872641307 7.889830069816679 0 0 -1
522 1 42.52234315529641 3.020512937331315 5.908803846185617 0 0 0
42 1 44.19834063630325 2.9129537130529433 8.253872633314254 0 0 -1
523 1 44.47423052593252 0.9109481539860467 6.409314780580952 0 0 0
45 1 45.902981729955265 0.9164437923525637 8.67211231586391 0 0 -1
524 1 46.78618786713718 2.6482787337799265 6.615482070185973 0 0 0
46 1 48.221020626736134 2.7141620954780015 9.045806724017046 0 0 -1
300 1 49.03314612983314 2.6641626025199594 5.167402600500518 0 0 0
525 1 48.44100362575472 0.6094270963427438 7.245422056779915 0 0 0
526 1 0.4860492951777769 4.084760655431741 5.290887222551616 0 0 0
54 1 0.42585684791758954 7.142256886358562 9.958104895513843 0 0 -1
51 1 0.46771076837609066 5.762516418975977 7.562094299133097 0 0 -1
53 1 2.4150844746629465 5.1786744673188725 9.414139646585083 0 0 -1
527 1 2.5940378447710835 6.126588442584314 5.5705657931177965 0 0 0
52 1 2.312865512695075 7.56347064234617 7.922849998703675 0 0 -1
551 1 0.22607902863055906 7.898229810053213 6.0353019967883865 0 0 0
58 2 4.2808162655061155 7.142454932951302 9.691822891440212 0 0 -1
55 1 4.42390133209702 5.631007493318316 7.496864036878949 0 0 -1
57 1 6.374482597804817 5.374158489307191 9.439570305589745 0 0 -1
529 1 6.503550120184157 6.289411551012742 5.597758273291991 0 0 0
62 1 8.27325494118599 7.251141248291145 9.663673213679546 0 0 -1
56 1 6.508766541480418 7.674610796804108 7.746783749467135 0 0 -1
506 2 8.449862774877214 4.257625880409089 5.205347736070693 0 0 0
59 1 8.49465209128837 5.7835097764939 7.507689920208133 0 0 -1
61 1 10.325447462947524 5.288047990333763 9.474002763289302 0 0 -1
531 2 10.17544104263591 6.213554983118272 5.4931872938470905 0 0 0
66 1 12.553925980919061 7.47387134789311 9.77098555916615 0 0 -1
60 1 10.306252299804664 7.885027996895515 7.687846527966929 0 0 -1
63 1 12.372636154260421 5.954953140115977 7.516360659701509 0 0 -1
532 1 14.612025098622722 4.074772796568346 6.898105610703487 0 0 0
70 1 16.38514917609351 7.733869787058167 9.689259540662183 0 0 -1
65 1 14.695584598823842 5.638276843685491 9.074428260402701 0 0 -1
534 1 14.319027505462198 6.571122475126546 5.5219418757952745 0 0 0
64 1 14.286549071597214 8.132359149706492 7.89014661958777 0 0 -1
67 1 16.610495713975386 6.023663885762191 7.1553188703974415 0 0 -1
18 1 18.568726467240346 4.316955171726239 6.9288215708221195 0 0 -1
69 1 18.67113068537803 5.914119074722109 9.010259135408823 0 0 -1
535 1 18.472488359958923 6.6767117070463415 5.437996241383567 0 0 0
71 1 20.664937822008902 6.425410595355021 7.332954838118742 0 0 -1
74 2 20.49575413446328 7.786990578538981 9.566746472382654 0 0 -1
536 1 20.715476987444834 4.737266401854642 4.782268854406252 0 0 0
538 1 24.6374983795068 4.874037411552103 5.029101996599873 0 0 0
28 1 25.124456753780695 4.201869799726122 8.54577726092299 0 0 -1
512 2 22.537318848184913 4.371005116751978 6.970732620506548 0 0 0
73 1 22.86442669703159 5.757716739389029 9.15717599524485 0 0 -1
75 1 24.600838230456823 6.35079765214534 7.1265062282134295 0 0 -1
537 1 22.677770420389677 6.719456822925596 5.249234685821167 0 0 0
32 1 28.60791187233377 3.946062528481102 8.53557162006647 0 0 -1
26 1 26.805250504706738 4.6269157837334465 6.554387903894653 0 0 -1
77 1 26.567976164092048 6.384657869633361 8.99300678599128 0 0 -1
79 1 28.581224394514873 6.523689617648498 6.923029223641928 0 0 -1
539 1 26.641922165965003 7.109843753872776 5.041441860911959 0 0 0
81 1 30.560162114480967 6.3134606230464785 8.782745128655732 0 0 -1
30 1 30.54519520602945 4.578810601251263 6.509346230714823 0 0 -1
541 1 30.551478617579097 7.0357982878742495 5.065482210055704 0 0 0
83 2 32.631395983677116 6.544237832565757 7.122267049649334 0 0 -1
36 1 33.53528433085957 3.8778621036241057 8.854028000795076 0 0 -1
543 1 34.60148293446946 7.1248444929295855 5.240225740175102 0 0 0
85 1 34.99104970300714 6.212936777756277 9.459263012522044 0 0 -1
84 1 36.460146073066916 6.9593955228352655 7.238227398760412 0 0 -1
89 1 39.77839340531632 4.887502875070497 9.488856726988578 0 0 -1
90 1 38.34301758620893 6.84807430865205 9.564540179785036 0 0 -1
87 1 38.177000655826184 5.110829406027742 7.4482770607826385 0 0 -1
88 1 40.31485680350161 7.030876263466497 7.5503725855908606 0 0 -1
545 1 38.46138785553091 7.098030388153379 5.4571924238704925 0 0 0
546 1 40.51653495041003 5.23369974003682 5.804247235989985 0 0 0
94 1 42.32977353323059 7.188762859987621 9.677717068364235 0 0 -1
548 1 44.75912188223653 4.893104998140897 6.257050480546427 0 0 0
91 1 42.14022187563699 4.931467815578347 7.87488335215566 0 0 -1
92 1 44.59720217626918 6.846769198382485 8.053471305755524 0 0 -1
547 1 42.87933282312093 6.706182847213285 6.195134307031233 0 0 0
350 1 49.16423673860243 6.628748838026167 5.285863132725038 0 0 0