ITEM: TIMESTEP
0
ITEM: NUMBER OF ATOMS
6000
ITEM: BOX BOUNDS pp pp pp
-2.4289797598094154e-01 2.7583897975981017e+01
-2.0969078799434016e-01 2.7550690787994689e+01
-9.9505852987574883e-01 1.1035905852987445e+02
ITEM: ATOMS id type x y z c_peratom fx fy fz 
122 2 5.39651 5.31329 4.90343 -23.7342 -1.27807 1.10741 1.05129 
601 2 5.41289 2.55401 1.91649 -23.666 0.805552 -2.38346 -0.588693 
602 2 4.9961 2.26077 7.81055 -24.7885 2.65651 -0.059808 1.58633 
1021 2 2.58457 5.09774 1.67156 -24.1101 0.0980073 -2.07754 -2.03346 
1022 2 2.60179 5.72385 7.88814 -23.5712 0.301529 -3.81902 -0.398318 
1502 2 2.62877 2.53405 4.4357 -24.0498 1.4555 -0.04863 0.346759 
2501 1 3.94181 6.17379 3.32003 -8.60287 1.51363 1.30496 -0.134031 
3002 1 4.50525 3.58137 3.61363 -8.09933 -1.07271 -0.61275 0.530943 
5502 1 3.89091 0.627483 3.24418 -8.0702 1.01495 4.12353 -0.512801 
3001 1 4.15973 3.66607 0.574886 -8.39228 -0.55848 0.766887 -0.86673 
5501 1 0.57577 0.540909 1.05824 -6.96075 0.23309 -0.926334 0.0355592 
3501 1 0.86117 1.5094 8.00357 -8.27095 1.30114 -1.7806 1.97564 
4501 1 1.32029 3.90075 -0.0527101 -7.12794 -1.40964 1.60979 3.368 
5001 1 2.12303 2.72373 2.34644 -7.30034 -1.56558 1.46537 0.650385 
4502 1 1.33535 3.95606 5.445 -7.13805 0.82077 -0.771739 0.243347 
4020 1 3.21559 0.773456 -0.261867 -5.988 1.53353 -0.358389 2.43641 
3082 1 3.92206 1.29572 6.13644 -8.19147 -1.03396 -1.52248 -0.703578 
5901 1 1.471 0.90575 5.14812 -7.37165 -1.97017 1.16823 0.924286 
4602 1 4.65847 3.88366 6.61275 -6.70317 -1.2633 3.46779 -4.52698 
3521 1 1.43589 6.00345 3.14428 -7.92652 -2.44062 1.26696 2.82992 
2102 1 6.60962 1.36869 5.95269 -7.79008 1.58936 -1.15988 -1.03813 
3620 1 5.97647 0.571991 0.754365 -7.52315 0.499297 -0.230594 0.507981 
5521 1 3.89802 6.31685 0.367521 -8.31524 0.860756 1.33654 0.765412 
5522 1 3.84597 6.60262 6.43269 -8.54771 1.27233 0.385634 -2.39202 
1002 2 2.33195 0.117851 7.32203 -24.5951 1.61843 -5.082 -2.78308 
121 3 5.28527 5.15758 -0.724687 -27.7479 1.42681 -0.289595 -0.481102 
3702 1 12.5637 1.47206 6.13854 -8.34951 0.645918 -0.288832 -2.27866 
4001 1 7.52573 1.81423 2.46638 -8.37317 0.757782 -0.776345 2.6036 
5101 1 6.97412 4.34483 3.82852 -8.57962 1.77651 -1.80144 0.0729687 
222 2 11.0681 5.25373 4.84068 -26.3132 -2.30192 0.501279 -3.00148 
701 2 10.9963 2.34315 1.62687 -23.2569 -0.70686 1.21701 1.08476 
702 2 10.84 2.30644 7.20499 -24.3088 0.874169 2.39574 -0.223963 
1121 2 8.1042 5.22256 2.14946 -24.4164 -0.449232 3.18788 0.165572 
1122 2 8.05834 5.29473 7.52154 -23.4778 1.12222 0.335164 -0.364441 
1602 2 8.1513 2.49385 4.60606 -23.5205 0.811897 0.500127 0.350271 
3101 1 12.2744 0.990498 0.178822 -8.50605 2.24268 3.42279 2.37463 
4101 1 9.1908 4.02211 5.87619 -7.72636 -1.19785 -0.309465 2.54566 
4701 1 12.1092 4.26395 0.608087 -8.79068 -0.470149 -2.13302 -0.505117 
2602 1 12.2285 0.650881 2.93919 -7.62935 -2.9718 2.72484 0.744099 
5202 1 12.0594 4.03439 6.27241 -7.70147 1.95859 -1.09588 0.325722 
2202 1 9.77071 1.23221 5.56647 -7.8684 -0.515901 -1.11496 -2.43357 
5220 1 10.105 3.37014 3.527 -7.28814 -0.934378 -0.696929 -1.67925 
2620 1 9.1223 3.96332 0.897689 -7.2565 4.65758 -1.41406 -1.28418 
5120 1 6.80742 3.60285 0.509941 -7.50962 -2.9662 0.874746 0.291304 
2601 1 9.8167 6.63071 6.01976 -6.25061 -2.8677 1.13893 1.80591 
3721 1 12.2693 6.71565 5.92111 -6.07319 1.98696 -1.15818 1.13306 
2101 1 9.56683 1.18244 0.255887 -8.18905 -0.947443 0.654299 1.14684 
2122 1 6.8572 6.66578 6.28875 -8.52335 -0.22058 -0.913818 0.0985098 
2621 1 9.71403 6.70179 3.44844 -6.55069 -1.76609 -1.00551 -2.02382 
5221 1 12.807 3.89157 3.4189 -7.24159 1.18649 -1.81546 -0.0916286 
3602 1 9.40025 1.2564 8.2321 -7.56526 -3.34445 -1.46681 2.72536 
4601 1 6.77328 6.39944 0.607239 -7.41555 -2.40103 -0.451769 1.46743 
3122 1 12.313 6.33614 3.20329 -6.96668 -0.567328 1.10883 -1.98132 
3103 1 6.8255 3.61781 8.08089 -7.55521 1.88119 -0.854207 0.980782 
221 2 10.8972 5.65841 -0.720753 -24.0614 -2.89889 -3.01682 2.54635 
1601 3 8.06932 2.72937 -0.806928 -28.6173 1.07211 -1.21811 -0.635309 
2021 1 1.05522 6.74135 0.546643 -7.972 -0.488875 0.616299 -0.987207 
3621 1 6.59745 9.51292 3.09469 -7.67831 1.20468 2.21223 0.00937564 
5002 1 0.995321 6.75557 6.08216 -7.11295 2.81981 -0.317943 -2.17213 
4422 1 0.680725 9.80006 6.32498 -6.74093 -0.834262 -0.212644 0.829163 
2022 1 3.2422 9.53703 5.78426 -6.0174 -1.02648 -1.36224 0.0949231 
142 2 4.85228 10.4737 4.47287 -25.3925 -0.838716 2.06284 -1.27347 
621 2 5.14872 7.8183 1.86054 -24.6261 1.8829 0.854603 -1.33041 
622 2 5.30459 7.96537 7.78815 -22.9661 2.13536 2.28754 -6.67413 
1041 2 2.27585 10.6099 1.76248 -25.394 1.99589 1.80479 2.46303 
1042 2 2.34038 11.1977 7.2843 -25.5968 0.656409 -2.6567 0.236069 
1522 2 2.54441 7.48238 4.53512 -23.9726 -0.138245 2.55576 1.6314 
2521 1 3.8668 9.07824 3.06974 -7.86884 -2.28306 -1.0328 0.17346 
3021 1 3.63082 9.40394 0.426682 -7.34842 -1.50701 -2.03259 -0.913386 
5021 1 0.930004 9.36361 3.04567 -7.44827 -0.212967 -3.04598 -0.187808 
4042 1 3.98324 12.0268 5.79406 -7.5896 0.285442 1.21239 2.33797 
2141 1 4.41541 11.9128 0.743308 -6.42504 -1.82282 0.846327 -1.08533 
5541 1 1.41795 12.2884 0.51709 -8.60529 -0.154131 0.192924 -2.13307 
2041 1 3.85437 12.1294 3.18647 -6.27929 0.18664 0.628687 0.142661 
3560 1 0.612875 9.61079 0.222974 -8.61737 1.21107 -1.54545 1.3096 
5121 1 6.40386 9.18469 0.197425 -7.29852 -2.79539 0.294025 1.21592 
4522 1 1.19561 12.5816 6.11413 -7.26789 -0.594037 0.895798 -0.0878046 
4441 1 1.31614 11.7654 3.66551 -5.77519 -1.14621 1.023 -0.637788 
3022 1 5.65018 8.78065 5.42814 -7.12692 3.04516 -0.770076 2.60241 
4041 1 6.64874 12.5292 3.14444 -7.35207 1.14708 -0.248273 1.00287 
641 2 5.32314 13.6155 1.61805 -24.9508 2.14838 -0.423817 2.52575 
642 2 5.39051 13.3041 7.07683 -24.0355 -0.458225 -0.821165 2.0222 
542 3 -0.18871 13.6647 7.35301 -28.9808 1.10957 0.42187 -0.0522967 
742 2 11.0154 13.4526 7.65461 -25.1425 -1.50204 -1.41944 -2.3385 
4021 1 6.82912 6.97189 3.22878 -7.62938 -0.692676 -1.74536 0.250097 
3641 1 7.01619 11.9526 0.547966 -7.22106 0.701097 0.593853 -0.328529 
241 2 11.1594 11.0298 -0.744007 -24.7518 -1.44462 -0.218032 -1.16267 
4121 1 9.26335 6.84635 0.639673 -8.36156 2.15769 -2.03235 -0.362253 
2142 1 6.94171 11.7906 6.03319 -8.06972 -1.27043 -0.206906 -0.371122 
5621 1 12.0923 7.30248 0.310874 -7.59678 -1.04167 -1.82391 0.485782 
3042 1 9.49105 9.39699 3.36285 -8.02537 -2.45941 0.657911 0.177917 
4721 1 12.2404 9.76195 0.548962 -7.74253 0.303523 0.0645571 1.95171 
4642 1 9.37448 12.0817 3.58404 -7.82293 -0.229402 -0.710057 0.380908 
242 2 10.8381 10.5787 4.79728 -25.0305 -1.16685 2.76021 1.8308 
721 2 10.53 8.20988 1.70899 -24.538 2.32047 1.01954 2.81527 
722 3 10.4218 8.20571 7.50785 -27.9767 3.31134 -0.16896 -2.20769 
1141 3 8.02177 10.9348 2.20608 -28.1387 -0.195394 0.108218 -1.7293 
1142 3 7.92785 10.7128 7.5165 -27.0631 2.34796 1.85515 0.240473 
1622 2 7.87655 8.3003 4.66234 -24.3614 0.163254 -2.04919 -0.803583 
2242 1 9.66985 11.7354 6.71876 -6.68542 -0.0347658 1.09494 0.203836 
3121 1 9.0865 9.59507 0.642916 -7.61464 0.660131 -0.330599 0.659585 
3741 1 12.0334 9.47375 3.45243 -7.50568 1.87951 -1.41008 -2.22419 
4141 1 12.3395 12.2284 3.3025 -7.89192 -0.733117 2.36087 0.734494 
5641 1 9.79266 12.2072 0.621891 -8.28953 0.296681 1.42505 0.0171643 
4722 1 12.0745 9.26179 6.11812 -6.86522 -1.55775 1.91861 0.466191 
3124 1 8.97668 9.482 6.19113 -8.81397 -0.459494 -2.77523 -0.239553 
5742 1 12.1179 12.2718 6.07987 -7.27777 2.04948 -0.070163 -1.40015 
1621 2 7.93541 8.03744 -0.58296 -24.8606 0.886114 -1.22487 -2.86204 
1722 2 13.4901 7.75286 4.3086 -26.2002 0.488573 1.98029 2.50798 
1642 2 8.12718 13.5804 4.6991 -24.5832 -0.289333 -1.20218 -1.38912 
2241 1 12.7521 12.4729 0.563053 -7.50638 -0.934337 1.14056 1.75675 
1641 2 8.17696 13.4323 -0.777717 -24.8573 0.622429 -2.03958 -2.899 
1241 2 13.5975 10.8823 2.23054 -24.3058 -1.2232 1.02831 -3.44668 
3504 1 4.12446 1.02848 16.8209 -7.96071 -0.327626 0.657524 -0.182949 
2024 1 1.02585 3.50663 17.0797 -8.30047 -0.331667 -0.36601 -1.08557 
3004 1 3.88744 3.76558 17.1996 -7.06352 -1.99338 1.31764 4.0608 
2502 1 4.01402 4.16406 9.03666 -8.28329 -0.928461 1.32633 1.2431 
2983 1 1.46323 0.79556 11.5019 -6.9751 -1.67783 5.29172 -6.5428 
2583 1 4.59676 2.05789 10.8228 -6.82651 -1.20874 -0.403565 -0.7724 
4004 1 3.79736 1.6753 13.5916 -5.87 0.880278 0.0449226 -0.214219 
123 3 5.26229 5.48352 10.5133 -26.6957 -0.0738997 -0.666948 -1.29249 
124 2 5.40802 5.36197 15.9059 -23.921 -0.888892 -1.22465 -0.3735 
603 2 5.4909 2.85059 12.5479 -24.4879 -2.60107 -3.68241 -0.0743645 
1023 2 2.47892 5.50655 12.8364 -23.2776 -0.254209 -0.81336 0.833961 
1503 2 2.48029 3.10501 10.196 -23.7945 0.170218 -1.76091 0.907776 
1504 3 2.71391 2.65733 15.4288 -28.7114 1.24885 -2.03658 -0.341583 
2503 1 4.6226 3.62433 15.0537 -5.9722 -0.891021 -0.472863 -3.90289 
3003 1 0.574423 3.55641 11.3251 -8.50904 0.040606 1.04448 -0.561343 
4503 1 4.16273 4.55833 11.9588 -8.84992 -0.0296813 -0.572477 -0.232291 
5503 1 3.4438 1.09535 8.92246 -8.14233 -1.23036 -0.0371422 -0.51814 
5083 1 1.32073 0.71752 14.3784 -6.6182 -1.82771 2.65667 3.66758 
5504 1 1.61207 3.7251 14.022 -8.01253 -0.443094 2.22736 1.20965 
4002 1 6.27956 0.543301 8.70556 -8.3398 0.997886 0.462512 -0.437467 
2902 1 2.05679 5.68408 10.6745 -8.1767 -1.67272 0.273887 0.0692947 
3603 1 6.26981 6.58108 12.2631 -8.29488 -2.23774 1.33969 -4.11528 
2124 1 0.736626 6.51836 13.576 -9.13697 -1.17892 -2.20903 0.366567 
5123 1 3.45429 6.31805 14.6293 -8.54196 2.17492 -0.131638 0.148937 
4123 1 1.60232 6.18558 16.4469 -8.48982 -2.09805 0.197498 0.644989 
4104 1 1.26714 0.653336 16.9916 -7.30047 -1.66559 1.03778 0.629408 
3622 1 6.49701 6.56257 9.18933 -8.98929 0.784162 0.378154 0.214992 
3502 1 1.05634 4.0979 8.73972 -8.05433 1.04632 1.12909 -0.83092 
24 3 -0.0343234 5.21306 15.3765 -26.1618 1.0915 -0.213577 -1.08749 
5604 1 6.52537 6.40277 17.5427 -8.77795 2.43873 1.48833 0.552189 
1103 2 8.30516 0.116776 13.0873 -24.5048 1.25872 -2.85482 -4.51228 
2702 1 12.234 4.21532 8.85343 -6.87533 -0.343927 -1.44629 -0.233716 
5284 1 12.4949 0.839237 16.9457 -7.40192 4.00711 1.85004 3.1018 
4003 1 7.06007 0.752021 14.657 -8.39753 0.83221 3.95647 0.175718 
3105 1 9.97221 1.49295 14.4004 -8.26433 -3.99476 0.535313 1.42044 
4203 1 12.1709 3.40677 16.7774 -7.22259 0.879792 1.33255 1.17253 
4703 1 12.6122 1.24211 8.78412 -8.79369 1.85785 3.76177 -0.646544 
5103 1 6.77042 3.941 13.5975 -7.45997 4.58309 1.60777 2.85897 
3623 1 6.9618 0.905014 11.5917 -7.16397 0.0350455 1.90134 0.454475 
4603 1 9.73297 0.340353 11.0496 -6.55999 0.625187 3.61912 0.0475306 
3803 1 9.77813 1.01069 17.3809 -6.80672 0.0470057 -0.932375 -1.24935 
5603 1 12.4281 1.00294 14.0394 -6.27987 -0.799045 -0.744664 2.68857 
2683 1 9.58711 3.78809 16.7565 -6.67968 -0.302476 0.854951 -2.94791 
5102 1 12.4304 1.05613 11.5861 -7.7525 2.0677 0.536653 -3.80817 
2103 1 9.20319 3.25547 12.249 -7.33788 1.09342 -0.81209 -0.872321 
2603 1 12.3948 3.89161 11.6105 -7.72898 -0.0621289 -1.37435 -1.01914 
223 2 10.7565 5.52499 9.78466 -23.7453 -1.38245 -2.19052 3.13976 
224 3 11.1999 5.3383 16.1071 -28.0798 -1.41013 -2.59657 -0.147465 
703 2 11.1946 2.26986 12.8372 -24.3994 -0.437841 2.79022 -0.658352 
1123 3 7.95973 5.57869 12.5761 -28.1537 0.164675 -1.74621 1.61771 
1603 3 8.35001 2.42822 9.88314 -26.5245 -2.51217 -1.65214 1.88447 
1604 2 8.19531 2.65807 15.5087 -24.1675 -0.0315893 -0.965541 1.44229 
3703 1 9.47042 5.96316 13.829 -7.17883 0.374457 -0.855218 0.590836 
4103 1 6.73024 3.97616 10.8996 -7.93524 0.732962 0.411777 -0.147595 
3722 1 9.53987 3.6658 9.09812 -8.62525 0.350522 2.75431 -0.653449 
5303 1 12.367 3.88925 14.2209 -7.42341 -0.789845 -0.558834 0.825706 
4122 1 8.86764 6.24402 10.8623 -8.19979 0.0755704 -0.331406 0.533735 
4723 1 11.7697 6.64609 11.6467 -7.5108 0.12661 -1.20642 -0.314013 
1223 2 13.539 5.20165 12.9979 -24.4397 0.619482 0.415286 -0.309097 
5203 1 12.5507 6.23327 17.2912 -8.36972 1.8669 0.522734 -0.131759 
2104 1 6.91873 4.00768 16.6489 -7.41816 0.568657 0.430637 0.735268 
3123 1 6.91221 6.60212 14.5476 -8.05668 -0.537338 0.280379 3.29187 
3723 1 11.9344 6.59874 14.6094 -8.02765 1.23101 -0.132229 0.0105083 
204 2 11.1049 -0.0332831 15.8468 -24.957 -3.45705 -3.34484 -3.37543 
5505 1 6.95698 1.46896 17.3202 -7.49779 1.46298 -3.70875 -1.63684 
203 2 11.5677 -0.206243 9.77213 -24.4121 -4.64194 -3.96817 4.25235 
5043 1 6.60729 9.76768 14.1832 -7.44404 -2.34218 -1.64854 0.327888 
43 3 -0.218104 10.8883 10.1399 -27.8397 0.690138 1.9663 -0.667784 
2123 1 4.0455 7.22529 9.12418 -8.91755 -3.7609 -1.36449 4.35233 
1544 3 2.38975 13.5279 15.394 -29.2356 0.891628 1.53853 1.18934 
4023 1 0.696892 9.37101 11.5623 -9.01077 0.755401 -1.06111 -0.448582 
2523 1 3.76282 9.64496 17.3848 -8.16177 3.54187 -1.92195 -3.68154 
4523 1 3.35872 7.47836 12.1002 -8.12664 0.733389 -0.219926 0.745302 
44 2 -0.147843 10.5493 15.4019 -24.6833 -0.230963 1.36122 1.87124 
5523 1 3.67445 9.99657 11.4604 -8.26644 -0.349655 0.533651 -1.09993 
4022 1 1.23986 7.05028 8.57003 -8.20995 -3.29191 3.18587 3.74035 
4524 1 4.17847 12.4172 17.5622 -7.18557 0.565408 0.0898935 -0.989446 
4024 1 1.35495 9.26106 16.7248 -8.7065 -0.779888 -0.562424 0.383438 
5003 1 1.34 9.12914 14.1096 -6.9842 -2.59975 -1.04546 -0.243323 
5564 1 0.672818 11.5915 13.7547 -7.54538 0.438191 0.779355 -0.902906 
5022 1 4.31359 10.2095 8.42058 -7.73375 -1.59909 -2.81986 -1.47147 
3424 1 3.28946 11.9604 14.7722 -6.96404 1.04387 -1.97458 -0.985028 
5143 1 6.30132 12.3677 14.8637 -7.41719 0.436473 -0.537505 -0.682757 
5423 1 1.28241 10.0298 9.13445 -7.79795 1.99965 -1.18778 -0.236738 
4623 1 4.76589 12.5568 11.5016 -8.05435 -1.4203 0.896786 -0.347881 
4442 1 1.255 12.6057 8.74172 -7.23207 0.185545 0.406491 -0.834718 
3523 1 1.23088 12.8527 11.3119 -6.7951 2.21153 -1.3345 0.252446 
2522 1 4.11634 12.7196 8.90388 -7.99159 -0.483589 0.230689 -0.786337 
143 2 5.36636 11.0004 10.0155 -23.8283 0.044109 1.0346 2.64622 
144 2 5.17664 10.8051 15.9281 -24.6502 -0.611018 0.871504 -0.88219 
623 2 5.11489 7.81118 13.8426 -23.4634 0.349992 0.708788 -2.08668 
1043 3 2.49312 10.4923 13.1505 -27.8113 -0.194548 0.574543 1.35374 
1523 2 2.39057 8.4368 10.3595 -23.0901 0.551267 -0.162443 -1.29006 
1524 3 2.87631 7.75099 16.3344 -26.7978 -0.870242 1.47964 -2.06744 
4043 1 3.78951 9.41854 14.5315 -7.74614 1.77384 -0.313083 -0.00995724 
2043 1 1.38972 12.1667 16.7542 -7.19608 0.0828465 -1.15371 -1.02132 
4604 1 4.96415 7.68334 16.1201 -9.09659 0.726526 -0.0828164 -0.128652 
1744 2 13.6684 13.5157 15.6125 -24.846 2.2321 -0.687454 -1.39858 
1644 2 7.91111 13.4393 15.7934 -24.5508 0.0466048 1.16661 1.69075 
5623 1 8.72197 8.40279 12.6691 -7.51808 -3.1235 0.148205 -3.05316 
4142 1 12.7719 12.2269 8.65337 -7.0853 -0.744307 1.32775 -0.817736 
5622 1 9.21366 6.97429 8.47261 -8.07634 -1.13702 -1.74394 0.543735 
3743 1 12.6397 11.633 16.552 -8.31747 -0.254368 0.155059 0.349421 
2243 1 10.1146 10.8002 12.3179 -7.12236 1.44703 2.83668 -1.92762 
1723 2 13.2546 7.98602 10.2608 -25.2957 1.76371 0.195997 -0.666811 
1643 2 7.99499 13.6368 10.1572 -23.5994 1.22952 0.209976 -1.52729 
4624 1 7.11659 9.56621 16.9545 -8.6283 -1.82248 -0.978328 1.61361 
4143 1 9.52561 11.4451 17.5065 -7.69383 2.08063 0.838773 -2.24436 
2222 1 11.895 6.89854 8.81733 -7.86964 0.979436 2.57024 -1.70851 
5643 1 12.6727 9.14749 14.1694 -7.22217 0.210327 1.3595 1.3629 
2244 1 11.9398 8.89487 16.9948 -8.54975 -0.971802 1.97248 -0.523599 
2622 1 12.457 9.63304 8.71911 -7.59063 -1.72074 -1.47331 1.15123 
244 3 10.8871 10.5955 15.9888 -26.718 -0.118116 -1.20873 0.188095 
743 2 10.5035 13.2493 13.0697 -23.6156 3.01556 -0.812786 -1.68834 
4743 1 12.6567 12.9734 13.4613 -7.04914 -0.840386 0.324926 2.01673 
243 2 11.1858 10.7596 10.0993 -24.6009 0.328211 -2.31312 1.7235 
3642 1 9.93733 12.2159 9.38948 -7.97201 -2.47456 3.4688 -0.506965 
2224 1 9.82579 6.91679 16.6185 -8.31781 0.99152 -0.612836 2.24399 
5542 1 6.85647 9.39568 8.65314 -9.19496 -1.98704 -1.45389 -1.59278 
2121 1 6.90155 12.0285 8.87389 -8.69061 0.722574 2.69369 -1.3295 
4622 1 7.28399 10.4472 11.1271 -7.66229 -1.06372 -2.12929 -0.050103 
3643 1 7.53699 12.9938 12.1287 -8.06375 0.372496 0.0857696 1.71212 
4724 1 9.2988 9.30719 15.1512 -7.81463 1.81327 -0.392255 0.0494113 
1623 2 7.81159 8.22316 10.1629 -23.13 3.0245 -1.00071 2.15373 
2623 1 12.6263 11.9324 11.1291 -7.28157 1.28099 0.407249 0.98026 
5222 1 11.9743 9.17391 11.6393 -6.69471 0.557018 0.104758 -1.99367 
5122 1 9.45442 9.38682 9.15727 -8.28822 1.52498 1.01769 -0.2296 
723 2 10.5647 7.82328 13.2932 -24.7546 4.52433 0.428941 0.10297 
1624 2 7.99997 7.74668 16.1575 -22.7948 -1.3617 1.13437 -2.97557 
1143 2 8.25865 10.6208 13.1235 -24.1966 -2.31078 -0.60179 1.48012 
5223 1 10.0845 11.8858 14.6934 -8.29203 -1.70309 0.837184 0.852405 
1724 2 13.452 7.85064 15.8077 -23.9639 -0.162527 1.5693 1.52495 
125 3 5.37184 4.80025 21.5057 -28.5192 -1.46064 1.58774 -1.2654 
604 2 5.42048 2.16005 18.4441 -24.2608 -3.15655 3.95682 0.500927 
605 2 5.09072 2.41452 23.7887 -25.2407 1.45272 -1.97251 1.93448 
1024 2 2.16339 4.73064 18.5063 -24.3658 3.34431 2.08308 -1.9161 
1025 3 2.54251 5.3658 24.0518 -27.6824 -0.41131 0.673308 -1.47286 
1505 3 2.55243 2.70955 21.4398 -28.7124 -2.78129 0.732466 1.26412 
3005 1 4.87346 0.27802 23.178 -6.60912 1.74339 1.78695 -0.898071 
4005 1 0.262648 1.59837 22.1293 -6.93828 0.941679 4.85863 -0.0745669 
3505 1 2.77466 1.88892 23.6232 -6.4183 1.75277 -0.285725 -0.225381 
2585 1 3.13059 4.3307 25.9376 -7.44348 -0.183562 0.0158624 -2.28933 
4404 1 1.89243 1.38192 19.4275 -7.67519 0.353393 -1.0771 1.61082 
3104 1 3.38681 4.68822 20.3642 -6.26782 -0.61334 1.43605 -0.492962 
2005 1 0.764618 2.80403 25.1584 -6.75003 0.371958 1.14279 1.72292 
1506 2 2.52162 2.08766 26.5097 -25.2846 1.42447 2.35051 0.5063 
5104 1 6.05206 3.94858 19.5498 -7.60296 0.0164518 -0.508451 0.953847 
4605 1 4.2783 2.52386 20.8589 -6.65026 2.52214 -2.64961 1.04452 
4505 1 0.991909 4.12459 22.5147 -7.44699 1.74 0.0430531 1.89574 
2904 1 1.07118 3.66093 19.9013 -7.6362 -1.37684 -0.462564 1.87479 
3007 1 5.95502 4.01893 25.1445 -6.86212 -0.24205 0.90412 -0.568482 
5006 1 1.07786 6.55976 25.3603 -8.28972 1.57809 -2.26654 -0.269259 
3585 1 2.45918 -0.0388314 26.0235 -7.28946 -2.07626 0.463078 -1.2727 
2125 1 6.15778 6.30306 23.056 -6.86915 1.09658 -0.880691 0.234253 
5185 1 4.73006 1.41309 26.0323 -7.14915 -1.34039 1.75857 -1.41199 
26 2 0.102269 5.13621 26.8116 -24.9187 -1.77638 0.0274051 0.634541 
25 2 -0.158057 5.25088 21.1644 -24.5666 -0.811944 1.07703 1.7626 
6 2 -0.101365 -0.100066 26.8055 -24.6864 -1.32736 -1.1516 -1.79565 
5926 1 0.691354 6.30193 19.0822 -8.42213 -0.7557 1.31622 1.12232 
4045 1 3.95482 4.141 23.0114 -8.39269 0.336254 0.765634 0.275894 
3584 1 4.87372 0.29865 19.3537 -8.04929 -1.11379 0.391784 -2.7159 
504 3 0.013196 2.059 18.676 -27.4528 1.53629 -0.937737 -0.440096 
2105 1 7.29778 0.742933 20.9816 -7.1236 -3.38411 -2.05064 -0.901851 
2126 1 7.10713 3.27602 22.6414 -7.59654 -3.48558 1.04056 -0.952826 
3185 1 7.35498 1.2141 24.8346 -5.86086 -0.0732198 -2.76024 1.42777 
2604 1 8.48256 2.68141 19.212 -6.76233 -0.368815 1.14879 -0.957025 
225 2 11.0836 5.2119 21.0503 -24.5143 2.14554 -1.18626 -1.38473 
704 2 11.0954 2.68125 18.5616 -25.3725 -2.58244 -1.25959 -0.520805 
705 2 11.1142 2.11138 24.3575 -24.0701 -0.690125 -1.18953 -1.25671 
1124 2 7.82584 4.74675 18.6888 -24.572 2.2683 0.519337 -1.19678 
1125 2 8.38216 4.84848 23.8159 -24.2423 -3.60788 -1.72705 0.555773 
1605 2 8.61385 2.32606 21.2546 -25.5491 1.95177 -0.823731 2.81817 
5605 1 9.57604 1.10726 22.9009 -7.0632 1.51792 -1.15627 -0.52492 
3725 1 9.18309 3.11685 24.7166 -6.96225 1.76528 -0.241298 1.62503 
3705 1 12.6471 0.549785 25.3822 -8.11044 -0.830174 2.0811 2.80807 
4705 1 12.8173 4.2463 26.1189 -7.12062 2.0765 -0.900698 -2.96957 
3724 1 11.5332 4.27258 23.1385 -7.86085 -0.250112 -0.438205 1.97221 
5705 1 12.7133 1.06607 22.6571 -8.52293 -1.49907 -0.166368 0.54806 
5106 1 11.0042 2.73804 26.5982 -7.93146 -1.31305 -1.8624 0.221861 
4704 1 10.8446 2.55719 20.9535 -7.11974 1.81355 0.0438891 -1.72954 
2204 1 9.11656 4.45834 21.6988 -7.88302 -0.520512 2.59142 -0.143714 
226 2 10.9735 5.07318 26.7601 -24.4473 -1.63204 -0.611329 2.24722 
5205 1 11.9094 6.61845 25.4382 -7.93298 -1.30403 -0.334996 -2.40526 
3183 1 9.63058 0.268046 19.999 -6.40142 0.087745 0.209683 -1.10443 
3624 1 6.77177 6.34667 20.2939 -7.74189 0.322432 0.153211 0.117207 
5224 1 12.433 6.67872 22.5625 -8.42723 -0.697503 -0.0374884 -0.102697 
2624 1 12.6206 6.65635 19.8382 -7.64753 -0.881743 -1.31051 1.03053 
4726 1 8.9738 5.43557 25.9511 -7.77264 -0.128045 2.26781 -0.794727 
3224 1 10.2664 4.75935 18.8685 -7.09307 0.901414 1.09017 2.01798 
1606 3 8.3744 1.97845 26.8124 -27.9026 -0.82236 0.518391 -2.24814 
1225 2 13.3788 5.25331 24.0676 -25.4155 2.44392 -1.11161 -0.645013 
4224 1 13.0097 3.98594 19.9437 -7.84784 -1.91977 0.21194 -2.36616 
2305 1 12.7977 0.620653 19.8115 -7.14207 -1.8893 2.95073 0.779316 
205 2 11.2074 -0.145009 21.3588 -25.5 -0.260322 -1.81308 -0.848312 
525 3 -0.180426 7.98275 24.2044 -29.0323 -0.146572 -0.6763 -0.69357 
3605 1 3.71961 7.1321 25.2992 -7.96236 1.39642 -1.10929 -1.95409 
2504 1 1.67626 6.87533 22.4151 -6.3773 -3.13687 -0.524827 0.09611 
2026 1 3.95978 6.95952 21.9879 -6.00796 3.59478 -1.13805 -0.66386 
45 2 -0.103217 10.926 21.0092 -24.3713 -1.19994 1.03607 0.658267 
46 2 -0.142651 10.7376 26.748 -25.0381 -1.15567 1.56666 -0.551822 
3025 1 3.85872 9.34506 19.7286 -7.83249 2.22654 1.82865 0.520277 
545 3 -0.038408 13.2103 24.1437 -29.0876 -1.74536 3.53939 0.299026 
3524 1 0.951064 9.57328 19.5566 -9.20379 0.951491 -1.52153 0.471539 
4426 1 0.338803 9.5104 22.7079 -6.93765 1.47557 -0.197772 -1.40647 
3604 1 3.39405 9.29752 22.4611 -8.0036 1.46455 3.73084 1.78288 
5025 1 1.49343 9.29351 25.2929 -7.73824 -1.81412 -0.580976 0.296017 
145 2 5.10765 10.6986 21.4705 -23.8565 -0.475802 0.927457 -1.31836 
624 2 5.24661 8.11484 18.3026 -22.981 1.07267 0.772849 2.49605 
625 2 4.97266 8.1768 23.6911 -24.7988 -0.25893 -1.56565 1.45141 
1044 2 2.48884 10.9619 18.2984 -24.7793 -0.0529023 2.32776 1.01788 
1045 2 2.28632 10.8044 23.9999 -24.9552 2.51472 -2.38675 0.186742 
1525 2 2.59959 8.233 20.8397 -23.5125 -3.90618 -5.06026 1.79473 
2524 1 6.56834 9.43392 19.6428 -8.48784 0.500631 -1.30923 0.931961 
3644 1 3.80723 12.1088 20.2199 -7.37506 1.38596 -0.492766 -0.0975864 
2526 1 4.35444 10.1092 24.9877 -6.85778 0.0554985 -0.758195 0.597004 
4525 1 4.21663 11.9853 23.2296 -7.38457 2.25265 1.24515 -0.446275 
4725 1 6.5917 9.27848 22.6395 -9.27317 1.15748 1.22965 -0.696068 
4545 1 1.61314 12.2849 25.3866 -7.69389 1.31123 0.33606 0.263206 
3944 1 1.81659 11.8151 22.2579 -7.63045 -3.30302 1.54164 -2.71386 
3024 1 3.46552 6.89562 18.4585 -8.27252 -0.922558 -0.0563071 -1.07724 
3665 1 6.5308 8.76614 25.5742 -8.12471 2.24127 0.0663305 -0.187037 
2145 1 6.56964 12.2025 20.3124 -7.656 0.824184 -1.65473 1.64637 
644 2 5.70921 13.6686 18.8239 -24.6612 -2.02592 -1.24425 -0.452019 
5023 1 1.26236 12.342 19.2871 -7.28332 -2.33652 1.39687 2.84822 
524 2 -0.0118075 8.22321 17.9774 -22.5592 -1.44876 -2.30663 2.24836 
645 2 5.79637 13.2059 24.3883 -23.6421 -1.65812 1.93043 -1.671 
1726 3 13.5963 8.02453 26.7946 -28.9148 0.653671 -1.47243 0.0711099 
1646 3 8.24927 13.3826 26.38 -28.5022 2.29372 2.0062 3.02727 
2225 1 8.73376 6.93835 23.376 -8.98155 2.26077 0.685092 -0.143163 
4644 1 6.99547 12.2458 17.7716 -7.61839 0.262817 0.274238 -2.10065 
745 3 11.1835 13.1707 23.7548 -27.2199 0.597974 2.2696 -0.51363 
5545 1 7.39399 12.3139 23.1328 -7.96452 -2.88395 -3.14482 1.64169 
744 2 10.7695 13.1902 18.6019 -24.4762 -0.303122 1.60162 0.00221314 
2144 1 10.0538 9.07431 21.9439 -7.42162 -5.61331 -1.79468 3.00197 
4124 1 9.75879 9.41355 19.335 -7.20052 -1.30696 -0.0887646 -1.7171 
245 2 11.2294 10.5679 21.0769 -24.7474 -0.844002 2.02096 -2.11554 
724 2 11.1501 7.87695 18.7087 -24.2091 -0.209795 -1.85611 0.499156 
725 2 10.7864 7.70069 23.8158 -23.0932 2.66064 2.56404 -0.216397 
1144 3 7.90756 10.6143 18.7309 -27.8348 2.20864 2.22323 0.0368853 
1145 2 8.27029 10.4477 24.1055 -22.6833 -1.09687 1.16407 -0.552867 
1625 2 8.11692 7.66575 21.3548 -23.0389 -2.80552 2.19707 1.46209 
2245 1 9.58715 9.09643 25.244 -9.31063 -0.731026 -1.32966 -0.57149 
3125 1 9.22223 11.7579 25.6676 -7.94533 2.67382 -0.374005 -1.36458 
3744 1 12.5442 11.9124 19.4421 -8.74179 -2.80635 1.37713 1.04932 
4144 1 9.76835 12.0586 23.067 -7.68802 1.54274 -2.515 -0.744111 
5225 1 12.3093 9.14025 25.4893 -7.32729 -0.861873 -0.599216 -1.13017 
5124 1 12.5446 9.11602 19.9972 -7.60563 -0.664861 1.70358 -1.39522 
4745 1 12.5154 11.5627 25.7411 -8.1025 0.891679 3.99701 -5.25143 
2744 1 9.55621 11.8958 20.0058 -7.61733 -1.27346 1.00213 1.68874 
5204 1 12.5682 11.9905 22.2643 -7.66842 -2.34968 -4.36599 1.81749 
246 2 10.8414 10.5933 26.5679 -24.4449 -0.463012 -2.23268 3.40815 
2644 1 6.79953 11.8893 25.9338 -8.74401 -2.78804 0.124217 -0.498654 
2725 1 12.2581 9.31354 22.6246 -7.36561 1.00202 -0.186744 1.82428 
5624 1 9.63418 6.95772 20.1916 -7.91309 2.24017 -2.33399 -1.0387 
1745 2 13.2821 13.5766 21.0677 -25.1623 3.1665 0.0753539 -1.25221 
1645 2 8.27589 13.399 21.546 -25.0474 -0.175702 0.534525 -1.9702 
1245 2 13.5101 10.4544 23.9575 -24.1362 1.25924 1.13203 0.485195 
507 3 -0.152701 2.8459 34.8126 -26.3965 -1.04429 -0.726296 2.3171 
126 2 5.11806 4.81272 27.0011 -25.0963 -1.75163 -0.39549 1.44689 
506 2 0.130413 2.26664 29.5577 -24.3188 0.0364912 2.19966 -0.849168 
5625 1 6.50753 6.62762 27.6329 -8.64682 0.93649 0.186081 0.149073 
5525 1 3.4574 6.19617 28.1427 -6.85639 2.60932 -0.351247 0.230483 
3006 1 1.30739 3.44549 28.0019 -7.08714 -2.93234 -0.55055 -1.11521 
5927 1 1.36605 4.10976 33.446 -8.2572 -5.55468 -0.0419635 2.17489 
3086 1 4.05364 0.717787 28.9364 -6.30622 1.89135 0.131971 -0.716107 
127 2 5.71159 5.29056 32.4139 -25.3015 -2.20516 -2.17756 -0.768057 
606 2 5.9747 2.40831 29.3651 -25.3503 -2.75678 0.477756 -0.453403 
607 2 5.36066 2.49751 35.1876 -25.6661 -0.86348 0.937072 0.218047 
1026 2 2.98293 5.3122 30.1865 -25.2349 -1.99575 -3.61402 -3.58836 
1027 2 2.48394 5.38622 35.3365 -25.5398 2.25101 -0.207585 -1.00982 
1507 2 2.40837 2.45859 32.5039 -24.2283 3.88614 1.04013 1.01036 
2506 1 3.93011 3.31153 28.3707 -5.90244 2.51602 0.217394 -0.450685 
3506 1 3.58284 3.77476 34.0395 -5.75171 1.94316 -1.61724 2.3679 
4507 1 4.04952 1.08201 33.6692 -8.04235 -0.0500221 -1.19823 0.0945818 
5507 1 1.05006 1.1831 33.9627 -8.23576 1.89127 1.65241 -0.288355 
4026 1 6.0381 0.867703 31.0185 -7.67081 2.22774 2.68072 -2.1874 
2027 1 4.10301 3.65713 31.5098 -6.75464 0.0560505 0.200947 -1.52245 
2525 1 1.30632 3.66265 30.8449 -8.0568 0.308245 0.104699 0.755971 
2006 1 1.2459 0.534507 28.538 -8.42474 -4.51944 3.35197 -4.49517 
3107 1 6.66023 3.49422 33.3793 -7.16784 0.011638 -0.368759 -0.0163607 
3406 1 1.6942 0.815375 31.1733 -9.11295 0.761356 1.71159 0.597533 
2926 1 1.29884 6.61066 31.1069 -7.17551 1.28436 -0.230544 0.581372 
3625 1 1.0171 6.49651 28.4899 -6.73271 -1.55963 -0.60693 -1.8513 
3646 1 4.16397 6.53377 31.3343 -7.95276 1.51404 3.15181 1.22552 
2507 1 4.18858 6.38072 34.2562 -6.24378 1.11364 1.65152 0.0582238 
5506 1 5.69179 5.0131 29.4898 -6.80985 -1.45932 0.0103369 -0.794409 
27 2 -0.242478 5.00095 32.2036 -24.5435 0.707741 3.74911 -1.59954 
4608 1 6.61903 4.19274 36.1205 -6.98126 1.24239 -2.3232 0.917868 
5126 1 10.2818 6.60032 36.0787 -8.1551 -2.01488 -2.48665 -0.691537 
4625 1 7.17396 3.43057 27.5742 -7.73588 -2.16805 1.12058 0.765009 
5526 1 7.42688 3.53615 30.5487 -6.67305 0.0438829 0.949556 1.97153 
3707 1 12.2841 0.842532 33.7221 -7.30907 0.72036 1.23831 1.14018 
2106 1 6.77424 0.812294 27.9653 -7.77871 0.49593 -0.555553 0.848931 
2227 1 10.2326 6.29583 30.718 -7.10512 -2.43242 -2.49596 0.69775 
4607 1 7.032 0.866148 34.0217 -7.70726 -2.2115 -0.235947 0.760448 
2306 1 12.1616 1.05458 28.4349 -8.59837 -0.36832 -1.04919 -1.17754 
4787 1 12.0612 1.32411 31.1987 -7.82924 0.168165 0.0834524 -2.3134 
3106 1 12.8374 3.74258 28.8169 -7.56971 -2.38005 -2.13716 1.52587 
4606 1 9.43099 3.7274 28.6749 -7.49205 0.704861 2.32673 -1.91811 
227 3 10.3658 5.38106 32.3872 -26.8656 1.96827 -1.83185 1.15058 
706 2 10.7649 2.35473 29.3881 -23.7779 0.854196 -0.550357 2.42373 
707 2 10.8419 2.57585 35.2183 -25.4178 2.51322 -0.0164511 0.756821 
1126 2 7.78845 5.31073 29.011 -24.4063 1.77634 -1.79375 1.36584 
1127 2 8.4811 5.11587 35.4463 -23.4113 -2.19294 1.14773 0.616534 
1607 2 8.22762 2.0008 32.4537 -24.8547 -2.10982 2.31588 0.424225 
2207 1 9.66772 1.29772 33.9612 -7.41839 -0.364853 -2.43035 -2.41437 
2606 1 9.02705 1.56539 30.5226 -7.53502 1.4603 -2.61419 -0.31151 
5606 1 9.31616 0.430054 27.9339 -7.56864 1.48467 2.897 -1.05553 
3626 1 10.7445 3.49183 32.0407 -6.22123 1.13444 -0.334497 -4.59964 
5628 1 9.51728 3.91957 33.9402 -7.72703 -2.10581 3.37135 2.08417 
3127 1 7.10054 6.33433 33.5654 -7.78629 1.94363 2.13556 2.11252 
1707 2 13.3315 2.72072 32.4957 -24.6712 -1.26151 0.0620957 0.642911 
2607 1 12.4636 4.02755 33.9325 -7.00435 1.2443 -2.51733 2.36 
207 2 10.6271 -0.0796378 32.294 -24.9462 1.18108 -1.30497 2.20359 
1206 2 13.6411 0.0539378 29.8146 -23.982 -0.706437 -0.111443 1.4019 
4707 1 12.3121 6.34685 33.6453 -7.63466 -0.922747 3.46205 -0.694659 
4125 1 9.47837 6.72344 28.249 -7.86327 -1.335 0.0176113 -0.198818 
4706 1 12.078 6.37069 28.0455 -7.21143 1.41705 1.81454 2.30947 
1706 2 13.4371 2.30476 27.091 -24.4572 0.965189 1.15923 -0.920134 
646 3 5.8961 13.4684 29.8167 -26.5445 -0.975789 -0.647777 -0.634336 
1526 2 2.50259 7.73112 26.9473 -24.9213 0.0246546 -0.294055 -0.0382977 
146 2 5.56099 10.2429 26.9914 -24.7003 -1.55959 1.32911 0.320939 
527 2 -0.229033 7.93351 35.0869 -25.295 0.647194 1.09883 1.18044 
3066 1 1.04981 13.4069 31.0849 -7.68563 1.57187 0.278678 0.314229 
2626 1 6.52059 9.42737 31.3118 -8.40057 -0.22618 0.0548815 0.840901 
2545 1 0.839054 11.9514 28.5717 -8.09951 -1.63569 1.19146 -1.1544 
3645 1 3.45641 11.5556 27.388 -7.54075 0.821621 0.891525 0.943323 
2127 1 0.318306 9.53558 33.628 -6.82659 1.33057 -0.351606 -0.877419 