LAMMPS data file via write_data, version 22 Dec 2022, timestep = 9

4 atoms
2 atom types

-0.007689315794772705 3.7320123157947727 xlo xhi
-0.007689315794772705 3.7320123157947727 ylo yhi
-0.007689315794772705 3.7320123157947727 zlo zhi

Masses

1 58.693
2 118.71

Atoms # atomic

4 2 -0.007689315794772611 -0.007689315794772611 -0.007689315794772611 0 0 0
2 1 1.8621614999999996 1.8621614999999996 -0.007689315794772611 0 0 0
3 1 1.8621614999999996 -0.007689315794772611 1.8621614999999996 0 0 0
1 1 -0.007689315794772611 1.8621614999999996 1.8621614999999996 0 0 0

Velocities

4 0 0 0
2 0 0 0
3 0 0 0
1 0 0 0
