LAMMPS (22 Dec 2022)
  using 1 OpenMP thread(s) per MPI task
Loaded 1 plugins from C:\Program Files\LAMMPS 64-bit 23Jun2022\plugins
Loaded 0 plugins from C:\Program Files\LAMMPS 64-bit 23Jun2022-MPI\plugins
Loaded 1 plugins from C:\Program Files\LAMMPS 64-bit 22Dec2022-MSMPI\plugins
Loaded 1 plugins from C:\Program Files\LAMMPS 64-bit 28Mar2023-MPI\plugins
# Compute elastic constant tensor for a crystal
#
# Written by Aidan Thompson (Sandia, athomps@sandia.gov)
#
#  This script uses the following three include files.
#
#   init.mod      (must be modified for different crystal structures)
# 	       	  Define units, deformation parameters and initial
#		  configuration of the atoms and simulation cell.
#
#
#   potential.mod    (must be modified for different pair styles)
# 		     Define pair style and other attributes
#		     not stored in restart file
#
#
#   displace.mod    (displace.mod should not need to be modified)
# 		    Perform positive and negative box displacements
# 		    in direction ${dir} and size ${up}.
# 		    It uses the resultant changes
#		    in stress to compute one
# 		    row of the elastic stiffness tensor
#
#		    Inputs variables:
#		    	   dir = the Voigt deformation component
#		    		    (1,2,3,4,5,6)
#		    Global constants:
#       	    	   up = the deformation magnitude (strain units)
#       		   cfac = conversion from LAMMPS pressure units to
#               	   output units for elastic constants
#
#
#  To run this on a different system, it should only be necessary to
#  modify the files init.mod and potential.mod. In order to calculate
#  the elastic constants correctly, care must be taken to specify
#  the correct units in init.mod (units, cfac and cunits). It is also
#  important to verify that the minimization of energy w.r.t atom
#  positions in the deformed cell is fully converged.
#  One indication of this is that the elastic constants are insensitive
#  to the choice of the variable ${up} in init.mod. Another is to check
#  the final max and two-norm forces reported in the log file. If you know
#  that minimization is not required, you can set maxiter = 0.0 in
#  init.mod.
#

include init.mod
# NOTE: This script can be modified for different atomic structures,
# units, etc. See in.elastic for more info.
#

# Define the finite deformation size. Try several values of this
# variable to verify that results do not depend on it.
variable up equal 1.0e-6

# Define the amount of random jiggle for atoms
# This prevents atoms from staying on saddle points
variable atomjiggle equal 1.0e-5

# Uncomment one of these blocks, depending on what units
# you are using in LAMMPS and for output

# metal units, elastic constants in eV/A^3
#units		metal
#variable cfac equal 6.2414e-7
#variable cunits string eV/A^3

# metal units, elastic constants in GPa
units		metal
variable cfac equal 1.0e-4
variable cunits string GPa

# real units, elastic constants in GPa
#units		real
#variable cfac equal 1.01325e-4
#variable cunits string GPa

# Define minimization parameters
variable etol equal 0.0
variable ftol equal 1.0e-10
variable maxiter equal 100
variable maxeval equal 1000
variable dmax equal 1.0e-2

# generate the box and atom positions using a diamond lattice

dimension    3
boundary     p p p
read_data    data.in
Reading data file ...
  orthogonal box = (-0.0076893158 -0.0076893158 -0.0076893158) to (3.7320123 3.7320123 3.7320123)
  1 by 2 by 2 MPI processor grid
  reading atoms ...
  4 atoms
  reading velocities ...
  4 velocities
  read_data CPU = 0.001 seconds
replicate    2 3 4
Replication is creating a 2x3x4 = 24 times larger system...
  orthogonal box = (-0.0076893158 -0.0076893158 -0.0076893158) to (7.4717139 11.211416 14.951117)
  1 by 2 by 2 MPI processor grid
  96 atoms
  replicate CPU = 0.000 seconds
change_box   all triclinic
Changing box ...
  triclinic box = (-0.0076893158 -0.0076893158 -0.0076893158) to (7.4717139 11.211416 14.951117) with tilt (0 0 0)

# Need to set mass to something, just to satisfy LAMMPS
mass 1 1.0e-20

include potential.mod
# NOTE: This script can be modified for different pair styles
# See in.elastic for more info.

# Choose potential
#-----------------------
#pair_style	sw
#pair_coeff * * Si.sw Si
#-----------------------
#pair_style morse	2.83994742	# D0[eV] a[1/A] r0[A] rc[A], 1NN for BCC
#pair_coeff 1 1	2.1173	1.0202	2.4595	2.6497	#	Fe-Fe
#-----------------------
#pair_style smatb # R0(A)   p       q     A(eV)   xi(eV)  Rcs(A)   Rc(A), 4NN: Rcs=4NN, Rc=(4NN+5NN)/2
#pair_coeff 1 1	2.4802	7.0149	2.3779	0.3144	3.0551	4.033	4.176	#	Co	Co
#-----------------------
#pair_style eam/alloy
#pair_coeff * * AlCrFeCoNi_Zhou04.eam.alloy Fe
#-----------------------
pair_style meam
pair_coeff * * ./../../library.meam Ni Sn ./../../NiSn.meam Ni Sn
#-----------------------

# Setup neighbor style
neighbor 1.0 nsq
neigh_modify once no every 1 delay 0 check yes

# Setup minimization style
min_style	     cg
min_modify	     dmax ${dmax} line quadratic
min_modify	     dmax 0.01 line quadratic

# Setup output
thermo		1
thermo_style custom step temp pe press pxx pyy pzz pxy pxz pyz lx ly lz vol
thermo_modify norm no

# Compute initial state
fix 3 all box/relax  aniso 0.0
minimize ${etol} ${ftol} ${maxiter} ${maxeval}
minimize 0 ${ftol} ${maxiter} ${maxeval}
minimize 0 1e-10 ${maxiter} ${maxeval}
minimize 0 1e-10 100 ${maxeval}
minimize 0 1e-10 100 1000
Neighbor list info ...
  update: every = 1 steps, delay = 0 steps, check = yes
  max neighbors/atom: 2000, page size: 100000
  master list distance cutoff = 6.5
  ghost atom cutoff = 6.5
  2 neighbor lists, perpetual/occasional/extra = 2 0 0
  (1) pair meam, perpetual
      attributes: full, newton on
      pair build: full/nsq
      stencil: none
      bin: none
  (2) pair meam, perpetual, half/full from (1)
      attributes: half, newton on
      pair build: halffull/newton
      stencil: none
      bin: none
Per MPI rank memory allocation (min/avg/max) = 9.884 | 9.892 | 9.9 Mbytes
   Step          Temp          PotEng         Press           Pxx            Pyy            Pzz            Pxy            Pxz            Pyz             Lx             Ly             Lz           Volume    
         0   0             -395.82667      5.8850773e-10  5.2675368e-10  6.0060362e-10  6.3816588e-10  4.276338e-11   3.4789644e-11  3.3018277e-11  7.4794033      11.219105      14.958807      1255.2265    
         1   0             -395.82667      1.2453273e-10  7.5052522e-11  2.8016774e-10  1.837793e-11  -1.3856445e-11 -3.832352e-11  -4.3841328e-11  7.4794033      11.219105      14.958807      1255.2265    
Loop time of 0.00139475 on 4 procs for 1 steps with 96 atoms

0.0% CPU use with 4 MPI tasks x 1 OpenMP threads

Minimization stats:
  Stopping criterion = force tolerance
  Energy initial, next-to-last, final = 
     -395.826671205682  -395.826671205682  -395.826671205682
  Force two-norm initial, final = 8.2500312e-13 2.9658468e-13
  Force max component initial, final = 4.9997159e-13 2.1949765e-13
  Final line search alpha, max atom move = 1 2.1949765e-13
  Iterations, force evaluations = 1 2

MPI task timing breakdown:
Section |  min time  |  avg time  |  max time  |%varavg| %total
---------------------------------------------------------------
Pair    | 0.001119   | 0.0011555  | 0.001192   |   0.1 | 82.85
Neigh   | 0          | 0          | 0          |   0.0 |  0.00
Comm    | 0.000101   | 0.00013525 | 0.00017    |   0.0 |  9.70
Output  | 0          | 0          | 0          |   0.0 |  0.00
Modify  | 0          | 0          | 0          |   0.0 |  0.00
Other   |            | 0.000104   |            |       |  7.46

Nlocal:             24 ave          32 max          16 min
Histogram: 2 0 0 0 0 0 0 0 0 2
Nghost:            581 ave         589 max         573 min
Histogram: 2 0 0 0 0 0 0 0 0 2
Neighs:           1032 ave        1376 max         688 min
Histogram: 2 0 0 0 0 0 0 0 0 2
FullNghs:         2064 ave        2752 max        1376 min
Histogram: 2 0 0 0 0 0 0 0 0 2

Total # of neighbors = 8256
Ave neighs/atom = 86
Neighbor list builds = 0
Dangerous builds = 0

variable tmp equal pxx
variable pxx0 equal ${tmp}
variable pxx0 equal 7.50525223108713e-11
variable tmp equal pyy
variable pyy0 equal ${tmp}
variable pyy0 equal 2.80167740334928e-10
variable tmp equal pzz
variable pzz0 equal ${tmp}
variable pzz0 equal 1.83779303987947e-11
variable tmp equal pyz
variable pyz0 equal ${tmp}
variable pyz0 equal -4.38413279392935e-11
variable tmp equal pxz
variable pxz0 equal ${tmp}
variable pxz0 equal -3.83235204026915e-11
variable tmp equal pxy
variable pxy0 equal ${tmp}
variable pxy0 equal -1.3856444790082e-11

variable tmp equal lx
variable lx0 equal ${tmp}
variable lx0 equal 7.47940326317909
variable tmp equal ly
variable ly0 equal ${tmp}
variable ly0 equal 11.2191048947686
variable tmp equal lz
variable lz0 equal ${tmp}
variable lz0 equal 14.9588065263582

# These formulas define the derivatives w.r.t. strain components
# Constants uses $, variables use v_
variable d1 equal -(v_pxx1-${pxx0})/(v_delta/v_len0)*${cfac}
variable d1 equal -(v_pxx1-7.50525223108713e-11)/(v_delta/v_len0)*${cfac}
variable d1 equal -(v_pxx1-7.50525223108713e-11)/(v_delta/v_len0)*0.0001
variable d2 equal -(v_pyy1-${pyy0})/(v_delta/v_len0)*${cfac}
variable d2 equal -(v_pyy1-2.80167740334928e-10)/(v_delta/v_len0)*${cfac}
variable d2 equal -(v_pyy1-2.80167740334928e-10)/(v_delta/v_len0)*0.0001
variable d3 equal -(v_pzz1-${pzz0})/(v_delta/v_len0)*${cfac}
variable d3 equal -(v_pzz1-1.83779303987947e-11)/(v_delta/v_len0)*${cfac}
variable d3 equal -(v_pzz1-1.83779303987947e-11)/(v_delta/v_len0)*0.0001
variable d4 equal -(v_pyz1-${pyz0})/(v_delta/v_len0)*${cfac}
variable d4 equal -(v_pyz1--4.38413279392935e-11)/(v_delta/v_len0)*${cfac}
variable d4 equal -(v_pyz1--4.38413279392935e-11)/(v_delta/v_len0)*0.0001
variable d5 equal -(v_pxz1-${pxz0})/(v_delta/v_len0)*${cfac}
variable d5 equal -(v_pxz1--3.83235204026915e-11)/(v_delta/v_len0)*${cfac}
variable d5 equal -(v_pxz1--3.83235204026915e-11)/(v_delta/v_len0)*0.0001
variable d6 equal -(v_pxy1-${pxy0})/(v_delta/v_len0)*${cfac}
variable d6 equal -(v_pxy1--1.3856444790082e-11)/(v_delta/v_len0)*${cfac}
variable d6 equal -(v_pxy1--1.3856444790082e-11)/(v_delta/v_len0)*0.0001

displace_atoms all random ${atomjiggle} ${atomjiggle} ${atomjiggle} 87287 units box
displace_atoms all random 1e-05 ${atomjiggle} ${atomjiggle} 87287 units box
displace_atoms all random 1e-05 1e-05 ${atomjiggle} 87287 units box
displace_atoms all random 1e-05 1e-05 1e-05 87287 units box
Displacing atoms ...

# Write restart
unfix 3
write_restart restart.equil
System init for write_restart ...

# uxx Perturbation

variable dir equal 1
include displace.mod
# NOTE: This script should not need to be
# modified. See in.elastic for more info.
#
# Find which reference length to use

if "${dir} == 1" then    "variable len0 equal ${lx0}"
variable len0 equal ${lx0}
variable len0 equal 7.47940326317909
if "${dir} == 2" then    "variable len0 equal ${ly0}"
if "${dir} == 3" then    "variable len0 equal ${lz0}"
if "${dir} == 4" then    "variable len0 equal ${lz0}"
if "${dir} == 5" then    "variable len0 equal ${lz0}"
if "${dir} == 6" then    "variable len0 equal ${ly0}"

# Reset box and simulation parameters

clear
  using 1 OpenMP thread(s) per MPI task
Loaded 1 plugins from C:\Program Files\LAMMPS 64-bit 23Jun2022\plugins
Loaded 0 plugins from C:\Program Files\LAMMPS 64-bit 23Jun2022-MPI\plugins
Loaded 1 plugins from C:\Program Files\LAMMPS 64-bit 22Dec2022-MSMPI\plugins
Loaded 1 plugins from C:\Program Files\LAMMPS 64-bit 28Mar2023-MPI\plugins
box tilt large

The 'box' command has been removed and will be ignored

read_restart restart.equil
Reading restart file ...
  restart file = 22 Dec 2022, LAMMPS = 22 Dec 2022
  restoring atom style atomic from restart
  triclinic box = (-0.0076893158 -0.0076893158 -0.0076893158) to (7.4717139 11.211416 14.951117) with tilt (0 0 0)
  1 by 2 by 2 MPI processor grid
  pair style meam stores no restart info
  96 atoms
  read_restart CPU = 0.000 seconds
include potential.mod
# NOTE: This script can be modified for different pair styles
# See in.elastic for more info.

# Choose potential
#-----------------------
#pair_style	sw
#pair_coeff * * Si.sw Si
#-----------------------
#pair_style morse	2.83994742	# D0[eV] a[1/A] r0[A] rc[A], 1NN for BCC
#pair_coeff 1 1	2.1173	1.0202	2.4595	2.6497	#	Fe-Fe
#-----------------------
#pair_style smatb # R0(A)   p       q     A(eV)   xi(eV)  Rcs(A)   Rc(A), 4NN: Rcs=4NN, Rc=(4NN+5NN)/2
#pair_coeff 1 1	2.4802	7.0149	2.3779	0.3144	3.0551	4.033	4.176	#	Co	Co
#-----------------------
#pair_style eam/alloy
#pair_coeff * * AlCrFeCoNi_Zhou04.eam.alloy Fe
#-----------------------
pair_style meam
pair_coeff * * ./../../library.meam Ni Sn ./../../NiSn.meam Ni Sn
#-----------------------

# Setup neighbor style
neighbor 1.0 nsq
neigh_modify once no every 1 delay 0 check yes

# Setup minimization style
min_style	     cg
min_modify	     dmax ${dmax} line quadratic
min_modify	     dmax 0.01 line quadratic

# Setup output
thermo		1
thermo_style custom step temp pe press pxx pyy pzz pxy pxz pyz lx ly lz vol
thermo_modify norm no

# Negative deformation

variable delta equal -${up}*${len0}
variable delta equal -1e-06*${len0}
variable delta equal -1e-06*7.47940326317909
variable deltaxy equal -${up}*xy
variable deltaxy equal -1e-06*xy
variable deltaxz equal -${up}*xz
variable deltaxz equal -1e-06*xz
variable deltayz equal -${up}*yz
variable deltayz equal -1e-06*yz
if "${dir} == 1" then    "change_box all x delta 0 ${delta} xy delta ${deltaxy} xz delta ${deltaxz} remap units box"
change_box all x delta 0 ${delta} xy delta ${deltaxy} xz delta ${deltaxz} remap units box
change_box all x delta 0 -7.47940326317909e-06 xy delta ${deltaxy} xz delta ${deltaxz} remap units box
change_box all x delta 0 -7.47940326317909e-06 xy delta -0 xz delta ${deltaxz} remap units box
change_box all x delta 0 -7.47940326317909e-06 xy delta -0 xz delta -0 remap units box
Changing box ...
  triclinic box = (-0.0076893158 -0.0076893158 -0.0076893158) to (7.4717065 11.211416 14.951117) with tilt (0 0 0)
  triclinic box = (-0.0076893158 -0.0076893158 -0.0076893158) to (7.4717065 11.211416 14.951117) with tilt (0 0 0)
  triclinic box = (-0.0076893158 -0.0076893158 -0.0076893158) to (7.4717065 11.211416 14.951117) with tilt (0 0 0)
if "${dir} == 2" then    "change_box all y delta 0 ${delta} yz delta ${deltayz} remap units box"
if "${dir} == 3" then    "change_box all z delta 0 ${delta} remap units box"
if "${dir} == 4" then    "change_box all yz delta ${delta} remap units box"
if "${dir} == 5" then    "change_box all xz delta ${delta} remap units box"
if "${dir} == 6" then    "change_box all xy delta ${delta} remap units box"

# Relax atoms positions

minimize ${etol} ${ftol} ${maxiter} ${maxeval}
minimize 0 ${ftol} ${maxiter} ${maxeval}
minimize 0 1e-10 ${maxiter} ${maxeval}
minimize 0 1e-10 100 ${maxeval}
minimize 0 1e-10 100 1000
Neighbor list info ...
  update: every = 1 steps, delay = 0 steps, check = yes
  max neighbors/atom: 2000, page size: 100000
  master list distance cutoff = 6.5
  ghost atom cutoff = 6.5
  2 neighbor lists, perpetual/occasional/extra = 2 0 0
  (1) pair meam, perpetual
      attributes: full, newton on
      pair build: full/nsq
      stencil: none
      bin: none
  (2) pair meam, perpetual, half/full from (1)
      attributes: half, newton on
      pair build: halffull/newton
      stencil: none
      bin: none
Per MPI rank memory allocation (min/avg/max) = 9.874 | 9.879 | 9.887 Mbytes
   Step          Temp          PotEng         Press           Pxx            Pyy            Pzz            Pxy            Pxz            Pyz             Lx             Ly             Lz           Volume    
         1   0             -395.82667      1.6234843      2.4061613      1.232147       1.2321448      3.032753e-07  -5.106797e-07  -1.056143e-05   7.4793958      11.219105      14.958807      1255.2253    
         2   0             -395.82667      1.6233116      2.4059888      1.2319731      1.2319731      1.9747582e-06 -2.5390753e-06  2.66975e-08    7.4793958      11.219105      14.958807      1255.2253    
         3   0             -395.82667      1.6232749      2.4059514      1.2319365      1.2319369     -1.4586186e-07  4.9150544e-07 -1.6343042e-06  7.4793958      11.219105      14.958807      1255.2253    
         4   0             -395.82667      1.6232677      2.4059445      1.2319292      1.2319294     -2.1348449e-07  5.8385835e-08 -4.1879566e-07  7.4793958      11.219105      14.958807      1255.2253    
         5   0             -395.82667      1.6232657      2.4059427      1.2319272      1.2319272     -1.8057926e-07  8.1002822e-09 -2.1978049e-07  7.4793958      11.219105      14.958807      1255.2253    
         6   0             -395.82667      1.6232652      2.4059422      1.2319267      1.2319267     -6.9401653e-08  1.6620363e-08 -1.2179246e-07  7.4793958      11.219105      14.958807      1255.2253    
         7   0             -395.82667      1.623265       2.4059421      1.2319265      1.2319265     -4.1849645e-09  9.0200118e-09 -3.2847582e-08  7.4793958      11.219105      14.958807      1255.2253    
         8   0             -395.82667      1.6232649      2.405942       1.2319264      1.2319264     -8.2106475e-10  4.9996649e-09 -7.7902445e-09  7.4793958      11.219105      14.958807      1255.2253    
         9   0             -395.82667      1.6232649      2.405942       1.2319263      1.2319264     -1.8583782e-09  2.2078126e-09  3.5018575e-09  7.4793958      11.219105      14.958807      1255.2253    
        10   0             -395.82667      1.6232649      2.405942       1.2319263      1.2319263     -1.9473717e-09  4.3077257e-10  4.3449028e-09  7.4793958      11.219105      14.958807      1255.2253    
        11   0             -395.82667      1.6232649      2.405942       1.2319263      1.2319263     -1.3465235e-09 -4.0417393e-11  3.0487277e-09  7.4793958      11.219105      14.958807      1255.2253    
        12   0             -395.82667      1.6232649      2.405942       1.2319263      1.2319263     -5.8497675e-10  1.5599928e-10  1.5915289e-09  7.4793958      11.219105      14.958807      1255.2253    
        13   0             -395.82667      1.6232649      2.405942       1.2319263      1.2319263     -1.2187016e-10  9.2810877e-11  5.7714681e-10  7.4793958      11.219105      14.958807      1255.2253    
        14   0             -395.82667      1.6232649      2.405942       1.2319263      1.2319263      4.4213359e-11  5.0240882e-11  1.1851641e-11  7.4793958      11.219105      14.958807      1255.2253    
        15   0             -395.82667      1.6232649      2.405942       1.2319263      1.2319263      3.3443438e-11  7.4759252e-11 -1.8826997e-11  7.4793958      11.219105      14.958807      1255.2253    
        16   0             -395.82667      1.6232649      2.405942       1.2319263      1.2319263     -2.3807193e-11 -1.2686147e-11 -1.9155643e-11  7.4793958      11.219105      14.958807      1255.2253    
        17   0             -395.82667      1.6232649      2.405942       1.2319263      1.2319263      7.0854742e-12 -1.2385015e-11 -8.2374217e-12  7.4793958      11.219105      14.958807      1255.2253    
        18   0             -395.82667      1.6232649      2.405942       1.2319263      1.2319263     -1.0769921e-11 -1.0027883e-11 -4.397928e-11   7.4793958      11.219105      14.958807      1255.2253    
        19   0             -395.82667      1.6232649      2.405942       1.2319263      1.2319263      1.1336759e-11 -2.3769958e-11 -3.0648313e-11  7.4793958      11.219105      14.958807      1255.2253    
        20   0             -395.82667      1.6232649      2.405942       1.2319263      1.2319263      4.2512845e-11 -2.7749851e-11  2.1307497e-12  7.4793958      11.219105      14.958807      1255.2253    
        21   0             -395.82667      1.6232649      2.405942       1.2319263      1.2319263     -4.8748063e-11  1.6883162e-11  3.2057619e-12  7.4793958      11.219105      14.958807      1255.2253    
        22   0             -395.82667      1.6232649      2.405942       1.2319263      1.2319263      8.2191501e-12  2.2528859e-12 -5.9588172e-12  7.4793958      11.219105      14.958807      1255.2253    
        23   0             -395.82667      1.6232649      2.405942       1.2319263      1.2319263     -1.4170948e-11  2.0887229e-12 -3.1548943e-11  7.4793958      11.219105      14.958807      1255.2253    
        24   0             -395.82667      1.6232649      2.405942       1.2319263      1.2319263     -4.0528913e-11  6.7901344e-11  5.642836e-11   7.4793958      11.219105      14.958807      1255.2253    
        25   0             -395.82667      1.6232649      2.405942       1.2319263      1.2319263     -3.3160019e-11  2.7774544e-11  1.119335e-11   7.4793958      11.219105      14.958807      1255.2253    
        26   0             -395.82667      1.6232649      2.405942       1.2319263      1.2319263      3.1459506e-11 -2.0186232e-11  3.1732269e-11  7.4793958      11.219105      14.958807      1255.2253    
        27   0             -395.82667      1.6232649      2.405942       1.2319263      1.2319263      3.4010276e-12 -2.4939663e-11 -5.9265161e-11  7.4793958      11.219105      14.958807      1255.2253    
        28   0             -395.82667      1.6232649      2.405942       1.2319263      1.2319263      8.5025691e-13  5.6209814e-12 -1.1702091e-11  7.4793958      11.219105      14.958807      1255.2253    
        29   0             -395.82667      1.6232649      2.405942       1.2319263      1.2319263     -2.3807193e-11 -2.1458037e-11 -3.3341576e-11  7.4793958      11.219105      14.958807      1255.2253    
        30   0             -395.82667      1.6232649      2.405942       1.2319263      1.2319263      3.2026344e-11  3.8225147e-12 -1.0320825e-11  7.4793958      11.219105      14.958807      1255.2253    
        31   0             -395.82667      1.6232649      2.405942       1.2319263      1.2319263     -4.392994e-11   2.9216761e-11  2.2790806e-11  7.4793958      11.219105      14.958807      1255.2253    
Loop time of 0.0267478 on 4 procs for 30 steps with 96 atoms

73.0% CPU use with 4 MPI tasks x 1 OpenMP threads

Minimization stats:
  Stopping criterion = force tolerance
  Energy initial, next-to-last, final = 
     -395.826671154463  -395.826671204739  -395.826671204739
  Force two-norm initial, final = 0.001330969 4.5789273e-11
  Force max component initial, final = 0.00022632461 1.224354e-11
  Final line search alpha, max atom move = 1 1.224354e-11
  Iterations, force evaluations = 30 60

MPI task timing breakdown:
Section |  min time  |  avg time  |  max time  |%varavg| %total
---------------------------------------------------------------
Pair    | 0.022589   | 0.023544   | 0.024693   |   0.6 | 88.02
Neigh   | 0          | 0          | 0          |   0.0 |  0.00
Comm    | 0.001414   | 0.0024602  | 0.003314   |   1.7 |  9.20
Output  | 0.000291   | 0.0003105  | 0.00036    |   0.0 |  1.16
Modify  | 0          | 0          | 0          |   0.0 |  0.00
Other   |            | 0.0004328  |            |       |  1.62

Nlocal:             24 ave          31 max          19 min
Histogram: 2 0 0 0 0 1 0 0 0 1
Nghost:            581 ave         586 max         574 min
Histogram: 1 0 0 0 1 0 0 0 0 2
Neighs:           1032 ave        1352 max         801 min
Histogram: 2 0 0 0 0 0 1 0 0 1
FullNghs:         2064 ave        2666 max        1634 min
Histogram: 2 0 0 0 0 1 0 0 0 1

Total # of neighbors = 8256
Ave neighs/atom = 86
Neighbor list builds = 0
Dangerous builds = 0

# Obtain new stress tensor

variable tmp equal pxx
variable pxx1 equal ${tmp}
variable pxx1 equal 2.40594199157761
variable tmp equal pyy
variable pyy1 equal ${tmp}
variable pyy1 equal 1.23192630600969
variable tmp equal pzz
variable pzz1 equal ${tmp}
variable pzz1 equal 1.23192630579656
variable tmp equal pxy
variable pxy1 equal ${tmp}
variable pxy1 equal -4.3929940208505e-11
variable tmp equal pxz
variable pxz1 equal ${tmp}
variable pxz1 equal 2.92167609621856e-11
variable tmp equal pyz
variable pyz1 equal ${tmp}
variable pyz1 equal 2.2790805824404e-11

# Compute elastic constant from pressure tensor

variable C1neg equal ${d1}
variable C1neg equal 240.594199150256
variable C2neg equal ${d2}
variable C2neg equal 123.192630572952
variable C3neg equal ${d3}
variable C3neg equal 123.192630577818
variable C4neg equal ${d4}
variable C4neg equal 6.66321337636975e-09
variable C5neg equal ${d5}
variable C5neg equal 6.75402813648771e-09
variable C6neg equal ${d6}
variable C6neg equal -3.0073495418423e-09

# Reset box and simulation parameters

clear
  using 1 OpenMP thread(s) per MPI task
Loaded 1 plugins from C:\Program Files\LAMMPS 64-bit 23Jun2022\plugins
Loaded 0 plugins from C:\Program Files\LAMMPS 64-bit 23Jun2022-MPI\plugins
Loaded 1 plugins from C:\Program Files\LAMMPS 64-bit 22Dec2022-MSMPI\plugins
Loaded 1 plugins from C:\Program Files\LAMMPS 64-bit 28Mar2023-MPI\plugins
box tilt large

The 'box' command has been removed and will be ignored

read_restart restart.equil
Reading restart file ...
  restart file = 22 Dec 2022, LAMMPS = 22 Dec 2022
  restoring atom style atomic from restart
  triclinic box = (-0.0076893158 -0.0076893158 -0.0076893158) to (7.4717139 11.211416 14.951117) with tilt (0 0 0)
  1 by 2 by 2 MPI processor grid
  pair style meam stores no restart info
  96 atoms
  read_restart CPU = 0.000 seconds
include potential.mod
# NOTE: This script can be modified for different pair styles
# See in.elastic for more info.

# Choose potential
#-----------------------
#pair_style	sw
#pair_coeff * * Si.sw Si
#-----------------------
#pair_style morse	2.83994742	# D0[eV] a[1/A] r0[A] rc[A], 1NN for BCC
#pair_coeff 1 1	2.1173	1.0202	2.4595	2.6497	#	Fe-Fe
#-----------------------
#pair_style smatb # R0(A)   p       q     A(eV)   xi(eV)  Rcs(A)   Rc(A), 4NN: Rcs=4NN, Rc=(4NN+5NN)/2
#pair_coeff 1 1	2.4802	7.0149	2.3779	0.3144	3.0551	4.033	4.176	#	Co	Co
#-----------------------
#pair_style eam/alloy
#pair_coeff * * AlCrFeCoNi_Zhou04.eam.alloy Fe
#-----------------------
pair_style meam
pair_coeff * * ./../../library.meam Ni Sn ./../../NiSn.meam Ni Sn
#-----------------------

# Setup neighbor style
neighbor 1.0 nsq
neigh_modify once no every 1 delay 0 check yes

# Setup minimization style
min_style	     cg
min_modify	     dmax ${dmax} line quadratic
min_modify	     dmax 0.01 line quadratic

# Setup output
thermo		1
thermo_style custom step temp pe press pxx pyy pzz pxy pxz pyz lx ly lz vol
thermo_modify norm no

# Positive deformation

variable delta equal ${up}*${len0}
variable delta equal 1e-06*${len0}
variable delta equal 1e-06*7.47940326317909
variable deltaxy equal ${up}*xy
variable deltaxy equal 1e-06*xy
variable deltaxz equal ${up}*xz
variable deltaxz equal 1e-06*xz
variable deltayz equal ${up}*yz
variable deltayz equal 1e-06*yz
if "${dir} == 1" then    "change_box all x delta 0 ${delta} xy delta ${deltaxy} xz delta ${deltaxz} remap units box"
change_box all x delta 0 ${delta} xy delta ${deltaxy} xz delta ${deltaxz} remap units box
change_box all x delta 0 7.47940326317909e-06 xy delta ${deltaxy} xz delta ${deltaxz} remap units box
change_box all x delta 0 7.47940326317909e-06 xy delta 0 xz delta ${deltaxz} remap units box
change_box all x delta 0 7.47940326317909e-06 xy delta 0 xz delta 0 remap units box
Changing box ...
  triclinic box = (-0.0076893158 -0.0076893158 -0.0076893158) to (7.4717214 11.211416 14.951117) with tilt (0 0 0)
  triclinic box = (-0.0076893158 -0.0076893158 -0.0076893158) to (7.4717214 11.211416 14.951117) with tilt (0 0 0)
  triclinic box = (-0.0076893158 -0.0076893158 -0.0076893158) to (7.4717214 11.211416 14.951117) with tilt (0 0 0)
if "${dir} == 2" then    "change_box all y delta 0 ${delta} yz delta ${deltayz} remap units box"
if "${dir} == 3" then    "change_box all z delta 0 ${delta} remap units box"
if "${dir} == 4" then    "change_box all yz delta ${delta} remap units box"
if "${dir} == 5" then    "change_box all xz delta ${delta} remap units box"
if "${dir} == 6" then    "change_box all xy delta ${delta} remap units box"

# Relax atoms positions

minimize ${etol} ${ftol} ${maxiter} ${maxeval}
minimize 0 ${ftol} ${maxiter} ${maxeval}
minimize 0 1e-10 ${maxiter} ${maxeval}
minimize 0 1e-10 100 ${maxeval}
minimize 0 1e-10 100 1000
Neighbor list info ...
  update: every = 1 steps, delay = 0 steps, check = yes
  max neighbors/atom: 2000, page size: 100000
  master list distance cutoff = 6.5
  ghost atom cutoff = 6.5
  2 neighbor lists, perpetual/occasional/extra = 2 0 0
  (1) pair meam, perpetual
      attributes: full, newton on
      pair build: full/nsq
      stencil: none
      bin: none
  (2) pair meam, perpetual, half/full from (1)
      attributes: half, newton on
      pair build: halffull/newton
      stencil: none
      bin: none
Per MPI rank memory allocation (min/avg/max) = 9.874 | 9.879 | 9.887 Mbytes
   Step          Temp          PotEng         Press           Pxx            Pyy            Pzz            Pxy            Pxz            Pyz             Lx             Ly             Lz           Volume    
         1   0             -395.82667     -1.6230344     -2.4057066     -1.2316972     -1.2316994      3.0326818e-07 -5.1069678e-07 -1.0561402e-05  7.4794107      11.219105      14.958807      1255.2278    
         2   0             -395.82667     -1.6232071     -2.4058791     -1.2318712     -1.2318712      1.9747214e-06 -2.5391164e-06  2.6626493e-08  7.4794107      11.219105      14.958807      1255.2278    
         3   0             -395.82667     -1.6232439     -2.4059164     -1.2319078     -1.2319074     -1.4589019e-07  4.9151424e-07 -1.6343357e-06  7.4794107      11.219105      14.958807      1255.2278    
         4   0             -395.82667     -1.623251      -2.4059233     -1.231915      -1.2319148     -2.1347329e-07  5.8411428e-08 -4.1879474e-07  7.4794107      11.219105      14.958807      1255.2278    
         5   0             -395.82667     -1.6232531     -2.4059252     -1.231917      -1.231917      -1.8060101e-07  8.1343591e-09 -2.1981984e-07  7.4794107      11.219105      14.958807      1255.2278    
         6   0             -395.82667     -1.6232535     -2.4059256     -1.2319175     -1.2319175     -6.9427022e-08  1.6703634e-08 -1.217994e-07   7.4794107      11.219105      14.958807      1255.2278    
         7   0             -395.82667     -1.6232538     -2.4059258     -1.2319177     -1.2319177     -4.2382388e-09  8.9708491e-09 -3.2865879e-08  7.4794107      11.219105      14.958807      1255.2278    
         8   0             -395.82667     -1.6232538     -2.4059258     -1.2319178     -1.2319178     -8.2871541e-10  4.9955447e-09 -7.7499841e-09  7.4794107      11.219105      14.958807      1255.2278    
         9   0             -395.82667     -1.6232539     -2.4059259     -1.2319179     -1.2319179     -1.872262e-09   2.2695159e-09  3.447643e-09   7.4794107      11.219105      14.958807      1255.2278    
        10   0             -395.82667     -1.6232539     -2.4059259     -1.2319179     -1.2319179     -1.9813781e-09  4.3201617e-10  4.3994261e-09  7.4794107      11.219105      14.958807      1255.2278    
        11   0             -395.82667     -1.6232539     -2.4059259     -1.2319179     -1.2319179     -1.3884668e-09 -9.8539431e-11  3.0088673e-09  7.4794107      11.219105      14.958807      1255.2278    
        12   0             -395.82667     -1.6232539     -2.4059259     -1.2319179     -1.2319179     -6.4052559e-10  1.3613852e-10  1.5179099e-09  7.4794107      11.219105      14.958807      1255.2278    
        13   0             -395.82667     -1.6232539     -2.4059259     -1.2319179     -1.2319179     -8.5025521e-11  6.945533e-11   5.686637e-10   7.4794107      11.219105      14.958807      1255.2278    
        14   0             -395.82667     -1.6232539     -2.4059259     -1.2319179     -1.2319179     -3.1176024e-12  1.035282e-11   1.9840469e-11  7.4794107      11.219105      14.958807      1255.2278    
        15   0             -395.82667     -1.6232539     -2.4059259     -1.2319179     -1.2319179      1.7005104e-12  3.5458658e-11 -3.4517845e-11  7.4794107      11.219105      14.958807      1255.2278    
        16   0             -395.82667     -1.6232539     -2.4059259     -1.2319179     -1.2319179      2.0122707e-11 -2.5571388e-11 -5.4555776e-11  7.4794107      11.219105      14.958807      1255.2278    
        17   0             -395.82667     -1.6232539     -2.4059259     -1.2319179     -1.2319179     -2.6924748e-11  4.3599594e-11 -1.7773797e-11  7.4794107      11.219105      14.958807      1255.2278    
        18   0             -395.82667     -1.6232539     -2.4059259     -1.2319179     -1.2319179     -6.206863e-11   3.2751462e-11 -1.5066934e-11  7.4794107      11.219105      14.958807      1255.2278    
        19   0             -395.82667     -1.6232539     -2.4059259     -1.2319179     -1.2319179      3.3443371e-11  2.6582973e-12  2.5796554e-11  7.4794107      11.219105      14.958807      1255.2278    
        20   0             -395.82667     -1.6232539     -2.4059259     -1.2319179     -1.2319179     -2.5507656e-12 -2.9645368e-11  1.2225489e-12  7.4794107      11.219105      14.958807      1255.2278    
        21   0             -395.82667     -1.6232539     -2.4059259     -1.2319179     -1.2319179      1.5304594e-11  4.4583389e-12  2.1773644e-11  7.4794107      11.219105      14.958807      1255.2278    
        22   0             -395.82667     -1.6232539     -2.4059259     -1.2319179     -1.2319179      1.7005104e-11  2.4120439e-11  1.5130956e-11  7.4794107      11.219105      14.958807      1255.2278    
        23   0             -395.82667     -1.6232539     -2.4059259     -1.2319179     -1.2319179      1.417092e-12   2.5596657e-12 -4.4846962e-11  7.4794107      11.219105      14.958807      1255.2278    
        24   0             -395.82667     -1.6232539     -2.4059259     -1.2319179     -1.2319179     -1.955587e-11  -1.1911885e-11 -2.7689255e-12  7.4794107      11.219105      14.958807      1255.2278    
        25   0             -395.82667     -1.6232539     -2.4059259     -1.2319179     -1.2319179      2.6924748e-11  4.3382489e-11 -4.3630459e-12  7.4794107      11.219105      14.958807      1255.2278    
        26   0             -395.82667     -1.6232539     -2.4059259     -1.2319179     -1.2319179      2.2673472e-12 -4.4138844e-11 -2.2576622e-11  7.4794107      11.219105      14.958807      1255.2278    
        27   0             -395.82667     -1.6232539     -2.4059259     -1.2319179     -1.2319179      3.0892606e-11 -3.7974113e-12 -5.2432404e-12  7.4794107      11.219105      14.958807      1255.2278    
        28   0             -395.82667     -1.6232539     -2.4059259     -1.2319179     -1.2319179      5.1015312e-12  2.7438915e-11 -2.8151047e-11  7.4794107      11.219105      14.958807      1255.2278    
        29   0             -395.82667     -1.6232539     -2.4059259     -1.2319179     -1.2319179      1.7855359e-11 -1.4851062e-11 -1.8479026e-11  7.4794107      11.219105      14.958807      1255.2278    
        30   0             -395.82667     -1.6232539     -2.4059259     -1.2319179     -1.2319179     -3.4293627e-11 -3.5469539e-11  8.777771e-13   7.4794107      11.219105      14.958807      1255.2278    
        31   0             -395.82667     -1.6232539     -2.4059259     -1.2319179     -1.2319179      9.3528073e-12 -4.1126282e-11 -3.2942801e-11  7.4794107      11.219105      14.958807      1255.2278    
Loop time of 0.0261987 on 4 procs for 30 steps with 96 atoms

89.5% CPU use with 4 MPI tasks x 1 OpenMP threads

Minimization stats:
  Stopping criterion = force tolerance
  Energy initial, next-to-last, final = 
     -395.826671154463  -395.826671204739  -395.826671204739
  Force two-norm initial, final = 0.0013309594 4.580641e-11
  Force max component initial, final = 0.0002263227 1.2181811e-11
  Final line search alpha, max atom move = 1 1.2181811e-11
  Iterations, force evaluations = 30 60

MPI task timing breakdown:
Section |  min time  |  avg time  |  max time  |%varavg| %total
---------------------------------------------------------------
Pair    | 0.022195   | 0.023203   | 0.024283   |   0.6 | 88.57
Neigh   | 0          | 0          | 0          |   0.0 |  0.00
Comm    | 0.001291   | 0.0023692  | 0.003375   |   1.7 |  9.04
Output  | 0.000284   | 0.00029475 | 0.000323   |   0.0 |  1.13
Modify  | 0          | 0          | 0          |   0.0 |  0.00
Other   |            | 0.0003315  |            |       |  1.27

Nlocal:             24 ave          31 max          19 min
Histogram: 2 0 0 0 0 1 0 0 0 1
Nghost:            581 ave         586 max         574 min
Histogram: 1 0 0 0 1 0 0 0 0 2
Neighs:           1032 ave        1352 max         801 min
Histogram: 2 0 0 0 0 0 1 0 0 1
FullNghs:         2064 ave        2666 max        1634 min
Histogram: 2 0 0 0 0 1 0 0 0 1

Total # of neighbors = 8256
Ave neighs/atom = 86
Neighbor list builds = 0
Dangerous builds = 0

# Obtain new stress tensor

variable tmp equal pe
variable e1 equal ${tmp}
variable e1 equal -395.826671204739
variable tmp equal press
variable p1 equal ${tmp}
variable p1 equal -1.62325389950807
variable tmp equal pxx
variable pxx1 equal ${tmp}
variable pxx1 equal -2.40592587409983
variable tmp equal pyy
variable pyy1 equal ${tmp}
variable pyy1 equal -1.23191791208635
variable tmp equal pzz
variable pzz1 equal ${tmp}
variable pzz1 equal -1.23191791233802
variable tmp equal pxy
variable pxy1 equal ${tmp}
variable pxy1 equal 9.352807274242e-12
variable tmp equal pxz
variable pxz1 equal ${tmp}
variable pxz1 equal -4.11262823226371e-11
variable tmp equal pyz
variable pyz1 equal ${tmp}
variable pyz1 equal -3.29428008379994e-11

# Compute elastic constant from pressure tensor

variable C1pos equal ${d1}
variable C1pos equal 240.592587417488
variable C2pos equal ${d2}
variable C2pos equal 123.191791236652
variable C3pos equal ${d3}
variable C3pos equal 123.19179123564
variable C4pos equal ${d4}
variable C4pos equal -1.08985271012941e-09
variable C5pos equal ${d5}
variable C5pos equal 2.80276191994559e-10
variable C6pos equal ${d6}
variable C6pos equal -2.3209252064324e-09

# Combine positive and negative

variable C1${dir} equal 0.5*(${C1neg}+${C1pos})
variable C11 equal 0.5*(${C1neg}+${C1pos})
variable C11 equal 0.5*(240.594199150256+${C1pos})
variable C11 equal 0.5*(240.594199150256+240.592587417488)
variable C2${dir} equal 0.5*(${C2neg}+${C2pos})
variable C21 equal 0.5*(${C2neg}+${C2pos})
variable C21 equal 0.5*(123.192630572952+${C2pos})
variable C21 equal 0.5*(123.192630572952+123.191791236652)
variable C3${dir} equal 0.5*(${C3neg}+${C3pos})
variable C31 equal 0.5*(${C3neg}+${C3pos})
variable C31 equal 0.5*(123.192630577818+${C3pos})
variable C31 equal 0.5*(123.192630577818+123.19179123564)
variable C4${dir} equal 0.5*(${C4neg}+${C4pos})
variable C41 equal 0.5*(${C4neg}+${C4pos})
variable C41 equal 0.5*(6.66321337636975e-09+${C4pos})
variable C41 equal 0.5*(6.66321337636975e-09+-1.08985271012941e-09)
variable C5${dir} equal 0.5*(${C5neg}+${C5pos})
variable C51 equal 0.5*(${C5neg}+${C5pos})
variable C51 equal 0.5*(6.75402813648771e-09+${C5pos})
variable C51 equal 0.5*(6.75402813648771e-09+2.80276191994559e-10)
variable C6${dir} equal 0.5*(${C6neg}+${C6pos})
variable C61 equal 0.5*(${C6neg}+${C6pos})
variable C61 equal 0.5*(-3.0073495418423e-09+${C6pos})
variable C61 equal 0.5*(-3.0073495418423e-09+-2.3209252064324e-09)

# Delete dir to make sure it is not reused

variable dir delete

# uyy Perturbation

variable dir equal 2
include displace.mod
# NOTE: This script should not need to be
# modified. See in.elastic for more info.
#
# Find which reference length to use

if "${dir} == 1" then    "variable len0 equal ${lx0}"
if "${dir} == 2" then    "variable len0 equal ${ly0}"
variable len0 equal ${ly0}
variable len0 equal 11.2191048947686
if "${dir} == 3" then    "variable len0 equal ${lz0}"
if "${dir} == 4" then    "variable len0 equal ${lz0}"
if "${dir} == 5" then    "variable len0 equal ${lz0}"
if "${dir} == 6" then    "variable len0 equal ${ly0}"

# Reset box and simulation parameters

clear
  using 1 OpenMP thread(s) per MPI task
Loaded 1 plugins from C:\Program Files\LAMMPS 64-bit 23Jun2022\plugins
Loaded 0 plugins from C:\Program Files\LAMMPS 64-bit 23Jun2022-MPI\plugins
Loaded 1 plugins from C:\Program Files\LAMMPS 64-bit 22Dec2022-MSMPI\plugins
Loaded 1 plugins from C:\Program Files\LAMMPS 64-bit 28Mar2023-MPI\plugins
box tilt large

The 'box' command has been removed and will be ignored

read_restart restart.equil
Reading restart file ...
  restart file = 22 Dec 2022, LAMMPS = 22 Dec 2022
  restoring atom style atomic from restart
  triclinic box = (-0.0076893158 -0.0076893158 -0.0076893158) to (7.4717139 11.211416 14.951117) with tilt (0 0 0)
  1 by 2 by 2 MPI processor grid
  pair style meam stores no restart info
  96 atoms
  read_restart CPU = 0.000 seconds
include potential.mod
# NOTE: This script can be modified for different pair styles
# See in.elastic for more info.

# Choose potential
#-----------------------
#pair_style	sw
#pair_coeff * * Si.sw Si
#-----------------------
#pair_style morse	2.83994742	# D0[eV] a[1/A] r0[A] rc[A], 1NN for BCC
#pair_coeff 1 1	2.1173	1.0202	2.4595	2.6497	#	Fe-Fe
#-----------------------
#pair_style smatb # R0(A)   p       q     A(eV)   xi(eV)  Rcs(A)   Rc(A), 4NN: Rcs=4NN, Rc=(4NN+5NN)/2
#pair_coeff 1 1	2.4802	7.0149	2.3779	0.3144	3.0551	4.033	4.176	#	Co	Co
#-----------------------
#pair_style eam/alloy
#pair_coeff * * AlCrFeCoNi_Zhou04.eam.alloy Fe
#-----------------------
pair_style meam
pair_coeff * * ./../../library.meam Ni Sn ./../../NiSn.meam Ni Sn
#-----------------------

# Setup neighbor style
neighbor 1.0 nsq
neigh_modify once no every 1 delay 0 check yes

# Setup minimization style
min_style	     cg
min_modify	     dmax ${dmax} line quadratic
min_modify	     dmax 0.01 line quadratic

# Setup output
thermo		1
thermo_style custom step temp pe press pxx pyy pzz pxy pxz pyz lx ly lz vol
thermo_modify norm no

# Negative deformation

variable delta equal -${up}*${len0}
variable delta equal -1e-06*${len0}
variable delta equal -1e-06*11.2191048947686
variable deltaxy equal -${up}*xy
variable deltaxy equal -1e-06*xy
variable deltaxz equal -${up}*xz
variable deltaxz equal -1e-06*xz
variable deltayz equal -${up}*yz
variable deltayz equal -1e-06*yz
if "${dir} == 1" then    "change_box all x delta 0 ${delta} xy delta ${deltaxy} xz delta ${deltaxz} remap units box"
if "${dir} == 2" then    "change_box all y delta 0 ${delta} yz delta ${deltayz} remap units box"
change_box all y delta 0 ${delta} yz delta ${deltayz} remap units box
change_box all y delta 0 -1.12191048947686e-05 yz delta ${deltayz} remap units box
change_box all y delta 0 -1.12191048947686e-05 yz delta -0 remap units box
Changing box ...
  triclinic box = (-0.0076893158 -0.0076893158 -0.0076893158) to (7.4717139 11.211404 14.951117) with tilt (0 0 0)
  triclinic box = (-0.0076893158 -0.0076893158 -0.0076893158) to (7.4717139 11.211404 14.951117) with tilt (0 0 0)
if "${dir} == 3" then    "change_box all z delta 0 ${delta} remap units box"
if "${dir} == 4" then    "change_box all yz delta ${delta} remap units box"
if "${dir} == 5" then    "change_box all xz delta ${delta} remap units box"
if "${dir} == 6" then    "change_box all xy delta ${delta} remap units box"

# Relax atoms positions

minimize ${etol} ${ftol} ${maxiter} ${maxeval}
minimize 0 ${ftol} ${maxiter} ${maxeval}
minimize 0 1e-10 ${maxiter} ${maxeval}
minimize 0 1e-10 100 ${maxeval}
minimize 0 1e-10 100 1000
Neighbor list info ...
  update: every = 1 steps, delay = 0 steps, check = yes
  max neighbors/atom: 2000, page size: 100000
  master list distance cutoff = 6.5
  ghost atom cutoff = 6.5
  2 neighbor lists, perpetual/occasional/extra = 2 0 0
  (1) pair meam, perpetual
      attributes: full, newton on
      pair build: full/nsq
      stencil: none
      bin: none
  (2) pair meam, perpetual, half/full from (1)
      attributes: half, newton on
      pair build: halffull/newton
      stencil: none
      bin: none
Per MPI rank memory allocation (min/avg/max) = 9.874 | 9.879 | 9.887 Mbytes
   Step          Temp          PotEng         Press           Pxx            Pyy            Pzz            Pxy            Pxz            Pyz             Lx             Ly             Lz           Volume    
         1   0             -395.82667      1.6234843      1.2321456      2.4061627      1.2321448      3.0317866e-07 -5.1062565e-07 -1.0561487e-05  7.4794033      11.219094      14.958807      1255.2253    
         2   0             -395.82667      1.6233116      1.2319731      2.4059887      1.2319731      1.9747568e-06 -2.5391219e-06  2.6602972e-08  7.4794033      11.219094      14.958807      1255.2253    
         3   0             -395.82667      1.6232749      1.2319357      2.4059521      1.2319369     -1.4589927e-07  4.9151476e-07 -1.6343438e-06  7.4794033      11.219094      14.958807      1255.2253    
         4   0             -395.82667      1.6232677      1.2319288      2.4059449      1.2319294     -2.1347315e-07  5.8382642e-08 -4.1879214e-07  7.4794033      11.219094      14.958807      1255.2253    
         5   0             -395.82667      1.6232657      1.231927       2.4059429      1.2319272     -1.8059768e-07  8.1317024e-09 -2.1977609e-07  7.4794033      11.219094      14.958807      1255.2253    
         6   0             -395.82667      1.6232652      1.2319265      2.4059424      1.2319267     -6.9441615e-08  1.6648318e-08 -1.217569e-07   7.4794033      11.219094      14.958807      1255.2253    
         7   0             -395.82667      1.623265       1.2319264      2.4059422      1.2319265     -4.2158572e-09  9.0364318e-09 -3.2848298e-08  7.4794033      11.219094      14.958807      1255.2253    
         8   0             -395.82667      1.6232649      1.2319263      2.4059421      1.2319264     -7.9952491e-10  5.0389588e-09 -7.7258696e-09  7.4794033      11.219094      14.958807      1255.2253    
         9   0             -395.82667      1.6232649      1.2319263      2.405942       1.2319264     -1.8391057e-09  2.2872902e-09  3.4400997e-09  7.4794033      11.219094      14.958807      1255.2253    
        10   0             -395.82667      1.6232649      1.2319263      2.405942       1.2319263     -1.9677779e-09  4.9509889e-10  4.382432e-09   7.4794033      11.219094      14.958807      1255.2253    
        11   0             -395.82667      1.6232649      1.2319263      2.405942       1.2319263     -1.3451064e-09 -7.1461367e-11  3.0132035e-09  7.4794033      11.219094      14.958807      1255.2253    
        12   0             -395.82667      1.6232649      1.2319263      2.405942       1.2319263     -5.7874153e-10  2.1240909e-10  1.5661311e-09  7.4794033      11.219094      14.958807      1255.2253    
        13   0             -395.82667      1.6232649      1.2319263      2.405942       1.2319263     -1.196028e-10   1.1784973e-10  5.3700283e-10  7.4794033      11.219094      14.958807      1255.2253    
        14   0             -395.82667      1.6232649      1.2319263      2.405942       1.2319263     -1.9839328e-12  4.7795961e-11  5.2603302e-11  7.4794033      11.219094      14.958807      1255.2253    
        15   0             -395.82667      1.6232649      1.2319263      2.405942       1.2319263      2.1256423e-11 -5.5906528e-12 -3.4622506e-11  7.4794033      11.219094      14.958807      1255.2253    
        16   0             -395.82667      1.6232649      1.2319263      2.405942       1.2319263     -2.5507707e-12  2.5866076e-11 -3.3428843e-11  7.4794033      11.219094      14.958807      1255.2253    
        17   0             -395.82667      1.6232649      1.2319263      2.405942       1.2319263     -2.5507707e-11 -8.15278e-12   -1.9024827e-11  7.4794033      11.219094      14.958807      1255.2253    
        18   0             -395.82667      1.6232649      1.2319263      2.405942       1.2319263      5.3849604e-12 -1.3487415e-11  4.6437184e-11  7.4794033      11.219094      14.958807      1255.2253    
        19   0             -395.82667      1.6232649      1.2319263      2.405942       1.2319263     -4.2512845e-12  2.3711239e-11 -1.4665159e-11  7.4794033      11.219094      14.958807      1255.2253    
        20   0             -395.82667      1.6232649      1.2319263      2.405942       1.2319263     -4.1662588e-11  3.8634975e-11  1.981463e-11   7.4794033      11.219094      14.958807      1255.2253    
        21   0             -395.82667      1.6232649      1.2319263      2.405942       1.2319263     -1.4454367e-11 -1.2635956e-11 -3.7981065e-13  7.4794033      11.219094      14.958807      1255.2253    
        22   0             -395.82667      1.6232649      1.2319263      2.405942       1.2319263      1.3037273e-11  1.6510807e-11  9.8119936e-12  7.4794033      11.219094      14.958807      1255.2253    
        23   0             -395.82667      1.6232649      1.2319263      2.405942       1.2319263     -4.392994e-11  -1.5140643e-11  4.6991657e-11  7.4794033      11.219094      14.958807      1255.2253    
        24   0             -395.82667      1.6232649      1.2319263      2.405942       1.2319263     -2.2956936e-11 -8.5703144e-12  3.9890736e-12  7.4794033      11.219094      14.958807      1255.2253    
        25   0             -395.82667      1.6232649      1.2319263      2.405942       1.2319263      2.9758992e-11 -3.8469545e-11 -2.3065973e-11  7.4794033      11.219094      14.958807      1255.2253    
        26   0             -395.82667      1.6232649      1.2319263      2.405942       1.2319263      3.4010276e-11 -5.3571016e-11 -2.9005866e-11  7.4794033      11.219094      14.958807      1255.2253    
        27   0             -395.82667      1.6232649      1.2319263      2.405942       1.2319263      2.6924802e-11 -6.74718e-12    2.0760171e-11  7.4794033      11.219094      14.958807      1255.2253    
        28   0             -395.82667      1.6232649      1.2319263      2.405942       1.2319263     -1.7288557e-11  5.8091284e-11  4.0170323e-12  7.4794033      11.219094      14.958807      1255.2253    
        29   0             -395.82667      1.6232649      1.2319263      2.405942       1.2319263     -4.5347035e-12 -5.841477e-11  -1.2327882e-11  7.4794033      11.219094      14.958807      1255.2253    
        30   0             -395.82667      1.6232649      1.2319263      2.405942       1.2319263      2.2390099e-11 -2.7551095e-12 -7.4624566e-12  7.4794033      11.219094      14.958807      1255.2253    
        31   0             -395.82667      1.6232649      1.2319263      2.405942       1.2319263      5.9517984e-12  5.3929004e-12  1.3518189e-11  7.4794033      11.219094      14.958807      1255.2253    
Loop time of 0.0260048 on 4 procs for 30 steps with 96 atoms

60.1% CPU use with 4 MPI tasks x 1 OpenMP threads

Minimization stats:
  Stopping criterion = force tolerance
  Energy initial, next-to-last, final = 
     -395.826671154463  -395.826671204739  -395.826671204739
  Force two-norm initial, final = 0.001330969 4.5858424e-11
  Force max component initial, final = 0.00022632417 1.2248647e-11
  Final line search alpha, max atom move = 1 1.2248647e-11
  Iterations, force evaluations = 30 60

MPI task timing breakdown:
Section |  min time  |  avg time  |  max time  |%varavg| %total
---------------------------------------------------------------
Pair    | 0.022054   | 0.022931   | 0.024155   |   0.6 | 88.18
Neigh   | 0          | 0          | 0          |   0.0 |  0.00
Comm    | 0.001171   | 0.0023918  | 0.003262   |   1.8 |  9.20
Output  | 0.000288   | 0.00029775 | 0.000323   |   0.0 |  1.14
Modify  | 0          | 0          | 0          |   0.0 |  0.00
Other   |            | 0.0003838  |            |       |  1.48

Nlocal:             24 ave          31 max          19 min
Histogram: 2 0 0 0 0 1 0 0 0 1
Nghost:            581 ave         586 max         574 min
Histogram: 1 0 0 0 1 0 0 0 0 2
Neighs:           1032 ave        1352 max         801 min
Histogram: 2 0 0 0 0 0 1 0 0 1
FullNghs:         2064 ave        2666 max        1634 min
Histogram: 2 0 0 0 0 1 0 0 0 1

Total # of neighbors = 8256
Ave neighs/atom = 86
Neighbor list builds = 0
Dangerous builds = 0

# Obtain new stress tensor

variable tmp equal pxx
variable pxx1 equal ${tmp}
variable pxx1 equal 1.23192630593374
variable tmp equal pyy
variable pyy1 equal ${tmp}
variable pyy1 equal 2.40594199181002
variable tmp equal pzz
variable pzz1 equal ${tmp}
variable pzz1 equal 1.23192630579203
variable tmp equal pxy
variable pxy1 equal ${tmp}
variable pxy1 equal 5.95179835082971e-12
variable tmp equal pxz
variable pxz1 equal ${tmp}
variable pxz1 equal 5.39290043382311e-12
variable tmp equal pyz
variable pyz1 equal ${tmp}
variable pyz1 equal 1.3518188762065e-11

# Compute elastic constant from pressure tensor

variable C1neg equal ${d1}
variable C1neg equal 123.192630585869
variable C2neg equal ${d2}
variable C2neg equal 240.594199152985
variable C3neg equal ${d3}
variable C3neg equal 123.192630577365
variable C4neg equal ${d4}
variable C4neg equal 5.73595167013585e-09
variable C5neg equal ${d5}
variable C5neg equal 4.37164208365146e-09
variable C6neg equal ${d6}
variable C6neg equal 1.98082431409117e-09

# Reset box and simulation parameters

clear
  using 1 OpenMP thread(s) per MPI task
Loaded 1 plugins from C:\Program Files\LAMMPS 64-bit 23Jun2022\plugins
Loaded 0 plugins from C:\Program Files\LAMMPS 64-bit 23Jun2022-MPI\plugins
Loaded 1 plugins from C:\Program Files\LAMMPS 64-bit 22Dec2022-MSMPI\plugins
Loaded 1 plugins from C:\Program Files\LAMMPS 64-bit 28Mar2023-MPI\plugins
box tilt large

The 'box' command has been removed and will be ignored

read_restart restart.equil
Reading restart file ...
  restart file = 22 Dec 2022, LAMMPS = 22 Dec 2022
  restoring atom style atomic from restart
  triclinic box = (-0.0076893158 -0.0076893158 -0.0076893158) to (7.4717139 11.211416 14.951117) with tilt (0 0 0)
  1 by 2 by 2 MPI processor grid
  pair style meam stores no restart info
  96 atoms
  read_restart CPU = 0.000 seconds
include potential.mod
# NOTE: This script can be modified for different pair styles
# See in.elastic for more info.

# Choose potential
#-----------------------
#pair_style	sw
#pair_coeff * * Si.sw Si
#-----------------------
#pair_style morse	2.83994742	# D0[eV] a[1/A] r0[A] rc[A], 1NN for BCC
#pair_coeff 1 1	2.1173	1.0202	2.4595	2.6497	#	Fe-Fe
#-----------------------
#pair_style smatb # R0(A)   p       q     A(eV)   xi(eV)  Rcs(A)   Rc(A), 4NN: Rcs=4NN, Rc=(4NN+5NN)/2
#pair_coeff 1 1	2.4802	7.0149	2.3779	0.3144	3.0551	4.033	4.176	#	Co	Co
#-----------------------
#pair_style eam/alloy
#pair_coeff * * AlCrFeCoNi_Zhou04.eam.alloy Fe
#-----------------------
pair_style meam
pair_coeff * * ./../../library.meam Ni Sn ./../../NiSn.meam Ni Sn
#-----------------------

# Setup neighbor style
neighbor 1.0 nsq
neigh_modify once no every 1 delay 0 check yes

# Setup minimization style
min_style	     cg
min_modify	     dmax ${dmax} line quadratic
min_modify	     dmax 0.01 line quadratic

# Setup output
thermo		1
thermo_style custom step temp pe press pxx pyy pzz pxy pxz pyz lx ly lz vol
thermo_modify norm no

# Positive deformation

variable delta equal ${up}*${len0}
variable delta equal 1e-06*${len0}
variable delta equal 1e-06*11.2191048947686
variable deltaxy equal ${up}*xy
variable deltaxy equal 1e-06*xy
variable deltaxz equal ${up}*xz
variable deltaxz equal 1e-06*xz
variable deltayz equal ${up}*yz
variable deltayz equal 1e-06*yz
if "${dir} == 1" then    "change_box all x delta 0 ${delta} xy delta ${deltaxy} xz delta ${deltaxz} remap units box"
if "${dir} == 2" then    "change_box all y delta 0 ${delta} yz delta ${deltayz} remap units box"
change_box all y delta 0 ${delta} yz delta ${deltayz} remap units box
change_box all y delta 0 1.12191048947686e-05 yz delta ${deltayz} remap units box
change_box all y delta 0 1.12191048947686e-05 yz delta 0 remap units box
Changing box ...
  triclinic box = (-0.0076893158 -0.0076893158 -0.0076893158) to (7.4717139 11.211427 14.951117) with tilt (0 0 0)
  triclinic box = (-0.0076893158 -0.0076893158 -0.0076893158) to (7.4717139 11.211427 14.951117) with tilt (0 0 0)
if "${dir} == 3" then    "change_box all z delta 0 ${delta} remap units box"
if "${dir} == 4" then    "change_box all yz delta ${delta} remap units box"
if "${dir} == 5" then    "change_box all xz delta ${delta} remap units box"
if "${dir} == 6" then    "change_box all xy delta ${delta} remap units box"

# Relax atoms positions

minimize ${etol} ${ftol} ${maxiter} ${maxeval}
minimize 0 ${ftol} ${maxiter} ${maxeval}
minimize 0 1e-10 ${maxiter} ${maxeval}
minimize 0 1e-10 100 ${maxeval}
minimize 0 1e-10 100 1000
Neighbor list info ...
  update: every = 1 steps, delay = 0 steps, check = yes
  max neighbors/atom: 2000, page size: 100000
  master list distance cutoff = 6.5
  ghost atom cutoff = 6.5
  2 neighbor lists, perpetual/occasional/extra = 2 0 0
  (1) pair meam, perpetual
      attributes: full, newton on
      pair build: full/nsq
      stencil: none
      bin: none
  (2) pair meam, perpetual, half/full from (1)
      attributes: half, newton on
      pair build: halffull/newton
      stencil: none
      bin: none
Per MPI rank memory allocation (min/avg/max) = 9.874 | 9.879 | 9.887 Mbytes
   Step          Temp          PotEng         Press           Pxx            Pyy            Pzz            Pxy            Pxz            Pyz             Lx             Ly             Lz           Volume    
         1   0             -395.82667     -1.6230344     -1.2316986     -2.4057052     -1.2316994      3.0332033e-07 -5.1066862e-07 -1.0561317e-05  7.4794033      11.219116      14.958807      1255.2278    
         2   0             -395.82667     -1.6232071     -1.2318711     -2.4058791     -1.2318712      1.9748067e-06 -2.539129e-06   2.6657075e-08  7.4794033      11.219116      14.958807      1255.2278    
         3   0             -395.82667     -1.6232439     -1.2319085     -2.4059157     -1.2319074     -1.4590663e-07  4.9147091e-07 -1.6343474e-06  7.4794033      11.219116      14.958807      1255.2278    
         4   0             -395.82667     -1.623251      -1.2319154     -2.405923      -1.2319148     -2.1342256e-07  5.8395677e-08 -4.1876769e-07  7.4794033      11.219116      14.958807      1255.2278    
         5   0             -395.82667     -1.6232531     -1.2319172     -2.405925      -1.231917      -1.8059732e-07  8.1157395e-09 -2.1985206e-07  7.4794033      11.219116      14.958807      1255.2278    
         6   0             -395.82667     -1.6232535     -1.2319177     -2.4059255     -1.2319175     -6.9441476e-08  1.6645198e-08 -1.2177568e-07  7.4794033      11.219116      14.958807      1255.2278    
         7   0             -395.82667     -1.6232538     -1.2319178     -2.4059257     -1.2319177     -4.1988436e-09  8.9673964e-09 -3.2815487e-08  7.4794033      11.219116      14.958807      1255.2278    
         8   0             -395.82667     -1.6232538     -1.2319179     -2.4059258     -1.2319178     -7.8960367e-10  5.0357629e-09 -7.7442675e-09  7.4794033      11.219116      14.958807      1255.2278    
         9   0             -395.82667     -1.6232539     -1.2319179     -2.4059258     -1.2319179     -1.8396688e-09  2.2717247e-09  3.4211002e-09  7.4794033      11.219116      14.958807      1255.2278    
        10   0             -395.82667     -1.6232539     -1.2319179     -2.4059259     -1.2319179     -1.9666403e-09  4.2284256e-10  4.3915746e-09  7.4794033      11.219116      14.958807      1255.2278    
        11   0             -395.82667     -1.6232539     -1.2319179     -2.4059259     -1.2319179     -1.3354675e-09 -1.1082097e-10  2.9740503e-09  7.4794033      11.219116      14.958807      1255.2278    
        12   0             -395.82667     -1.6232539     -1.2319179     -2.4059259     -1.2319179     -6.1360084e-10  1.4497677e-10  1.5846624e-09  7.4794033      11.219116      14.958807      1255.2278    
        13   0             -395.82667     -1.6232539     -1.2319179     -2.4059259     -1.2319179     -1.1308394e-10  8.4361691e-11  5.273115e-10   7.4794033      11.219116      14.958807      1255.2278    
        14   0             -395.82667     -1.6232539     -1.2319179     -2.4059259     -1.2319179      7.0854601e-11  6.4895691e-11  4.3378909e-11  7.4794033      11.219116      14.958807      1255.2278    
        15   0             -395.82667     -1.6232539     -1.2319179     -2.4059259     -1.2319179     -4.251276e-11  -2.7188844e-11 -1.0095185e-11  7.4794033      11.219116      14.958807      1255.2278    
        16   0             -395.82667     -1.6232539     -1.2319179     -2.4059259     -1.2319179      7.3688785e-12  3.034619e-11  -2.9890634e-11  7.4794033      11.219116      14.958807      1255.2278    
        17   0             -395.82667     -1.6232539     -1.2319179     -2.4059259     -1.2319179      0             -1.4888223e-11 -8.6135794e-11  7.4794033      11.219116      14.958807      1255.2278    
        18   0             -395.82667     -1.6232539     -1.2319179     -2.4059259     -1.2319179      2.3240309e-11  2.7848314e-12  5.8128048e-11  7.4794033      11.219116      14.958807      1255.2278    
        19   0             -395.82667     -1.6232539     -1.2319179     -2.4059259     -1.2319179     -1.417092e-12  -7.7578479e-12  3.1176712e-11  7.4794033      11.219116      14.958807      1255.2278    
        20   0             -395.82667     -1.6232539     -1.2319179     -2.4059259     -1.2319179     -1.5304594e-11 -4.5938829e-11 -3.2344494e-12  7.4794033      11.219116      14.958807      1255.2278    
        21   0             -395.82667     -1.6232539     -1.2319179     -2.4059259     -1.2319179      2.2106635e-11 -3.7950198e-11  8.4289038e-12  7.4794033      11.219116      14.958807      1255.2278    
        22   0             -395.82667     -1.6232539     -1.2319179     -2.4059259     -1.2319179     -8.2191337e-12 -2.0763045e-11 -1.1000596e-11  7.4794033      11.219116      14.958807      1255.2278    
        23   0             -395.82667     -1.6232539     -1.2319179     -2.4059259     -1.2319179     -4.251276e-12  -1.821688e-11   1.1095764e-11  7.4794033      11.219116      14.958807      1255.2278    
        24   0             -395.82667     -1.6232539     -1.2319179     -2.4059259     -1.2319179      2.4657401e-11  1.0502499e-11  8.8643932e-12  7.4794033      11.219116      14.958807      1255.2278    
        25   0             -395.82667     -1.6232539     -1.2319179     -2.4059259     -1.2319179      7.6522969e-12  3.0231051e-12 -2.6426033e-12  7.4794033      11.219116      14.958807      1255.2278    
        26   0             -395.82667     -1.6232539     -1.2319179     -2.4059259     -1.2319179     -5.668368e-12   3.9300375e-11  2.8786887e-12  7.4794033      11.219116      14.958807      1255.2278    
        27   0             -395.82667     -1.6232539     -1.2319179     -2.4059259     -1.2319179      3.0042351e-11 -7.6471246e-12  4.1787296e-11  7.4794033      11.219116      14.958807      1255.2278    
        28   0             -395.82667     -1.6232539     -1.2319179     -2.4059259     -1.2319179      3.0892606e-11  2.0422749e-11 -9.8775223e-13  7.4794033      11.219116      14.958807      1255.2278    
        29   0             -395.82667     -1.6232539     -1.2319179     -2.4059259     -1.2319179      1.3037247e-11  1.3492374e-11  8.2996495e-12  7.4794033      11.219116      14.958807      1255.2278    
        30   0             -395.82667     -1.6232539     -1.2319179     -2.4059259     -1.2319179      6.5186233e-12  2.4325893e-11  1.3432383e-11  7.4794033      11.219116      14.958807      1255.2278    
        31   0             -395.82667     -1.6232539     -1.2319179     -2.4059259     -1.2319179     -1.7288523e-11 -6.6129791e-11  4.7410814e-11  7.4794033      11.219116      14.958807      1255.2278    
Loop time of 0.0260407 on 4 procs for 30 steps with 96 atoms

90.0% CPU use with 4 MPI tasks x 1 OpenMP threads

Minimization stats:
  Stopping criterion = force tolerance
  Energy initial, next-to-last, final = 
     -395.826671154463  -395.826671204739  -395.826671204739
  Force two-norm initial, final = 0.0013309595 4.5841263e-11
  Force max component initial, final = 0.00022632314 1.2222889e-11
  Final line search alpha, max atom move = 1 1.2222889e-11
  Iterations, force evaluations = 30 60

MPI task timing breakdown:
Section |  min time  |  avg time  |  max time  |%varavg| %total
---------------------------------------------------------------
Pair    | 0.022068   | 0.023038   | 0.024357   |   0.6 | 88.47
Neigh   | 0          | 0          | 0          |   0.0 |  0.00
Comm    | 0.001057   | 0.0023765  | 0.003339   |   2.0 |  9.13
Output  | 0.000279   | 0.0002925  | 0.000323   |   0.0 |  1.12
Modify  | 0          | 0          | 0          |   0.0 |  0.00
Other   |            | 0.0003335  |            |       |  1.28

Nlocal:             24 ave          31 max          19 min
Histogram: 2 0 0 0 0 1 0 0 0 1
Nghost:            581 ave         586 max         574 min
Histogram: 1 0 0 0 1 0 0 0 0 2
Neighs:           1032 ave        1352 max         801 min
Histogram: 2 0 0 0 0 0 1 0 0 1
FullNghs:         2064 ave        2666 max        1634 min
Histogram: 2 0 0 0 0 1 0 0 0 1

Total # of neighbors = 8256
Ave neighs/atom = 86
Neighbor list builds = 0
Dangerous builds = 0

# Obtain new stress tensor

variable tmp equal pe
variable e1 equal ${tmp}
variable e1 equal -395.826671204739
variable tmp equal press
variable p1 equal ${tmp}
variable p1 equal -1.62325389953263
variable tmp equal pxx
variable pxx1 equal ${tmp}
variable pxx1 equal -1.23191791223373
variable tmp equal pyy
variable pyy1 equal ${tmp}
variable pyy1 equal -2.40592587405675
variable tmp equal pzz
variable pzz1 equal ${tmp}
variable pzz1 equal -1.23191791230742
variable tmp equal pxy
variable pxy1 equal ${tmp}
variable pxy1 equal -1.72885225372352e-11
variable tmp equal pxz
variable pxz1 equal ${tmp}
variable pxz1 equal -6.61297914355665e-11
variable tmp equal pyz
variable pyz1 equal ${tmp}
variable pyz1 equal 4.74108138062879e-11

# Compute elastic constant from pressure tensor

variable C1pos equal ${d1}
variable C1pos equal 123.191791230878
variable C2pos equal ${d2}
variable C2pos equal 240.592587433692
variable C3pos equal ${d3}
variable C3pos equal 123.19179123258
variable C4pos equal ${d4}
variable C4pos equal -9.12521417455814e-09
variable C5pos equal ${d5}
variable C5pos equal 2.7806271032875e-09
variable C6pos equal ${d6}
variable C6pos equal 3.4320777471532e-10

# Combine positive and negative

variable C1${dir} equal 0.5*(${C1neg}+${C1pos})
variable C12 equal 0.5*(${C1neg}+${C1pos})
variable C12 equal 0.5*(123.192630585869+${C1pos})
variable C12 equal 0.5*(123.192630585869+123.191791230878)
variable C2${dir} equal 0.5*(${C2neg}+${C2pos})
variable C22 equal 0.5*(${C2neg}+${C2pos})
variable C22 equal 0.5*(240.594199152985+${C2pos})
variable C22 equal 0.5*(240.594199152985+240.592587433692)
variable C3${dir} equal 0.5*(${C3neg}+${C3pos})
variable C32 equal 0.5*(${C3neg}+${C3pos})
variable C32 equal 0.5*(123.192630577365+${C3pos})
variable C32 equal 0.5*(123.192630577365+123.19179123258)
variable C4${dir} equal 0.5*(${C4neg}+${C4pos})
variable C42 equal 0.5*(${C4neg}+${C4pos})
variable C42 equal 0.5*(5.73595167013585e-09+${C4pos})
variable C42 equal 0.5*(5.73595167013585e-09+-9.12521417455814e-09)
variable C5${dir} equal 0.5*(${C5neg}+${C5pos})
variable C52 equal 0.5*(${C5neg}+${C5pos})
variable C52 equal 0.5*(4.37164208365146e-09+${C5pos})
variable C52 equal 0.5*(4.37164208365146e-09+2.7806271032875e-09)
variable C6${dir} equal 0.5*(${C6neg}+${C6pos})
variable C62 equal 0.5*(${C6neg}+${C6pos})
variable C62 equal 0.5*(1.98082431409117e-09+${C6pos})
variable C62 equal 0.5*(1.98082431409117e-09+3.4320777471532e-10)

# Delete dir to make sure it is not reused

variable dir delete

# uzz Perturbation

variable dir equal 3
include displace.mod
# NOTE: This script should not need to be
# modified. See in.elastic for more info.
#
# Find which reference length to use

if "${dir} == 1" then    "variable len0 equal ${lx0}"
if "${dir} == 2" then    "variable len0 equal ${ly0}"
if "${dir} == 3" then    "variable len0 equal ${lz0}"
variable len0 equal ${lz0}
variable len0 equal 14.9588065263582
if "${dir} == 4" then    "variable len0 equal ${lz0}"
if "${dir} == 5" then    "variable len0 equal ${lz0}"
if "${dir} == 6" then    "variable len0 equal ${ly0}"

# Reset box and simulation parameters

clear
  using 1 OpenMP thread(s) per MPI task
Loaded 1 plugins from C:\Program Files\LAMMPS 64-bit 23Jun2022\plugins
Loaded 0 plugins from C:\Program Files\LAMMPS 64-bit 23Jun2022-MPI\plugins
Loaded 1 plugins from C:\Program Files\LAMMPS 64-bit 22Dec2022-MSMPI\plugins
Loaded 1 plugins from C:\Program Files\LAMMPS 64-bit 28Mar2023-MPI\plugins
box tilt large

The 'box' command has been removed and will be ignored

read_restart restart.equil
Reading restart file ...
  restart file = 22 Dec 2022, LAMMPS = 22 Dec 2022
  restoring atom style atomic from restart
  triclinic box = (-0.0076893158 -0.0076893158 -0.0076893158) to (7.4717139 11.211416 14.951117) with tilt (0 0 0)
  1 by 2 by 2 MPI processor grid
  pair style meam stores no restart info
  96 atoms
  read_restart CPU = 0.000 seconds
include potential.mod
# NOTE: This script can be modified for different pair styles
# See in.elastic for more info.

# Choose potential
#-----------------------
#pair_style	sw
#pair_coeff * * Si.sw Si
#-----------------------
#pair_style morse	2.83994742	# D0[eV] a[1/A] r0[A] rc[A], 1NN for BCC
#pair_coeff 1 1	2.1173	1.0202	2.4595	2.6497	#	Fe-Fe
#-----------------------
#pair_style smatb # R0(A)   p       q     A(eV)   xi(eV)  Rcs(A)   Rc(A), 4NN: Rcs=4NN, Rc=(4NN+5NN)/2
#pair_coeff 1 1	2.4802	7.0149	2.3779	0.3144	3.0551	4.033	4.176	#	Co	Co
#-----------------------
#pair_style eam/alloy
#pair_coeff * * AlCrFeCoNi_Zhou04.eam.alloy Fe
#-----------------------
pair_style meam
pair_coeff * * ./../../library.meam Ni Sn ./../../NiSn.meam Ni Sn
#-----------------------

# Setup neighbor style
neighbor 1.0 nsq
neigh_modify once no every 1 delay 0 check yes

# Setup minimization style
min_style	     cg
min_modify	     dmax ${dmax} line quadratic
min_modify	     dmax 0.01 line quadratic

# Setup output
thermo		1
thermo_style custom step temp pe press pxx pyy pzz pxy pxz pyz lx ly lz vol
thermo_modify norm no

# Negative deformation

variable delta equal -${up}*${len0}
variable delta equal -1e-06*${len0}
variable delta equal -1e-06*14.9588065263582
variable deltaxy equal -${up}*xy
variable deltaxy equal -1e-06*xy
variable deltaxz equal -${up}*xz
variable deltaxz equal -1e-06*xz
variable deltayz equal -${up}*yz
variable deltayz equal -1e-06*yz
if "${dir} == 1" then    "change_box all x delta 0 ${delta} xy delta ${deltaxy} xz delta ${deltaxz} remap units box"
if "${dir} == 2" then    "change_box all y delta 0 ${delta} yz delta ${deltayz} remap units box"
if "${dir} == 3" then    "change_box all z delta 0 ${delta} remap units box"
change_box all z delta 0 ${delta} remap units box
change_box all z delta 0 -1.49588065263582e-05 remap units box
Changing box ...
  triclinic box = (-0.0076893158 -0.0076893158 -0.0076893158) to (7.4717139 11.211416 14.951102) with tilt (0 0 0)
if "${dir} == 4" then    "change_box all yz delta ${delta} remap units box"
if "${dir} == 5" then    "change_box all xz delta ${delta} remap units box"
if "${dir} == 6" then    "change_box all xy delta ${delta} remap units box"

# Relax atoms positions

minimize ${etol} ${ftol} ${maxiter} ${maxeval}
minimize 0 ${ftol} ${maxiter} ${maxeval}
minimize 0 1e-10 ${maxiter} ${maxeval}
minimize 0 1e-10 100 ${maxeval}
minimize 0 1e-10 100 1000
Neighbor list info ...
  update: every = 1 steps, delay = 0 steps, check = yes
  max neighbors/atom: 2000, page size: 100000
  master list distance cutoff = 6.5
  ghost atom cutoff = 6.5
  2 neighbor lists, perpetual/occasional/extra = 2 0 0
  (1) pair meam, perpetual
      attributes: full, newton on
      pair build: full/nsq
      stencil: none
      bin: none
  (2) pair meam, perpetual, half/full from (1)
      attributes: half, newton on
      pair build: halffull/newton
      stencil: none
      bin: none
Per MPI rank memory allocation (min/avg/max) = 9.874 | 9.879 | 9.887 Mbytes
   Step          Temp          PotEng         Press           Pxx            Pyy            Pzz            Pxy            Pxz            Pyz             Lx             Ly             Lz           Volume    
         1   0             -395.82667      1.6234843      1.2321456      1.232147       2.4061605      3.0324469e-07 -5.1063267e-07 -1.0561461e-05  7.4794033      11.219105      14.958792      1255.2253    
         2   0             -395.82667      1.6233116      1.2319731      1.2319731      2.4059888      1.9747171e-06 -2.5390929e-06  2.6663201e-08  7.4794033      11.219105      14.958792      1255.2253    
         3   0             -395.82667      1.6232749      1.2319357      1.2319365      2.4059525     -1.458885e-07   4.9148951e-07 -1.6343217e-06  7.4794033      11.219105      14.958792      1255.2253    
         4   0             -395.82667      1.6232677      1.2319288      1.2319292      2.4059451     -2.1345303e-07  5.8389884e-08 -4.187441e-07   7.4794033      11.219105      14.958792      1255.2253    
         5   0             -395.82667      1.6232657      1.231927       1.2319272      2.4059429     -1.8060307e-07  8.0621402e-09 -2.1987615e-07  7.4794033      11.219105      14.958792      1255.2253    
         6   0             -395.82667      1.6232652      1.2319265      1.2319267      2.4059424     -6.9432829e-08  1.6616947e-08 -1.2175054e-07  7.4794033      11.219105      14.958792      1255.2253    
         7   0             -395.82667      1.623265       1.2319264      1.2319265      2.4059422     -4.2028199e-09  9.0490918e-09 -3.2862745e-08  7.4794033      11.219105      14.958792      1255.2253    
         8   0             -395.82667      1.6232649      1.2319263      1.2319264      2.4059421     -8.0349278e-10  5.0227864e-09 -7.7694983e-09  7.4794033      11.219105      14.958792      1255.2253    
         9   0             -395.82667      1.6232649      1.2319263      1.2319263      2.405942      -1.8416565e-09  2.2559162e-09  3.4388269e-09  7.4794033      11.219105      14.958792      1255.2253    
        10   0             -395.82667      1.6232649      1.2319263      1.2319263      2.405942      -1.9544572e-09  4.6831769e-10  4.3518221e-09  7.4794033      11.219105      14.958792      1255.2253    
        11   0             -395.82667      1.6232649      1.2319263      1.2319263      2.405942      -1.3842182e-09 -6.1720241e-11  2.9563758e-09  7.4794033      11.219105      14.958792      1255.2253    
        12   0             -395.82667      1.6232649      1.2319263      1.2319263      2.405942      -6.4052687e-10  1.3598768e-10  1.531724e-09   7.4794033      11.219105      14.958792      1255.2253    
        13   0             -395.82667      1.6232649      1.2319263      1.2319263      2.405942      -1.3264008e-10  8.1642896e-11  4.9671765e-10  7.4794033      11.219105      14.958792      1255.2253    
        14   0             -395.82667      1.6232649      1.2319263      1.2319263      2.405942       2.3523774e-11  1.8219308e-11  8.804078e-12   7.4794033      11.219105      14.958792      1255.2253    
        15   0             -395.82667      1.6232649      1.2319263      1.2319263      2.405942       1.7005138e-12 -8.9750695e-12 -2.9773064e-11  7.4794033      11.219105      14.958792      1255.2253    
        16   0             -395.82667      1.6232649      1.2319263      1.2319263      2.405942       1.9839328e-12  3.0786753e-11 -4.048676e-11   7.4794033      11.219105      14.958792      1255.2253    
        17   0             -395.82667      1.6232649      1.2319263      1.2319263      2.405942      -3.6277628e-11  2.5451089e-11 -1.9726887e-11  7.4794033      11.219105      14.958792      1255.2253    
        18   0             -395.82667      1.6232649      1.2319263      1.2319263      2.405942       3.4010276e-11  7.3824959e-11  1.1509268e-12  7.4794033      11.219105      14.958792      1255.2253    
        19   0             -395.82667      1.6232649      1.2319263      1.2319263      2.405942      -1.4170948e-11 -1.2668862e-11  1.649446e-11   7.4794033      11.219105      14.958792      1255.2253    
        20   0             -395.82667      1.6232649      1.2319263      1.2319263      2.405942       1.64383e-11   -9.2857856e-12  4.4706125e-12  7.4794033      11.219105      14.958792      1255.2253    
        21   0             -395.82667      1.6232649      1.2319263      1.2319263      2.405942      -5.1015414e-12  2.9332834e-11 -1.1974023e-11  7.4794033      11.219105      14.958792      1255.2253    
        22   0             -395.82667      1.6232649      1.2319263      1.2319263      2.405942      -1.64383e-11    6.5734583e-11 -3.2102202e-11  7.4794033      11.219105      14.958792      1255.2253    
        23   0             -395.82667      1.6232649      1.2319263      1.2319263      2.405942       1.2470435e-11  8.9666408e-12  1.3660469e-11  7.4794033      11.219105      14.958792      1255.2253    
        24   0             -395.82667      1.6232649      1.2319263      1.2319263      2.405942      -2.210668e-11  -2.6607694e-11  1.0426714e-11  7.4794033      11.219105      14.958792      1255.2253    
        25   0             -395.82667      1.6232649      1.2319263      1.2319263      2.405942      -3.0892668e-11  3.801193e-11   1.7987435e-11  7.4794033      11.219105      14.958792      1255.2253    
        26   0             -395.82667      1.6232649      1.2319263      1.2319263      2.405942      -2.8341897e-11  1.0281337e-11  4.5083514e-11  7.4794033      11.219105      14.958792      1255.2253    
        27   0             -395.82667      1.6232649      1.2319263      1.2319263      2.405942       2.0122747e-11 -1.0340827e-11 -2.4281683e-11  7.4794033      11.219105      14.958792      1255.2253    
[...]
if "${dir} == 5" then    "change_box all xz delta ${delta} remap units box"
if "${dir} == 6" then    "change_box all xy delta ${delta} remap units box"
change_box all xy delta ${delta} remap units box
change_box all xy delta 1.12191048947686e-05 remap units box
Changing box ...
  triclinic box = (-0.0076893158 -0.0076893158 -0.0076893158) to (7.4717139 11.211416 14.951117) with tilt (1.1219105e-05 0 0)

# Relax atoms positions

minimize ${etol} ${ftol} ${maxiter} ${maxeval}
minimize 0 ${ftol} ${maxiter} ${maxeval}
minimize 0 1e-10 ${maxiter} ${maxeval}
minimize 0 1e-10 100 ${maxeval}
minimize 0 1e-10 100 1000
Neighbor list info ...
  update: every = 1 steps, delay = 0 steps, check = yes
  max neighbors/atom: 2000, page size: 100000
  master list distance cutoff = 6.5
  ghost atom cutoff = 6.5
  2 neighbor lists, perpetual/occasional/extra = 2 0 0
  (1) pair meam, perpetual
      attributes: full, newton on
      pair build: full/nsq
      stencil: none
      bin: none
  (2) pair meam, perpetual, half/full from (1)
      attributes: half, newton on
      pair build: halffull/newton
      stencil: none
      bin: none
Per MPI rank memory allocation (min/avg/max) = 9.874 | 9.879 | 9.887 Mbytes
   Step          Temp          PotEng         Press           Pxx            Pyy            Pzz            Pxy            Pxz            Pyz             Lx             Ly             Lz           Volume    
         1   0             -395.82667      0.00022128535  0.00022181515  0.00022471349  0.0002173274  -1.0395478     -5.106996e-07  -1.0561471e-05  7.4794033      11.219105      14.958807      1255.2265    
         2   0             -395.82667      4.8564443e-05  4.9316468e-05  5.0792198e-05  4.5584663e-05 -1.0395461     -2.5391474e-06  2.6661239e-08  7.4794033      11.219105      14.958807      1255.2265    
         3   0             -395.82667      1.1851211e-05  1.1984103e-05  1.4193141e-05  9.3763891e-06 -1.0395482      4.9148783e-07 -1.6343461e-06  7.4794033      11.219105      14.958807      1255.2265    
         4   0             -395.82667      4.6565794e-06  5.0883392e-06  6.9354735e-06  1.9459255e-06 -1.0395483      5.8423272e-08 -4.1880309e-07  7.4794033      11.219105      14.958807      1255.2265    
         5   0             -395.82667      2.6351563e-06  3.2282409e-06  4.9117592e-06 -2.3453123e-07 -1.0395483      8.0732146e-09 -2.1977991e-07  7.4794033      11.219105      14.958807      1255.2265    
         6   0             -395.82667      2.1624867e-06  2.7818689e-06  4.448275e-06  -7.4268393e-07 -1.0395482      1.6655196e-08 -1.2173314e-07  7.4794033      11.219105      14.958807      1255.2265    
         7   0             -395.82667      1.9534846e-06  2.6240387e-06  4.2243799e-06 -9.8796466e-07 -1.0395481      9.0204952e-09 -3.2881927e-08  7.4794033      11.219105      14.958807      1255.2265    
         8   0             -395.82667      1.873612e-06   2.5760117e-06  4.1259554e-06 -1.0811312e-06 -1.0395481      5.0143025e-09 -7.746061e-09   7.4794033      11.219105      14.958807      1255.2265    
         9   0             -395.82667      1.8372962e-06  2.5582289e-06  4.080274e-06  -1.1266142e-06 -1.0395481      2.2692427e-09  3.4506135e-09  7.4794033      11.219105      14.958807      1255.2265    
        10   0             -395.82667      1.8219638e-06  2.5528065e-06  4.0613399e-06 -1.1482549e-06 -1.0395481      4.2758256e-10  4.3947071e-09  7.4794033      11.219105      14.958807      1255.2265    
        11   0             -395.82667      1.8135977e-06  2.5513418e-06  4.0515801e-06 -1.1621288e-06 -1.0395481     -6.7173792e-11  2.988894e-09   7.4794033      11.219105      14.958807      1255.2265    
        12   0             -395.82667      1.8100876e-06  2.5511684e-06  4.0474087e-06 -1.1683142e-06 -1.0395481      1.4912566e-10  1.5318594e-09  7.4794033      11.219105      14.958807      1255.2265    
        13   0             -395.82667      1.8084614e-06  2.5512488e-06  4.0454344e-06 -1.1712991e-06 -1.0395481      1.0004965e-10  5.0837495e-10  7.4794033      11.219105      14.958807      1255.2265    
        14   0             -395.82667      1.807353e-06   2.5512103e-06  4.0440094e-06 -1.1731606e-06 -1.0395481      4.8629208e-11  2.0429611e-11  7.4794033      11.219105      14.958807      1255.2265    
        15   0             -395.82667      1.8068544e-06  2.5510505e-06  4.0434579e-06 -1.1739451e-06 -1.0395481      5.5551256e-11 -3.0109477e-11  7.4794033      11.219105      14.958807      1255.2265    
        16   0             -395.82667      1.8065795e-06  2.5509099e-06  4.043065e-06  -1.1742365e-06 -1.0395481      6.1903738e-11 -4.2633309e-11  7.4794033      11.219105      14.958807      1255.2265    
        17   0             -395.82667      1.8066048e-06  2.5508555e-06  4.0431569e-06 -1.1741979e-06 -1.0395481      1.1701681e-11  7.2295875e-11  7.4794033      11.219105      14.958807      1255.2265    
        18   0             -395.82667      1.8064712e-06  2.5507704e-06  4.0430135e-06 -1.1743703e-06 -1.0395481      2.4337533e-11  2.5880235e-11  7.4794033      11.219105      14.958807      1255.2265    
        19   0             -395.82667      1.8065201e-06  2.5508124e-06  4.0430548e-06 -1.1743068e-06 -1.0395481      4.2030192e-11  3.5171456e-11  7.4794033      11.219105      14.958807      1255.2265    
        20   0             -395.82667      1.8064712e-06  2.5508067e-06  4.0429738e-06 -1.1743669e-06 -1.0395481      1.0888993e-11 -2.074975e-11   7.4794033      11.219105      14.958807      1255.2265    
        21   0             -395.82667      1.806382e-06   2.5507636e-06  4.0429012e-06 -1.1745188e-06 -1.0395481     -1.9095533e-11 -2.3015919e-12  7.4794033      11.219105      14.958807      1255.2265    
        22   0             -395.82667      1.8064553e-06  2.5507806e-06  4.0429817e-06 -1.1743963e-06 -1.0395481     -2.2930378e-12 -1.6982002e-11  7.4794033      11.219105      14.958807      1255.2265    
        23   0             -395.82667      1.806523e-06   2.5508124e-06  4.0430316e-06 -1.174275e-06  -1.0395481     -1.4006062e-11  4.3418933e-11  7.4794033      11.219105      14.958807      1255.2265    
        24   0             -395.82667      1.8064878e-06  2.5508396e-06  4.0430282e-06 -1.1744043e-06 -1.0395481      1.6220357e-11  3.8459219e-11  7.4794033      11.219105      14.958807      1255.2265    
        25   0             -395.82667      1.8064136e-06  2.5507444e-06  4.0429347e-06 -1.1744383e-06 -1.0395481      5.0898919e-11 -8.1560586e-12  7.4794033      11.219105      14.958807      1255.2265    
        26   0             -395.82667      1.806478e-06   2.5507376e-06  4.0430588e-06 -1.1743623e-06 -1.0395481     -4.4746455e-11  1.5357655e-11  7.4794033      11.219105      14.958807      1255.2265    
        27   0             -395.82667      1.8064296e-06  2.5507285e-06  4.042967e-06  -1.1744065e-06 -1.0395481     -2.0430995e-11  2.7716234e-11  7.4794033      11.219105      14.958807      1255.2265    
        28   0             -395.82667      1.8064266e-06  2.5507772e-06  4.0429919e-06 -1.1744893e-06 -1.0395481      8.7082528e-12  1.438358e-11   7.4794033      11.219105      14.958807      1255.2265    
        29   0             -395.82667      1.8065358e-06  2.5508305e-06  4.0430418e-06 -1.1742648e-06 -1.0395481      3.4272146e-11  2.7481134e-11  7.4794033      11.219105      14.958807      1255.2265    
        30   0             -395.82667      1.8064843e-06  2.5507886e-06  4.0430242e-06 -1.1743601e-06 -1.0395481     -5.3104149e-11  8.1377351e-12  7.4794033      11.219105      14.958807      1255.2265    
        31   0             -395.82667      1.8064731e-06  2.5507795e-06  4.0429829e-06 -1.1743431e-06 -1.0395481      4.6405057e-11  3.531445e-11   7.4794033      11.219105      14.958807      1255.2265    
Loop time of 0.02599 on 4 procs for 30 steps with 96 atoms

60.1% CPU use with 4 MPI tasks x 1 OpenMP threads

Minimization stats:
  Stopping criterion = force tolerance
  Energy initial, next-to-last, final = 
     -395.826671154998  -395.826671205274  -395.826671205274
  Force two-norm initial, final = 0.0013309642 4.5850633e-11
  Force max component initial, final = 0.00022632343 1.2284174e-11
  Final line search alpha, max atom move = 1 1.2284174e-11
  Iterations, force evaluations = 30 60

MPI task timing breakdown:
Section |  min time  |  avg time  |  max time  |%varavg| %total
---------------------------------------------------------------
Pair    | 0.022181   | 0.02307    | 0.024262   |   0.6 | 88.77
Neigh   | 0          | 0          | 0          |   0.0 |  0.00
Comm    | 0.001101   | 0.0022785  | 0.003165   |   1.8 |  8.77
Output  | 0.000304   | 0.00031225 | 0.000335   |   0.0 |  1.20
Modify  | 0          | 0          | 0          |   0.0 |  0.00
Other   |            | 0.000329   |            |       |  1.27

Nlocal:             24 ave          31 max          19 min
Histogram: 2 0 0 0 0 1 0 0 0 1
Nghost:            581 ave         586 max         574 min
Histogram: 1 0 0 0 1 0 0 0 0 2
Neighs:           1032 ave        1352 max         801 min
Histogram: 2 0 0 0 0 0 1 0 0 1
FullNghs:         2064 ave        2666 max        1634 min
Histogram: 2 0 0 0 0 1 0 0 0 1

Total # of neighbors = 8256
Ave neighs/atom = 86
Neighbor list builds = 0
Dangerous builds = 0

# Obtain new stress tensor

variable tmp equal pe
variable e1 equal ${tmp}
variable e1 equal -395.826671205274
variable tmp equal press
variable p1 equal ${tmp}
variable p1 equal 1.80647310223655e-06
variable tmp equal pxx
variable pxx1 equal ${tmp}
variable pxx1 equal 2.55077950776087e-06
variable tmp equal pyy
variable pyy1 equal ${tmp}
variable pyy1 equal 4.04298285566533e-06
variable tmp equal pzz
variable pzz1 equal ${tmp}
variable pzz1 equal -1.17434305671654e-06
variable tmp equal pxy
variable pxy1 equal ${tmp}
variable pxy1 equal -1.03954808383683
variable tmp equal pxz
variable pxz1 equal ${tmp}
variable pxz1 equal 4.6405057014252e-11
variable tmp equal pyz
variable pyz1 equal ${tmp}
variable pyz1 equal 3.53144499975825e-11

# Compute elastic constant from pressure tensor

variable C1pos equal ${d1}
variable C1pos equal -0.000255070445523856
variable C2pos equal ${d2}
variable C2pos equal -0.0004042702687925
variable C3pos equal ${d3}
variable C3pos equal 0.000117436143464694
variable C4pos equal ${d4}
variable C4pos equal -7.9155777936876e-09
variable C5pos equal ${d5}
variable C5pos equal -8.47285774169435e-09
variable C6pos equal ${d6}
variable C6pos equal 103.954808382297

# Combine positive and negative

variable C1${dir} equal 0.5*(${C1neg}+${C1pos})
variable C16 equal 0.5*(${C1neg}+${C1pos})
variable C16 equal 0.5*(0.000255070218788907+${C1pos})
variable C16 equal 0.5*(0.000255070218788907+-0.000255070445523856)
variable C2${dir} equal 0.5*(${C2neg}+${C2pos})
variable C26 equal 0.5*(${C2neg}+${C2pos})
variable C26 equal 0.5*(0.000404268511596649+${C2pos})
variable C26 equal 0.5*(0.000404268511596649+-0.0004042702687925)
variable C3${dir} equal 0.5*(${C3neg}+${C3pos})
variable C36 equal 0.5*(${C3neg}+${C3pos})
variable C36 equal 0.5*(-0.000117436143464694+${C3pos})
variable C36 equal 0.5*(-0.000117436143464694+0.000117436143464694)
variable C4${dir} equal 0.5*(${C4neg}+${C4pos})
variable C46 equal 0.5*(${C4neg}+${C4pos})
variable C46 equal 0.5*(5.96132690184344e-09+${C4pos})
variable C46 equal 0.5*(5.96132690184344e-09+-7.9155777936876e-09)
variable C5${dir} equal 0.5*(${C5neg}+${C5pos})
variable C56 equal 0.5*(${C5neg}+${C5pos})
variable C56 equal 0.5*(3.41353234362702e-09+${C5pos})
variable C56 equal 0.5*(3.41353234362702e-09+-8.47285774169435e-09)
variable C6${dir} equal 0.5*(${C6neg}+${C6pos})
variable C66 equal 0.5*(${C6neg}+${C6pos})
variable C66 equal 0.5*(103.954808384218+${C6pos})
variable C66 equal 0.5*(103.954808384218+103.954808382297)

# Delete dir to make sure it is not reused

variable dir delete

# Output final values

variable C11all equal ${C11}
variable C11all equal 240.593393283872
variable C22all equal ${C22}
variable C22all equal 240.593393293338
variable C33all equal ${C33}
variable C33all equal 240.59339328818

variable C12all equal 0.5*(${C12}+${C21})
variable C12all equal 0.5*(123.192210908373+${C21})
variable C12all equal 0.5*(123.192210908373+123.192210904802)
variable C13all equal 0.5*(${C13}+${C31})
variable C13all equal 0.5*(123.192210910358+${C31})
variable C13all equal 0.5*(123.192210910358+123.192210906729)
variable C23all equal 0.5*(${C23}+${C32})
variable C23all equal 0.5*(123.192210906389+${C32})
variable C23all equal 0.5*(123.192210906389+123.192210904972)

variable C44all equal ${C44}
variable C44all equal 103.95480838249
variable C55all equal ${C55}
variable C55all equal 103.954808386363
variable C66all equal ${C66}
variable C66all equal 103.954808383258

variable C14all equal 0.5*(${C14}+${C41})
variable C14all equal 0.5*(1.24704221700079e-09+${C41})
variable C14all equal 0.5*(1.24704221700079e-09+2.78668033312017e-09)
variable C15all equal 0.5*(${C15}+${C51})
variable C15all equal 0.5*(1.07699100551921e-09+${C51})
variable C15all equal 0.5*(1.07699100551921e-09+3.51715216424113e-09)
variable C16all equal 0.5*(${C16}+${C61})
variable C16all equal 0.5*(-1.13367474506272e-10+${C61})
variable C16all equal 0.5*(-1.13367474506272e-10+-2.66413737413735e-09)

variable C24all equal 0.5*(${C24}+${C42})
variable C24all equal 0.5*(3.8828359935118e-09+${C42})
variable C24all equal 0.5*(3.8828359935118e-09+-1.69463125221115e-09)
variable C25all equal 0.5*(${C25}+${C52})
variable C25all equal 0.5*(-5.38495503498218e-10+${C52})
variable C25all equal 0.5*(-5.38495503498218e-10+3.57613459346948e-09)
variable C26all equal 0.5*(${C26}+${C62})
variable C26all equal 0.5*(-8.78597925505929e-10+${C62})
variable C26all equal 0.5*(-8.78597925505929e-10+1.16201604440325e-09)

variable C34all equal 0.5*(${C34}+${C43})
variable C34all equal 0.5*(1.30372595398966e-09+${C43})
variable C34all equal 0.5*(1.30372595398966e-09+-4.23122221380422e-09)
variable C35all equal 0.5*(${C35}+${C53})
variable C35all equal 0.5*(2.04061453647794e-09+${C53})
variable C35all equal 0.5*(2.04061453647794e-09+-6.0073024586167e-10)
variable C36all equal 0.5*(${C36}+${C63})
variable C36all equal 0.5*(0+${C63})
variable C36all equal 0.5*(0+3.06092064320258e-09)

variable C45all equal 0.5*(${C45}+${C54})
variable C45all equal 0.5*(-1.55635243811672e-09+${C54})
variable C45all equal 0.5*(-1.55635243811672e-09+-2.70340973576373e-09)
variable C46all equal 0.5*(${C46}+${C64})
variable C46all equal 0.5*(-9.7712544592208e-10+${C64})
variable C46all equal 0.5*(-9.7712544592208e-10+1.44543529690762e-09)
variable C56all equal 0.5*(${C56}+${C65})
variable C56all equal 0.5*(-2.52966269903367e-09+${C65})
variable C56all equal 0.5*(-2.52966269903367e-09+-1.5871446397417e-09)

# Average moduli for cubic crystals

variable C11cubic equal (${C11all}+${C22all}+${C33all})/3.0
variable C11cubic equal (240.593393283872+${C22all}+${C33all})/3.0
variable C11cubic equal (240.593393283872+240.593393293338+${C33all})/3.0
variable C11cubic equal (240.593393283872+240.593393293338+240.59339328818)/3.0
variable C12cubic equal (${C12all}+${C13all}+${C23all})/3.0
variable C12cubic equal (123.192210906587+${C13all}+${C23all})/3.0
variable C12cubic equal (123.192210906587+123.192210908544+${C23all})/3.0
variable C12cubic equal (123.192210906587+123.192210908544+123.19221090568)/3.0
variable C44cubic equal (${C44all}+${C55all}+${C66all})/3.0
variable C44cubic equal (103.95480838249+${C55all}+${C66all})/3.0
variable C44cubic equal (103.95480838249+103.954808386363+${C66all})/3.0
variable C44cubic equal (103.95480838249+103.954808386363+103.954808383258)/3.0

variable bulkmodulus equal (${C11cubic}+2*${C12cubic})/3.0
variable bulkmodulus equal (240.593393288463+2*${C12cubic})/3.0
variable bulkmodulus equal (240.593393288463+2*123.192210906937)/3.0
variable shearmodulus1 equal ${C44cubic}
variable shearmodulus1 equal 103.954808384037
variable shearmodulus2 equal (${C11cubic}-${C12cubic})/2.0
variable shearmodulus2 equal (240.593393288463-${C12cubic})/2.0
variable shearmodulus2 equal (240.593393288463-123.192210906937)/2.0
variable poissonratio equal 1.0/(1.0+${C11cubic}/${C12cubic})
variable poissonratio equal 1.0/(1.0+240.593393288463/${C12cubic})
variable poissonratio equal 1.0/(1.0+240.593393288463/123.192210906937)

# For Stillinger-Weber silicon, the analytical results
# are known to be (E. R. Cowley, 1988):
#               C11 = 151.4 GPa
#               C12 = 76.4 GPa
#               C44 = 56.4 GPa

print "========================================="
=========================================
print "Components of the Elastic Constant Tensor"
Components of the Elastic Constant Tensor
print "========================================="
=========================================

print "Elastic Constant C11all = ${C11all} ${cunits}"
Elastic Constant C11all = 240.593393283872 GPa
print "Elastic Constant C22all = ${C22all} ${cunits}"
Elastic Constant C22all = 240.593393293338 GPa
print "Elastic Constant C33all = ${C33all} ${cunits}"
Elastic Constant C33all = 240.59339328818 GPa

print "Elastic Constant C12all = ${C12all} ${cunits}"
Elastic Constant C12all = 123.192210906587 GPa
print "Elastic Constant C13all = ${C13all} ${cunits}"
Elastic Constant C13all = 123.192210908544 GPa
print "Elastic Constant C23all = ${C23all} ${cunits}"
Elastic Constant C23all = 123.19221090568 GPa

print "Elastic Constant C44all = ${C44all} ${cunits}"
Elastic Constant C44all = 103.95480838249 GPa
print "Elastic Constant C55all = ${C55all} ${cunits}"
Elastic Constant C55all = 103.954808386363 GPa
print "Elastic Constant C66all = ${C66all} ${cunits}"
Elastic Constant C66all = 103.954808383258 GPa

print "Elastic Constant C14all = ${C14all} ${cunits}"
Elastic Constant C14all = 2.01686127506048e-09 GPa
print "Elastic Constant C15all = ${C15all} ${cunits}"
Elastic Constant C15all = 2.29707158488017e-09 GPa
print "Elastic Constant C16all = ${C16all} ${cunits}"
Elastic Constant C16all = -1.38875242432181e-09 GPa

print "Elastic Constant C24all = ${C24all} ${cunits}"
Elastic Constant C24all = 1.09410237065033e-09 GPa
print "Elastic Constant C25all = ${C25all} ${cunits}"
Elastic Constant C25all = 1.51881954498563e-09 GPa
print "Elastic Constant C26all = ${C26all} ${cunits}"
Elastic Constant C26all = 1.4170905944866e-10 GPa

print "Elastic Constant C34all = ${C34all} ${cunits}"
Elastic Constant C34all = -1.46374812990728e-09 GPa
print "Elastic Constant C35all = ${C35all} ${cunits}"
Elastic Constant C35all = 7.19942145308135e-10 GPa
print "Elastic Constant C36all = ${C36all} ${cunits}"
Elastic Constant C36all = 1.53046032160129e-09 GPa

print "Elastic Constant C45all = ${C45all} ${cunits}"
Elastic Constant C45all = -2.12988108694023e-09 GPa
print "Elastic Constant C46all = ${C46all} ${cunits}"
Elastic Constant C46all = 2.3415492549277e-10 GPa
print "Elastic Constant C56all = ${C56all} ${cunits}"
Elastic Constant C56all = -2.05840366938768e-09 GPa

print "========================================="
=========================================
print "Average properties for a cubic crystal"
Average properties for a cubic crystal
print "========================================="
=========================================

print "Bulk Modulus = ${bulkmodulus} ${cunits}"
Bulk Modulus = 162.325938367446 GPa
print "Shear Modulus 1 = ${shearmodulus1} ${cunits}"
Shear Modulus 1 = 103.954808384037 GPa
print "Shear Modulus 2 = ${shearmodulus2} ${cunits}"
Shear Modulus 2 = 58.700591190763 GPa
print "Poisson Ratio = ${poissonratio}"
Poisson Ratio = 0.338639598395891
Total wall time: 0:00:00
