ITEM: TIMESTEP
0
ITEM: NUMBER OF ATOMS
18000
ITEM: BOX BOUNDS pp pp pp
3.8770670919711314e-01 2.6953293290802861e+01
3.9147452347699918e-01 2.6949525476522584e+01
4.7340534707412019e+00 3.2335794652926813e+02
ITEM: ATOMS id type x y z c_peratom fx fy fz 
362 3 5.75378 5.67853 9.95716 -29.5314 0.241669 0.0369733 1.006 
1801 2 5.68281 3.0422 7.39062 -25.0672 0.104969 0.743933 -0.195406 
3061 3 3.09134 5.90686 7.43251 -29.0779 -0.0983893 -1.41599 -0.705497 
4502 2 2.97744 3.06668 9.97691 -25.4005 1.00871 0.865028 1.26319 
6001 1 1.77171 1.66633 6.02412 -7.82966 0.887376 0.119778 0.528012 
7501 1 4.36928 4.48006 8.84626 -7.50429 0.404095 -1.60356 -0.999101 
9001 1 4.31776 4.44565 6.13331 -7.76463 -0.323024 0.483025 0.184965 
10501 1 1.66334 1.82815 8.71378 -7.68363 0.499254 -0.371391 -0.745335 
12001 1 4.29605 1.64318 8.71548 -8.39087 0.519548 0.711143 -0.548335 
13501 1 1.63858 4.41295 5.96417 -7.77911 -0.00860909 0.423451 -0.367408 
15001 1 1.76542 4.46988 8.60439 -7.70317 -0.423854 0.456082 0.982106 
16501 1 4.4325 1.81942 6.04245 -7.89962 -1.09606 -0.922648 -0.205196 
6002 1 1.77191 1.78942 11.3665 -7.61995 0.140446 -1.38639 0.361768 
6301 1 6.98334 1.70143 5.93425 -7.81118 0.0324119 -0.867611 1.3508 
13801 1 7.01489 4.38662 5.99266 -7.76186 0.603441 -0.243724 -0.0673182 
3001 3 3.14297 0.473229 7.25448 -28.8397 -1.16665 -1.32015 0.823881 
13802 1 6.95762 4.42798 11.2729 -7.47325 0.498653 -0.999629 -0.168474 
62 2 0.424305 5.8557 10.0515 -24.9625 0.664482 -0.987594 -0.587428 
12061 1 4.52971 6.95185 8.68606 -7.69162 -0.611138 0.92645 -0.530648 
16562 1 4.58329 7.00199 11.2462 -7.28303 -0.892665 0.525975 0.30409 
302 2 5.69495 0.441952 10.0005 -25.2853 0.247851 -1.77004 0.558633 
2 3 0.519634 0.517514 9.96211 -29.5425 -0.641755 -1.01794 0.219806 
1 3 0.445829 0.455062 4.74042 -29.4803 -0.716584 -0.462934 0.222083 
10801 1 7.10403 1.67536 8.71745 -8.2481 -0.834121 -0.0436309 -0.384473 
15301 1 7.04186 4.31794 8.58032 -7.67775 0.183284 0.417884 0.902295 
662 2 11.1447 5.67623 10.0707 -24.8587 -0.567885 1.3995 -0.182422 
2101 3 11.0644 3.04642 7.36336 -29.1624 -0.45407 0.0227764 0.019548 
3361 3 8.48207 5.73986 7.41574 -29.191 -0.242739 -0.227522 -0.607709 
4802 2 8.35377 3.01983 10.0651 -25.2927 0.814766 0.902191 0.0946231 
6601 1 12.3572 1.56933 6.02831 -8.06635 0.48597 0.871059 0.0783361 
7801 1 9.69112 4.48992 8.76767 -7.5626 -0.843477 -0.186976 0.221826 
9301 1 9.77842 4.42662 6.12552 -7.48807 -0.487312 -0.00467956 0.166796 
11101 1 12.5065 1.75168 8.66397 -7.63299 -0.730243 -0.453437 -0.226262 
12301 1 9.79295 1.74409 8.71473 -7.83228 0.127687 -0.0687891 -0.0502735 
14101 1 12.4302 4.35896 6.08631 -8.01849 0.221393 -0.262667 -0.426642 
15601 1 12.2198 4.34905 8.65052 -7.58612 1.6311 0.208852 0.439108 
16801 1 9.63986 1.81175 6.06633 -7.64561 0.856239 -0.891502 0.301357 
661 2 11.076 5.71121 4.75409 -25.7051 -0.472229 -0.101161 -0.201614 
14102 1 12.4906 4.48146 11.3636 -8.16981 0.30244 -0.0133532 0.439411 
10861 1 7.28285 6.9444 8.77828 -7.72992 -0.682717 -0.352864 -0.721151 
6602 1 12.4682 1.75672 11.3305 -7.67731 -0.439711 -0.55546 0.231362 
6362 1 7.16054 6.95469 11.3716 -7.70372 0.615818 0.756443 0.2152 
3661 2 13.7337 5.75008 7.42843 -25.575 1.23921 -0.414556 -0.735566 
5102 2 13.797 3.00416 10.0672 -25.429 0.604307 1.29166 -0.382039 
5101 2 13.7637 3.08355 4.78629 -25.1854 0.394933 -0.227099 -0.674017 
962 2 16.5372 5.81067 10.0347 -25.289 -0.595171 0.280347 -0.343838 
2401 3 16.6114 3.0768 7.44391 -29.0371 -1.67188 -0.355795 -0.729673 
3961 3 19.0346 5.59614 7.36321 -29.6249 0.540426 1.34433 0.220526 
5402 2 19.1797 3.05582 9.99257 -25.3219 0.390906 0.486775 0.597813 
6901 1 17.8572 1.64002 6.11227 -7.84558 0.218881 0.106501 0.132289 
8101 1 15.0579 4.43329 8.7332 -7.68993 0.151933 -0.0348157 0.68369 
9601 1 15.1877 4.42099 6.14884 -7.23678 -0.803293 -0.728694 -0.159425 
11401 1 17.8059 1.72385 8.73778 -7.78475 -0.0399179 0.239814 -0.425166 
12601 1 15.1577 1.71082 8.72814 -7.73459 0.516753 0.908533 -0.532157 
14401 1 17.7388 4.25912 6.09952 -7.61063 0.635007 0.198461 -0.193323 
15901 1 17.7864 4.36876 8.66906 -8.05729 -0.36866 0.240511 0.489491 
17101 1 15.2173 1.72949 5.96613 -7.86736 -0.486501 0.55937 0.51933 
17461 1 20.236 6.98839 6.14809 -7.59298 0.69554 0.0974321 -0.0319134 
6961 1 17.6546 6.86814 6.10092 -7.46888 -0.58945 0.738132 -0.227051 
17161 1 15.0149 6.99332 5.91224 -7.25376 0.808669 0.143232 0.702234 
3601 2 13.8371 0.44267 7.35194 -25.4736 -0.567885 -0.815277 0.0693275 
14402 1 17.869 4.52956 11.35 -7.93538 0.251312 0.055835 0.437899 
5401 2 19.11 3.07704 4.75183 -25.3457 -1.14066 -1.28616 0.16217 
901 3 16.5171 0.394127 4.7913 -29.1364 -0.623845 0.143917 -0.346668 
8401 1 20.3989 4.41083 8.66299 -7.62925 0.353956 -0.0855785 0.492824 
17401 1 20.5484 1.69011 5.9841 -7.56007 -0.309089 1.15655 -0.209643 
17402 1 20.4625 1.61697 11.3672 -7.70506 -0.763768 1.35019 0.177254 
1501 2 26.911 3.10304 7.33438 -25.5944 0.764193 0.493926 -0.477839 
9901 1 20.3552 4.3597 6.09724 -7.78409 0.18356 -0.0151061 -0.513313 
1262 3 21.7223 5.8218 10.027 -29.7181 -0.35141 -0.414707 0.354022 
2701 3 21.7941 3.09941 7.3026 -29.5033 -0.41115 -0.264205 0.569028 
4261 3 24.3505 5.79044 7.41571 -29.3345 -0.331998 -0.0244531 -0.904915 
5702 2 24.3548 3.15752 9.9732 -25.5609 -0.505131 -0.196875 0.995695 
7201 1 23.1756 1.70169 6.10759 -7.64743 -0.371317 0.250612 -1.09991 
8701 1 25.6227 4.51658 8.67559 -7.8094 0.658629 -0.0980831 0.7264 
10201 1 25.5742 4.42543 6.08611 -7.66122 -0.446432 0.0739245 -0.782732 
11701 1 22.9782 1.84847 8.7134 -7.49498 0.335318 -0.236988 -0.274529 
12901 1 20.4031 1.72672 8.56021 -7.48263 -0.244078 0.22082 0.556128 
13201 1 25.6656 1.80127 8.63452 -7.70303 -0.698388 -0.669243 0.475202 
14701 1 22.925 4.32539 6.03974 -7.46963 0.487637 0.131636 0.125752 
16201 1 23.0565 4.53449 8.74267 -7.46159 -0.468575 -0.225967 -1.27861 
17701 1 25.7944 1.67929 5.98437 -7.40776 -1.00421 0.934007 -0.238805 
7261 1 22.939 6.9764 6.11105 -7.4558 0.332774 -0.0340687 0.450286 
17702 1 25.7934 1.95809 11.2608 -7.42794 -0.583556 -0.662772 0.160601 
1201 3 21.7115 0.421033 4.77998 -29.4011 -0.376973 0.187558 -0.0830602 
14702 1 22.9341 4.48564 11.2842 -7.26455 2.20776 -0.876473 0.763281 
7202 1 23.0524 1.68491 11.3684 -7.38487 1.0178 1.23905 0.223083 
422 2 5.80107 11.1199 10.028 -25.5401 -0.0590445 -0.853698 0.10687 
1861 2 5.74216 8.30956 7.44458 -25.4016 1.20901 0.563633 -0.950499 
3121 3 3.12554 10.9922 7.33276 -29.196 -0.12069 1.46284 -0.0447265 
4562 2 3.0495 8.51106 10.0901 -24.9468 0.787386 -1.36002 -0.373213 
6061 1 1.79612 7.10668 6.03739 -7.89893 -0.203057 0.0879274 -0.303933 
6121 1 1.82007 12.3493 5.97927 -7.14751 -0.349937 0.121726 1.26548 
7561 1 4.41546 9.63467 8.80398 -7.94989 -0.369497 1.10332 -0.988114 
9061 1 4.47369 9.78473 6.15339 -7.62385 -0.236784 -0.192788 0.109374 
10561 1 1.77542 7.13144 8.6328 -8.04104 0.940436 0.629235 0.92506 
10621 1 1.85996 12.5231 8.64834 -7.54478 0.340995 -0.405137 0.145074 
12121 1 4.50861 12.3996 8.51139 -7.4828 -0.954175 -1.26041 0.549876 
13561 1 1.86942 9.80611 6.00515 -8.05263 -0.452605 -1.22733 -0.115095 
15061 1 1.69211 9.86425 8.68999 -8.03606 0.671165 -0.121076 0.195392 
16561 1 4.41138 7.15107 6.03521 -7.68924 -0.303012 -0.353328 -0.010552 
16621 1 4.41838 12.3807 5.88255 -7.47542 0.0531189 -0.0032973 -0.0921618 
6122 1 1.86201 12.2687 11.2872 -7.45356 -0.416026 -0.171404 -0.721107 
421 3 5.6883 10.9748 4.76178 -29.4879 0.164894 1.03187 -0.400788 
121 3 0.480495 11.0482 4.75346 -29.175 0.102655 0.376956 0.0466983 
122 3 0.407931 11.1027 10.0981 -29.2317 0.244317 0.109932 -0.830255 
1561 2 0.482078 8.47808 7.29261 -25.2293 -0.512106 -0.155513 -0.0535763 
16622 1 4.49408 12.4827 11.1957 -7.38462 -0.380109 -0.914007 -0.279346 
6361 1 7.12016 7.03477 6.02974 -7.39887 -0.301058 -0.651899 1.01445 
6421 1 7.06182 12.4395 6.07727 -7.78598 0.167936 -0.617279 0.0842172 
10921 1 7.11224 12.4055 8.69885 -7.69161 0.210765 0.14726 0.224345 
13861 1 7.09077 9.66167 6.01459 -7.52969 -0.116992 1.01709 1.32997 
16861 1 9.78 7.0627 6.0428 -7.71627 0.38677 0.191878 0.292083 
12361 1 9.90646 7.16219 8.6685 -8.0658 0.088185 -0.0554343 1.16974 
15361 1 7.08175 9.58575 8.82335 -7.65528 -0.345902 0.747647 -1.12825 
721 2 11.0729 11.0676 4.87049 -25.7597 1.16303 0.47686 -0.436704 
722 3 11.0539 11.0263 10.1028 -29.598 0.21156 0.577739 0.481157 
2161 3 11.1694 8.34527 7.47115 -29.1357 -0.0901358 1.09578 -0.602745 
3421 2 8.35306 11.0593 7.46507 -25.4471 0.904688 -0.269486 -0.541241 
4862 2 8.48117 8.30767 10.1426 -25.2997 0.1126 1.73681 -0.761321 
6661 1 12.4957 7.1338 6.1636 -7.59226 -1.30972 0.0203439 -0.0155979 
6721 1 12.4556 12.4388 6.11569 -7.52785 -0.696111 0.410969 1.24972 
7861 1 9.68216 9.93175 8.86538 -7.43333 -0.0501475 -1.08774 0.156525 
9361 1 9.79592 9.76626 6.17049 -7.56209 -0.160429 -0.960957 0.643258 
11161 1 12.5606 7.06566 8.76881 -7.97701 -0.528971 0.365717 0.967501 
11221 1 12.4314 12.3178 8.79999 -7.94725 -0.896457 -0.385339 -0.613256 
12421 1 9.7949 12.544 8.88002 -7.62419 -0.0106247 -0.271352 -0.398221 
14161 1 12.4677 9.80709 6.27227 -7.40744 -0.223705 -0.589863 -0.551034 
15661 1 12.211 9.74554 8.77263 -7.41381 0.254461 -0.89616 0.423966 
16921 1 9.80006 12.4028 6.14721 -7.85958 -0.559318 0.00283027 0.534037 
3721 3 13.5906 11.0328 7.52829 -29.4463 0.854852 -0.298103 -0.747074 
6422 1 7.23391 12.4244 11.306 -7.87553 -0.274485 0.0157111 0.168001 
5222 2 13.6397 13.6391 10.0721 -25.4427 0.546937 0.266727 0.654022 
14162 1 12.6212 9.82304 11.3107 -7.64951 -0.811696 -0.628504 0.577203 
5162 3 13.7813 8.45552 10.1012 -29.1298 -0.441791 0.155664 -0.0991133 
5161 3 13.7867 8.38632 4.77011 -29.8666 -0.194263 0.496392 0.113316 
1022 3 16.3613 11.0472 9.92175 -28.7749 -0.047836 0.230056 1.02321 
2461 3 16.3593 8.38105 7.40124 -29.0469 0.122914 -0.525888 -0.72345 
4021 2 18.996 10.9803 7.34479 -25.1478 0.597692 0.778548 -0.201871 
5462 3 19.0939 8.4984 10.0431 -29.3454 -0.18915 -1.22132 -0.111407 
7021 1 17.6056 12.3919 6.03156 -7.97903 0.0633186 -0.821598 -0.339847 
8161 1 14.8161 9.74907 8.84469 -7.89571 0.818697 0.0840652 0.0555234 
9661 1 15.0947 9.5752 6.16913 -7.46437 0.0454225 0.154197 0.147504 
11461 1 17.9449 7.05332 8.67467 -7.55309 -1.40133 0.366411 0.396145 
11521 1 17.9085 12.396 8.62479 -7.73084 -1.86129 -0.0195764 0.950159 
12661 1 15.1868 7.1642 8.64229 -7.95226 0.688313 -0.270486 0.0215551 
12721 1 15.0362 12.3178 8.74482 -8.03869 1.04937 -0.195174 -0.0645809 
14461 1 17.6884 9.60172 6.08598 -7.92338 0.0178584 0.198778 -0.54895 
15961 1 17.5242 9.77866 8.58629 -8.06228 -0.457409 -0.501924 0.957267 
17221 1 14.9689 12.204 6.09694 -7.5867 0.538842 0.861762 0.5642 
8461 1 20.2685 9.68908 8.72112 -8.03674 -0.539478 0.633773 -0.365874 
1021 3 16.3192 10.9718 4.79049 -29.4044 -0.316066 -0.124266 -0.120653 
5461 2 19.0435 8.30761 4.78563 -25.388 -0.693542 -0.550803 0.175033 
17522 1 20.2373 12.4156 11.254 -7.55851 0.692953 -0.571476 0.835924 
2521 2 16.2982 13.6623 7.32271 -25.2852 0.871175 0.138772 1.01165 
14462 1 17.7524 9.8168 11.1948 -7.73356 0.00595365 0.437947 0.0447853 
6962 1 17.7769 7.29147 11.2871 -7.66247 -0.96635 -0.897672 0.434223 
7022 1 17.6325 12.4224 11.3198 -7.80249 -0.918175 0.397822 -0.139631 
17162 1 15.0821 7.18728 11.2766 -7.94495 0.217494 -0.853714 0.0340079 
12961 1 20.4762 7.07596 8.74623 -7.31049 0.490041 -0.167915 0.96927 
9961 1 20.403 9.74055 5.98802 -7.89789 -0.0115099 -0.170035 0.788799 
13021 1 20.4826 12.4113 8.72784 -7.7394 0.549293 -0.10391 -0.600059 
17521 1 20.337 12.3938 5.98387 -7.73194 0.41494 -0.442049 1.21495 
17761 1 25.6793 7.10449 5.94273 -7.89973 -0.119674 0.328144 0.441067 
1322 3 21.6536 11.0633 10.0325 -29.1561 0.0708108 0.0582259 0.0872786 
2761 2 21.6348 8.42368 7.36767 -25.4722 0.681551 -1.3884 -0.324547 
4321 3 24.3416 10.9919 7.32625 -29.1458 0.48883 0.752671 0.175309 
5762 2 24.2999 8.44876 9.9774 -25.3224 0.396341 0.621913 0.787375 
7321 1 23.1019 12.43 5.96353 -7.87205 -0.919912 -0.96964 1.22366 
8761 1 25.6113 9.72964 8.54545 -7.56637 -0.552494 0.279163 0.48407 
10261 1 25.7322 9.82653 5.99053 -7.98651 0.135454 -0.699063 -0.874614 
11761 1 23.0988 7.10763 8.74225 -7.80036 -0.36476 0.0168183 -0.208977 
11821 1 23.2266 12.3512 8.67882 -7.56582 -1.22103 0.0871174 -0.51043 
13261 1 25.7371 7.12532 8.63438 -7.72551 -0.642939 -0.0639821 0.201848 
13321 1 25.8181 12.3822 8.77332 -7.33535 0.0107605 -0.117846 0.235553 
14761 1 23.0871 9.63958 5.95583 -7.82675 0.202106 0.4116 0.760832 
16261 1 22.8745 9.7806 8.66604 -7.88447 0.582517 0.0678554 -0.230905 
17821 1 25.7364 12.423 6.09899 -7.74824 -0.092219 0.0625448 -0.287511 
10262 1 25.5864 9.89121 11.1788 -7.60958 0.239058 0.0373413 0.210968 
9962 1 20.3828 9.72053 11.2871 -7.6692 0.111627 0.303392 0.85126 
7322 1 22.9871 12.3722 11.323 -7.93574 -0.169388 -0.590772 0.0341138 
14762 1 22.983 9.73527 11.3052 -7.73513 -0.257302 -0.0970974 0.793872 
1621 2 0.475044 13.7416 7.35263 -25.5798 0.675323 -0.402014 -0.143877 
482 2 5.71645 16.2932 9.90647 -25.7643 0.813003 1.15942 -0.0320643 
1921 2 5.69961 13.7923 7.26186 -25.5397 0.522227 -0.512838 0.150454 
1981 3 5.76501 19.03 7.39749 -29.2569 -0.0582162 -0.508792 -0.108204 
3181 3 2.96556 16.4572 7.31346 -29.2959 1.76947 -0.815646 0.170917 
4622 3 3.03038 13.7323 9.95969 -29.5239 0.895685 -0.289981 -0.232576 
4681 2 3.06997 19.0379 4.83714 -25.0252 -0.163432 -0.636461 -1.24177 
4682 3 3.08037 19.1103 9.92526 -29.2084 0.429158 -1.00015 0.856711 
6181 1 1.7722 17.5988 6.04253 -7.90202 -0.355689 0.230722 0.216839 
7621 1 4.40753 15.0363 8.5611 -7.60485 -0.43709 0.214451 -0.269267 
9121 1 4.45483 15.0563 5.9158 -7.36441 0.347027 0.388737 0.28606 
10681 1 1.83284 17.912 8.62936 -7.96486 -0.332689 -0.153215 0.177672 
12181 1 4.43731 17.6635 8.65117 -7.27132 -0.57893 0.429671 -1.29695 
13621 1 1.91265 14.9727 5.99476 -7.50811 -1.20288 0.332117 0.288395 
15121 1 1.77227 15.1905 8.61602 -7.92856 -0.237357 0.350887 -0.109396 
16681 1 4.3754 17.6847 6.00211 -7.71134 0.19063 0.0915457 0.809394 
481 3 5.7923 16.419 4.77746 -29.4324 -0.673657 -0.404338 -0.690715 
6481 1 6.97417 17.8533 6.05559 -7.68167 0.471808 -0.514552 -0.829204 
182 2 0.413623 16.4163 9.9581 -25.2403 0.282649 0.452682 0.0853363 
1681 3 0.482729 19.1236 7.39123 -29.1903 -0.934878 0.00116652 -0.544952 
13681 1 1.74538 20.2458 6.21214 -8.14347 0.679447 0.400511 -0.701219 
13682 1 1.78186 20.2339 11.2894 -7.69144 -0.546916 0.425266 0.320315 
7681 1 4.50697 20.2694 8.68718 -8.14835 -0.967096 0.533847 0.191161 
9122 1 4.462 14.9961 11.1497 -7.406 -0.882062 0.212144 1.1798 
16682 1 4.34571 17.6862 11.1605 -7.30498 0.660602 0.410011 0.859882 
6182 1 1.74436 17.5777 11.3222 -7.74444 -1.1177 0.874034 -0.0678005 
13622 1 1.73363 14.904 11.2199 -7.704 -0.0679783 -0.119853 0.373357 
13921 1 7.08945 15.2005 6.05588 -8.10311 0.227337 -0.128916 -0.192754 
15421 1 7.2302 15.032 8.7176 -7.72632 -0.839252 -0.261362 -0.293941 
10981 1 7.03108 17.6205 8.57768 -7.46149 0.569301 0.189476 0.273311 
4922 3 8.44207 13.7507 10.022 -29.2461 0.604028 0.0833095 -0.0833205 
782 3 11.0244 16.3896 10.0893 -29.3293 0.0486834 -0.858692 -0.873757 
2221 3 11.0585 13.6718 7.46513 -29.3746 -0.231309 0.577239 0.268175 
2281 2 11.0353 18.9215 7.32608 -25.3953 0.735162 0.210139 0.742524 
3481 3 8.40522 16.3505 7.35308 -29.28 0.345441 0.093836 0.617946 
4982 3 8.39185 18.9593 9.99664 -29.3704 0.376562 0.434456 -0.09128 
6781 1 12.3398 17.5658 6.05512 -7.48244 0.30327 -0.192164 -0.591996 
7921 1 9.80885 15.1115 8.70749 -7.24124 -0.0905365 0.367138 0.487498 
9421 1 9.73994 14.9622 6.15267 -7.65418 -0.544552 0.441036 -0.812761 
11281 1 12.3611 17.5373 8.63997 -8.0057 0.0869605 0.302954 0.845574 
12481 1 9.68187 17.7141 8.66597 -7.90363 -0.144328 0.114333 0.166758 
14221 1 12.2913 15.0353 6.14816 -7.83661 1.11899 -0.564409 0.0557879 
15721 1 12.3738 14.9067 8.78039 -7.76368 0.15172 0.565467 -0.446975 
16981 1 9.68254 17.6083 6.00301 -7.96788 -0.413325 -0.659275 0.97246 
16982 1 9.78604 17.7048 11.3128 -7.6566 -0.705165 -0.704487 -0.048301 
4981 2 8.4443 19.0195 4.73487 -25.3601 -0.816348 -1.13917 0.220533 
14281 1 12.4775 20.1437 5.96784 -7.62801 0.135494 0.780654 0.585122 
781 3 11.0164 16.2593 4.81631 -29.319 -0.197894 1.31623 -0.175571 
3781 3 13.6615 16.2217 7.43053 -29.1565 0.104641 0.929923 -0.161982 
5282 2 13.6665 18.8958 10.0293 -25.3318 -0.514989 0.222652 -0.240077 
6482 1 7.13918 17.6562 11.2171 -7.73248 -0.298794 0.819324 0.0586823 
4921 2 8.40115 13.6985 4.7569 -25.4124 -0.3305 0.606223 -0.0470077 
15481 1 7.11859 20.2325 8.73457 -7.816 -0.197387 0.0124816 -0.463915 
9481 1 9.85745 20.2779 6.0166 -8.07062 -0.648243 0.965161 0.800799 
15781 1 12.3632 20.2999 8.73979 -7.83475 -0.365253 -0.391766 -0.49078 
14282 1 12.318 20.2829 11.367 -7.90341 0.115821 -0.0468615 0.404324 
6782 1 12.2752 17.5843 11.334 -7.65767 0.715679 0.687768 -0.412451 
9422 1 9.80007 15.0407 11.3522 -7.98026 -0.245845 -0.807053 -0.410211 
9482 1 9.72091 20.1954 11.2654 -7.4027 -0.309057 0.721368 0.907386 
5522 3 18.9957 13.7861 9.95926 -29.5462 0.438035 -0.296214 0.587807 
5221 3 13.7195 13.7948 4.90661 -28.9103 -0.358943 -1.26386 -0.96689 
1082 2 16.354 16.3475 10.0477 -25.7825 -0.135613 -0.790719 -0.608374 
2581 3 16.3506 18.9026 7.32256 -29.2152 0.122138 0.164515 0.466589 
4081 3 18.9499 16.3983 7.35335 -29.0823 0.195698 -0.18391 0.320645 
5521 2 18.9945 13.708 4.76173 -25.438 -0.226793 0.84544 -0.764733 
5582 3 18.9841 18.932 9.99433 -29.4905 0.28759 0.245888 0.529893 
7081 1 17.6165 17.8497 5.97795 -7.94747 -0.0413141 -1.24779 0.281016 
8221 1 15.0624 14.9388 8.71098 -7.53023 -0.985399 0.11358 0.0993542 
9721 1 14.9923 15.0296 6.15101 -8.23143 -0.774611 -0.372436 -1.02908 
11581 1 17.683 17.5187 8.62843 -7.56066 0.152351 0.678497 -0.548518 
12781 1 15.0719 17.5667 8.55499 -7.72643 -0.70782 0.231909 0.344975 
14521 1 17.6614 15.1204 6.11282 -7.83493 -0.408152 0.43436 -0.851769 
16021 1 17.6882 14.9885 8.72842 -7.30038 -0.0453087 -0.526287 0.0493864 
17281 1 15.0052 17.6574 5.9086 -7.38871 -0.208784 -0.183503 0.87394 
17581 1 20.2825 17.8184 6.07521 -8.14563 0.162272 -0.464595 0.856407 
9722 1 14.926 15.0553 11.3132 -7.53185 1.03831 -1.08924 0.408115 
5581 3 19.0056 19.0159 4.77924 -29.3913 0.396385 0.479161 -0.567057 
8521 1 20.2876 15.2153 8.70862 -7.60855 0.029541 -0.787529 -0.590506 
10021 1 20.2821 15.0746 6.03745 -7.70368 0.33934 0.620139 1.00068 
13081 1 20.2873 17.8424 8.8029 -7.82345 0.901153 -0.133167 -0.511899 
8281 1 15.0352 20.1963 8.76399 -7.69389 0.613732 0.00334529 -0.235225 
9781 1 15.1635 20.2826 6.17098 -7.78101 0.118849 0.112737 -0.407041 
16081 1 17.7558 20.0899 8.74655 -7.68411 -0.708067 0.924607 -0.346256 
7082 1 17.6296 17.7029 11.2685 -7.5483 0.35126 0.357233 0.22185 
17282 1 14.9149 17.5802 11.3245 -7.68937 0.359901 0.768452 0.173037 
5822 2 24.3399 13.701 10.0832 -25.5067 0.471744 -0.0351113 -0.930099 
2821 2 21.6695 13.726 7.37978 -25.2961 0.559971 0.499003 -0.171294 
5821 2 24.4172 13.7527 4.76261 -25.587 0.101995 0.364932 -1.39915 
1382 2 21.6881 16.412 10.0706 -25.402 -1.1691 -0.245389 -0.594716 
2881 2 21.6908 19.0999 7.35986 -25.3768 0.23384 0.104798 0.0843308 
4381 2 24.435 16.4832 7.34467 -25.5352 -0.605451 0.0904383 -0.305657 
5882 3 24.3707 19.1234 9.94513 -29.0106 0.122295 -0.0186052 0.383963 
7381 1 23.1104 17.7858 6.09434 -7.54379 -0.940316 0.123923 -0.276551 
8821 1 25.6329 15.0761 8.66164 -7.76955 0.344443 -0.0714162 -0.321862 
10321 1 25.7554 15.1853 5.99574 -7.98067 0.659416 -0.276218 0.106303 
11881 1 23.0859 17.8132 8.74517 -7.78482 -0.395148 -0.392844 0.189155 
13381 1 25.7714 17.822 8.59132 -8.11614 -0.0679067 0.117508 0.804086 
14821 1 23.0332 15.1515 5.98571 -7.62011 0.0794612 -0.821153 1.19687 
16321 1 22.9557 15.0855 8.73037 -7.59641 0.273192 -0.147313 -0.493889 
17881 1 25.7587 17.8693 5.97863 -7.37801 0.0298738 -0.124529 -0.508235 
1381 2 21.6915 16.4623 4.76779 -25.8765 0.531101 0.0689965 -0.899119 
10082 1 20.3679 20.1467 11.1679 -7.2763 0.310324 0.503739 0.0726653 
10022 1 20.3599 14.9928 11.3106 -7.32289 -0.324351 0.0933894 -0.41647 
10322 1 25.6601 15.2019 11.2446 -7.79212 -0.909466 -0.626598 1.42093 
14822 1 22.9401 14.9653 11.3642 -7.84716 0.721865 0.43519 0.368119 
17882 1 25.5536 17.872 11.2922 -7.66641 0.313602 -0.550395 -0.573613 
14882 1 22.9916 20.2398 11.3707 -7.67048 0.187228 0.577596 0.0508203 
301 3 5.72207 26.9291 4.74426 -29.3969 0.332987 0.218956 -1.03931 
9181 1 4.42935 20.3545 6.08494 -8.01363 0.252737 0.105698 0.676569 
541 3 5.78525 21.5555 4.75451 -29.2164 0.284027 1.10524 0.674774 
542 2 5.7591 21.6226 9.99786 -25.4781 0.27834 0.551534 0.127068 
2041 3 5.75012 24.3507 7.32466 -29.6514 0.00269444 -1.05747 0.0320406 
3241 3 3.05932 21.6933 7.38595 -28.8946 0.373678 0.614828 -0.487903 
4742 3 3.12931 24.2572 9.86874 -29.5926 -0.498408 1.14286 0.407163 
6241 1 1.60062 22.8749 6.00044 -7.69055 0.768854 -0.00268511 0.358345 
7741 1 4.35887 25.5467 8.50009 -7.50784 -0.350555 0.77501 0.550404 
9241 1 4.51688 25.7075 5.98112 -7.66799 -1.51869 0.170681 -0.148673 
10741 1 1.8442 23.1882 8.57507 -7.72597 -0.026957 -0.693161 -0.629987 
12241 1 4.49858 22.9785 8.65302 -7.71263 -0.458101 -0.93644 0.280955 
13741 1 1.73847 25.5376 6.11696 -7.7948 0.969202 0.454661 0.0470031 
15181 1 1.83043 20.5482 8.74567 -7.99018 0.900356 0.167672 -0.0708286 
15241 1 1.64182 25.7772 8.72108 -7.01122 0.778446 0.0701871 -0.410705 
16741 1 4.30382 23.0085 6.10315 -7.53537 0.0492194 0.153125 0.0189782 
16742 1 4.39765 23.0143 11.3134 -7.6776 -0.123583 -0.332274 0.17726 
13742 1 1.73954 25.6244 11.2961 -7.38421 -0.195785 -0.260124 0.931981 
14042 1 6.99644 25.5744 11.3249 -7.56393 0.543265 0.96075 0.391721 
241 3 0.390096 21.6929 4.7837 -29.1515 -0.470487 -0.0617067 0.107771 
242 3 0.532831 21.7266 9.96193 -29.1756 -1.07915 0.120697 -0.399254 
9242 1 4.34493 25.6154 11.1906 -7.44209 -0.0572829 0.15718 0.794576 
6242 1 1.78096 22.8999 11.094 -7.74796 0.214287 0.22951 1.54219 
602 2 11.1153 26.8744 9.99872 -25.1809 0.0256781 0.900876 0.274243 
3301 2 8.41695 26.937 7.34149 -25.2724 -0.0444352 -0.402086 0.142369 
601 3 11.161 26.8731 4.74316 -29.232 -0.698393 0.267713 -0.436706 
6541 1 7.12313 22.9664 6.02423 -7.36773 -1.05958 -0.403863 0.406737 
14041 1 7.05217 25.5498 6.06556 -7.54034 0.634808 1.0345 0.193237 
13981 1 7.17337 20.4042 6.04814 -7.83427 -0.311354 0.0974971 0.748599 
15541 1 7.04393 25.5284 8.6444 -7.42778 0.120423 0.781265 0.454389 
7981 1 9.69723 20.3894 8.73088 -7.32115 0.290753 -1.47981 -1.13038 
11041 1 7.14043 22.9013 8.7248 -7.43493 -0.3565 -0.345295 -0.65882 
842 3 11.0346 21.5891 10.0929 -29.7525 -0.30144 -0.124607 -0.739133 
2341 3 11.0812 24.2564 7.40812 -29.3184 0.410577 -0.417141 0.119295 
3541 3 8.43663 21.5966 7.43585 -29.4674 -0.0151456 0.738878 0.236716 
5042 2 8.44634 24.2179 10.1039 -25.6862 -0.880017 -0.143054 -1.15588 
6841 1 12.3402 22.7956 6.12255 -7.66839 0.0733085 0.206707 -0.645957 
8041 1 9.77875 25.5795 8.70666 -8.07458 0.225896 -0.214641 0.0472981 
9541 1 9.8069 25.614 6.05487 -7.8877 0.00094252 0.678344 0.313172 
11341 1 12.4124 22.9978 8.74335 -7.33778 -0.218403 -0.621916 -0.747203 
12541 1 9.72674 22.8561 8.87042 -7.18558 0.819256 1.15718 -0.560401 
14341 1 12.4097 25.457 6.00424 -7.45571 -0.00428673 -0.0047227 -0.150693 
15841 1 12.5336 25.5709 8.65766 -7.60632 -1.10353 0.726143 0.0849985 
17041 1 9.71946 22.9933 6.28798 -7.71905 0.149911 -0.48565 -1.20603 
5041 2 8.45667 24.3159 4.76354 -25.5408 0.277892 -0.821267 0.59782 
6842 1 12.2966 22.9328 11.2571 -7.70325 1.01605 -0.145986 1.40422 
841 3 11.0001 21.6225 4.77255 -29.2222 0.963283 -0.0495072 -0.096662 
902 2 16.5089 26.9435 10.0397 -25.5492 -0.143689 -0.201432 1.04528 
3901 3 19.0993 26.9332 7.31799 -29.456 0.752485 -0.0458778 0.637139 
5341 3 13.7834 24.2385 4.77058 -28.8587 -0.574649 0.516877 0.0501543 
3841 2 13.7505 21.599 7.42068 -25.5573 -0.786332 -0.322554 0.257755 
5342 2 13.7877 24.2419 10.0722 -25.6075 -0.314037 0.0631315 -0.350424 
1142 2 16.4633 21.5234 10.0107 -25.2834 0.104643 0.0864628 0.750397 
2641 2 16.504 24.2456 7.45514 -25.2151 -0.754959 1.04911 -0.389796 
4141 3 19.11 21.7224 7.2814 -29.2129 0.16475 -0.466089 0.460972 
5642 3 19.1332 24.2003 10.0902 -29.1891 -0.641303 0.635239 -0.156023 
7141 1 17.7002 22.92 6.0533 -7.90352 1.15476 1.19298 0.213242 
8341 1 15.1675 25.6504 8.73097 -7.51565 0.128836 -0.781017 -0.222597 
9841 1 15.0143 25.7031 6.03669 -7.63925 1.3064 -1.1324 -0.486776 
11641 1 17.8176 22.8722 8.65858 -8.0943 0.431398 -0.274637 0.604324 
12841 1 15.15 22.8907 8.79178 -7.76754 -0.145023 0.231872 -0.182468 
14581 1 17.882 20.3622 6.07601 -7.57084 -0.611319 -0.0319618 0.351628 
14641 1 17.772 25.5873 6.04753 -7.96335 -0.619435 -0.246058 0.360252 
16141 1 17.824 25.6473 8.7284 -7.7886 0.420708 -0.8552 -0.239678 
17341 1 15.0531 22.9818 6.18479 -7.98854 -0.323424 0.459421 -1.21593 
1141 2 16.4385 21.6417 4.82615 -25.3251 -0.630011 -0.693399 -0.834139 
7142 1 17.8174 22.9392 11.3632 -7.6542 0.04057 -0.980768 -0.371138 
10142 1 20.3091 25.4716 11.3297 -7.60083 1.13529 -0.0858531 0.0980406 
1202 2 21.7003 26.9214 10.0254 -25.8448 0.300259 0.157942 -0.187612 
4201 2 24.35 26.9125 7.40017 -25.589 0.0451437 0.871453 -0.739089 
10382 1 25.6295 20.4572 11.2471 -7.90712 0.559633 0.285704 -0.264704 
8581 1 20.3861 20.5147 8.56628 -7.69013 0.309969 0.0693998 -0.0372709 
8641 1 20.4527 25.6271 8.68436 -7.28502 -0.740205 0.368417 0.0135764 
10141 1 20.3519 25.7404 6.10414 -7.42409 0.398833 -0.93284 -0.487169 
13141 1 20.4256 23.1295 8.79847 -7.7227 -0.00442739 -0.94697 0.374805 
16381 1 23.1597 20.4054 8.64638 -8.11028 -0.0752522 0.538977 0.539202 
1741 3 26.9437 24.314 7.30489 -29.7742 0.417383 0.468332 0.966321 
10442 1 25.7019 25.755 11.2645 -7.80258 0.243324 0.103311 0.53546 
1441 3 21.7183 21.6824 4.77742 -29.3221 -0.082967 0.597099 -0.224041 
1442 2 21.7674 21.6726 9.9963 -25.3192 -0.143399 -0.704134 0.0452561 
2941 3 21.6883 24.3009 7.47175 -29.5562 0.233238 0.539041 -1.09664 
4441 3 24.3677 21.7651 7.33943 -29.4684 0.49504 -0.159321 -0.283843 
7442 1 23.1044 22.9689 11.3673 -7.96178 0.375138 0.153238 -0.739443 
5942 3 24.4676 24.3691 10.0011 -29.2555 -0.515617 -0.136083 -0.0267423 
7441 1 23.0193 22.9896 6.03462 -7.44286 -0.164295 -0.344615 -0.233143 
8881 1 25.8479 20.488 8.54963 -7.64843 -0.638097 -0.375188 0.61652 
8941 1 25.6036 25.6314 8.64283 -7.55289 0.621525 -0.109589 0.583909 
10081 1 20.4361 20.5051 5.97321 -7.63577 0.417327 -0.424846 0.216318 
10381 1 25.7069 20.4811 5.9599 -7.44372 -0.24668 0.138928 0.265349 
10441 1 25.706 25.6763 6.04645 -7.59381 -0.408699 -0.508162 -0.698618 
11941 1 23.048 23.0524 8.59425 -7.83148 0.403578 -0.454956 1.03087 
13441 1 25.7221 23.0617 8.71153 -7.50858 0.0863757 -0.302142 0.461852 
14881 1 23.0658 20.3522 6.03182 -7.56959 0.0191662 0.878028 0.0715011 
14941 1 23.0276 25.5824 6.0627 -7.91409 -0.148082 0.241432 -0.425564 
16441 1 23.0091 25.6562 8.71568 -7.71812 0.489848 -0.350518 0.109912 
17641 1 20.3728 23.1086 6.18048 -7.73557 -0.150622 0.1629 -0.372676 
17941 1 25.6274 23.0811 6.18915 -7.42724 -0.477412 0.0484361 -0.450762 
17942 1 25.7535 23.0943 11.2946 -7.78783 -0.0567888 0.204476 0.456789 
9002 1 4.30853 4.309 11.4239 -7.21121 0.909948 -0.0618766 -0.596552 
13502 1 1.69773 4.32764 11.5348 -7.47692 -0.342566 1.29453 -2.71537 
16502 1 4.45257 1.7275 11.4391 -7.45703 0.19189 -0.11886 -1.00994 
363 2 5.71621 5.62366 15.4349 -24.9473 0.943002 1.37162 -1.25417 
1802 3 5.67787 3.05825 12.738 -29.3753 0.626701 -0.0434765 -0.506415 
3062 2 3.13967 5.66916 12.6751 -25.5775 -0.13278 0.860956 -0.234529 
4503 2 3.00111 3.11318 15.4081 -25.4575 0.436633 -0.147425 0.253486 
6003 1 1.68451 1.83761 16.7677 -7.88735 -0.789163 -0.382994 0.24471 
7502 1 4.44708 4.31665 14.0191 -7.89335 0.420767 0.139004 1.3096 
9003 1 4.34469 4.40626 16.7857 -7.93948 1.01243 -0.355827 -0.993206 
10502 1 1.7188 1.80291 14.1091 -7.76714 -0.198751 0.00321625 -0.611109 
12002 1 4.36119 1.68345 13.9963 -7.57197 0.683179 0.30699 1.20373 
13503 1 1.73789 4.51475 16.7149 -7.37458 -0.0999087 -0.364373 -0.611285 
15002 1 1.80313 4.5136 14.0073 -7.45989 -0.258141 -0.67093 1.77335 
16503 1 4.3283 1.7756 16.7521 -7.48446 -0.0515537 -0.148583 -0.759208 
6303 1 6.95468 1.67943 16.7533 -7.54361 0.722764 0.905145 -0.422191 
3002 2 3.06239 0.400401 12.7014 -25.5994 -0.0467294 -0.324592 -0.928288 
1502 3 0.484988 3.12838 12.7085 -29.671 -0.433779 -0.312371 0.224215 
63 3 0.42783 5.81156 15.2569 -29.3207 0.733681 -0.810348 0.774172 
12062 1 4.45536 7.01809 13.8852 -8.05276 0.227659 0.188139 1.78985 
15302 1 7.12873 4.37801 13.9623 -7.54193 -0.864827 0.117555 0.0718515 
13803 1 7.08377 4.32584 16.6578 -8.11529 -0.454138 0.441811 0.313785 
16802 1 9.79873 1.68093 11.4228 -7.75446 -0.459715 -0.717467 -0.292766 
6302 1 7.1276 1.71823 11.4487 -7.81325 -0.335578 0.0362745 -0.419595 
10802 1 7.10144 1.65845 14.0557 -7.44159 -0.462527 0.835555 0.145122 
9302 1 9.70251 4.38793 11.4322 -8.04015 0.126805 0.59588 -0.931893 
663 2 11.0341 5.78675 15.32 -25.4676 0.878338 -0.777239 0.297499 
2102 2 11.1144 3.0695 12.6776 -25.4652 -0.202631 0.219649 0.594563 
3362 3 8.48515 5.81382 12.5814 -29.0222 -1.00856 -1.03385 1.70113 
4803 2 8.38592 3.12162 15.3888 -25.4703 0.825135 -1.00143 -0.644686 
6603 1 12.3533 1.72348 16.6306 -7.49672 0.245025 0.147248 0.720822 
7802 1 9.72115 4.53296 13.9833 -7.66716 0.736009 0.386893 0.703277 
9303 1 9.8131 4.38813 16.8006 -7.82536 -0.632608 -0.172027 -0.74441 
11102 1 12.396 1.64913 13.989 -7.6329 0.292899 0.455078 0.0404044 
12302 1 9.75858 1.87592 14.1127 -7.53434 -0.218063 -0.828654 -0.76345 
14103 1 12.4544 4.40182 16.6398 -7.50368 -0.104585 -0.740421 0.0915205 
15602 1 12.5324 4.30626 14.0411 -7.77097 -0.511295 0.848445 -0.653439 
16803 1 9.73071 1.68912 16.7458 -7.47491 -0.416396 0.423081 -0.126843 
6363 1 7.16167 6.98393 16.6731 -7.77811 -1.18138 0.158703 0.285242 
6663 1 12.3907 7.01704 16.6819 -7.86288 0.106196 0.927943 0.192533 
3363 3 8.42658 5.68425 18.0054 -29.3053 0.396785 0.0316817 0.523619 
6902 1 17.8342 1.7899 11.4189 -7.81681 -0.317459 -0.140667 -0.206142 