# LAMMPS data file written by OVITO Basic 3.8.4

20258 atoms
1 atom types

0.0 50.0 xlo xhi
0.0 100.0 ylo yhi
0.0 50.0 zlo zhi

Atoms  # atomic

1 1 0.0 0.0 0.0
2 1 1.805 1.805 0.0
3 1 1.805 0.0 1.805
4 1 0.0 1.805 1.805
5 1 3.61 0.0 0.0
8 1 3.61 1.805 1.805
57 1 0.0 3.61 0.0
59 1 1.805 3.61 1.805
61 1 3.61 3.61 0.0
785 1 0.0 0.0 3.61
786 1 1.805 1.805 3.61
789 1 3.61 0.0 3.61
841 1 0.0 3.61 3.61
845 1 3.61 3.61 3.61
6 1 5.415 1.805 0.0
7 1 5.415 0.0 1.805
9 1 7.22 0.0 0.0
12 1 7.22 1.805 1.805
63 1 5.415 3.61 1.805
65 1 7.22 3.61 0.0
790 1 5.415 1.805 3.61
793 1 7.22 0.0 3.61
849 1 7.22 3.61 3.61
10 1 9.025 1.805 0.0
11 1 9.025 0.0 1.805
13 1 10.83 0.0 0.0
16 1 10.83 1.805 1.805
67 1 9.025 3.61 1.805
69 1 10.83 3.61 0.0
794 1 9.025 1.805 3.61
797 1 10.83 0.0 3.61
853 1 10.83 3.61 3.61
14 1 12.635 1.805 0.0
15 1 12.635 0.0 1.805
17 1 14.44 0.0 0.0
18 1 16.245 1.805 0.0
19 1 16.245 0.0 1.805
20 1 14.44 1.805 1.805
71 1 12.635 3.61 1.805
73 1 14.44 3.61 0.0
75 1 16.245 3.61 1.805
798 1 12.635 1.805 3.61
801 1 14.44 0.0 3.61
802 1 16.245 1.805 3.61
857 1 14.44 3.61 3.61
21 1 18.05 0.0 0.0
22 1 19.855 1.805 0.0
23 1 19.855 0.0 1.805
24 1 18.05 1.805 1.805
77 1 18.05 3.61 0.0
79 1 19.855 3.61 1.805
805 1 18.05 0.0 3.61
806 1 19.855 1.805 3.61
861 1 18.05 3.61 3.61
25 1 21.66 0.0 0.0
26 1 23.465 1.805 0.0
27 1 23.465 0.0 1.805
28 1 21.66 1.805 1.805
81 1 21.66 3.61 0.0
83 1 23.465 3.61 1.805
809 1 21.66 0.0 3.61
810 1 23.465 1.805 3.61
865 1 21.66 3.61 3.61
29 1 25.27 0.0 0.0
30 1 27.075 1.805 0.0
31 1 27.075 0.0 1.805
32 1 25.27 1.805 1.805
33 1 28.88 0.0 0.0
36 1 28.88 1.805 1.805
85 1 25.27 3.61 0.0
87 1 27.075 3.61 1.805
89 1 28.88 3.61 0.0
813 1 25.27 0.0 3.61
814 1 27.075 1.805 3.61
817 1 28.88 0.0 3.61
869 1 25.27 3.61 3.61
873 1 28.88 3.61 3.61
34 1 30.685 1.805 0.0
35 1 30.685 0.0 1.805
37 1 32.49 0.0 0.0
40 1 32.49 1.805 1.805
91 1 30.685 3.61 1.805
93 1 32.49 3.61 0.0
818 1 30.685 1.805 3.61
821 1 32.49 0.0 3.61
877 1 32.49 3.61 3.61
38 1 34.295 1.805 0.0
39 1 34.295 0.0 1.805
41 1 36.1 0.0 0.0
44 1 36.1 1.805 1.805
95 1 34.295 3.61 1.805
97 1 36.1 3.61 0.0
822 1 34.295 1.805 3.61
825 1 36.1 0.0 3.61
881 1 36.1 3.61 3.61
42 1 37.905 1.805 0.0
43 1 37.905 0.0 1.805
45 1 39.71 0.0 0.0
46 1 41.515 1.805 0.0
47 1 41.515 0.0 1.805
48 1 39.71 1.805 1.805
99 1 37.905 3.61 1.805
101 1 39.71 3.61 0.0
103 1 41.515 3.61 1.805
826 1 37.905 1.805 3.61
829 1 39.71 0.0 3.61
830 1 41.515 1.805 3.61
885 1 39.71 3.61 3.61
49 1 43.32 0.0 0.0
50 1 45.125 1.805 0.0
51 1 45.125 0.0 1.805
52 1 43.32 1.805 1.805
105 1 43.32 3.61 0.0
107 1 45.125 3.61 1.805
833 1 43.32 0.0 3.61
834 1 45.125 1.805 3.61
889 1 43.32 3.61 3.61
53 1 46.93 0.0 0.0
54 1 48.735 1.805 0.0
55 1 48.735 0.0 1.805
56 1 46.93 1.805 1.805
109 1 46.93 3.61 0.0
111 1 48.735 3.61 1.805
837 1 46.93 0.0 3.61
838 1 48.735 1.805 3.61
893 1 46.93 3.61 3.61
58 1 1.805 5.415 0.0
60 1 0.0 5.415 1.805
64 1 3.61 5.415 1.805
113 1 0.0 7.22 0.0
115 1 1.805 7.22 1.805
117 1 3.61 7.22 0.0
842 1 1.805 5.415 3.61
897 1 0.0 7.22 3.61
901 1 3.61 7.22 3.61
62 1 5.415 5.415 0.0
68 1 7.22 5.415 1.805
119 1 5.415 7.22 1.805
121 1 7.22 7.22 0.0
846 1 5.415 5.415 3.61
905 1 7.22 7.22 3.61
66 1 9.025 5.415 0.0
72 1 10.83 5.415 1.805
123 1 9.025 7.22 1.805
125 1 10.83 7.22 0.0
850 1 9.025 5.415 3.61
909 1 10.83 7.22 3.61
70 1 12.635 5.415 0.0
74 1 16.245 5.415 0.0
76 1 14.44 5.415 1.805
127 1 12.635 7.22 1.805
129 1 14.44 7.22 0.0
131 1 16.245 7.22 1.805
854 1 12.635 5.415 3.61
858 1 16.245 5.415 3.61
913 1 14.44 7.22 3.61
78 1 19.855 5.415 0.0
80 1 18.05 5.415 1.805
133 1 18.05 7.22 0.0
135 1 19.855 7.22 1.805
862 1 19.855 5.415 3.61
917 1 18.05 7.22 3.61
82 1 23.465 5.415 0.0
84 1 21.66 5.415 1.805
137 1 21.66 7.22 0.0
139 1 23.465 7.22 1.805
866 1 23.465 5.415 3.61
921 1 21.66 7.22 3.61
86 1 27.075 5.415 0.0
88 1 25.27 5.415 1.805
92 1 28.88 5.415 1.805
141 1 25.27 7.22 0.0
143 1 27.075 7.22 1.805
145 1 28.88 7.22 0.0
870 1 27.075 5.415 3.61
925 1 25.27 7.22 3.61
929 1 28.88 7.22 3.61
90 1 30.685 5.415 0.0
96 1 32.49 5.415 1.805
147 1 30.685 7.22 1.805
149 1 32.49 7.22 0.0
874 1 30.685 5.415 3.61
933 1 32.49 7.22 3.61
94 1 34.295 5.415 0.0
100 1 36.1 5.415 1.805
151 1 34.295 7.22 1.805
153 1 36.1 7.22 0.0
878 1 34.295 5.415 3.61
937 1 36.1 7.22 3.61
98 1 37.905 5.415 0.0
102 1 41.515 5.415 0.0
104 1 39.71 5.415 1.805
155 1 37.905 7.22 1.805
157 1 39.71 7.22 0.0
159 1 41.515 7.22 1.805
882 1 37.905 5.415 3.61
886 1 41.515 5.415 3.61
941 1 39.71 7.22 3.61
106 1 45.125 5.415 0.0
108 1 43.32 5.415 1.805
161 1 43.32 7.22 0.0
163 1 45.125 7.22 1.805
890 1 45.125 5.415 3.61
945 1 43.32 7.22 3.61
110 1 48.735 5.415 0.0
112 1 46.93 5.415 1.805
165 1 46.93 7.22 0.0
167 1 48.735 7.22 1.805
894 1 48.735 5.415 3.61
949 1 46.93 7.22 3.61
114 1 1.805 9.025 0.0
116 1 0.0 9.025 1.805
120 1 3.61 9.025 1.805
169 1 0.0 10.83 0.0
171 1 1.805 10.83 1.805
173 1 3.61 10.83 0.0
898 1 1.805 9.025 3.61
953 1 0.0 10.83 3.61
957 1 3.61 10.83 3.61
118 1 5.415 9.025 0.0
124 1 7.22 9.025 1.805
175 1 5.415 10.83 1.805
177 1 7.22 10.83 0.0
902 1 5.415 9.025 3.61
961 1 7.22 10.83 3.61
122 1 9.025 9.025 0.0
128 1 10.83 9.025 1.805
179 1 9.025 10.83 1.805
181 1 10.83 10.83 0.0
906 1 9.025 9.025 3.61
965 1 10.83 10.83 3.61
126 1 12.635 9.025 0.0
130 1 16.245 9.025 0.0
132 1 14.44 9.025 1.805
183 1 12.635 10.83 1.805
185 1 14.44 10.83 0.0
187 1 16.245 10.83 1.805
910 1 12.635 9.025 3.61
914 1 16.245 9.025 3.61
969 1 14.44 10.83 3.61
134 1 19.855 9.025 0.0
136 1 18.05 9.025 1.805
189 1 18.05 10.83 0.0
191 1 19.855 10.83 1.805
918 1 19.855 9.025 3.61
973 1 18.05 10.83 3.61
138 1 23.465 9.025 0.0
140 1 21.66 9.025 1.805
193 1 21.66 10.83 0.0
195 1 23.465 10.83 1.805
922 1 23.465 9.025 3.61
977 1 21.66 10.83 3.61
142 1 27.075 9.025 0.0
144 1 25.27 9.025 1.805
148 1 28.88 9.025 1.805
197 1 25.27 10.83 0.0
199 1 27.075 10.83 1.805
201 1 28.88 10.83 0.0
926 1 27.075 9.025 3.61
981 1 25.27 10.83 3.61
985 1 28.88 10.83 3.61
146 1 30.685 9.025 0.0
152 1 32.49 9.025 1.805
203 1 30.685 10.83 1.805
205 1 32.49 10.83 0.0
930 1 30.685 9.025 3.61
989 1 32.49 10.83 3.61
150 1 34.295 9.025 0.0
156 1 36.1 9.025 1.805
207 1 34.295 10.83 1.805
209 1 36.1 10.83 0.0
934 1 34.295 9.025 3.61
993 1 36.1 10.83 3.61
154 1 37.905 9.025 0.0
158 1 41.515 9.025 0.0
160 1 39.71 9.025 1.805
211 1 37.905 10.83 1.805
213 1 39.71 10.83 0.0
215 1 41.515 10.83 1.805
938 1 37.905 9.025 3.61
942 1 41.515 9.025 3.61
997 1 39.71 10.83 3.61
162 1 45.125 9.025 0.0
164 1 43.32 9.025 1.805
217 1 43.32 10.83 0.0
219 1 45.125 10.83 1.805
946 1 45.125 9.025 3.61
1001 1 43.32 10.83 3.61
166 1 48.735 9.025 0.0
168 1 46.93 9.025 1.805
221 1 46.93 10.83 0.0
223 1 48.735 10.83 1.805
950 1 48.735 9.025 3.61
1005 1 46.93 10.83 3.61
170 1 1.805 12.635 0.0
172 1 0.0 12.635 1.805
176 1 3.61 12.635 1.805
225 1 0.0 14.44 0.0
226 1 1.805 16.245 0.0
227 1 1.805 14.44 1.805
228 1 0.0 16.245 1.805
229 1 3.61 14.44 0.0
232 1 3.61 16.245 1.805
954 1 1.805 12.635 3.61
1009 1 0.0 14.44 3.61
1010 1 1.805 16.245 3.61
1013 1 3.61 14.44 3.61
174 1 5.415 12.635 0.0
180 1 7.22 12.635 1.805
230 1 5.415 16.245 0.0
231 1 5.415 14.44 1.805
233 1 7.22 14.44 0.0
236 1 7.22 16.245 1.805
958 1 5.415 12.635 3.61
1014 1 5.415 16.245 3.61
1017 1 7.22 14.44 3.61
178 1 9.025 12.635 0.0
184 1 10.83 12.635 1.805
234 1 9.025 16.245 0.0
235 1 9.025 14.44 1.805
237 1 10.83 14.44 0.0
240 1 10.83 16.245 1.805
962 1 9.025 12.635 3.61
1018 1 9.025 16.245 3.61
1021 1 10.83 14.44 3.61
182 1 12.635 12.635 0.0
186 1 16.245 12.635 0.0
188 1 14.44 12.635 1.805
238 1 12.635 16.245 0.0
239 1 12.635 14.44 1.805
241 1 14.44 14.44 0.0
242 1 16.245 16.245 0.0
243 1 16.245 14.44 1.805
244 1 14.44 16.245 1.805
966 1 12.635 12.635 3.61
970 1 16.245 12.635 3.61
1022 1 12.635 16.245 3.61
1025 1 14.44 14.44 3.61
1026 1 16.245 16.245 3.61
190 1 19.855 12.635 0.0
192 1 18.05 12.635 1.805
245 1 18.05 14.44 0.0
246 1 19.855 16.245 0.0
247 1 19.855 14.44 1.805
248 1 18.05 16.245 1.805
974 1 19.855 12.635 3.61
1029 1 18.05 14.44 3.61
1030 1 19.855 16.245 3.61
194 1 23.465 12.635 0.0
196 1 21.66 12.635 1.805
249 1 21.66 14.44 0.0
250 1 23.465 16.245 0.0
251 1 23.465 14.44 1.805
252 1 21.66 16.245 1.805
978 1 23.465 12.635 3.61
1033 1 21.66 14.44 3.61
1034 1 23.465 16.245 3.61
198 1 27.075 12.635 0.0
200 1 25.27 12.635 1.805
204 1 28.88 12.635 1.805
253 1 25.27 14.44 0.0
254 1 27.075 16.245 0.0
255 1 27.075 14.44 1.805
256 1 25.27 16.245 1.805
257 1 28.88 14.44 0.0
260 1 28.88 16.245 1.805
982 1 27.075 12.635 3.61
1037 1 25.27 14.44 3.61
1038 1 27.075 16.245 3.61
1041 1 28.88 14.44 3.61
202 1 30.685 12.635 0.0
208 1 32.49 12.635 1.805
258 1 30.685 16.245 0.0
259 1 30.685 14.44 1.805
261 1 32.49 14.44 0.0
264 1 32.49 16.245 1.805
986 1 30.685 12.635 3.61
1042 1 30.685 16.245 3.61
1045 1 32.49 14.44 3.61
206 1 34.295 12.635 0.0
212 1 36.1 12.635 1.805
262 1 34.295 16.245 0.0
263 1 34.295 14.44 1.805
265 1 36.1 14.44 0.0
268 1 36.1 16.245 1.805
990 1 34.295 12.635 3.61
1046 1 34.295 16.245 3.61
1049 1 36.1 14.44 3.61
210 1 37.905 12.635 0.0
214 1 41.515 12.635 0.0
216 1 39.71 12.635 1.805
266 1 37.905 16.245 0.0
267 1 37.905 14.44 1.805
269 1 39.71 14.44 0.0
270 1 41.515 16.245 0.0
271 1 41.515 14.44 1.805
272 1 39.71 16.245 1.805
994 1 37.905 12.635 3.61
998 1 41.515 12.635 3.61
1050 1 37.905 16.245 3.61
1053 1 39.71 14.44 3.61
1054 1 41.515 16.245 3.61
218 1 45.125 12.635 0.0
220 1 43.32 12.635 1.805
273 1 43.32 14.44 0.0
274 1 45.125 16.245 0.0
275 1 45.125 14.44 1.805
276 1 43.32 16.245 1.805
1002 1 45.125 12.635 3.61
1057 1 43.32 14.44 3.61
1058 1 45.125 16.245 3.61
222 1 48.735 12.635 0.0
224 1 46.93 12.635 1.805
277 1 46.93 14.44 0.0
278 1 48.735 16.245 0.0
279 1 48.735 14.44 1.805
280 1 46.93 16.245 1.805
1006 1 48.735 12.635 3.61
1061 1 46.93 14.44 3.61
1062 1 48.735 16.245 3.61
281 1 0.0 18.05 0.0
282 1 1.805 19.855 0.0
283 1 1.805 18.05 1.805
284 1 0.0 19.855 1.805
285 1 3.61 18.05 0.0
288 1 3.61 19.855 1.805
1065 1 0.0 18.05 3.61
1066 1 1.805 19.855 3.61
1069 1 3.61 18.05 3.61
286 1 5.415 19.855 0.0
287 1 5.415 18.05 1.805
289 1 7.22 18.05 0.0
292 1 7.22 19.855 1.805
1070 1 5.415 19.855 3.61
1073 1 7.22 18.05 3.61
290 1 9.025 19.855 0.0
291 1 9.025 18.05 1.805
293 1 10.83 18.05 0.0
296 1 10.83 19.855 1.805
1074 1 9.025 19.855 3.61
1077 1 10.83 18.05 3.61
294 1 12.635 19.855 0.0
295 1 12.635 18.05 1.805
297 1 14.44 18.05 0.0
298 1 16.245 19.855 0.0
299 1 16.245 18.05 1.805
300 1 14.44 19.855 1.805
1078 1 12.635 19.855 3.61
1081 1 14.44 18.05 3.61
1082 1 16.245 19.855 3.61
301 1 18.05 18.05 0.0
302 1 19.855 19.855 0.0
303 1 19.855 18.05 1.805
304 1 18.05 19.855 1.805
1085 1 18.05 18.05 3.61
1086 1 19.855 19.855 3.61
305 1 21.66 18.05 0.0
306 1 23.465 19.855 0.0
307 1 23.465 18.05 1.805
308 1 21.66 19.855 1.805
1089 1 21.66 18.05 3.61
1090 1 23.465 19.855 3.61
309 1 25.27 18.05 0.0
310 1 27.075 19.855 0.0
311 1 27.075 18.05 1.805
312 1 25.27 19.855 1.805
313 1 28.88 18.05 0.0
316 1 28.88 19.855 1.805
1093 1 25.27 18.05 3.61
1094 1 27.075 19.855 3.61
1097 1 28.88 18.05 3.61
314 1 30.685 19.855 0.0
315 1 30.685 18.05 1.805
317 1 32.49 18.05 0.0
320 1 32.49 19.855 1.805
1098 1 30.685 19.855 3.61
1101 1 32.49 18.05 3.61
318 1 34.295 19.855 0.0
319 1 34.295 18.05 1.805
321 1 36.1 18.05 0.0
324 1 36.1 19.855 1.805
1102 1 34.295 19.855 3.61
1105 1 36.1 18.05 3.61
322 1 37.905 19.855 0.0
323 1 37.905 18.05 1.805
325 1 39.71 18.05 0.0
326 1 41.515 19.855 0.0
327 1 41.515 18.05 1.805
328 1 39.71 19.855 1.805
1106 1 37.905 19.855 3.61
1109 1 39.71 18.05 3.61
1110 1 41.515 19.855 3.61
329 1 43.32 18.05 0.0
330 1 45.125 19.855 0.0
331 1 45.125 18.05 1.805
332 1 43.32 19.855 1.805
1113 1 43.32 18.05 3.61
1114 1 45.125 19.855 3.61
333 1 46.93 18.05 0.0
334 1 48.735 19.855 0.0
335 1 48.735 18.05 1.805
336 1 46.93 19.855 1.805
1117 1 46.93 18.05 3.61
1118 1 48.735 19.855 3.61
337 1 0.0 21.66 0.0
338 1 1.805 23.465 0.0
339 1 1.805 21.66 1.805
340 1 0.0 23.465 1.805
341 1 3.61 21.66 0.0
344 1 3.61 23.465 1.805
1121 1 0.0 21.66 3.61
1122 1 1.805 23.465 3.61
1125 1 3.61 21.66 3.61
342 1 5.415 23.465 0.0
343 1 5.415 21.66 1.805
345 1 7.22 21.66 0.0
348 1 7.22 23.465 1.805
1126 1 5.415 23.465 3.61
1129 1 7.22 21.66 3.61
346 1 9.025 23.465 0.0
347 1 9.025 21.66 1.805
349 1 10.83 21.66 0.0
352 1 10.83 23.465 1.805
1130 1 9.025 23.465 3.61
1133 1 10.83 21.66 3.61
350 1 12.635 23.465 0.0
351 1 12.635 21.66 1.805
353 1 14.44 21.66 0.0
354 1 16.245 23.465 0.0
355 1 16.245 21.66 1.805
356 1 14.44 23.465 1.805
1134 1 12.635 23.465 3.61
1137 1 14.44 21.66 3.61
1138 1 16.245 23.465 3.61
357 1 18.05 21.66 0.0
358 1 19.855 23.465 0.0
359 1 19.855 21.66 1.805
360 1 18.05 23.465 1.805
1141 1 18.05 21.66 3.61
1142 1 19.855 23.465 3.61
361 1 21.66 21.66 0.0
362 1 23.465 23.465 0.0
363 1 23.465 21.66 1.805
364 1 21.66 23.465 1.805
1145 1 21.66 21.66 3.61
1146 1 23.465 23.465 3.61
365 1 25.27 21.66 0.0
366 1 27.075 23.465 0.0
367 1 27.075 21.66 1.805
368 1 25.27 23.465 1.805
369 1 28.88 21.66 0.0
372 1 28.88 23.465 1.805
1149 1 25.27 21.66 3.61
1150 1 27.075 23.465 3.61
1153 1 28.88 21.66 3.61
370 1 30.685 23.465 0.0
371 1 30.685 21.66 1.805
373 1 32.49 21.66 0.0
376 1 32.49 23.465 1.805
1154 1 30.685 23.465 3.61
1157 1 32.49 21.66 3.61
374 1 34.295 23.465 0.0
375 1 34.295 21.66 1.805
377 1 36.1 21.66 0.0
380 1 36.1 23.465 1.805
1158 1 34.295 23.465 3.61
1161 1 36.1 21.66 3.61
378 1 37.905 23.465 0.0
379 1 37.905 21.66 1.805
381 1 39.71 21.66 0.0
382 1 41.515 23.465 0.0
383 1 41.515 21.66 1.805
384 1 39.71 23.465 1.805
1162 1 37.905 23.465 3.61
1165 1 39.71 21.66 3.61
1166 1 41.515 23.465 3.61
385 1 43.32 21.66 0.0
386 1 45.125 23.465 0.0
387 1 45.125 21.66 1.805
388 1 43.32 23.465 1.805
1169 1 43.32 21.66 3.61
1170 1 45.125 23.465 3.61
389 1 46.93 21.66 0.0
390 1 48.735 23.465 0.0
391 1 48.735 21.66 1.805
392 1 46.93 23.465 1.805
1173 1 46.93 21.66 3.61
1174 1 48.735 23.465 3.61
393 1 0.0 25.27 0.0
394 1 1.805 27.075 0.0
395 1 1.805 25.27 1.805
396 1 0.0 27.075 1.805
397 1 3.61 25.27 0.0
400 1 3.61 27.075 1.805
449 1 0.0 28.88 0.0
451 1 1.805 28.88 1.805
453 1 3.61 28.88 0.0
1177 1 0.0 25.27 3.61
1178 1 1.805 27.075 3.61
1181 1 3.61 25.27 3.61
1233 1 0.0 28.88 3.61
1237 1 3.61 28.88 3.61
398 1 5.415 27.075 0.0
399 1 5.415 25.27 1.805
401 1 7.22 25.27 0.0
404 1 7.22 27.075 1.805
455 1 5.415 28.88 1.805
457 1 7.22 28.88 0.0
1182 1 5.415 27.075 3.61
1185 1 7.22 25.27 3.61
1241 1 7.22 28.88 3.61
402 1 9.025 27.075 0.0
403 1 9.025 25.27 1.805
405 1 10.83 25.27 0.0
408 1 10.83 27.075 1.805
459 1 9.025 28.88 1.805
461 1 10.83 28.88 0.0
1186 1 9.025 27.075 3.61
1189 1 10.83 25.27 3.61
1245 1 10.83 28.88 3.61
406 1 12.635 27.075 0.0
407 1 12.635 25.27 1.805
409 1 14.44 25.27 0.0
410 1 16.245 27.075 0.0
411 1 16.245 25.27 1.805
412 1 14.44 27.075 1.805
463 1 12.635 28.88 1.805
465 1 14.44 28.88 0.0
467 1 16.245 28.88 1.805
1190 1 12.635 27.075 3.61
1193 1 14.44 25.27 3.61
1194 1 16.245 27.075 3.61
1249 1 14.44 28.88 3.61
413 1 18.05 25.27 0.0
414 1 19.855 27.075 0.0
415 1 19.855 25.27 1.805
416 1 18.05 27.075 1.805
469 1 18.05 28.88 0.0
471 1 19.855 28.88 1.805
1197 1 18.05 25.27 3.61
1198 1 19.855 27.075 3.61
1253 1 18.05 28.88 3.61
417 1 21.66 25.27 0.0
418 1 23.465 27.075 0.0
419 1 23.465 25.27 1.805
420 1 21.66 27.075 1.805
473 1 21.66 28.88 0.0
475 1 23.465 28.88 1.805
1201 1 21.66 25.27 3.61
1202 1 23.465 27.075 3.61
1257 1 21.66 28.88 3.61
421 1 25.27 25.27 0.0
422 1 27.075 27.075 0.0
423 1 27.075 25.27 1.805
424 1 25.27 27.075 1.805
425 1 28.88 25.27 0.0
428 1 28.88 27.075 1.805
477 1 25.27 28.88 0.0
479 1 27.075 28.88 1.805
481 1 28.88 28.88 0.0
1205 1 25.27 25.27 3.61
1206 1 27.075 27.075 3.61
1209 1 28.88 25.27 3.61
1261 1 25.27 28.88 3.61
1265 1 28.88 28.88 3.61
426 1 30.685 27.075 0.0
427 1 30.685 25.27 1.805
429 1 32.49 25.27 0.0
432 1 32.49 27.075 1.805
483 1 30.685 28.88 1.805
485 1 32.49 28.88 0.0
1210 1 30.685 27.075 3.61
1213 1 32.49 25.27 3.61
1269 1 32.49 28.88 3.61
430 1 34.295 27.075 0.0
431 1 34.295 25.27 1.805
433 1 36.1 25.27 0.0
436 1 36.1 27.075 1.805
487 1 34.295 28.88 1.805
489 1 36.1 28.88 0.0
1214 1 34.295 27.075 3.61
1217 1 36.1 25.27 3.61
1273 1 36.1 28.88 3.61
434 1 37.905 27.075 0.0
435 1 37.905 25.27 1.805
437 1 39.71 25.27 0.0
438 1 41.515 27.075 0.0
439 1 41.515 25.27 1.805
440 1 39.71 27.075 1.805
491 1 37.905 28.88 1.805
493 1 39.71 28.88 0.0
495 1 41.515 28.88 1.805
1218 1 37.905 27.075 3.61
1221 1 39.71 25.27 3.61
1222 1 41.515 27.075 3.61
1277 1 39.71 28.88 3.61
441 1 43.32 25.27 0.0
442 1 45.125 27.075 0.0
443 1 45.125 25.27 1.805
444 1 43.32 27.075 1.805
497 1 43.32 28.88 0.0
499 1 45.125 28.88 1.805
1225 1 43.32 25.27 3.61
1226 1 45.125 27.075 3.61
1281 1 43.32 28.88 3.61
445 1 46.93 25.27 0.0
446 1 48.735 27.075 0.0
447 1 48.735 25.27 1.805
448 1 46.93 27.075 1.805
501 1 46.93 28.88 0.0
503 1 48.735 28.88 1.805
1229 1 46.93 25.27 3.61
1230 1 48.735 27.075 3.61
1285 1 46.93 28.88 3.61
450 1 1.805 30.685 0.0
452 1 0.0 30.685 1.805
456 1 3.61 30.685 1.805
505 1 0.0 32.49 0.0
507 1 1.805 32.49 1.805
509 1 3.61 32.49 0.0
1234 1 1.805 30.685 3.61
1289 1 0.0 32.49 3.61
1293 1 3.61 32.49 3.61
454 1 5.415 30.685 0.0
460 1 7.22 30.685 1.805
511 1 5.415 32.49 1.805
513 1 7.22 32.49 0.0
1238 1 5.415 30.685 3.61
1297 1 7.22 32.49 3.61
458 1 9.025 30.685 0.0
464 1 10.83 30.685 1.805
515 1 9.025 32.49 1.805
517 1 10.83 32.49 0.0
1242 1 9.025 30.685 3.61
1301 1 10.83 32.49 3.61
462 1 12.635 30.685 0.0
466 1 16.245 30.685 0.0
468 1 14.44 30.685 1.805
519 1 12.635 32.49 1.805
521 1 14.44 32.49 0.0
523 1 16.245 32.49 1.805
1246 1 12.635 30.685 3.61
1250 1 16.245 30.685 3.61
1305 1 14.44 32.49 3.61
470 1 19.855 30.685 0.0
472 1 18.05 30.685 1.805
525 1 18.05 32.49 0.0
527 1 19.855 32.49 1.805
1254 1 19.855 30.685 3.61
1309 1 18.05 32.49 3.61
474 1 23.465 30.685 0.0
476 1 21.66 30.685 1.805
529 1 21.66 32.49 0.0
531 1 23.465 32.49 1.805
1258 1 23.465 30.685 3.61
1313 1 21.66 32.49 3.61
478 1 27.075 30.685 0.0
480 1 25.27 30.685 1.805
484 1 28.88 30.685 1.805
533 1 25.27 32.49 0.0
535 1 27.075 32.49 1.805
537 1 28.88 32.49 0.0
1262 1 27.075 30.685 3.61
1317 1 25.27 32.49 3.61
1321 1 28.88 32.49 3.61
482 1 30.685 30.685 0.0
488 1 32.49 30.685 1.805
539 1 30.685 32.49 1.805
541 1 32.49 32.49 0.0
1266 1 30.685 30.685 3.61
1325 1 32.49 32.49 3.61
486 1 34.295 30.685 0.0
492 1 36.1 30.685 1.805
543 1 34.295 32.49 1.805
545 1 36.1 32.49 0.0
1270 1 34.295 30.685 3.61
1329 1 36.1 32.49 3.61
490 1 37.905 30.685 0.0
494 1 41.515 30.685 0.0
496 1 39.71 30.685 1.805
547 1 37.905 32.49 1.805
549 1 39.71 32.49 0.0
551 1 41.515 32.49 1.805
1274 1 37.905 30.685 3.61
1278 1 41.515 30.685 3.61
1333 1 39.71 32.49 3.61
498 1 45.125 30.685 0.0
500 1 43.32 30.685 1.805
553 1 43.32 32.49 0.0
555 1 45.125 32.49 1.805
1282 1 45.125 30.685 3.61
1337 1 43.32 32.49 3.61
502 1 48.735 30.685 0.0
504 1 46.93 30.685 1.805
557 1 46.93 32.49 0.0
559 1 48.735 32.49 1.805
1286 1 48.735 30.685 3.61
1341 1 46.93 32.49 3.61
506 1 1.805 34.295 0.0
508 1 0.0 34.295 1.805
512 1 3.61 34.295 1.805
561 1 0.0 36.1 0.0
563 1 1.805 36.1 1.805
565 1 3.61 36.1 0.0
1290 1 1.805 34.295 3.61
1345 1 0.0 36.1 3.61
1349 1 3.61 36.1 3.61
510 1 5.415 34.295 0.0
516 1 7.22 34.295 1.805
567 1 5.415 36.1 1.805
569 1 7.22 36.1 0.0
1294 1 5.415 34.295 3.61
1353 1 7.22 36.1 3.61
514 1 9.025 34.295 0.0
520 1 10.83 34.295 1.805
571 1 9.025 36.1 1.805
573 1 10.83 36.1 0.0
1298 1 9.025 34.295 3.61
1357 1 10.83 36.1 3.61
518 1 12.635 34.295 0.0
522 1 16.245 34.295 0.0
524 1 14.44 34.295 1.805
575 1 12.635 36.1 1.805
577 1 14.44 36.1 0.0
579 1 16.245 36.1 1.805
1302 1 12.635 34.295 3.61
1306 1 16.245 34.295 3.61
1361 1 14.44 36.1 3.61
526 1 19.855 34.295 0.0
528 1 18.05 34.295 1.805
581 1 18.05 36.1 0.0
583 1 19.855 36.1 1.805
1310 1 19.855 34.295 3.61
1365 1 18.05 36.1 3.61
530 1 23.465 34.295 0.0
532 1 21.66 34.295 1.805
585 1 21.66 36.1 0.0
587 1 23.465 36.1 1.805
1314 1 23.465 34.295 3.61
1369 1 21.66 36.1 3.61
534 1 27.075 34.295 0.0
536 1 25.27 34.295 1.805
540 1 28.88 34.295 1.805
589 1 25.27 36.1 0.0
591 1 27.075 36.1 1.805
593 1 28.88 36.1 0.0
1318 1 27.075 34.295 3.61
1373 1 25.27 36.1 3.61
1377 1 28.88 36.1 3.61
538 1 30.685 34.295 0.0
544 1 32.49 34.295 1.805
595 1 30.685 36.1 1.805
597 1 32.49 36.1 0.0
1322 1 30.685 34.295 3.61
1381 1 32.49 36.1 3.61
542 1 34.295 34.295 0.0
548 1 36.1 34.295 1.805
599 1 34.295 36.1 1.805
601 1 36.1 36.1 0.0
1326 1 34.295 34.295 3.61
1385 1 36.1 36.1 3.61
546 1 37.905 34.295 0.0
550 1 41.515 34.295 0.0
552 1 39.71 34.295 1.805
603 1 37.905 36.1 1.805
605 1 39.71 36.1 0.0
607 1 41.515 36.1 1.805
1330 1 37.905 34.295 3.61
1334 1 41.515 34.295 3.61
1389 1 39.71 36.1 3.61
554 1 45.125 34.295 0.0
556 1 43.32 34.295 1.805
609 1 43.32 36.1 0.0
611 1 45.125 36.1 1.805
1338 1 45.125 34.295 3.61
1393 1 43.32 36.1 3.61
558 1 48.735 34.295 0.0
560 1 46.93 34.295 1.805
613 1 46.93 36.1 0.0
615 1 48.735 36.1 1.805
1342 1 48.735 34.295 3.61
1397 1 46.93 36.1 3.61
562 1 1.805 37.905 0.0
564 1 0.0 37.905 1.805
568 1 3.61 37.905 1.805
617 1 0.0 39.71 0.0
619 1 1.805 39.71 1.805
621 1 3.61 39.71 0.0
1346 1 1.805 37.905 3.61
1401 1 0.0 39.71 3.61
1405 1 3.61 39.71 3.61
566 1 5.415 37.905 0.0
572 1 7.22 37.905 1.805
623 1 5.415 39.71 1.805
625 1 7.22 39.71 0.0
1350 1 5.415 37.905 3.61
1409 1 7.22 39.71 3.61
570 1 9.025 37.905 0.0
576 1 10.83 37.905 1.805
627 1 9.025 39.71 1.805
629 1 10.83 39.71 0.0
1354 1 9.025 37.905 3.61
1413 1 10.83 39.71 3.61
574 1 12.635 37.905 0.0
578 1 16.245 37.905 0.0
580 1 14.44 37.905 1.805
631 1 12.635 39.71 1.805
633 1 14.44 39.71 0.0
635 1 16.245 39.71 1.805
1358 1 12.635 37.905 3.61
1362 1 16.245 37.905 3.61
1417 1 14.44 39.71 3.61
582 1 19.855 37.905 0.0
584 1 18.05 37.905 1.805
637 1 18.05 39.71 0.0
638 1 19.855 41.515 0.0
639 1 19.855 39.71 1.805
1366 1 19.855 37.905 3.61
1421 1 18.05 39.71 3.61
1422 1 19.855 41.515 3.61
586 1 23.465 37.905 0.0
588 1 21.66 37.905 1.805
641 1 21.66 39.71 0.0
642 1 23.465 41.515 0.0
643 1 23.465 39.71 1.805
644 1 21.66 41.515 1.805
1370 1 23.465 37.905 3.61
1425 1 21.66 39.71 3.61
1426 1 23.465 41.515 3.61
590 1 27.075 37.905 0.0
592 1 25.27 37.905 1.805
596 1 28.88 37.905 1.805
645 1 25.27 39.71 0.0
646 1 27.075 41.515 0.0
647 1 27.075 39.71 1.805
648 1 25.27 41.515 1.805
649 1 28.88 39.71 0.0
652 1 28.88 41.515 1.805
1374 1 27.075 37.905 3.61
1429 1 25.27 39.71 3.61
1430 1 27.075 41.515 3.61
1433 1 28.88 39.71 3.61
594 1 30.685 37.905 0.0
600 1 32.49 37.905 1.805
650 1 30.685 41.515 0.0
651 1 30.685 39.71 1.805
653 1 32.49 39.71 0.0
1378 1 30.685 37.905 3.61
1434 1 30.685 41.515 3.61
1437 1 32.49 39.71 3.61
598 1 34.295 37.905 0.0
604 1 36.1 37.905 1.805
655 1 34.295 39.71 1.805
657 1 36.1 39.71 0.0
1382 1 34.295 37.905 3.61
1441 1 36.1 39.71 3.61
602 1 37.905 37.905 0.0
606 1 41.515 37.905 0.0
608 1 39.71 37.905 1.805
659 1 37.905 39.71 1.805
661 1 39.71 39.71 0.0
663 1 41.515 39.71 1.805
1386 1 37.905 37.905 3.61
1390 1 41.515 37.905 3.61
1445 1 39.71 39.71 3.61
610 1 45.125 37.905 0.0
612 1 43.32 37.905 1.805
665 1 43.32 39.71 0.0
667 1 45.125 39.71 1.805
1394 1 45.125 37.905 3.61
1449 1 43.32 39.71 3.61
614 1 48.735 37.905 0.0
616 1 46.93 37.905 1.805
669 1 46.93 39.71 0.0
671 1 48.735 39.71 1.805
1398 1 48.735 37.905 3.61
1453 1 46.93 39.71 3.61
690 1 16.245 45.125 0.0
1474 1 16.245 45.125 3.61
693 1 18.05 43.32 0.0
694 1 19.855 45.125 0.0
695 1 19.855 43.32 1.805
696 1 18.05 45.125 1.805
1477 1 18.05 43.32 3.61
1478 1 19.855 45.125 3.61
697 1 21.66 43.32 0.0
698 1 23.465 45.125 0.0
699 1 23.465 43.32 1.805
700 1 21.66 45.125 1.805
1481 1 21.66 43.32 3.61
1482 1 23.465 45.125 3.61
701 1 25.27 43.32 0.0
702 1 27.075 45.125 0.0
703 1 27.075 43.32 1.805
704 1 25.27 45.125 1.805
705 1 28.88 43.32 0.0
708 1 28.88 45.125 1.805
1485 1 25.27 43.32 3.61
1486 1 27.075 45.125 3.61
1489 1 28.88 43.32 3.61
706 1 30.685 45.125 0.0
707 1 30.685 43.32 1.805
709 1 32.49 43.32 0.0
712 1 32.49 45.125 1.805
1490 1 30.685 45.125 3.61
1493 1 32.49 43.32 3.61
710 1 34.295 45.125 0.0
1494 1 34.295 45.125 3.61
742 1 12.635 48.735 0.0
745 1 14.44 46.93 0.0
746 1 16.245 48.735 0.0
747 1 16.245 46.93 1.805
748 1 14.44 48.735 1.805
1526 1 12.635 48.735 3.61
1529 1 14.44 46.93 3.61
1530 1 16.245 48.735 3.61
749 1 18.05 46.93 0.0
750 1 19.855 48.735 0.0
751 1 19.855 46.93 1.805
752 1 18.05 48.735 1.805
1533 1 18.05 46.93 3.61
1534 1 19.855 48.735 3.61
753 1 21.66 46.93 0.0
754 1 23.465 48.735 0.0
755 1 23.465 46.93 1.805
756 1 21.66 48.735 1.805
1537 1 21.66 46.93 3.61
1538 1 23.465 48.735 3.61
757 1 25.27 46.93 0.0
758 1 27.075 48.735 0.0
759 1 27.075 46.93 1.805
760 1 25.27 48.735 1.805
761 1 28.88 46.93 0.0
764 1 28.88 48.735 1.805
1541 1 25.27 46.93 3.61
1542 1 27.075 48.735 3.61
1545 1 28.88 46.93 3.61
762 1 30.685 48.735 0.0
763 1 30.685 46.93 1.805
765 1 32.49 46.93 0.0
768 1 32.49 48.735 1.805
1546 1 30.685 48.735 3.61
1549 1 32.49 46.93 3.61
766 1 34.295 48.735 0.0
767 1 34.295 46.93 1.805
769 1 36.1 46.93 0.0
772 1 36.1 48.735 1.805
1550 1 34.295 48.735 3.61
1553 1 36.1 46.93 3.61
770 1 37.905 48.735 0.0
1554 1 37.905 48.735 3.61
787 1 1.805 0.0 5.415
788 1 0.0 1.805 5.415
792 1 3.61 1.805 5.415
843 1 1.805 3.61 5.415
1569 1 0.0 0.0 7.22
1570 1 1.805 1.805 7.22
1573 1 3.61 0.0 7.22
1625 1 0.0 3.61 7.22
1629 1 3.61 3.61 7.22
791 1 5.415 0.0 5.415
796 1 7.22 1.805 5.415
847 1 5.415 3.61 5.415
1574 1 5.415 1.805 7.22
1577 1 7.22 0.0 7.22
1633 1 7.22 3.61 7.22
795 1 9.025 0.0 5.415
800 1 10.83 1.805 5.415
851 1 9.025 3.61 5.415
1578 1 9.025 1.805 7.22
1581 1 10.83 0.0 7.22
1637 1 10.83 3.61 7.22
799 1 12.635 0.0 5.415
803 1 16.245 0.0 5.415
804 1 14.44 1.805 5.415
855 1 12.635 3.61 5.415
859 1 16.245 3.61 5.415
1582 1 12.635 1.805 7.22
1585 1 14.44 0.0 7.22
1586 1 16.245 1.805 7.22
1641 1 14.44 3.61 7.22
807 1 19.855 0.0 5.415
808 1 18.05 1.805 5.415
863 1 19.855 3.61 5.415
1589 1 18.05 0.0 7.22
1590 1 19.855 1.805 7.22
1645 1 18.05 3.61 7.22
811 1 23.465 0.0 5.415
812 1 21.66 1.805 5.415
867 1 23.465 3.61 5.415
1593 1 21.66 0.0 7.22
1594 1 23.465 1.805 7.22
1649 1 21.66 3.61 7.22
815 1 27.075 0.0 5.415
816 1 25.27 1.805 5.415
820 1 28.88 1.805 5.415
871 1 27.075 3.61 5.415
1597 1 25.27 0.0 7.22
1598 1 27.075 1.805 7.22
1601 1 28.88 0.0 7.22
1653 1 25.27 3.61 7.22
1657 1 28.88 3.61 7.22
819 1 30.685 0.0 5.415
824 1 32.49 1.805 5.415
875 1 30.685 3.61 5.415
1602 1 30.685 1.805 7.22
1605 1 32.49 0.0 7.22
1661 1 32.49 3.61 7.22
823 1 34.295 0.0 5.415
828 1 36.1 1.805 5.415
879 1 34.295 3.61 5.415
1606 1 34.295 1.805 7.22
1609 1 36.1 0.0 7.22
1665 1 36.1 3.61 7.22
827 1 37.905 0.0 5.415
831 1 41.515 0.0 5.415
832 1 39.71 1.805 5.415
883 1 37.905 3.61 5.415
887 1 41.515 3.61 5.415
1610 1 37.905 1.805 7.22
1613 1 39.71 0.0 7.22
1614 1 41.515 1.805 7.22
1669 1 39.71 3.61 7.22
835 1 45.125 0.0 5.415
836 1 43.32 1.805 5.415
891 1 45.125 3.61 5.415
1617 1 43.32 0.0 7.22
1618 1 45.125 1.805 7.22
1673 1 43.32 3.61 7.22
839 1 48.735 0.0 5.415
840 1 46.93 1.805 5.415
895 1 48.735 3.61 5.415
1621 1 46.93 0.0 7.22
1622 1 48.735 1.805 7.22
1677 1 46.93 3.61 7.22
844 1 0.0 5.415 5.415
848 1 3.61 5.415 5.415
899 1 1.805 7.22 5.415
1626 1 1.805 5.415 7.22
1681 1 0.0 7.22 7.22
1685 1 3.61 7.22 7.22
852 1 7.22 5.415 5.415
903 1 5.415 7.22 5.415
1630 1 5.415 5.415 7.22
1689 1 7.22 7.22 7.22
856 1 10.83 5.415 5.415
907 1 9.025 7.22 5.415
1634 1 9.025 5.415 7.22
1693 1 10.83 7.22 7.22
860 1 14.44 5.415 5.415
911 1 12.635 7.22 5.415
915 1 16.245 7.22 5.415
1638 1 12.635 5.415 7.22
1642 1 16.245 5.415 7.22
1697 1 14.44 7.22 7.22
864 1 18.05 5.415 5.415
919 1 19.855 7.22 5.415
1646 1 19.855 5.415 7.22
1701 1 18.05 7.22 7.22
868 1 21.66 5.415 5.415
923 1 23.465 7.22 5.415
1650 1 23.465 5.415 7.22
1705 1 21.66 7.22 7.22
872 1 25.27 5.415 5.415
876 1 28.88 5.415 5.415
927 1 27.075 7.22 5.415
1654 1 27.075 5.415 7.22
1709 1 25.27 7.22 7.22
1713 1 28.88 7.22 7.22
880 1 32.49 5.415 5.415
931 1 30.685 7.22 5.415
1658 1 30.685 5.415 7.22
1717 1 32.49 7.22 7.22
884 1 36.1 5.415 5.415
935 1 34.295 7.22 5.415
1662 1 34.295 5.415 7.22
1721 1 36.1 7.22 7.22
888 1 39.71 5.415 5.415
939 1 37.905 7.22 5.415
943 1 41.515 7.22 5.415
1666 1 37.905 5.415 7.22
1670 1 41.515 5.415 7.22
1725 1 39.71 7.22 7.22
892 1 43.32 5.415 5.415
947 1 45.125 7.22 5.415
1674 1 45.125 5.415 7.22
1729 1 43.32 7.22 7.22
896 1 46.93 5.415 5.415
951 1 48.735 7.22 5.415
1678 1 48.735 5.415 7.22
1733 1 46.93 7.22 7.22
900 1 0.0 9.025 5.415
904 1 3.61 9.025 5.415
955 1 1.805 10.83 5.415
1682 1 1.805 9.025 7.22
1737 1 0.0 10.83 7.22
1741 1 3.61 10.83 7.22
908 1 7.22 9.025 5.415
959 1 5.415 10.83 5.415
1686 1 5.415 9.025 7.22
1745 1 7.22 10.83 7.22
912 1 10.83 9.025 5.415
963 1 9.025 10.83 5.415
1690 1 9.025 9.025 7.22
1749 1 10.83 10.83 7.22
916 1 14.44 9.025 5.415
967 1 12.635 10.83 5.415
971 1 16.245 10.83 5.415
1694 1 12.635 9.025 7.22
1698 1 16.245 9.025 7.22
1753 1 14.44 10.83 7.22
920 1 18.05 9.025 5.415
975 1 19.855 10.83 5.415
1702 1 19.855 9.025 7.22
1757 1 18.05 10.83 7.22
924 1 21.66 9.025 5.415
979 1 23.465 10.83 5.415
1706 1 23.465 9.025 7.22
1761 1 21.66 10.83 7.22
928 1 25.27 9.025 5.415
932 1 28.88 9.025 5.415
983 1 27.075 10.83 5.415
1710 1 27.075 9.025 7.22
1765 1 25.27 10.83 7.22
1769 1 28.88 10.83 7.22
936 1 32.49 9.025 5.415
987 1 30.685 10.83 5.415
1714 1 30.685 9.025 7.22
1773 1 32.49 10.83 7.22
940 1 36.1 9.025 5.415
991 1 34.295 10.83 5.415
1718 1 34.295 9.025 7.22
1777 1 36.1 10.83 7.22
944 1 39.71 9.025 5.415
995 1 37.905 10.83 5.415
999 1 41.515 10.83 5.415
1722 1 37.905 9.025 7.22
1726 1 41.515 9.025 7.22
1781 1 39.71 10.83 7.22
948 1 43.32 9.025 5.415
1003 1 45.125 10.83 5.415
1730 1 45.125 9.025 7.22
1785 1 43.32 10.83 7.22
952 1 46.93 9.025 5.415
1007 1 48.735 10.83 5.415
1734 1 48.735 9.025 7.22
1789 1 46.93 10.83 7.22
956 1 0.0 12.635 5.415
960 1 3.61 12.635 5.415
1011 1 1.805 14.44 5.415
1012 1 0.0 16.245 5.415
1016 1 3.61 16.245 5.415
1738 1 1.805 12.635 7.22
1793 1 0.0 14.44 7.22
1794 1 1.805 16.245 7.22
1797 1 3.61 14.44 7.22
964 1 7.22 12.635 5.415
1015 1 5.415 14.44 5.415
1020 1 7.22 16.245 5.415
1742 1 5.415 12.635 7.22
1798 1 5.415 16.245 7.22
1801 1 7.22 14.44 7.22
968 1 10.83 12.635 5.415
1019 1 9.025 14.44 5.415
1024 1 10.83 16.245 5.415
1746 1 9.025 12.635 7.22
1802 1 9.025 16.245 7.22