********************************************************************************
*                       GENERAL UTILITY LATTICE PROGRAM                        *
*                                 Julian Gale                                  *
*                      Nanochemistry Research Institute                        *
*                           Department of Chemistry                            *
*                    Curtin University, Western Australia                      *
********************************************************************************
* Version = 4.2.0 * Last modified =  16th January 2014                         *
********************************************************************************
*  optimise     - perform optimisation run                                     *
*  conp         - constant pressure calculation                                *
*  phonon       - calculate phonons for final geometry                         *
*  eckart       - remove rotation/translation from vibrations of molecules     *
*  molmec       - molecule option activated, Coulomb subtract 1-2/1-3 terms    *
********************************************************************************

  Job Started  at 15:19.06 27th March      2014                               

  Number of CPUs =     1


  Total number of configurations input =   1

********************************************************************************
*  Input for Configuration =   1                                               *
********************************************************************************

  Formula = O14S4C32H20N4Na4                                            

  Number of irreducible atoms/shells =      78


  Total number atoms/shells =      78

  Dimensionality = 0               :  Cluster


  Charge on cluster =   0.000000


  Initial cluster dipoles : x =     -0.696299 e.Angs
                            y =     -0.031322 e.Angs
                            z =     -0.049158 e.Angs

  Temperature of configuration =  0.000     K 

  Symmetry number =      1

  Cartesian coordinates of cluster :

--------------------------------------------------------------------------------
   No.  Atomic       x           y          z         Charge      Occupancy
        Label      (Angs)      (Angs)     (Angs)        (e)         (Frac)  
--------------------------------------------------------------------------------
      1 O5    c     24.4730 *   14.0240 *   10.4520 *  -0.68180    1.000000    
      2 S5    c     24.0030 *   14.1210 *   11.9340 *   1.14400    1.000000    
      3 O5    c     25.0960 *   13.4580 *   12.8120 *  -0.68180    1.000000    
      4 O5    c     23.9340 *   15.6300 *   12.3020 *  -0.68180    1.000000    
      5 C5    c     22.3710 *   13.3350 *   12.1720 *  -0.07340    1.000000    
      6 C5    c     22.2990 *   11.9200 *   12.3100 *  -0.10090    1.000000    
      7 H5    c     23.2050 *   11.3080 *   12.3240 *   0.14460    1.000000    
      8 C5    c     21.0180 *   11.3170 *   12.3880 *  -0.16780    1.000000    
      9 H5    c     20.9290 *   10.2310 *   12.4780 *   0.11690    1.000000    
     10 C5    c     19.8370 *   12.1270 *   12.3110 *   0.03330    1.000000    
     11 C5    c     19.9290 *   13.5520 *   12.1810 *  -0.16780    1.000000    
     12 H5    c     19.0200 *   14.1510 *   12.1150 *   0.11690    1.000000    
     13 C5    c     21.2080 *   14.1580 *   12.1160 *  -0.10090    1.000000    
     14 H5    c     21.3140 *   15.2410 *   12.0170 *   0.14460    1.000000    
     15 N6    c     18.5850 *   11.4570 *   12.3320 *  -0.09400    1.000000    
     16 H6    c     18.5080 *   10.4120 *   12.3160 *   0.26060    1.000000    
     17 N5    c     17.4250 *   12.1430 *   12.3470 *  -0.09850    1.000000    
     18 C6    c     16.2650 *   11.4400 *   12.3530 *  -0.02040    1.000000    
     19 C5    c     15.0040 *   12.2410 *   12.3650 *  -0.00230    1.000000    
     20 C5    c     15.0140 *   13.6790 *   12.4010 *  -0.22620    1.000000    
     21 H5    c     15.9710 *   14.2020 *   12.4610 *   0.13940    1.000000    
     22 C5    c     13.8110 *   14.4140 *   12.3260 *  -0.05130    1.000000    
     23 H5    c     13.8140 *   15.5060 *   12.3350 *   0.14400    1.000000    
     24 C5    c     12.5740 *   13.7050 *   12.2180 *  -0.11590    1.000000    
     25 C5    c     12.5070 *   12.2930 *   12.2310 *  -0.09350    1.000000    
     26 H5    c     11.5470 *   11.7760 *   12.1490 *   0.12780    1.000000    
     27 C5    c     13.7300 *   11.5430 *   12.3150 *   0.03470    1.000000    
     28 C6    c     13.6970 *   10.0700 *   12.3010 *  -0.11610    1.000000    
     29 H5    c     12.7160 *    9.5880 *   12.2380 *   0.15660    1.000000    
     30 C7    c     14.8540 *    9.3070 *   12.3120 *  -0.36250    1.000000    
     31 H5    c     14.8220 *    8.2150 *   12.2820 *   0.14320    1.000000    
     32 C8    c     16.1980 *    9.9280 *   12.3090 *   0.60810    1.000000    
     33 O5    c     17.2600 *    9.2150 *   12.2550 *  -0.59680    1.000000    
     34 S5    c     11.0510 *   14.6730 *   11.9190 *   1.16590    1.000000    
     35 O5    c     10.8980 *   15.0330 *   10.4080 *  -0.68230    1.000000    
     36 O5    c      9.7800 *   13.8890 *   12.3380 *  -0.68230    1.000000    
     37 O5    c     11.0770 *   16.0130 *   12.7050 *  -0.68230    1.000000    
     38 O5    c     24.3780 *    9.3320 *   10.8770 *  -0.68180    1.000000    
     39 S5    c     23.9210 *    9.2480 *    9.3900 *   1.14400    1.000000    
     40 O5    c     25.0750 *    9.8020 *    8.5140 *  -0.68180    1.000000    
     41 O5    c     23.7360 *    7.7430 *    9.0500 *  -0.68180    1.000000    
     42 C5    c     22.3640 *   10.1690 *    9.1220 *  -0.07340    1.000000    
     43 C5    c     22.4150 *   11.5850 *    8.9900 *  -0.10090    1.000000    
     44 H5    c     23.3680 *   12.1190 *    8.9930 *   0.14460    1.000000    
     45 C5    c     21.1920 *   12.2970 *    8.9000 *  -0.16780    1.000000    
     46 H5    c     21.2000 *   13.3880 *    8.8180 *   0.11690    1.000000    
     47 C5    c     19.9460 *   11.5910 *    8.9600 *   0.03330    1.000000    
     48 C5    c     19.9150 *   10.1620 *    9.0800 *  -0.16780    1.000000    
     49 H5    c     18.9570 *    9.6430 *    9.1300 *   0.11690    1.000000    
     50 C5    c     21.1360 *    9.4470 *    9.1580 *  -0.10090    1.000000    
     51 H5    c     21.1480 *    8.3600 *    9.2540 *   0.14460    1.000000    
     52 N6    c     18.7490 *   12.3590 *    8.9340 *  -0.09400    1.000000    
     53 H6    c     18.7480 *   13.4050 *    8.9640 *   0.26060    1.000000    
     54 N5    c     17.5460     11.7550      8.8840    -0.09850    1.000000    
     55 C6    c     16.4310 *   12.5230 *    8.8680 *  -0.02040    1.000000    
     56 C5    c     15.1300 *   11.7920 *    8.8200 *  -0.00230    1.000000    
     57 C5    c     15.0680 *   10.3560 *    8.7820 *  -0.22620    1.000000    
     58 H5    c     15.9980 *    9.7840 *    8.7530 *   0.13940    1.000000    
     59 C5    c     13.8270 *    9.6840 *    8.8110 *  -0.05130    1.000000    
     60 H5    c     13.7720 *    8.5940 *    8.7970 *   0.14400    1.000000    
     61 C5    c     12.6260 *   10.4570 *    8.8760 *  -0.11590    1.000000    
     62 C5    c     12.6310 *   11.8710 *    8.8710 *  -0.09350    1.000000    
     63 H5    c     11.6970 *   12.4360 *    8.9210 *   0.12780    1.000000    
     64 C5    c     13.8940 *   12.5570 *    8.8360 *   0.03470    1.000000    
     65 C6    c     13.9420 *   14.0310 *    8.8600 *  -0.11610    1.000000    
     66 H5    c     12.9870 *   14.5670 *    8.8910 *   0.15660    1.000000    
     67 C7    c     15.1400 *   14.7290 *    8.8920 *  -0.36250    1.000000    
     68 H5    c     15.1660 *   15.8210 *    8.9320 *   0.14320    1.000000    
     69 C8    c     16.4490 *   14.0360 *    8.9290 *   0.60810    1.000000    
     70 O5    c     17.5480 *   14.6850 *    9.0200 *  -0.59680    1.000000    
     71 S5    c     11.0490 *    9.5590 *    9.1110 *   1.16590    1.000000    
     72 O5    c     10.7880 *    9.2650 *   10.6210 *  -0.68230    1.000000    
     73 O5    c      9.8390 *   10.3700 *    8.5780 *  -0.68230    1.000000    
     74 O5    c     11.0760 *    8.1880 *    8.3810 *  -0.68230    1.000000    
     75 Na5   c      9.1750 *   15.8900 *   11.5900 *   1.00000    1.000000    
     76 Na5   c      9.1090 *    8.4220 *    9.3460 *   1.00000    1.000000    
     77 Na5   c     25.9960 *   15.1470 *   11.6750 *   1.00000    1.000000    
     78 Na5   c     25.8170 *    8.0680 *    9.7030 *   1.00000    1.000000    
--------------------------------------------------------------------------------



  Molecule list generated from bond lengths :

  Total number of molecules =     2

--------------------------------------------------------------------------------
Molecule No./:  Atoms
Periodicity  :  
--------------------------------------------------------------------------------
     1  0    : O5   c     1 S5   c     2 O5   c     3 O5   c     4 C5   c     5
             : C5   c     6 H5   c     7 C5   c     8 H5   c     9 C5   c    10
             : C5   c    11 H5   c    12 C5   c    13 H5   c    14 N6   c    15
             : H6   c    16 N5   c    17 C6   c    18 C5   c    19 C5   c    20
             : H5   c    21 C5   c    22 H5   c    23 C5   c    24 C5   c    25
             : H5   c    26 C5   c    27 C6   c    28 H5   c    29 C7   c    30
             : H5   c    31 C8   c    32 O5   c    33 S5   c    34 O5   c    35
             : O5   c    36 O5   c    37
     2  0    : O5   c    38 S5   c    39 O5   c    40 O5   c    41 C5   c    42
             : C5   c    43 H5   c    44 C5   c    45 H5   c    46 C5   c    47
             : C5   c    48 H5   c    49 C5   c    50 H5   c    51 N6   c    52
             : H6   c    53 N5   c    54 C6   c    55 C5   c    56 C5   c    57
             : H5   c    58 C5   c    59 H5   c    60 C5   c    61 C5   c    62
             : H5   c    63 C5   c    64 C6   c    65 H5   c    66 C7   c    67
             : H5   c    68 C8   c    69 O5   c    70 S5   c    71 O5   c    72
             : O5   c    73 O5   c    74
--------------------------------------------------------------------------------


********************************************************************************
*  General input information                                                   *
********************************************************************************

  Species output for all configurations : 

--------------------------------------------------------------------------------
  Species    Type    Atomic    Atomic    Charge       Radii (Angs)     Library
                     Number     Mass       (e)     Cova   Ionic  VDW   Symbol
--------------------------------------------------------------------------------
    O5       Core        8      16.00  -0.681800   0.730  0.000  1.360          
    S5       Core       16      32.07   1.144000   1.020  0.000  1.700          
    C5       Core        6      12.01  -0.073400   0.770  0.000  1.530          
    H5       Core        1       1.01   0.144600   0.370  0.000  1.080          
    N6       Core        7      14.01  -0.094000   0.750  0.000  1.480          
    H6       Core        1       1.01   0.260600   0.370  0.000  1.080          
    N5       Core        7      14.01  -0.098500   0.750  0.000  1.480          
    C6       Core        6      12.01  -0.020400   0.770  0.000  1.530          
    C7       Core        6      12.01  -0.362500   0.770  0.000  1.530          
    C8       Core        6      12.01   0.608100   0.770  0.000  1.530          
    Na5      Core       11      22.99   1.000000   0.010  0.000  2.300          
--------------------------------------------------------------------------------


  Accuracy factor for short range sums = 12.000

  Time limit = Infinity

  Maximum range for interatomic potentials =        10.000000 Angstroms

  Taper potentials to zero over  10.0000 Angstroms using M-D-F

  General interatomic potentials :

--------------------------------------------------------------------------------
Atom  Types   Potential         A         B         C         D     Cutoffs(Ang)
  1     2                                                            Min    Max 
--------------------------------------------------------------------------------
C8   c C8   c Lenn/es 12  6 0.373E-02  3.82      0.00      0.00     3Bond ******
C8   c O5   c Lenn/es 12  6 0.583E-02  3.57      0.00      0.00     3Bond ******
O5   c O5   c Lenn/es 12  6 0.911E-02  3.32      0.00      0.00     3Bond ******
C7   c C8   c Lenn/es 12  6 0.373E-02  3.82      0.00      0.00     3Bond ******
C7   c O5   c Lenn/es 12  6 0.583E-02  3.57      0.00      0.00     3Bond ******
C7   c C7   c Lenn/es 12  6 0.373E-02  3.82      0.00      0.00     3Bond ******
C6   c C8   c Lenn/es 12  6 0.373E-02  3.82      0.00      0.00     3Bond ******
C6   c O5   c Lenn/es 12  6 0.583E-02  3.57      0.00      0.00     3Bond ******
C6   c C7   c Lenn/es 12  6 0.373E-02  3.82      0.00      0.00     3Bond ******
C6   c C6   c Lenn/es 12  6 0.373E-02  3.82      0.00      0.00     3Bond ******
C8   c N5   c Lenn/es 12  6 0.524E-02  3.73      0.00      0.00     3Bond ******
N5   c O5   c Lenn/es 12  6 0.819E-02  3.49      0.00      0.00     3Bond ******
C7   c N5   c Lenn/es 12  6 0.524E-02  3.73      0.00      0.00     3Bond ******
C6   c N5   c Lenn/es 12  6 0.524E-02  3.73      0.00      0.00     3Bond ******
N5   c N5   c Lenn/es 12  6 0.737E-02  3.65      0.00      0.00     3Bond ******
C8   c N6   c Lenn/es 12  6 0.524E-02  3.73      0.00      0.00     3Bond ******
N6   c O5   c Lenn/es 12  6 0.819E-02  3.49      0.00      0.00     3Bond ******
C7   c N6   c Lenn/es 12  6 0.524E-02  3.73      0.00      0.00     3Bond ******
C6   c N6   c Lenn/es 12  6 0.524E-02  3.73      0.00      0.00     3Bond ******
N5   c N6   c Lenn/es 12  6 0.737E-02  3.65      0.00      0.00     3Bond ******
N6   c N6   c Lenn/es 12  6 0.737E-02  3.65      0.00      0.00     3Bond ******
C5   c C8   c Lenn/es 12  6 0.373E-02  3.82      0.00      0.00     3Bond ******
C5   c O5   c Lenn/es 12  6 0.583E-02  3.57      0.00      0.00     3Bond ******
C5   c C7   c Lenn/es 12  6 0.373E-02  3.82      0.00      0.00     3Bond ******
C5   c C6   c Lenn/es 12  6 0.373E-02  3.82      0.00      0.00     3Bond ******
C5   c N5   c Lenn/es 12  6 0.524E-02  3.73      0.00      0.00     3Bond ******
C5   c N6   c Lenn/es 12  6 0.524E-02  3.73      0.00      0.00     3Bond ******
C5   c C5   c Lenn/es 12  6 0.373E-02  3.82      0.00      0.00     3Bond ******
H6   c C8   c Lenn/es 12  6 0.159E-02  2.51      0.00      0.00     3Bond ******
H6   c O5   c Lenn/es 12  6 0.249E-02  2.26      0.00      0.00     3Bond ******
H6   c C7   c Lenn/es 12  6 0.159E-02  2.51      0.00      0.00     3Bond ******
H6   c C6   c Lenn/es 12  6 0.159E-02  2.51      0.00      0.00     3Bond ******
H6   c N5   c Lenn/es 12  6 0.224E-02  2.42      0.00      0.00     3Bond ******
H6   c N6   c Lenn/es 12  6 0.224E-02  2.42      0.00      0.00     3Bond ******
H6   c C5   c Lenn/es 12  6 0.159E-02  2.51      0.00      0.00     3Bond ******
H6   c H6   c Lenn/es 12  6 0.681E-03  1.20      0.00      0.00     3Bond ******
H5   c C8   c Lenn/es 12  6 0.156E-02  3.37      0.00      0.00     3Bond ******
H5   c O5   c Lenn/es 12  6 0.243E-02  3.12      0.00      0.00     3Bond ******
H5   c C7   c Lenn/es 12  6 0.156E-02  3.37      0.00      0.00     3Bond ******
H5   c C6   c Lenn/es 12  6 0.156E-02  3.37      0.00      0.00     3Bond ******
H5   c N5   c Lenn/es 12  6 0.219E-02  3.28      0.00      0.00     3Bond ******
H5   c N6   c Lenn/es 12  6 0.219E-02  3.28      0.00      0.00     3Bond ******
H5   c C5   c Lenn/es 12  6 0.156E-02  3.37      0.00      0.00     3Bond ******
H5   c H6   c Lenn/es 12  6 0.665E-03  2.06      0.00      0.00     3Bond ******
H5   c H5   c Lenn/es 12  6 0.650E-03  2.92      0.00      0.00     3Bond ******
C8   c S5   c Lenn/es 12  6 0.636E-02  3.91      0.00      0.00     3Bond ******
O5   c S5   c Lenn/es 12  6 0.994E-02  3.66      0.00      0.00     3Bond ******
C7   c S5   c Lenn/es 12  6 0.636E-02  3.91      0.00      0.00     3Bond ******
C6   c S5   c Lenn/es 12  6 0.636E-02  3.91      0.00      0.00     3Bond ******
N5   c S5   c Lenn/es 12  6 0.894E-02  3.82      0.00      0.00     3Bond ******
N6   c S5   c Lenn/es 12  6 0.894E-02  3.82      0.00      0.00     3Bond ******
C5   c S5   c Lenn/es 12  6 0.636E-02  3.91      0.00      0.00     3Bond ******
H6   c S5   c Lenn/es 12  6 0.272E-02  2.60      0.00      0.00     3Bond ******
H5   c S5   c Lenn/es 12  6 0.266E-02  3.46      0.00      0.00     3Bond ******
S5   c S5   c Lenn/es 12  6 0.108E-01  4.00      0.00      0.00     3Bond ******
C8   c Na5  c Lenn/es 12  6 0.669E-03  3.78      0.00      0.00     3Bond ******
O5   c Na5  c Lenn/es 12  6 0.105E-02  3.53      0.00      0.00     3Bond ******
C7   c Na5  c Lenn/es 12  6 0.669E-03  3.78      0.00      0.00     3Bond ******
C6   c Na5  c Lenn/es 12  6 0.669E-03  3.78      0.00      0.00     3Bond ******
N5   c Na5  c Lenn/es 12  6 0.941E-03  3.69      0.00      0.00     3Bond ******
N6   c Na5  c Lenn/es 12  6 0.941E-03  3.69      0.00      0.00     3Bond ******
C5   c Na5  c Lenn/es 12  6 0.669E-03  3.78      0.00      0.00     3Bond ******
H6   c Na5  c Lenn/es 12  6 0.286E-03  2.47      0.00      0.00     3Bond ******
H5   c Na5  c Lenn/es 12  6 0.280E-03  3.33      0.00      0.00     3Bond ******
Na5  c S5   c Lenn/es 12  6 0.114E-02  3.87      0.00      0.00     3Bond ******
Na5  c Na5  c Lenn/es 12  6 0.120E-03  3.74      0.00      0.00     3Bond ******
--------------------------------------------------------------------------------

  Intramolecular potentials :

--------------------------------------------------------------------------------
Atom  Types   Potential         A         B         C         D     Cutoffs(Ang)
  1     2                                                            Min    Max 
--------------------------------------------------------------------------------
X    c X    c Coulomb        0.00      0.00      0.00      1.00     1-4only 7.00
H6   c N6   c Harmonic       34.8      1.01      0.00      0.00     0.000 1 Bond
H5   c C5   c Harmonic       29.9      1.09      0.00      0.00     0.000 1 Bond
C5   c S5   c Harmonic       22.9      1.76      0.00      0.00     0.000 1 Bond
C8   c O5   c Harmonic       56.2      1.21      0.00      0.00     0.000 1 Bond
C6   c C7   c Harmonic       43.7      1.37      0.00      0.00     0.000 1 Bond
C6   c N5   c Harmonic       49.7      1.29      0.00      0.00     0.000 1 Bond
H5   c C6   c Harmonic       30.1      1.08      0.00      0.00     0.000 1 Bond
O5   c S5   c Harmonic       46.9      1.44      0.00      0.00     0.000 1 Bond
C7   c C8   c Harmonic       32.7      1.46      0.00      0.00     0.000 1 Bond
C6   c C8   c Harmonic       32.7      1.46      0.00      0.00     0.000 1 Bond
C5   c C6   c Harmonic       35.7      1.43      0.00      0.00     0.000 1 Bond
C5   c C5   c Harmonic       41.5      1.39      0.00      0.00     0.000 1 Bond
H5   c C7   c Harmonic       30.1      1.08      0.00      0.00     0.000 1 Bond
N5   c N6   c Harmonic       45.5      1.36      0.00      0.00     0.000 1 Bond
C5   c N6   c Harmonic       38.9      1.36      0.00      0.00     0.000 1 Bond
--------------------------------------------------------------------------------

  Intermolecular potentials :

--------------------------------------------------------------------------------
Atom  Types   Potential         A         B         C         D     Cutoffs(Ang)
  1     2                                                            Min    Max 
--------------------------------------------------------------------------------
O5   c Na5  c Harmonic       2.00      2.40      0.00      0.00     0.000  5.000
--------------------------------------------------------------------------------

  Intramolecular Three-body potentials :

  Harmonic form:

--------------------------------------------------------------------------------
Atom    Atom    Atom           Force Constants            Theta     Cutoffs  
  1       2       3     (eVrad**-2/eVrad**-3/eVrad**-4)   (deg)  1-2  1-3  2-3
--------------------------------------------------------------------------------
N6    c H6    c C5    c  4.257        0.0000    0.0000   116.130     Bonded
C6    c C5    c C7    c  5.918        0.0000    0.0000   113.510     Bonded
C6    c C5    c N5    c  5.942        0.0000    0.0000   120.720     Bonded
C8    c C6    c C7    c  5.701        0.0000    0.0000   112.790     Bonded
S5    c C5    c O5    c  3.710        0.0000    0.0000   104.070     Bonded
C6    c H5    c C5    c  4.024        0.0000    0.0000   124.040     Bonded
C8    c C7    c O5    c  5.976        0.0000    0.0000   125.710     Bonded
C5    c C5    c C6    c  5.723        0.0000    0.0000   120.100     Bonded
C5    c C5    c N6    c  6.014        0.0000    0.0000   120.130     Bonded
C5    c C5    c C5    c  5.826        0.0000    0.0000   119.970     Bonded
N6    c H6    c N5    c  4.343        0.0000    0.0000   118.220     Bonded
C6    c C8    c N5    c  5.944        0.0000    0.0000   120.890     Bonded
C7    c H5    c C6    c  4.193        0.0000    0.0000   122.890     Bonded
C5    c H5    c C5    c  4.203        0.0000    0.0000   120.010     Bonded
C7    c C6    c C8    c  5.662        0.0000    0.0000   121.320     Bonded
N5    c C6    c N6    c  6.101        0.0000    0.0000   118.470     Bonded
S5    c O5    c O5    c  4.047        0.0000    0.0000   119.730     Bonded
C6    c H5    c C7    c  4.193        0.0000    0.0000   122.890     Bonded
C5    c C5    c S5    c  6.825        0.0000    0.0000   120.540     Bonded
C7    c H5    c C8    c  4.075        0.0000    0.0000   117.020     Bonded
C6    c C5    c C8    c  5.512        0.0000    0.0000   122.950     Bonded
C8    c C6    c O5    c  5.976        0.0000    0.0000   125.710     Bonded
N6    c C5    c N5    c  5.882        0.0000    0.0000   121.110     Bonded
--------------------------------------------------------------------------------

  Intramolecular Four-body potentials :

  Standard form:

--------------------------------------------------------------------------------
         Atom Types             Force cst Sign Phase Phi0         Cutoffs
   1       2       3       4       (eV)                     1-2  2-3  3-4  4-1
--------------------------------------------------------------------------------
H5    c C7    c C8    c O5    c  0.1247     +   2   180.00  Bonded              
H5    c C7    c C6    c H5    c  0.1735     +   2   180.00  Bonded              
C6    c C7    c C8    c O5    c  0.1247     +   2   180.00  Bonded              
H5    c C5    c C5    c H5    c  0.1572     +   2   180.00  Bonded              
C5    c C6    c N5    c N6    c  0.1800     +   2   180.00  Bonded              
C5    c C5    c C5    c N6    c  0.1572     +   2   180.00  Bonded              
C5    c C5    c S5    c O5    c  0.5637E-01 +   2   180.00  Bonded              
C6    c N5    c N6    c H6    c  0.1214     +   2   180.00  Bonded              
C8    c C7    c C6    c C5    c  0.1735     +   2   180.00  Bonded              
N5    c C6    c C8    c O5    c  0.1247     +   2   180.00  Bonded              
C5    c C5    c C5    c H5    c  0.1572     +   2   180.00  Bonded              
C5    c C6    c C8    c O5    c  0.1247     +   2   180.00  Bonded              
C6    c C7    c C8    c C6    c  0.1247     +   2   180.00  Bonded              
C8    c C6    c N5    c N6    c  0.1800     +   2   180.00  Bonded              
C5    c C5    c C5    c S5    c  0.1572     +   2   180.00  Bonded              
C8    c C7    c C6    c H5    c  0.1735     +   2   180.00  Bonded              
H5    c C5    c C5    c N6    c  0.1572     +   2   180.00  Bonded              
C6    c C5    c C5    c C6    c  0.1572     +   2   180.00  Bonded              
C7    c C8    c C6    c N5    c  0.1247     +   2   180.00  Bonded              
C5    c C5    c N6    c N5    c  0.4553E-01 +   2   180.00  Bonded              
C6    c C8    c C7    c H5    c  0.1247     +   2   180.00  Bonded              
C5    c C6    c C8    c C7    c  0.1247     +   2   180.00  Bonded              
C5    c C5    c C5    c C6    c  0.1572     +   2   180.00  Bonded              
C5    c N6    c N5    c C6    c  0.1214     +   2   180.00  Bonded              
C5    c C5    c C5    c C5    c  0.1572     +   2   180.00  Bonded              
C5    c C6    c C7    c H5    c  0.1735     +   2   180.00  Bonded              
C5    c C5    c N6    c H6    c  0.4553E-01 +   2   180.00  Bonded              
H5    c C5    c C5    c S5    c  0.1572     +   2   180.00  Bonded              
C5    c C5    c C6    c C7    c  0.3036E-01 +   2   180.00  Bonded              
C5    c C5    c C6    c H5    c  0.3036E-01 +   2   180.00  Bonded              
C6    c C5    c C5    c H5    c  0.1572     +   2   180.00  Bonded              
C8    c C6    c C5    c C5    c  0.3036E-01 +   2   180.00  Bonded              
C5    c C5    c C6    c N5    c  0.3036E-01 +   2   180.00  Bonded              
C5    c C6    c C7    c H5    c  0.4770E-01 +   2   180.00  Improp              
C6    c C8    c C7    c O5    c  0.4553     +   2   180.00  Improp              
C5    c N6    c H6    c N5    c  0.4770E-01 +   2   180.00  Improp              
C8    c C6    c C5    c N5    c  0.4770E-01 +   2   180.00  Improp              
C5    c C5    c C5    c N6    c  0.2385E-01 +   2   180.00  Improp              
C8    c C7    c C6    c H5    c  0.4770E-01 +   2   180.00  Improp              
C5    c C5    c C5    c H5    c  0.2385E-01 +   2   180.00  Improp              
C5    c C5    c C5    c S5    c  0.2385E-01 +   2   180.00  Improp              
C5    c C5    c C5    c C6    c  0.2385E-01 +   2   180.00  Improp              
--------------------------------------------------------------------------------

********************************************************************************
*  Output for configuration   1                                                *
********************************************************************************


  Components of energy : 

--------------------------------------------------------------------------------
  Interatomic potentials     =          11.84528563 eV
  Three-body potentials      =           1.97202408 eV
  Four-body potentials       =           1.43420751 eV
  Improper torsions          =           0.00544204 eV
  Out of plane potentials    =           0.00000000 eV
  Monopole - monopole (real) =         -22.81087647 eV
--------------------------------------------------------------------------------
  Total lattice energy       =          -7.55391721 eV
--------------------------------------------------------------------------------
  Total lattice energy       =            -728.8375 kJ/mol
--------------------------------------------------------------------------------


  Number of variables =      231

  Maximum number of calculations  =          1000
  Maximum Hessian update interval =            10
  Maximum step size               =   1.000000000
  Maximum parameter tolerance     =   0.000010000
  Maximum function  tolerance     =   0.000010000
  Maximum gradient  tolerance     =   0.001000000
  Maximum gradient  component     =   0.010000000

  Symmetry not applied to optimisation

  Newton-Raphson optimiser to be used

  BFGS hessian update to be used

  Minimiser to switch to RFO
  When gradient norm is less than     0.050000

  Start of cluster optimisation :

  Cycle:      0 Energy:        -7.553917  Gnorm:      0.113478  CPU:    0.030
  ** Hessian calculated **
  Cycle:      1 Energy:       -16.351252  Gnorm:      0.022647  CPU:    0.068
  ** Hessian has wrong structure
  ** Imaginary eigenvectors =   8
  Cycle:      2 Energy:       -16.581742  Gnorm:      0.012228  CPU:    0.303
  ** Hessian has wrong structure
  ** Imaginary eigenvectors =   5
  Cycle:      3 Energy:       -16.779794  Gnorm:      0.001435  CPU:    0.547
  ** Hessian has wrong structure
  ** Imaginary eigenvectors =   2
  Cycle:      4 Energy:       -16.786072  Gnorm:      0.001412  CPU:    0.759
  ** Hessian has required structure
  Cycle:      5 Energy:       -16.796161  Gnorm:      0.001663  CPU:    0.952
  ** Hessian has required structure
  Cycle:      6 Energy:       -16.797198  Gnorm:      0.000613  CPU:    1.105
  ** Hessian has required structure
  Cycle:      7 Energy:       -16.798545  Gnorm:      0.000937  CPU:    1.258
  ** Hessian has required structure
  Cycle:      8 Energy:       -16.798830  Gnorm:      0.000483  CPU:    1.418
  ** Hessian has wrong structure
  ** Imaginary eigenvectors =   1
  Cycle:      9 Energy:       -16.799267  Gnorm:      0.000593  CPU:    1.600
  ** Hessian has wrong structure
  ** Imaginary eigenvectors =   1
  Cycle:     10 Energy:       -16.799917  Gnorm:      0.000490  CPU:    1.801
  ** Hessian has required structure
  Cycle:     11 Energy:       -16.800729  Gnorm:      0.000672  CPU:    1.964
  ** Hessian has required structure
  Cycle:     12 Energy:       -16.800950  Gnorm:      0.000150  CPU:    2.131
  ** Hessian has required structure
  Cycle:     13 Energy:       -16.801174  Gnorm:      0.000338  CPU:    2.317
  ** Hessian has required structure
  Cycle:     14 Energy:       -16.801214  Gnorm:      0.000328  CPU:    2.514
  ** Hessian has required structure
  Cycle:     15 Energy:       -16.801249  Gnorm:      0.000241  CPU:    2.672
  ** Hessian has required structure
  Cycle:     16 Energy:       -16.801274  Gnorm:      0.000101  CPU:    2.835
  ** Hessian has required structure
  Cycle:     17 Energy:       -16.801303  Gnorm:      0.000074  CPU:    3.057
  ** Hessian has required structure
  Cycle:     18 Energy:       -16.801312  Gnorm:      0.000095  CPU:    3.238
  ** Hessian has required structure
  ** Hessian has required structure
  Cycle:     19 Energy:       -16.801325  Gnorm:      0.000020  CPU:    3.619
  ** Hessian has required structure


  **** Optimisation achieved ****


  Final energy =     -16.80132525 eV
  Final Gnorm  =       0.00000300

  Components of energy : 

--------------------------------------------------------------------------------
  Interatomic potentials     =           1.73028902 eV
  Three-body potentials      =           2.55890579 eV
  Four-body potentials       =           1.29677597 eV
  Improper torsions          =           0.00269195 eV
  Out of plane potentials    =           0.00000000 eV
  Monopole - monopole (real) =         -22.38998797 eV
--------------------------------------------------------------------------------
  Total lattice energy       =         -16.80132525 eV
--------------------------------------------------------------------------------
  Total lattice energy       =           -1621.0711 kJ/mol
--------------------------------------------------------------------------------

  Final cartesian coordinates of atoms :

--------------------------------------------------------------------------------
   No.  Atomic        x           y          z          Radius
        Label       (Angs)      (Angs)     (Angs)       (Angs) 
--------------------------------------------------------------------------------
     1  O5    c    24.209343   14.056850   10.548959    0.000000
     2  S5    c    23.965373   13.785178   11.934644    0.000000
     3  O5    c    25.113023   13.052085   12.380598    0.000000
     4  O5    c    24.028994   15.089827   12.523651    0.000000
     5  C5    c    22.403083   12.987454   12.146961    0.000000
     6  C5    c    22.332633   11.608340   12.354499    0.000000
     7  H5    c    23.247585   11.019389   12.404059    0.000000
     8  C5    c    21.094376   10.975915   12.455177    0.000000
     9  H5    c    21.056235    9.896586   12.584421    0.000000
    10  C5    c    19.914811   11.713459   12.353536    0.000000
    11  C5    c    19.984738   13.097643   12.168371    0.000000
    12  H5    c    19.077781   13.690586   12.076283    0.000000
    13  C5    c    21.222831   13.728923   12.063836    0.000000
    14  H5    c    21.272287   14.803016   11.895232    0.000000
    15  N6    c    18.717520   11.050597   12.405100    0.000000
    16  H6    c    18.751276   10.032778   12.447567    0.000000
    17  N5    c    17.494230   11.644616   12.353728    0.000000
    18  C6    c    16.361000   10.993137   12.358245    0.000000
    19  C5    c    15.136632   11.770560   12.302673    0.000000
    20  C5    c    15.162985   13.171858   12.217856    0.000000
    21  H5    c    16.105416   13.714190   12.202851    0.000000
    22  C5    c    13.982026   13.901779   12.116471    0.000000
    23  H5    c    14.019815   14.986013   12.023178    0.000000
    24  C5    c    12.752758   13.248391   12.100957    0.000000
    25  C5    c    12.716552   11.858496   12.208419    0.000000
    26  H5    c    11.756404   11.346338   12.184148    0.000000
    27  C5    c    13.895995   11.117968   12.305738    0.000000
    28  C6    c    13.779411    9.682506   12.377293    0.000000
    29  H5    c    12.811969    9.187170   12.372739    0.000000
    30  C7    c    14.947147    8.951332   12.414080    0.000000
    31  H5    c    14.928792    7.868657   12.450148    0.000000
    32  C8    c    16.303246    9.508831   12.401797    0.000000
    33  O5    c    17.266310    8.762108   12.432529    0.000000
    34  S5    c    11.266925   14.173118   11.893466    0.000000
    35  O5    c    11.052314   14.482446   10.511028    0.000000
    36  O5    c    10.063603   13.519227   12.312589    0.000000
    37  O5    c    11.303404   15.466460   12.507104    0.000000
    38  O5    c    24.046015    8.933197   10.873024    0.000000
    39  S5    c    23.858007    9.218238    9.481317    0.000000
    40  O5    c    25.060816    9.878476    9.068114    0.000000
    41  O5    c    23.857101    7.911641    8.893199    0.000000
    42  C5    c    22.354625   10.110979    9.226262    0.000000
    43  C5    c    22.375507   11.491630    9.018034    0.000000
    44  H5    c    23.326194   12.022758    8.994487    0.000000
    45  C5    c    21.182068   12.199421    8.883452    0.000000
    46  H5    c    21.214442   13.278930    8.754128    0.000000
    47  C5    c    19.956728   11.536413    8.951560    0.000000
    48  C5    c    19.935634   10.150716    9.137405    0.000000
    49  H5    c    18.991492    9.615145    9.203684    0.000000
    50  C5    c    21.128873    9.444080    9.275839    0.000000
    51  H5    c    21.107016    8.369132    9.444826    0.000000
    52  N6    c    18.804679   12.272091    8.867238    0.000000
    53  H6    c    18.902560   13.285830    8.826607    0.000000
    54  N5    c    17.546000   11.755000    8.884000    0.000000
    55  C6    c    16.455851   12.475396    8.848478    0.000000
    56  C5    c    15.184621   11.775329    8.869250    0.000000
    57  C5    c    15.121779   10.375162    8.953558    0.000000
    58  H5    c    16.028035    9.775527    8.994340    0.000000
    59  C5    c    13.895523    9.719858    9.021381    0.000000
    60  H5    c    13.863488    8.635446    9.114756    0.000000
    61  C5    c    12.709119   10.448125    9.003213    0.000000
    62  C5    c    12.762055   11.837500    8.895980    0.000000
    63  H5    c    11.835160   12.408151    8.893938    0.000000
    64  C5    c    13.987342   12.503488    8.832191    0.000000
    65  C6    c    13.961905   13.943352    8.758656    0.000000
    66  H5    c    13.027239   14.497646    8.736688    0.000000
    67  C7    c    15.173246   14.600782    8.755043    0.000000
    68  H5    c    15.222978   15.682484    8.719414    0.000000
    69  C8    c    16.491352   13.960393    8.804616    0.000000
    70  O5    c    17.499286   14.646022    8.801369    0.000000
    71  S5    c    11.163675    9.617360    9.168448    0.000000
    72  O5    c    10.892008    9.322911   10.544076    0.000000
    73  O5    c    10.015267   10.344205    8.716718    0.000000
    74  O5    c    11.137021    8.323801    8.554777    0.000000
    75  Na5   c     9.155383   15.579828   11.445967    0.000000
    76  Na5   c     8.957462    8.344440    9.555734    0.000000
    77  Na5   c    26.177537   15.012943   11.464596    0.000000
    78  Na5   c    25.975964    7.856275   10.011729    0.000000
--------------------------------------------------------------------------------


  Final Cartesian derivatives :

--------------------------------------------------------------------------------
   No.  Atomic          x             y             z           Radius
        Label       (eV/Angs)     (eV/Angs)    (eV/Angs)      (eV/Angs)
--------------------------------------------------------------------------------
      1 O5    c       0.000004      0.000010     -0.000059      0.000000
      2 S5    c      -0.000015     -0.000101      0.000007      0.000000
      3 O5    c      -0.000004     -0.000011      0.000012      0.000000
      4 O5    c       0.000011      0.000101      0.000040      0.000000
      5 C5    c       0.000016      0.000007     -0.000002      0.000000
      6 C5    c       0.000002     -0.000008      0.000003      0.000000
      7 H5    c       0.000005     -0.000004      0.000001      0.000000
      8 C5    c       0.000004     -0.000004      0.000001      0.000000
      9 H5    c       0.000001     -0.000010      0.000001      0.000000
     10 C5    c      -0.000007     -0.000007      0.000002      0.000000
     11 C5    c      -0.000003      0.000008     -0.000001      0.000000
     12 H5    c      -0.000006      0.000006     -0.000001      0.000000
     13 C5    c      -0.000005      0.000005      0.000000      0.000000
     14 H5    c      -0.000001      0.000011     -0.000002      0.000000
     15 N6    c      -0.000001     -0.000006      0.000001      0.000000
     16 H6    c       0.000002     -0.000002     -0.000001      0.000000
     17 N5    c      -0.000013     -0.000004     -0.000000      0.000000
     18 C6    c       0.000007     -0.000004      0.000001      0.000000
     19 C5    c      -0.000008      0.000002     -0.000001      0.000000
     20 C5    c       0.000008     -0.000008      0.000002      0.000000
     21 H5    c      -0.000005     -0.000005      0.000000      0.000000
     22 C5    c      -0.000015      0.000001     -0.000001      0.000000
     23 H5    c      -0.000003     -0.000003      0.000001      0.000000
     24 C5    c       0.000002      0.000007      0.000001      0.000000
     25 C5    c      -0.000006      0.000008     -0.000001      0.000000
     26 H5    c       0.000004      0.000005     -0.000000      0.000000
     27 C5    c       0.000012     -0.000001      0.000001      0.000000
     28 C6    c      -0.000006      0.000005     -0.000000      0.000000
     29 H5    c       0.000004      0.000004     -0.000000      0.000000
     30 C7    c       0.000009     -0.000001      0.000000      0.000000
     31 H5    c       0.000002      0.000001     -0.000001      0.000000
     32 C8    c      -0.000005      0.000005      0.000001      0.000000
     33 O5    c       0.000008     -0.000002     -0.000000      0.000000
     34 S5    c      -0.000008      0.000015     -0.000015      0.000000
     35 O5    c       0.000007     -0.000002      0.000022      0.000000
     36 O5    c       0.000004      0.000009     -0.000004      0.000000
     37 O5    c      -0.000005     -0.000019     -0.000005      0.000000
     38 O5    c       0.000002      0.000006     -0.000007      0.000000
     39 S5    c      -0.000000      0.000018      0.000022      0.000000
     40 O5    c      -0.000006     -0.000004     -0.000005      0.000000
     41 O5    c       0.000004     -0.000021     -0.000009      0.000000
     42 C5    c       0.000007     -0.000012      0.000001      0.000000
     43 C5    c       0.000005      0.000006     -0.000002      0.000000
     44 H5    c       0.000002      0.000001     -0.000000      0.000000
     45 C5    c      -0.000005      0.000004     -0.000001      0.000000
     46 H5    c      -0.000001      0.000008     -0.000001      0.000000
     47 C5    c       0.000002      0.000005     -0.000002      0.000000
     48 C5    c      -0.000006     -0.000004      0.000000      0.000000
     49 H5    c      -0.000002     -0.000002      0.000001      0.000000
     50 C5    c       0.000004     -0.000003     -0.000000      0.000000
     51 H5    c       0.000000     -0.000008      0.000002      0.000000
     52 N6    c      -0.000011      0.000008     -0.000003      0.000000
     53 H6    c      -0.000003     -0.000006      0.000001      0.000000
     54 N5    c       0.000000      0.000000      0.000000      0.000000
     55 C6    c      -0.000008      0.000005     -0.000001      0.000000
     56 C5    c       0.000008     -0.000007      0.000001      0.000000
     57 C5    c      -0.000005      0.000006     -0.000002      0.000000
     58 H5    c       0.000004     -0.000001     -0.000000      0.000000
     59 C5    c       0.000012     -0.000001     -0.000001      0.000000
     60 H5    c       0.000004      0.000007     -0.000001      0.000000
     61 C5    c      -0.000012      0.000004     -0.000006      0.000000
     62 C5    c       0.000006     -0.000004      0.000001      0.000000
     63 H5    c      -0.000004      0.000003      0.000001      0.000000
     64 C5    c      -0.000009      0.000002     -0.000001      0.000000
     65 C6    c       0.000008     -0.000002      0.000001      0.000000
     66 H5    c      -0.000006      0.000003      0.000000      0.000000
     67 C7    c      -0.000013      0.000000     -0.000001      0.000000
     68 H5    c      -0.000003     -0.000007      0.000001      0.000000
     69 C8    c       0.000015     -0.000005      0.000001      0.000000
     70 O5    c      -0.000013     -0.000013      0.000001      0.000000
     71 S5    c      -0.000231     -0.000194      0.000170      0.000000
     72 O5    c       0.000052      0.000054     -0.000390      0.000000
     73 O5    c       0.000186     -0.000157      0.000101      0.000000
     74 O5    c      -0.000032      0.000286      0.000127      0.000000
     75 Na5   c      -0.000004      0.000001      0.000000      0.000000
     76 Na5   c       0.000029      0.000019     -0.000005      0.000000
     77 Na5   c       0.000006      0.000008     -0.000001      0.000000
     78 Na5   c       0.000005     -0.000003      0.000001      0.000000
--------------------------------------------------------------------------------
  Maximum abs         0.000231      0.000286      0.000390      0.000000
--------------------------------------------------------------------------------


  Born effective charge tensors : 

-------------------------------------------------------------------------------
  Atom             x           y             z
-------------------------------------------------------------------------------
   1 O5    x      -0.6818      0.0000      0.0000
           y       0.0000     -0.6818      0.0000
           z       0.0000      0.0000     -0.6818
-------------------------------------------------------------------------------
   2 S5    x       1.1440      0.0000      0.0000
           y       0.0000      1.1440      0.0000
           z       0.0000      0.0000      1.1440
-------------------------------------------------------------------------------
   3 O5    x      -0.6818      0.0000      0.0000
           y       0.0000     -0.6818      0.0000
           z       0.0000      0.0000     -0.6818
-------------------------------------------------------------------------------
   4 O5    x      -0.6818      0.0000      0.0000
           y       0.0000     -0.6818      0.0000
           z       0.0000      0.0000     -0.6818
-------------------------------------------------------------------------------
   5 C5    x      -0.0734      0.0000      0.0000
           y       0.0000     -0.0734      0.0000
           z       0.0000      0.0000     -0.0734
-------------------------------------------------------------------------------
   6 C5    x      -0.1009      0.0000      0.0000
           y       0.0000     -0.1009      0.0000
           z       0.0000      0.0000     -0.1009
-------------------------------------------------------------------------------
   7 H5    x       0.1446      0.0000      0.0000
           y       0.0000      0.1446      0.0000
           z       0.0000      0.0000      0.1446
-------------------------------------------------------------------------------
   8 C5    x      -0.1678      0.0000      0.0000
           y       0.0000     -0.1678      0.0000
           z       0.0000      0.0000     -0.1678
-------------------------------------------------------------------------------
   9 H5    x       0.1169      0.0000      0.0000
           y       0.0000      0.1169      0.0000
           z       0.0000      0.0000      0.1169
-------------------------------------------------------------------------------
  10 C5    x       0.0333      0.0000      0.0000
           y       0.0000      0.0333      0.0000
           z       0.0000      0.0000      0.0333
-------------------------------------------------------------------------------
  11 C5    x      -0.1678      0.0000      0.0000
           y       0.0000     -0.1678      0.0000
           z       0.0000      0.0000     -0.1678
-------------------------------------------------------------------------------
  12 H5    x       0.1169      0.0000      0.0000
           y       0.0000      0.1169      0.0000
           z       0.0000      0.0000      0.1169
-------------------------------------------------------------------------------
  13 C5    x      -0.1009      0.0000      0.0000
           y       0.0000     -0.1009      0.0000
           z       0.0000      0.0000     -0.1009
-------------------------------------------------------------------------------
  14 H5    x       0.1446      0.0000      0.0000
           y       0.0000      0.1446      0.0000
           z       0.0000      0.0000      0.1446
-------------------------------------------------------------------------------
  15 N6    x      -0.0940      0.0000      0.0000
           y       0.0000     -0.0940      0.0000
           z       0.0000      0.0000     -0.0940
-------------------------------------------------------------------------------
  16 H6    x       0.2606      0.0000      0.0000
           y       0.0000      0.2606      0.0000
           z       0.0000      0.0000      0.2606
-------------------------------------------------------------------------------
  17 N5    x      -0.0985      0.0000      0.0000
           y       0.0000     -0.0985      0.0000
           z       0.0000      0.0000     -0.0985
-------------------------------------------------------------------------------
  18 C6    x      -0.0204      0.0000      0.0000
           y       0.0000     -0.0204      0.0000
           z       0.0000      0.0000     -0.0204
-------------------------------------------------------------------------------
  19 C5    x      -0.0023      0.0000      0.0000
           y       0.0000     -0.0023      0.0000
           z       0.0000      0.0000     -0.0023
-------------------------------------------------------------------------------
  20 C5    x      -0.2262      0.0000      0.0000
           y       0.0000     -0.2262      0.0000
           z       0.0000      0.0000     -0.2262
-------------------------------------------------------------------------------
  21 H5    x       0.1394      0.0000      0.0000
           y       0.0000      0.1394      0.0000
           z       0.0000      0.0000      0.1394
-------------------------------------------------------------------------------
  22 C5    x      -0.0513      0.0000      0.0000
           y       0.0000     -0.0513      0.0000
           z       0.0000      0.0000     -0.0513
-------------------------------------------------------------------------------
  23 H5    x       0.1440      0.0000      0.0000
           y       0.0000      0.1440      0.0000
           z       0.0000      0.0000      0.1440
-------------------------------------------------------------------------------
  24 C5    x      -0.1159      0.0000      0.0000
           y       0.0000     -0.1159      0.0000
           z       0.0000      0.0000     -0.1159
-------------------------------------------------------------------------------
  25 C5    x      -0.0935      0.0000      0.0000
           y       0.0000     -0.0935      0.0000
           z       0.0000      0.0000     -0.0935
-------------------------------------------------------------------------------
  26 H5    x       0.1278      0.0000      0.0000
           y       0.0000      0.1278      0.0000
           z       0.0000      0.0000      0.1278
-------------------------------------------------------------------------------
  27 C5    x       0.0347      0.0000      0.0000
           y       0.0000      0.0347      0.0000
           z       0.0000      0.0000      0.0347
-------------------------------------------------------------------------------
  28 C6    x      -0.1161      0.0000      0.0000
           y       0.0000     -0.1161      0.0000
           z       0.0000      0.0000     -0.1161
-------------------------------------------------------------------------------
  29 H5    x       0.1566      0.0000      0.0000
           y       0.0000      0.1566      0.0000
           z       0.0000      0.0000      0.1566
-------------------------------------------------------------------------------
  30 C7    x      -0.3625      0.0000      0.0000
           y       0.0000     -0.3625      0.0000
           z       0.0000      0.0000     -0.3625
-------------------------------------------------------------------------------
  31 H5    x       0.1432      0.0000      0.0000
           y       0.0000      0.1432      0.0000
           z       0.0000      0.0000      0.1432
-------------------------------------------------------------------------------
  32 C8    x       0.6081      0.0000      0.0000
           y       0.0000      0.6081      0.0000
           z       0.0000      0.0000      0.6081
-------------------------------------------------------------------------------
  33 O5    x      -0.5968      0.0000      0.0000
           y       0.0000     -0.5968      0.0000
           z       0.0000      0.0000     -0.5968
-------------------------------------------------------------------------------
  34 S5    x       1.1659      0.0000      0.0000
           y       0.0000      1.1659      0.0000
           z       0.0000      0.0000      1.1659
-------------------------------------------------------------------------------
  35 O5    x      -0.6823      0.0000      0.0000
           y       0.0000     -0.6823      0.0000
           z       0.0000      0.0000     -0.6823
-------------------------------------------------------------------------------
  36 O5    x      -0.6823      0.0000      0.0000
           y       0.0000     -0.6823      0.0000
           z       0.0000      0.0000     -0.6823
-------------------------------------------------------------------------------
  37 O5    x      -0.6823      0.0000      0.0000
           y       0.0000     -0.6823      0.0000
           z       0.0000      0.0000     -0.6823
-------------------------------------------------------------------------------
  38 O5    x      -0.6818      0.0000      0.0000
           y       0.0000     -0.6818      0.0000
           z       0.0000      0.0000     -0.6818
-------------------------------------------------------------------------------
  39 S5    x       1.1440      0.0000      0.0000
           y       0.0000      1.1440      0.0000
           z       0.0000      0.0000      1.1440
-------------------------------------------------------------------------------
  40 O5    x      -0.6818      0.0000      0.0000
           y       0.0000     -0.6818      0.0000
           z       0.0000      0.0000     -0.6818
-------------------------------------------------------------------------------
  41 O5    x      -0.6818      0.0000      0.0000
           y       0.0000     -0.6818      0.0000
           z       0.0000      0.0000     -0.6818
-------------------------------------------------------------------------------
  42 C5    x      -0.0734      0.0000      0.0000
           y       0.0000     -0.0734      0.0000
           z       0.0000      0.0000     -0.0734
-------------------------------------------------------------------------------
  43 C5    x      -0.1009      0.0000      0.0000
           y       0.0000     -0.1009      0.0000
           z       0.0000      0.0000     -0.1009
-------------------------------------------------------------------------------
  44 H5    x       0.1446      0.0000      0.0000
           y       0.0000      0.1446      0.0000
           z       0.0000      0.0000      0.1446
-------------------------------------------------------------------------------
  45 C5    x      -0.1678      0.0000      0.0000
           y       0.0000     -0.1678      0.0000
           z       0.0000      0.0000     -0.1678
-------------------------------------------------------------------------------
  46 H5    x       0.1169      0.0000      0.0000
           y       0.0000      0.1169      0.0000
           z       0.0000      0.0000      0.1169
-------------------------------------------------------------------------------
  47 C5    x       0.0333      0.0000      0.0000
           y       0.0000      0.0333      0.0000
           z       0.0000      0.0000      0.0333
-------------------------------------------------------------------------------
  48 C5    x      -0.1678      0.0000      0.0000
           y       0.0000     -0.1678      0.0000
           z       0.0000      0.0000     -0.1678
-------------------------------------------------------------------------------
  49 H5    x       0.1169      0.0000      0.0000
           y       0.0000      0.1169      0.0000
           z       0.0000      0.0000      0.1169
-------------------------------------------------------------------------------
  50 C5    x      -0.1009      0.0000      0.0000
           y       0.0000     -0.1009      0.0000
           z       0.0000      0.0000     -0.1009
-------------------------------------------------------------------------------
  51 H5    x       0.1446      0.0000      0.0000
           y       0.0000      0.1446      0.0000
           z       0.0000      0.0000      0.1446
-------------------------------------------------------------------------------
  52 N6    x      -0.0940      0.0000      0.0000
           y       0.0000     -0.0940      0.0000
           z       0.0000      0.0000     -0.0940
-------------------------------------------------------------------------------
  53 H6    x       0.2606      0.0000      0.0000
           y       0.0000      0.2606      0.0000
           z       0.0000      0.0000      0.2606
-------------------------------------------------------------------------------
  54 N5    x      -0.0985      0.0000      0.0000
           y       0.0000     -0.0985      0.0000
           z       0.0000      0.0000     -0.0985
-------------------------------------------------------------------------------
  55 C6    x      -0.0204      0.0000      0.0000
           y       0.0000     -0.0204      0.0000
           z       0.0000      0.0000     -0.0204
-------------------------------------------------------------------------------
  56 C5    x      -0.0023      0.0000      0.0000
           y       0.0000     -0.0023      0.0000
           z       0.0000      0.0000     -0.0023
-------------------------------------------------------------------------------
  57 C5    x      -0.2262      0.0000      0.0000
           y       0.0000     -0.2262      0.0000
           z       0.0000      0.0000     -0.2262
-------------------------------------------------------------------------------
  58 H5    x       0.1394      0.0000      0.0000
           y       0.0000      0.1394      0.0000
           z       0.0000      0.0000      0.1394
-------------------------------------------------------------------------------
  59 C5    x      -0.0513      0.0000      0.0000
           y       0.0000     -0.0513      0.0000
           z       0.0000      0.0000     -0.0513
-------------------------------------------------------------------------------
  60 H5    x       0.1440      0.0000      0.0000
           y       0.0000      0.1440      0.0000
           z       0.0000      0.0000      0.1440
-------------------------------------------------------------------------------
  61 C5    x      -0.1159      0.0000      0.0000
           y       0.0000     -0.1159      0.0000
           z       0.0000      0.0000     -0.1159
-------------------------------------------------------------------------------
  62 C5    x      -0.0935      0.0000      0.0000
           y       0.0000     -0.0935      0.0000
           z       0.0000      0.0000     -0.0935
-------------------------------------------------------------------------------
  63 H5    x       0.1278      0.0000      0.0000
           y       0.0000      0.1278      0.0000
           z       0.0000      0.0000      0.1278
-------------------------------------------------------------------------------
  64 C5    x       0.0347      0.0000      0.0000
           y       0.0000      0.0347      0.0000
           z       0.0000      0.0000      0.0347
-------------------------------------------------------------------------------
  65 C6    x      -0.1161      0.0000      0.0000
           y       0.0000     -0.1161      0.0000
           z       0.0000      0.0000     -0.1161
-------------------------------------------------------------------------------
  66 H5    x       0.1566      0.0000      0.0000
           y       0.0000      0.1566      0.0000
           z       0.0000      0.0000      0.1566
-------------------------------------------------------------------------------
  67 C7    x      -0.3625      0.0000      0.0000
           y       0.0000     -0.3625      0.0000
           z       0.0000      0.0000     -0.3625
-------------------------------------------------------------------------------
  68 H5    x       0.1432      0.0000      0.0000
           y       0.0000      0.1432      0.0000
           z       0.0000      0.0000      0.1432
-------------------------------------------------------------------------------
  69 C8    x       0.6081      0.0000      0.0000
           y       0.0000      0.6081      0.0000
           z       0.0000      0.0000      0.6081
-------------------------------------------------------------------------------
  70 O5    x      -0.5968      0.0000      0.0000
           y       0.0000     -0.5968      0.0000
           z       0.0000      0.0000     -0.5968
-------------------------------------------------------------------------------
  71 S5    x       1.1659      0.0000      0.0000
           y       0.0000      1.1659      0.0000
           z       0.0000      0.0000      1.1659
-------------------------------------------------------------------------------
  72 O5    x      -0.6823      0.0000      0.0000
           y       0.0000     -0.6823      0.0000
           z       0.0000      0.0000     -0.6823
-------------------------------------------------------------------------------
  73 O5    x      -0.6823      0.0000      0.0000
           y       0.0000     -0.6823      0.0000
           z       0.0000      0.0000     -0.6823
-------------------------------------------------------------------------------
  74 O5    x      -0.6823      0.0000      0.0000
           y       0.0000     -0.6823      0.0000
           z       0.0000      0.0000     -0.6823
-------------------------------------------------------------------------------
  75 Na5   x       1.0000      0.0000      0.0000
           y       0.0000      1.0000      0.0000
           z       0.0000      0.0000      1.0000
-------------------------------------------------------------------------------
  76 Na5   x       1.0000      0.0000      0.0000
           y       0.0000      1.0000      0.0000
           z       0.0000      0.0000      1.0000
-------------------------------------------------------------------------------
  77 Na5   x       1.0000      0.0000      0.0000
           y       0.0000      1.0000      0.0000
           z       0.0000      0.0000      1.0000
-------------------------------------------------------------------------------
  78 Na5   x       1.0000      0.0000      0.0000
           y       0.0000      1.0000      0.0000
           z       0.0000      0.0000      1.0000
-------------------------------------------------------------------------------




  Moment of inertia tensor (10^-46 x kgm^2): 

-------------------------------------------------------------------------------
                x           y           z           Principal axis system
-------------------------------------------------------------------------------
       x       1106.05      111.13      -59.73         1101.773932
       y        111.13     4613.06     -164.76         4556.730032
       z        -59.73     -164.76     5019.47         5080.079680
-------------------------------------------------------------------------------
  Centre of mass (Ang) =    17.357688    11.704848    10.616598
-------------------------------------------------------------------------------


  Vibrational Frequency Calculation : 

--------------------------------------------------------------------------------

  Frequencies (cm-1) :

   -0.00   -0.00   -0.00   -0.00    0.00    0.00    7.90   12.08   18.49
   20.55   21.28   27.37   28.85   30.63   31.49   32.56   34.13   44.59
   45.37   57.57   58.61   69.12   78.99   81.95   83.47   89.17   95.77
   97.26  100.62  104.09  108.09  109.17  117.21  128.38  139.89  140.95
  166.56  176.28  176.71  180.49  200.36  200.86  208.66  219.25  220.65
  228.87  246.29  248.69  287.93  290.89  293.16  294.33  296.86  298.15
  299.99  301.61  321.61  325.87  335.10  335.46  336.22  336.67  337.05
  339.45  341.06  342.24  349.50  354.84  369.20  371.19  371.58  372.88
  387.32  388.84  419.80  421.29  422.99  424.97  440.50  441.47  450.70
  451.86  455.95  457.51  471.92  473.72  497.33  498.69  523.41  526.94
  535.15  535.53  538.20  540.12  544.53  544.90  554.59  554.76  581.18
  582.26  604.13  604.36  645.60  645.71  658.89  659.02  689.43  690.58
  711.94  712.88  730.76  730.95  734.14  734.31  745.24  745.31  799.52
  800.27  803.33  803.66  853.54  857.76  866.96  867.03  897.44  898.82
  905.84  908.58  912.26  916.03  944.93  945.15  985.78  985.99 1008.29
 1009.35 1025.75 1027.36 1030.45 1031.96 1041.87 1042.00 1093.46 1093.58
 1109.47 1109.75 1113.37 1113.50 1127.30 1128.40 1150.11 1150.22 1150.51
 1150.95 1161.01 1161.42 1169.27 1169.88 1174.82 1175.39 1191.83 1192.07
 1209.75 1210.63 1221.31 1221.75 1233.99 1234.02 1282.09 1282.46 1292.61
 1292.71 1313.74 1313.84 1346.30 1346.34 1386.75 1387.48 1402.26 1402.45
 1485.69 1485.74 1501.08 1501.20 1533.17 1533.48 1547.67 1547.97 1621.37
 1621.69 1659.56 1660.06 1699.46 1699.69 1711.84 1712.09 1745.47 1745.73
 1761.65 1761.67 1783.67 1783.72 1797.64 1797.72 1813.01 1813.15 1827.66
 1827.79 1842.17 1842.17 1898.73 1898.89 1909.96 1910.10 2965.95 2966.16
 2968.35 2968.36 2968.42 2968.63 2970.11 2970.16 2970.44 2970.78 2971.36
 2971.66 2972.55 2973.06 2981.06 2981.12 2985.90 2986.17 3179.23 3179.54


--------------------------------------------------------------------------------

  Vibrational properties (for cluster):  Temperature  =       0.000 K
--------------------------------------------------------------------------------
  Zero point energy             =        13.991097 eV
--------------------------------------------------------------------------------

  Vibrational density of states : 

--------------------------------------------------------------------------------
 Frequency     Density of States                                                
--------------------------------------------------------------------------------
    0.00000 |**************************************************            0.065
   50.00000 |******************************                                0.039
  100.00000 |**************************                                    0.035
  150.00000 |*************                                                 0.017
  200.00000 |**************************                                    0.035
  250.00000 |***********************                                       0.030
  300.00000 |****************************************                      0.052
  350.00000 |***********************                                       0.030
  400.00000 |********************                                          0.026
  450.00000 |**************************                                    0.035
  500.00000 |**************************                                    0.035
  550.00000 |*************                                                 0.017
  600.00000 |*************                                                 0.017
  650.00000 |*************                                                 0.017
  700.00000 |**************************                                    0.035
  750.00000 |***                                                           0.004
  800.00000 |**********                                                    0.013
  850.00000 |********************                                          0.026
  900.00000 |********************                                          0.026
  950.00000 |******                                                        0.009
 1000.00000 |**************************                                    0.035
 1050.00000 |******                                                        0.009
 1100.00000 |********************                                          0.026
 1150.00000 |****************************************                      0.052
 1200.00000 |********************                                          0.026
 1250.00000 |*************                                                 0.017
 1300.00000 |*************                                                 0.017
 1350.00000 |******                                                        0.009
 1400.00000 |******                                                        0.009
 1450.00000 |******                                                        0.009
 1500.00000 |********************                                          0.026
 1550.00000 |                                                              0.000
 1600.00000 |******                                                        0.009
 1650.00000 |*************                                                 0.017
 1700.00000 |*************                                                 0.017
 1750.00000 |********************                                          0.026
 1800.00000 |********************                                          0.026
 1850.00000 |******                                                        0.009
 1900.00000 |******                                                        0.009
 1950.00000 |                                                              0.000
 2000.00000 |                                                              0.000
 2050.00000 |                                                              0.000
 2100.00000 |                                                              0.000
 2150.00000 |                                                              0.000
 2200.00000 |                                                              0.000
 2250.00000 |                                                              0.000
 2300.00000 |                                                              0.000
 2350.00000 |                                                              0.000
 2400.00000 |                                                              0.000
 2450.00000 |                                                              0.000
 2500.00000 |                                                              0.000
 2550.00000 |                                                              0.000
 2600.00000 |                                                              0.000
 2650.00000 |                                                              0.000
 2700.00000 |                                                              0.000
 2750.00000 |                                                              0.000
 2800.00000 |                                                              0.000
 2850.00000 |                                                              0.000
 2900.00000 |                                                              0.000
 2950.00000 |************************************************************  0.078
 3000.00000 |                                                              0.000
 3050.00000 |                                                              0.000
 3100.00000 |                                                              0.000
 3150.00000 |******                                                        0.009
--------------------------------------------------------------------------------



  Time to end of optimisation =       3.8915 seconds


  Peak dynamic memory used =       1.98 MB 


  Timing analysis for GULP :

--------------------------------------------------------------------------------
  Task / Subroutine                                          Time (Seconds)
--------------------------------------------------------------------------------
  Calculation of real space energy and derivatives                0.4583
  Calculation of three-body energy and derivatives                0.0252
  Calculation of four-body energy and derivatives                 0.0700
  Calculation of molecules and connectivity                       0.0005
  Calculation of phonons                                          0.0780
  Calculation of scattering                                       0.0000
  Calculation of matrix inversion                                 0.0111
  Disk read/write operations to scratch files                     0.0004
  Global summation overhead                                       0.0002
--------------------------------------------------------------------------------
  Total CPU time                                                  3.8916
--------------------------------------------------------------------------------


  Dump file written as ssy_dimer_c_2.res                                       


  Job Finished at 15:19.10 27th March      2014                               

