********************************************************************************
*                       GENERAL UTILITY LATTICE PROGRAM                        *
*                                 Julian Gale                                  *
*                      Nanochemistry Research Institute                        *
*                           Department of Chemistry                            *
*                    Curtin University, Western Australia                      *
********************************************************************************
* Version = 4.2.0 * Last modified =  16th January 2014                         *
********************************************************************************
*  optimise     - perform optimisation run                                     *
*  conp         - constant pressure calculation                                *
*  phonon       - calculate phonons for final geometry                         *
*  eckart       - remove rotation/translation from vibrations of molecules     *
*  lower_symtry - reduce symmetry according to imaginary phonon modes          *
*  nosymmetry   - turn off symmetry after initial structure generation         *
*  molmec       - molecule option activated, Coulomb subtract 1-2/1-3 terms    *
*  rfo          - optimisation step to be determined by RFO method             *
********************************************************************************

  Job Started  at 15:31.42 28th March      2014                               

  Number of CPUs =     1


  Total number of configurations input =   1

********************************************************************************
*  Input for Configuration =   1                                               *
********************************************************************************

  Formula = O14S4C32H20N4Na4                                            

  Number of irreducible atoms/shells =      78


  Total number atoms/shells =      78

  Dimensionality = 0               :  Cluster


  Charge on cluster =  -0.000000


  Initial cluster dipoles : x =     -1.787665 e.Angs
                            y =     -4.047595 e.Angs
                            z =     -0.128998 e.Angs

  Temperature of configuration =  0.000     K 

  Symmetry number =      1

  Cartesian coordinates of cluster :

--------------------------------------------------------------------------------
   No.  Atomic       x           y          z         Charge      Occupancy
        Label      (Angs)      (Angs)     (Angs)        (e)         (Frac)  
--------------------------------------------------------------------------------
      1 O5    c     11.3308 *   14.5264 *   10.4184 *  -0.68180    1.000000    
      2 S5    c     11.6202 *   14.2970 *   11.7960 *   1.14400    1.000000    
      3 O5    c     11.2953 *   15.5382 *   12.4129 *  -0.68180    1.000000    
      4 O5    c     10.6487 *   13.3243 *   12.2246 *  -0.68180    1.000000    
      5 C5    c     13.3104 *   13.7937 *   12.0186 *  -0.07340    1.000000    
      6 C5    c     14.3247 *   14.7535 *   12.0184 *  -0.10090    1.000000    
      7 H5    c     14.0722 *   15.7941 *   11.9107 *   0.14460    1.000000    
      8 C5    c     15.6587 *   14.3686 *   12.1434 *  -0.16780    1.000000    
      9 H5    c     16.4434 *   15.1208 *   12.1276 *   0.11690    1.000000    
     10 C5    c     15.9939 *   13.0207 *   12.2646 *   0.03330    1.000000    
     11 C5    c     14.9783 *   12.0597 *   12.2797 *  -0.16780    1.000000    
     12 H5    c     15.2336 *   10.9939 *   12.3617 *   0.11690    1.000000    
     13 C5    c     13.6440 *   12.4449 *   12.1590 *  -0.10090    1.000000    
     14 H5    c     12.8734 *   11.6737 *   12.1463 *   0.14460    1.000000    
     15 N6    c     17.3158 *   12.6791 *   12.3530 *  -0.09400    1.000000    
     16 H6    c     18.0010 *   13.4391 *   12.4153 *   0.26060    1.000000    
     17 N5    c     17.7973     11.4072     12.3076    -0.09850    1.000000    
     18 C6    c     19.0674 *   11.1024 *   12.3937 *  -0.02040    1.000000    
     19 C5    c     19.4363 *    9.7047 *   12.2626 *  -0.00230    1.000000    
     20 C5    c     18.4788 *    8.7195 *   11.9718 *  -0.22620    1.000000    
     21 H5    c     17.4482 *    8.9744 *   11.8671 *   0.13940    1.000000    
     22 C5    c     18.8541 *    7.3893 *   11.8033 *  -0.05130    1.000000    
     23 H5    c     18.1280 *    6.6328 *   11.5856 *   0.14400    1.000000    
     24 C5    c     20.1900 *    7.0159 *   11.9225 *  -0.11590    1.000000    
     25 C5    c     21.1461 *    7.9868 *   12.2197 *  -0.09350    1.000000    
     26 H5    c     22.2150 *    7.7076 *   12.3105 *   0.12780    1.000000    
     27 C5    c     20.7796 *    9.3238 *   12.3886 *   0.03470    1.000000    
     28 C6    c     21.8281 *   10.2760 *   12.6601 *  -0.11610    1.000000    
     29 H5    c     22.8842 *    9.9832 *   12.7584 *   0.15660    1.000000    
     30 C7    c     21.4745 *   11.6053 *   12.7412 *  -0.36250    1.000000    
     31 H5    c     22.2314 *   12.3839 *   12.9063 *   0.14320    1.000000    
     32 C8    c     20.1149 *   12.1354 *   12.6061 *   0.60810    1.000000    
     33 O5    c     19.9183 *   13.3352 *   12.6866 *  -0.59680    1.000000    
     34 S5    c     20.6283 *    5.3301 *   11.6561 *   1.16590    1.000000    
     35 O5    c     20.3160 *    4.8930 *   10.3472 *  -0.68230    1.000000    
     36 O5    c     22.0243 *    4.9972 *   11.8832 *  -0.68230    1.000000    
     37 O5    c     19.8690 *    4.4384 *   12.4766 *  -0.68230    1.000000    
     38 O5    c     24.1504 *    8.7799 *   10.8265 *  -0.68180    1.000000    
     39 S5    c     23.8996 *    9.0691 *    9.4508 *   1.14400    1.000000    
     40 O5    c     25.0729 *    9.7455 *    9.0208 *  -0.68180    1.000000    
     41 O5    c     23.8759 *    7.7725 *    8.8178 *  -0.68180    1.000000    
     42 C5    c     22.3948 *    9.9929 *    9.2568 *  -0.07340    1.000000    
     43 C5    c     22.4241 *   11.3869 *    9.3362 *  -0.10090    1.000000    
     44 H5    c     23.3604 *   11.8869 *    9.4922 *   0.14460    1.000000    
     45 C5    c     21.2455 *   12.1236 *    9.2269 *  -0.16780    1.000000    
     46 H5    c     21.2732 *   13.2027 *    9.3059 *   0.11690    1.000000    
     47 C5    c     20.0247 *   11.4758 *    9.0425 *   0.03330    1.000000    
     48 C5    c     19.9956 *   10.0808 *    8.9509 *  -0.16780    1.000000    
     49 H5    c     19.0353 *    9.5551 *    8.8190 *   0.11690    1.000000    
     50 C5    c     21.1746 *    9.3444 *    9.0557 *  -0.10090    1.000000    
     51 H5    c     21.1200 *    8.2519 *    9.0040 *   0.14460    1.000000    
     52 N6    c     18.8862 *   12.2311 *    8.9662 *  -0.09400    1.000000    
     53 H6    c     18.9876 *   13.2456 *    8.9697 *   0.26060    1.000000    
     54 N5    c     17.6207 *   11.7316 *    8.9379 *  -0.09850    1.000000    
     55 C6    c     16.5427 *   12.4695 *    8.8591 *  -0.02040    1.000000    
     56 C5    c     15.2580 *   11.7961 *    8.9136 *  -0.00230    1.000000    
     57 C5    c     15.1670 *   10.4103 *    9.1213 *  -0.22620    1.000000    
     58 H5    c     16.0437 *    9.8096 *    9.2175 *   0.13940    1.000000    
     59 C5    c     13.9269 *    9.7856 *    9.2230 *  -0.05130    1.000000    
     60 H5    c     13.8477 *    8.7256 *    9.3804 *   0.14400    1.000000    
     61 C5    c     12.7549 *   10.5293 *    9.1158 *  -0.11590    1.000000    
     62 C5    c     12.8364 *   11.9039 *    8.8961 *  -0.09350    1.000000    
     63 H5    c     11.9113 *   12.5084 *    8.8159 *   0.12780    1.000000    
     64 C5    c     14.0756 *   12.5405 *    8.7985 *   0.03470    1.000000    
     65 C6    c     14.0800 *   13.9705 *    8.6134 *  -0.11610    1.000000    
     66 H5    c     13.1539 *   14.5570 *    8.5304 *   0.15660    1.000000    
     67 C7    c     15.3026 *   14.6060 *    8.6013 *  -0.36250    1.000000    
     68 H5    c     15.3725 *   15.6938 *    8.5064 *   0.14320    1.000000    
     69 C8    c     16.6062 *   13.9489 *    8.7326 *   0.60810    1.000000    
     70 O5    c     17.6275 *   14.6144 *    8.7168 *  -0.59680    1.000000    
     71 S5    c     11.2094 *    9.7125 *    9.3107 *   1.16590    1.000000    
     72 O5    c     11.0809 *    9.0942 *   10.5758 *  -0.68230    1.000000    
     73 O5    c     10.0271 *   10.5361 *    9.1197 *  -0.68230    1.000000    
     74 O5    c     11.0646 *    8.6084 *    8.4077 *  -0.68230    1.000000    
     75 Na5   c     21.1201 *    2.8391 *   11.2176 *   1.00000    1.000000    
     76 Na5   c      9.0280 *    8.3800 *    9.6388 *   1.00000    1.000000    
     77 Na5   c      9.2014 *   15.0355 *   11.3410 *   1.00000    1.000000    
     78 Na5   c     26.0435 *    7.7121 *    9.8624 *   1.00000    1.000000    
--------------------------------------------------------------------------------



  Molecule list generated from bond lengths :

  Total number of molecules =     2

--------------------------------------------------------------------------------
Molecule No./:  Atoms
Periodicity  :  
--------------------------------------------------------------------------------
     1  0    : O5   c     1 S5   c     2 O5   c     3 O5   c     4 C5   c     5
             : C5   c     6 H5   c     7 C5   c     8 H5   c     9 C5   c    10
             : C5   c    11 H5   c    12 C5   c    13 H5   c    14 N6   c    15
             : H6   c    16 N5   c    17 C6   c    18 C5   c    19 C5   c    20
             : H5   c    21 C5   c    22 H5   c    23 C5   c    24 C5   c    25
             : H5   c    26 C5   c    27 C6   c    28 H5   c    29 C7   c    30
             : H5   c    31 C8   c    32 O5   c    33 S5   c    34 O5   c    35
             : O5   c    36 O5   c    37
     2  0    : O5   c    38 S5   c    39 O5   c    40 O5   c    41 C5   c    42
             : C5   c    43 H5   c    44 C5   c    45 H5   c    46 C5   c    47
             : C5   c    48 H5   c    49 C5   c    50 H5   c    51 N6   c    52
             : H6   c    53 N5   c    54 C6   c    55 C5   c    56 C5   c    57
             : H5   c    58 C5   c    59 H5   c    60 C5   c    61 C5   c    62
             : H5   c    63 C5   c    64 C6   c    65 H5   c    66 C7   c    67
             : H5   c    68 C8   c    69 O5   c    70 S5   c    71 O5   c    72
             : O5   c    73 O5   c    74
--------------------------------------------------------------------------------


********************************************************************************
*  General input information                                                   *
********************************************************************************

  Species output for all configurations : 

--------------------------------------------------------------------------------
  Species    Type    Atomic    Atomic    Charge       Radii (Angs)     Library
                     Number     Mass       (e)     Cova   Ionic  VDW   Symbol
--------------------------------------------------------------------------------
    O5       Core        8      16.00  -0.681800   0.730  0.000  1.360          
    S5       Core       16      32.07   1.144000   1.020  0.000  1.700          
    C5       Core        6      12.01  -0.073400   0.770  0.000  1.530          
    H5       Core        1       1.01   0.144600   0.370  0.000  1.080          
    N6       Core        7      14.01  -0.094000   0.750  0.000  1.480          
    H6       Core        1       1.01   0.260600   0.370  0.000  1.080          
    N5       Core        7      14.01  -0.098500   0.750  0.000  1.480          
    C6       Core        6      12.01  -0.020400   0.770  0.000  1.530          
    C7       Core        6      12.01  -0.362500   0.770  0.000  1.530          
    C8       Core        6      12.01   0.608100   0.770  0.000  1.530          
    Na5      Core       11      22.99   1.000000   0.010  0.000  2.300          
--------------------------------------------------------------------------------


  Accuracy factor for short range sums = 12.000

  Time limit = Infinity

  Maximum range for interatomic potentials =        10.000000 Angstroms

  Taper potentials to zero over  10.0000 Angstroms using M-D-F

  General interatomic potentials :

--------------------------------------------------------------------------------
Atom  Types   Potential         A         B         C         D     Cutoffs(Ang)
  1     2                                                            Min    Max 
--------------------------------------------------------------------------------
C8   c C8   c Lenn/es 12  6 0.373E-02  3.82      0.00      0.00     3Bond 99.000
C8   c O5   c Lenn/es 12  6 0.583E-02  3.57      0.00      0.00     3Bond 99.000
O5   c O5   c Lenn/es 12  6 0.911E-02  3.32      0.00      0.00     3Bond 99.000
C7   c C8   c Lenn/es 12  6 0.373E-02  3.82      0.00      0.00     3Bond 99.000
C7   c O5   c Lenn/es 12  6 0.583E-02  3.57      0.00      0.00     3Bond 99.000
C7   c C7   c Lenn/es 12  6 0.373E-02  3.82      0.00      0.00     3Bond 99.000
C6   c C8   c Lenn/es 12  6 0.373E-02  3.82      0.00      0.00     3Bond 99.000
C6   c O5   c Lenn/es 12  6 0.583E-02  3.57      0.00      0.00     3Bond 99.000
C6   c C7   c Lenn/es 12  6 0.373E-02  3.82      0.00      0.00     3Bond 99.000
C6   c C6   c Lenn/es 12  6 0.373E-02  3.82      0.00      0.00     3Bond 99.000
C8   c N5   c Lenn/es 12  6 0.524E-02  3.73      0.00      0.00     3Bond 99.000
N5   c O5   c Lenn/es 12  6 0.819E-02  3.49      0.00      0.00     3Bond 99.000
C7   c N5   c Lenn/es 12  6 0.524E-02  3.73      0.00      0.00     3Bond 99.000
C6   c N5   c Lenn/es 12  6 0.524E-02  3.73      0.00      0.00     3Bond 99.000
N5   c N5   c Lenn/es 12  6 0.737E-02  3.65      0.00      0.00     3Bond 99.000
C8   c N6   c Lenn/es 12  6 0.524E-02  3.73      0.00      0.00     3Bond 99.000
N6   c O5   c Lenn/es 12  6 0.819E-02  3.49      0.00      0.00     3Bond 99.000
C7   c N6   c Lenn/es 12  6 0.524E-02  3.73      0.00      0.00     3Bond 99.000
C6   c N6   c Lenn/es 12  6 0.524E-02  3.73      0.00      0.00     3Bond 99.000
N5   c N6   c Lenn/es 12  6 0.737E-02  3.65      0.00      0.00     3Bond 99.000
N6   c N6   c Lenn/es 12  6 0.737E-02  3.65      0.00      0.00     3Bond 99.000
C5   c C8   c Lenn/es 12  6 0.373E-02  3.82      0.00      0.00     3Bond 99.000
C5   c O5   c Lenn/es 12  6 0.583E-02  3.57      0.00      0.00     3Bond 99.000
C5   c C7   c Lenn/es 12  6 0.373E-02  3.82      0.00      0.00     3Bond 99.000
C5   c C6   c Lenn/es 12  6 0.373E-02  3.82      0.00      0.00     3Bond 99.000
C5   c N5   c Lenn/es 12  6 0.524E-02  3.73      0.00      0.00     3Bond 99.000
C5   c N6   c Lenn/es 12  6 0.524E-02  3.73      0.00      0.00     3Bond 99.000
C5   c C5   c Lenn/es 12  6 0.373E-02  3.82      0.00      0.00     3Bond 99.000
H6   c C8   c Lenn/es 12  6 0.159E-02  2.51      0.00      0.00     3Bond 99.000
H6   c O5   c Lenn/es 12  6 0.249E-02  2.26      0.00      0.00     3Bond 99.000
H6   c C7   c Lenn/es 12  6 0.159E-02  2.51      0.00      0.00     3Bond 99.000
H6   c C6   c Lenn/es 12  6 0.159E-02  2.51      0.00      0.00     3Bond 99.000
H6   c N5   c Lenn/es 12  6 0.224E-02  2.42      0.00      0.00     3Bond 99.000
H6   c N6   c Lenn/es 12  6 0.224E-02  2.42      0.00      0.00     3Bond 99.000
H6   c C5   c Lenn/es 12  6 0.159E-02  2.51      0.00      0.00     3Bond 99.000
H6   c H6   c Lenn/es 12  6 0.681E-03  1.20      0.00      0.00     3Bond 99.000
H5   c C8   c Lenn/es 12  6 0.156E-02  3.37      0.00      0.00     3Bond 99.000
H5   c O5   c Lenn/es 12  6 0.243E-02  3.12      0.00      0.00     3Bond 99.000
H5   c C7   c Lenn/es 12  6 0.156E-02  3.37      0.00      0.00     3Bond 99.000
H5   c C6   c Lenn/es 12  6 0.156E-02  3.37      0.00      0.00     3Bond 99.000
H5   c N5   c Lenn/es 12  6 0.219E-02  3.28      0.00      0.00     3Bond 99.000
H5   c N6   c Lenn/es 12  6 0.219E-02  3.28      0.00      0.00     3Bond 99.000
H5   c C5   c Lenn/es 12  6 0.156E-02  3.37      0.00      0.00     3Bond 99.000
H5   c H6   c Lenn/es 12  6 0.665E-03  2.06      0.00      0.00     3Bond 99.000
H5   c H5   c Lenn/es 12  6 0.650E-03  2.92      0.00      0.00     3Bond 99.000
C8   c S5   c Lenn/es 12  6 0.636E-02  3.91      0.00      0.00     3Bond 99.000
O5   c S5   c Lenn/es 12  6 0.994E-02  3.66      0.00      0.00     3Bond 99.000
C7   c S5   c Lenn/es 12  6 0.636E-02  3.91      0.00      0.00     3Bond 99.000
C6   c S5   c Lenn/es 12  6 0.636E-02  3.91      0.00      0.00     3Bond 99.000
N5   c S5   c Lenn/es 12  6 0.894E-02  3.82      0.00      0.00     3Bond 99.000
N6   c S5   c Lenn/es 12  6 0.894E-02  3.82      0.00      0.00     3Bond 99.000
C5   c S5   c Lenn/es 12  6 0.636E-02  3.91      0.00      0.00     3Bond 99.000
H6   c S5   c Lenn/es 12  6 0.272E-02  2.60      0.00      0.00     3Bond 99.000
H5   c S5   c Lenn/es 12  6 0.266E-02  3.46      0.00      0.00     3Bond 99.000
S5   c S5   c Lenn/es 12  6 0.108E-01  4.00      0.00      0.00     3Bond 99.000
C8   c Na5  c Lenn/es 12  6 0.669E-03  3.78      0.00      0.00     3Bond 99.000
O5   c Na5  c Lenn/es 12  6 0.105E-02  3.53      0.00      0.00     3Bond 99.000
C7   c Na5  c Lenn/es 12  6 0.669E-03  3.78      0.00      0.00     3Bond 99.000
C6   c Na5  c Lenn/es 12  6 0.669E-03  3.78      0.00      0.00     3Bond 99.000
N5   c Na5  c Lenn/es 12  6 0.941E-03  3.69      0.00      0.00     3Bond 99.000
N6   c Na5  c Lenn/es 12  6 0.941E-03  3.69      0.00      0.00     3Bond 99.000
C5   c Na5  c Lenn/es 12  6 0.669E-03  3.78      0.00      0.00     3Bond 99.000
H6   c Na5  c Lenn/es 12  6 0.286E-03  2.47      0.00      0.00     3Bond 99.000
H5   c Na5  c Lenn/es 12  6 0.280E-03  3.33      0.00      0.00     3Bond 99.000
Na5  c S5   c Lenn/es 12  6 0.114E-02  3.87      0.00      0.00     3Bond 99.000
Na5  c Na5  c Lenn/es 12  6 0.120E-03  3.74      0.00      0.00     3Bond 99.000
--------------------------------------------------------------------------------

  Intramolecular potentials :

--------------------------------------------------------------------------------
Atom  Types   Potential         A         B         C         D     Cutoffs(Ang)
  1     2                                                            Min    Max 
--------------------------------------------------------------------------------
X    c X    c Coulomb        0.00      0.00      0.00      1.00     1-4only 7.00
H6   c N6   c Harmonic       34.8      1.01      0.00      0.00     0.000 1 Bond
H5   c C5   c Harmonic       29.9      1.09      0.00      0.00     0.000 1 Bond
C5   c S5   c Harmonic       22.9      1.76      0.00      0.00     0.000 1 Bond
C8   c O5   c Harmonic       56.2      1.21      0.00      0.00     0.000 1 Bond
C6   c C7   c Harmonic       43.7      1.37      0.00      0.00     0.000 1 Bond
C6   c N5   c Harmonic       49.7      1.29      0.00      0.00     0.000 1 Bond
H5   c C6   c Harmonic       30.1      1.08      0.00      0.00     0.000 1 Bond
O5   c S5   c Harmonic       46.9      1.44      0.00      0.00     0.000 1 Bond
C7   c C8   c Harmonic       32.7      1.46      0.00      0.00     0.000 1 Bond
C6   c C8   c Harmonic       32.7      1.46      0.00      0.00     0.000 1 Bond
C5   c C6   c Harmonic       35.7      1.43      0.00      0.00     0.000 1 Bond
C5   c C5   c Harmonic       41.5      1.39      0.00      0.00     0.000 1 Bond
H5   c C7   c Harmonic       30.1      1.08      0.00      0.00     0.000 1 Bond
N5   c N6   c Harmonic       45.5      1.36      0.00      0.00     0.000 1 Bond
C5   c N6   c Harmonic       38.9      1.36      0.00      0.00     0.000 1 Bond
--------------------------------------------------------------------------------

  Intermolecular potentials :

--------------------------------------------------------------------------------
Atom  Types   Potential         A         B         C         D     Cutoffs(Ang)
  1     2                                                            Min    Max 
--------------------------------------------------------------------------------
O5   c Na5  c Harmonic       2.00      2.40      0.00      0.00     0.000  5.000
--------------------------------------------------------------------------------

  Intramolecular Three-body potentials :

  Harmonic form:

--------------------------------------------------------------------------------
Atom    Atom    Atom           Force Constants            Theta     Cutoffs  
  1       2       3     (eVrad**-2/eVrad**-3/eVrad**-4)   (deg)  1-2  1-3  2-3
--------------------------------------------------------------------------------
N6    c H6    c C5    c  4.257        0.0000    0.0000   116.130     Bonded
C6    c C5    c C7    c  5.917        0.0000    0.0000   113.510     Bonded
C6    c C5    c N5    c  5.942        0.0000    0.0000   120.720     Bonded
C8    c C6    c C7    c  5.701        0.0000    0.0000   112.790     Bonded
S5    c C5    c O5    c  3.710        0.0000    0.0000   104.070     Bonded
C6    c H5    c C5    c  4.024        0.0000    0.0000   124.040     Bonded
C8    c C7    c O5    c  5.977        0.0000    0.0000   125.710     Bonded
C5    c C5    c C6    c  5.723        0.0000    0.0000   120.100     Bonded
C5    c C5    c N6    c  6.014        0.0000    0.0000   120.130     Bonded
C5    c C5    c C5    c  5.826        0.0000    0.0000   119.970     Bonded
N6    c H6    c N5    c  4.343        0.0000    0.0000   118.220     Bonded
C6    c C8    c N5    c  5.944        0.0000    0.0000   120.890     Bonded
C7    c H5    c C6    c  4.193        0.0000    0.0000   122.890     Bonded
C5    c H5    c C5    c  4.203        0.0000    0.0000   120.010     Bonded
C7    c C6    c C8    c  5.662        0.0000    0.0000   121.320     Bonded
N5    c C6    c N6    c  6.101        0.0000    0.0000   118.470     Bonded
S5    c O5    c O5    c  4.047        0.0000    0.0000   119.730     Bonded
C6    c H5    c C7    c  4.193        0.0000    0.0000   122.890     Bonded
C5    c C5    c S5    c  6.825        0.0000    0.0000   120.540     Bonded
C7    c H5    c C8    c  4.075        0.0000    0.0000   117.020     Bonded
C6    c C5    c C8    c  5.512        0.0000    0.0000   122.950     Bonded
C8    c C6    c O5    c  5.977        0.0000    0.0000   125.710     Bonded
N6    c C5    c N5    c  5.882        0.0000    0.0000   121.110     Bonded
--------------------------------------------------------------------------------

  Intramolecular Four-body potentials :

  Standard form:

--------------------------------------------------------------------------------
         Atom Types             Force cst Sign Phase Phi0         Cutoffs
   1       2       3       4       (eV)                     1-2  2-3  3-4  4-1
--------------------------------------------------------------------------------
H5    c C7    c C8    c O5    c  0.1247     +   2   180.00  Bonded              
H5    c C7    c C6    c H5    c  0.1735     +   2   180.00  Bonded              
C6    c C7    c C8    c O5    c  0.1247     +   2   180.00  Bonded              
H5    c C5    c C5    c H5    c  0.1572     +   2   180.00  Bonded              
C5    c C6    c N5    c N6    c  0.1800     +   2   180.00  Bonded              
C5    c C5    c C5    c N6    c  0.1572     +   2   180.00  Bonded              
C5    c C5    c S5    c O5    c  0.5637E-01 +   2   180.00  Bonded              
C6    c N5    c N6    c H6    c  0.1214     +   2   180.00  Bonded              
C8    c C7    c C6    c C5    c  0.1735     +   2   180.00  Bonded              
N5    c C6    c C8    c O5    c  0.1247     +   2   180.00  Bonded              
C5    c C5    c C5    c H5    c  0.1572     +   2   180.00  Bonded              
C5    c C6    c C8    c O5    c  0.1247     +   2   180.00  Bonded              
C6    c C7    c C8    c C6    c  0.1247     +   2   180.00  Bonded              
C8    c C6    c N5    c N6    c  0.1800     +   2   180.00  Bonded              
C5    c C5    c C5    c S5    c  0.1572     +   2   180.00  Bonded              
C8    c C7    c C6    c H5    c  0.1735     +   2   180.00  Bonded              
H5    c C5    c C5    c N6    c  0.1572     +   2   180.00  Bonded              
C6    c C5    c C5    c C6    c  0.1572     +   2   180.00  Bonded              
C7    c C8    c C6    c N5    c  0.1247     +   2   180.00  Bonded              
C5    c C5    c N6    c N5    c  0.4553E-01 +   2   180.00  Bonded              
C6    c C8    c C7    c H5    c  0.1247     +   2   180.00  Bonded              
C5    c C6    c C8    c C7    c  0.1247     +   2   180.00  Bonded              
C5    c C5    c C5    c C6    c  0.1572     +   2   180.00  Bonded              
C5    c N6    c N5    c C6    c  0.1214     +   2   180.00  Bonded              
C5    c C5    c C5    c C5    c  0.1572     +   2   180.00  Bonded              
C5    c C6    c C7    c H5    c  0.1735     +   2   180.00  Bonded              
C5    c C5    c N6    c H6    c  0.4553E-01 +   2   180.00  Bonded              
H5    c C5    c C5    c S5    c  0.1572     +   2   180.00  Bonded              
C5    c C5    c C6    c C7    c  0.3036E-01 +   2   180.00  Bonded              
C5    c C5    c C6    c H5    c  0.3036E-01 +   2   180.00  Bonded              
C6    c C5    c C5    c H5    c  0.1572     +   2   180.00  Bonded              
C8    c C6    c C5    c C5    c  0.3036E-01 +   2   180.00  Bonded              
C5    c C5    c C6    c N5    c  0.3036E-01 +   2   180.00  Bonded              
C5    c C6    c C7    c H5    c  0.4770E-01 +   2   180.00  Improp              
C6    c C8    c C7    c O5    c  0.4553     +   2   180.00  Improp              
C5    c N6    c H6    c N5    c  0.4770E-01 +   2   180.00  Improp              
C8    c C6    c C5    c N5    c  0.4770E-01 +   2   180.00  Improp              
C5    c C5    c C5    c N6    c  0.2385E-01 +   2   180.00  Improp              
C8    c C7    c C6    c H5    c  0.4770E-01 +   2   180.00  Improp              
C5    c C5    c C5    c H5    c  0.2385E-01 +   2   180.00  Improp              
C5    c C5    c C5    c S5    c  0.2385E-01 +   2   180.00  Improp              
C5    c C5    c C5    c C6    c  0.2385E-01 +   2   180.00  Improp              
--------------------------------------------------------------------------------

********************************************************************************
*  Output for configuration   1                                                *
********************************************************************************


  Components of energy : 

--------------------------------------------------------------------------------
  Interatomic potentials     =           1.89663743 eV
  Three-body potentials      =           2.51900783 eV
  Four-body potentials       =           1.32185942 eV
  Improper torsions          =           0.00243726 eV
  Out of plane potentials    =           0.00000000 eV
  Monopole - monopole (real) =         -22.28416171 eV
--------------------------------------------------------------------------------
  Total lattice energy       =         -16.54421977 eV
--------------------------------------------------------------------------------
  Total lattice energy       =           -1596.2643 kJ/mol
--------------------------------------------------------------------------------


  Number of variables =      231

  Maximum number of calculations  =          1000
  Maximum Hessian update interval =            10
  Maximum step size               =   1.000000000
  Maximum parameter tolerance     =   0.000010000
  Maximum function  tolerance     =   0.000010000
  Maximum gradient  tolerance     =   0.001000000
  Maximum gradient  component     =   0.010000000

  RFO method to be used

  DFP hessian update to be used

  Minimiser to switch to RFO
  When gradient norm is less than     0.000500

  Start of cluster optimisation :

  Cycle:      0 Energy:       -16.544220  Gnorm:      0.019819  CPU:    0.018
  ** Hessian has wrong structure
  ** Imaginary eigenvectors =   5
  ** Hessian has wrong structure
  ** Imaginary eigenvectors =   4
  Cycle:      1 Energy:       -16.676631  Gnorm:      0.000353  CPU:    0.328
  ** Hessian has wrong structure
  ** Imaginary eigenvectors =   4
  ** Hessian has required structure
  Cycle:      2 Energy:       -16.678717  Gnorm:      0.000824  CPU:    0.556
  ** Hessian has required structure
  Cycle:      3 Energy:       -16.679190  Gnorm:      0.000805  CPU:    0.667
  ** Hessian has required structure
  Cycle:      4 Energy:       -16.679320  Gnorm:      0.000772  CPU:    0.778
  ** Hessian has required structure
  Cycle:      5 Energy:       -16.679320  Gnorm:      0.000772  CPU:    0.900
  ** Hessian has required structure
  Cycle:      6 Energy:       -16.679320  Gnorm:      0.000772  CPU:    1.028
  ** Hessian calculated **
  Cycle:      7 Energy:       -16.679511  Gnorm:      0.000345  CPU:    1.054
  ** Hessian has required structure
  Cycle:      8 Energy:       -16.679530  Gnorm:      0.000331  CPU:    1.150
  ** Hessian has required structure
  Cycle:      9 Energy:       -16.679540  Gnorm:      0.000352  CPU:    1.240
  ** Hessian has required structure
  Cycle:     10 Energy:       -16.679543  Gnorm:      0.000355  CPU:    1.335
  ** Hessian has required structure
  Cycle:     11 Energy:       -16.679545  Gnorm:      0.000348  CPU:    1.428
  ** Hessian has required structure
  Cycle:     12 Energy:       -16.679547  Gnorm:      0.000343  CPU:    1.520
  ** Hessian has required structure
  Cycle:     13 Energy:       -16.679549  Gnorm:      0.000344  CPU:    1.614
  ** Hessian has required structure
  Cycle:     14 Energy:       -16.679552  Gnorm:      0.000339  CPU:    1.706
  ** Hessian has required structure
  Cycle:     15 Energy:       -16.679554  Gnorm:      0.000329  CPU:    1.796
  ** Hessian has required structure
  Cycle:     16 Energy:       -16.679556  Gnorm:      0.000325  CPU:    1.886
  ** Hessian has required structure
  Cycle:     17 Energy:       -16.679556  Gnorm:      0.000325  CPU:    2.012
  ** Hessian calculated **


  **** Optimisation achieved ****


  Final energy =     -16.67955600 eV
  Final Gnorm  =       0.00032462

  Components of energy : 

--------------------------------------------------------------------------------
  Interatomic potentials     =           1.77291699 eV
  Three-body potentials      =           2.57745783 eV
  Four-body potentials       =           1.29648992 eV
  Improper torsions          =           0.00222968 eV
  Out of plane potentials    =           0.00000000 eV
  Monopole - monopole (real) =         -22.32865042 eV
--------------------------------------------------------------------------------
  Total lattice energy       =         -16.67955600 eV
--------------------------------------------------------------------------------
  Total lattice energy       =           -1609.3222 kJ/mol
--------------------------------------------------------------------------------

  Final cartesian coordinates of atoms :

--------------------------------------------------------------------------------
   No.  Atomic        x           y          z          Radius
        Label       (Angs)      (Angs)     (Angs)       (Angs) 
--------------------------------------------------------------------------------
     1  O5    c    11.345571   14.574571   10.413926    0.000000
     2  S5    c    11.617352   14.267245   11.787627    0.000000
     3  O5    c    11.268851   15.488054   12.452008    0.000000
     4  O5    c    10.642595   13.282007   12.150920    0.000000
     5  C5    c    13.301975   13.781790   12.011298    0.000000
     6  C5    c    14.311634   14.745472   12.051233    0.000000
     7  H5    c    14.054347   15.798998   11.960436    0.000000
     8  C5    c    15.645637   14.363031   12.183386    0.000000
     9  H5    c    16.423510   15.123855   12.193321    0.000000
    10  C5    c    15.985466   13.013787   12.272047    0.000000
    11  C5    c    14.974451   12.048340   12.246330    0.000000
    12  H5    c    15.218109   10.990628   12.307000    0.000000
    13  C5    c    13.640078   12.431066   12.118176    0.000000
    14  H5    c    12.859746   11.672393   12.076035    0.000000
    15  N6    c    17.308652   12.675593   12.371046    0.000000
    16  H6    c    17.979225   13.438489   12.463162    0.000000
    17  N5    c    17.797344   11.407195   12.307553    0.000000
    18  C6    c    19.065787   11.107118   12.411134    0.000000
    19  C5    c    19.445344    9.714551   12.257651    0.000000
    20  C5    c    18.499708    8.730990   11.925844    0.000000
    21  H5    c    17.451351    8.987400   11.793445    0.000000
    22  C5    c    18.886369    7.407114   11.734707    0.000000
    23  H5    c    18.145664    6.656243   11.464702    0.000000
    24  C5    c    20.221507    7.038004   11.873691    0.000000
    25  C5    c    21.165157    8.006595   12.213967    0.000000
    26  H5    c    22.210916    7.722074   12.310275    0.000000
    27  C5    c    20.787950    9.337920   12.402625    0.000000
    28  C6    c    21.826031   10.289465   12.712581    0.000000
    29  H5    c    22.864616    9.988499   12.819808    0.000000
    30  C7    c    21.463464   11.614847   12.814588    0.000000
    31  H5    c    22.201120   12.383267   13.012054    0.000000
    32  C8    c    20.103507   12.140436   12.665628    0.000000
    33  O5    c    19.901099   13.338075   12.767570    0.000000
    34  S5    c    20.700177    5.363928   11.594333    0.000000
    35  O5    c    20.297687    4.913708   10.295496    0.000000
    36  O5    c    22.090309    5.047873   11.742805    0.000000
    37  O5    c    19.983845    4.461878   12.446261    0.000000
    38  O5    c    24.142979    8.812847   10.859125    0.000000
    39  S5    c    23.825559    9.005225    9.474426    0.000000
    40  O5    c    25.006896    9.638834    8.968128    0.000000
    41  O5    c    23.768377    7.684675    8.921602    0.000000
    42  C5    c    22.352557    9.963319    9.283531    0.000000
    43  C5    c    22.397520   11.354140    9.399280    0.000000
    44  H5    c    23.347733   11.847967    9.593249    0.000000
    45  C5    c    21.230079   12.108344    9.289224    0.000000
    46  H5    c    21.277423   13.189718    9.400551    0.000000
    47  C5    c    20.004900   11.480839    9.067392    0.000000
    48  C5    c    19.960449   10.089291    8.938549    0.000000
    49  H5    c    19.014934    9.579010    8.772894    0.000000
    50  C5    c    21.128279    9.335639    9.044598    0.000000
    51  H5    c    21.082703    8.250446    8.964816    0.000000
    52  N6    c    18.875383   12.251776    8.993261    0.000000
    53  H6    c    18.998359   13.263881    9.020079    0.000000
    54  N5    c    17.604566   11.768691    8.935046    0.000000
    55  C6    c    16.537909   12.520889    8.860230    0.000000
    56  C5    c    15.244974   11.861748    8.877609    0.000000
    57  C5    c    15.134816   10.472166    9.047024    0.000000
    58  H5    c    16.021130    9.850675    9.150124    0.000000
    59  C5    c    13.886280    9.859822    9.113621    0.000000
    60  H5    c    13.813862    8.783472    9.260604    0.000000
    61  C5    c    12.724663   10.619797    9.008513    0.000000
    62  C5    c    12.825375   11.998531    8.826040    0.000000
    63  H5    c    11.918155   12.595062    8.756380    0.000000
    64  C5    c    14.073091   12.622816    8.764416    0.000000
    65  C6    c    14.096903   14.057113    8.617783    0.000000
    66  H5    c    13.182782   14.638861    8.535152    0.000000
    67  C7    c    15.326835   14.678046    8.641141    0.000000
    68  H5    c    15.411365   15.755600    8.567947    0.000000
    69  C8    c    16.620532   14.002187    8.774178    0.000000
    70  O5    c    17.648675   14.656524    8.793006    0.000000
    71  S5    c    11.151268    9.834592    9.137337    0.000000
    72  O5    c    11.018215    9.140632   10.383391    0.000000
    73  O5    c     9.992195   10.664791    8.989771    0.000000
    74  O5    c    11.013160    8.763841    8.195507    0.000000
    75  Na5   c    21.191886    2.876645   11.135043    0.000000
    76  Na5   c     8.958415    8.504280    9.383173    0.000000
    77  Na5   c     9.197678   15.013284   11.326750    0.000000
    78  Na5   c    25.962649    7.632737    9.891811    0.000000
--------------------------------------------------------------------------------


  Final Cartesian derivatives :

--------------------------------------------------------------------------------
   No.  Atomic          x             y             z           Radius
        Label       (eV/Angs)     (eV/Angs)    (eV/Angs)      (eV/Angs)
--------------------------------------------------------------------------------
      1 O5    c      -0.002344      0.002920     -0.014211      0.000000
      2 S5    c       0.025293     -0.009136     -0.001885      0.000000
      3 O5    c      -0.005340      0.015943      0.007946      0.000000
      4 O5    c      -0.012697     -0.011828      0.008654      0.000000
      5 C5    c      -0.002146      0.000221      0.000168      0.000000
      6 C5    c       0.000691      0.000026      0.000931      0.000000
      7 H5    c      -0.000117     -0.000091      0.000025      0.000000
      8 C5    c      -0.000659     -0.001019     -0.000141      0.000000
      9 H5    c       0.000339      0.000961     -0.000040      0.000000
     10 C5    c       0.001011     -0.000401     -0.000043      0.000000
     11 C5    c       0.002541      0.000450      0.000101      0.000000
     12 H5    c      -0.000166     -0.000227     -0.000004      0.000000
     13 C5    c      -0.002075      0.001488      0.000008      0.000000
     14 H5    c      -0.000027      0.000873      0.000246      0.000000
     15 N6    c       0.002244     -0.000935      0.000232      0.000000
     16 H6    c      -0.001475     -0.000706     -0.000511      0.000000
     17 N5    c       0.000000      0.000000      0.000000      0.000000
     18 C6    c       0.001742      0.000042      0.000096      0.000000
     19 C5    c       0.001186      0.002464      0.000652      0.000000
     20 C5    c      -0.000952      0.000564      0.000099      0.000000
     21 H5    c       0.000303     -0.000330     -0.000555      0.000000
     22 C5    c       0.001291     -0.002133      0.000364      0.000000
     23 H5    c       0.000594      0.000672     -0.000428      0.000000
     24 C5    c      -0.000690     -0.001271     -0.000638      0.000000
     25 C5    c       0.000504      0.001452     -0.000028      0.000000
     26 H5    c      -0.001064     -0.000683      0.000605      0.000000
     27 C5    c      -0.000029     -0.001147     -0.000145      0.000000
     28 C6    c      -0.000591     -0.000347     -0.000174      0.000000
     29 H5    c      -0.000074      0.000369      0.000209      0.000000
     30 C7    c      -0.000776      0.001128      0.000623      0.000000
     31 H5    c      -0.000230     -0.000968     -0.001258      0.000000
     32 C8    c       0.000360     -0.002251     -0.000386      0.000000
     33 O5    c       0.000157      0.000465     -0.000148      0.000000
     34 S5    c       0.007768      0.017588     -0.001488      0.000000
     35 O5    c      -0.004683     -0.003551     -0.010247      0.000000
     36 O5    c       0.005618     -0.001617      0.002283      0.000000
     37 O5    c      -0.010956     -0.010892      0.009360      0.000000
     38 O5    c       0.002574     -0.002644      0.013377      0.000000
     39 S5    c      -0.024241      0.008794      0.000951      0.000000
     40 O5    c       0.016969      0.012516     -0.006984      0.000000
     41 O5    c       0.000271     -0.014049     -0.008151      0.000000
     42 C5    c       0.002007     -0.000260     -0.000225      0.000000
     43 C5    c       0.001493     -0.001735     -0.000280      0.000000
     44 H5    c       0.000159     -0.000023      0.000301      0.000000
     45 C5    c      -0.002288     -0.000715     -0.000407      0.000000
     46 H5    c       0.001299      0.000910      0.000293      0.000000
     47 C5    c       0.000411     -0.000095      0.000433      0.000000
     48 C5    c       0.001485      0.001310     -0.000068      0.000000
     49 H5    c      -0.000098     -0.000315      0.000609      0.000000
     50 C5    c       0.000403      0.000286      0.000008      0.000000
     51 H5    c       0.000744      0.000425      0.000336      0.000000
     52 N6    c      -0.005037      0.000603     -0.000450      0.000000
     53 H6    c       0.001661     -0.000632      0.000263      0.000000
     54 N5    c       0.003662     -0.001803      0.000449      0.000000
     55 C6    c      -0.001093      0.002929     -0.000359      0.000000
     56 C5    c       0.002324      0.001181      0.000136      0.000000
     57 C5    c      -0.001918      0.000477     -0.000563      0.000000
     58 H5    c       0.001078     -0.000972      0.000611      0.000000
     59 C5    c       0.000492      0.000925     -0.001109      0.000000
     60 H5    c      -0.000355      0.000255      0.000299      0.000000
     61 C5    c      -0.000967     -0.001306      0.000986      0.000000
     62 C5    c      -0.000006      0.000263      0.000146      0.000000
     63 H5    c       0.000464     -0.000928     -0.000130      0.000000
     64 C5    c      -0.000130      0.000194     -0.000195      0.000000
     65 C6    c       0.000781     -0.000240      0.000089      0.000000
     66 H5    c      -0.000419      0.000170      0.000220      0.000000
     67 C7    c       0.002297     -0.000417      0.000036      0.000000
     68 H5    c      -0.000077     -0.000858      0.000223      0.000000
     69 C8    c      -0.003108     -0.001918      0.000264      0.000000
     70 O5    c       0.000085      0.000003     -0.000373      0.000000
     71 S5    c       0.012053      0.019503     -0.000148      0.000000
     72 O5    c       0.000977     -0.008300      0.015348      0.000000
     73 O5    c      -0.005173      0.004097     -0.004739      0.000000
     74 O5    c      -0.000277     -0.013789     -0.010544      0.000000
     75 Na5   c      -0.000938     -0.002300     -0.001916      0.000000
     76 Na5   c      -0.004078     -0.003739      0.002280      0.000000
     77 Na5   c      -0.001121      0.002100     -0.000299      0.000000
     78 Na5   c       0.004094     -0.001965      0.001152      0.000000
--------------------------------------------------------------------------------
  Maximum abs         0.025293      0.019503      0.015348      0.000000
--------------------------------------------------------------------------------


  Born effective charge tensors : 

-------------------------------------------------------------------------------
  Atom             x           y             z
-------------------------------------------------------------------------------
   1 O5    x      -0.6818      0.0000      0.0000
           y       0.0000     -0.6818      0.0000
           z       0.0000      0.0000     -0.6818
-------------------------------------------------------------------------------
   2 S5    x       1.1440      0.0000      0.0000
           y       0.0000      1.1440      0.0000
           z       0.0000      0.0000      1.1440
-------------------------------------------------------------------------------
   3 O5    x      -0.6818      0.0000      0.0000
           y       0.0000     -0.6818      0.0000
           z       0.0000      0.0000     -0.6818
-------------------------------------------------------------------------------
   4 O5    x      -0.6818      0.0000      0.0000
           y       0.0000     -0.6818      0.0000
           z       0.0000      0.0000     -0.6818
-------------------------------------------------------------------------------
   5 C5    x      -0.0734      0.0000      0.0000
           y       0.0000     -0.0734      0.0000
           z       0.0000      0.0000     -0.0734
-------------------------------------------------------------------------------
   6 C5    x      -0.1009      0.0000      0.0000
           y       0.0000     -0.1009      0.0000
           z       0.0000      0.0000     -0.1009
-------------------------------------------------------------------------------
   7 H5    x       0.1446      0.0000      0.0000
           y       0.0000      0.1446      0.0000
           z       0.0000      0.0000      0.1446
-------------------------------------------------------------------------------
   8 C5    x      -0.1678      0.0000      0.0000
           y       0.0000     -0.1678      0.0000
           z       0.0000      0.0000     -0.1678
-------------------------------------------------------------------------------
   9 H5    x       0.1169      0.0000      0.0000
           y       0.0000      0.1169      0.0000
           z       0.0000      0.0000      0.1169
-------------------------------------------------------------------------------
  10 C5    x       0.0333      0.0000      0.0000
           y       0.0000      0.0333      0.0000
           z       0.0000      0.0000      0.0333
-------------------------------------------------------------------------------
  11 C5    x      -0.1678      0.0000      0.0000
           y       0.0000     -0.1678      0.0000
           z       0.0000      0.0000     -0.1678
-------------------------------------------------------------------------------
  12 H5    x       0.1169      0.0000      0.0000
           y       0.0000      0.1169      0.0000
           z       0.0000      0.0000      0.1169
-------------------------------------------------------------------------------
  13 C5    x      -0.1009      0.0000      0.0000
           y       0.0000     -0.1009      0.0000
           z       0.0000      0.0000     -0.1009
-------------------------------------------------------------------------------
  14 H5    x       0.1446      0.0000      0.0000
           y       0.0000      0.1446      0.0000
           z       0.0000      0.0000      0.1446
-------------------------------------------------------------------------------
  15 N6    x      -0.0940      0.0000      0.0000
           y       0.0000     -0.0940      0.0000
           z       0.0000      0.0000     -0.0940
-------------------------------------------------------------------------------
  16 H6    x       0.2606      0.0000      0.0000
           y       0.0000      0.2606      0.0000
           z       0.0000      0.0000      0.2606
-------------------------------------------------------------------------------
  17 N5    x      -0.0985      0.0000      0.0000
           y       0.0000     -0.0985      0.0000
           z       0.0000      0.0000     -0.0985
-------------------------------------------------------------------------------
  18 C6    x      -0.0204      0.0000      0.0000
           y       0.0000     -0.0204      0.0000
           z       0.0000      0.0000     -0.0204
-------------------------------------------------------------------------------
  19 C5    x      -0.0023      0.0000      0.0000
           y       0.0000     -0.0023      0.0000
           z       0.0000      0.0000     -0.0023
-------------------------------------------------------------------------------
  20 C5    x      -0.2262      0.0000      0.0000
           y       0.0000     -0.2262      0.0000
           z       0.0000      0.0000     -0.2262
-------------------------------------------------------------------------------
  21 H5    x       0.1394      0.0000      0.0000
           y       0.0000      0.1394      0.0000
           z       0.0000      0.0000      0.1394
-------------------------------------------------------------------------------
  22 C5    x      -0.0513      0.0000      0.0000
           y       0.0000     -0.0513      0.0000
           z       0.0000      0.0000     -0.0513
-------------------------------------------------------------------------------
  23 H5    x       0.1440      0.0000      0.0000
           y       0.0000      0.1440      0.0000
           z       0.0000      0.0000      0.1440
-------------------------------------------------------------------------------
  24 C5    x      -0.1159      0.0000      0.0000
           y       0.0000     -0.1159      0.0000
           z       0.0000      0.0000     -0.1159
-------------------------------------------------------------------------------
  25 C5    x      -0.0935      0.0000      0.0000
           y       0.0000     -0.0935      0.0000
           z       0.0000      0.0000     -0.0935
-------------------------------------------------------------------------------
  26 H5    x       0.1278      0.0000      0.0000
           y       0.0000      0.1278      0.0000
           z       0.0000      0.0000      0.1278
-------------------------------------------------------------------------------
  27 C5    x       0.0347      0.0000      0.0000
           y       0.0000      0.0347      0.0000
           z       0.0000      0.0000      0.0347
-------------------------------------------------------------------------------
  28 C6    x      -0.1161      0.0000      0.0000
           y       0.0000     -0.1161      0.0000
           z       0.0000      0.0000     -0.1161
-------------------------------------------------------------------------------
  29 H5    x       0.1566      0.0000      0.0000
           y       0.0000      0.1566      0.0000
           z       0.0000      0.0000      0.1566
-------------------------------------------------------------------------------
  30 C7    x      -0.3625      0.0000      0.0000
           y       0.0000     -0.3625      0.0000
           z       0.0000      0.0000     -0.3625
-------------------------------------------------------------------------------
  31 H5    x       0.1432      0.0000      0.0000
           y       0.0000      0.1432      0.0000
           z       0.0000      0.0000      0.1432
-------------------------------------------------------------------------------
  32 C8    x       0.6081      0.0000      0.0000
           y       0.0000      0.6081      0.0000
           z       0.0000      0.0000      0.6081
-------------------------------------------------------------------------------
  33 O5    x      -0.5968      0.0000      0.0000
           y       0.0000     -0.5968      0.0000
           z       0.0000      0.0000     -0.5968
-------------------------------------------------------------------------------
  34 S5    x       1.1659      0.0000      0.0000
           y       0.0000      1.1659      0.0000
           z       0.0000      0.0000      1.1659
-------------------------------------------------------------------------------
  35 O5    x      -0.6823      0.0000      0.0000
           y       0.0000     -0.6823      0.0000
           z       0.0000      0.0000     -0.6823
-------------------------------------------------------------------------------
  36 O5    x      -0.6823      0.0000      0.0000
           y       0.0000     -0.6823      0.0000
           z       0.0000      0.0000     -0.6823
-------------------------------------------------------------------------------
  37 O5    x      -0.6823      0.0000      0.0000
           y       0.0000     -0.6823      0.0000
           z       0.0000      0.0000     -0.6823
-------------------------------------------------------------------------------
  38 O5    x      -0.6818      0.0000      0.0000
           y       0.0000     -0.6818      0.0000
           z       0.0000      0.0000     -0.6818
-------------------------------------------------------------------------------
  39 S5    x       1.1440      0.0000      0.0000
           y       0.0000      1.1440      0.0000
           z       0.0000      0.0000      1.1440
-------------------------------------------------------------------------------
  40 O5    x      -0.6818      0.0000      0.0000
           y       0.0000     -0.6818      0.0000
           z       0.0000      0.0000     -0.6818
-------------------------------------------------------------------------------
  41 O5    x      -0.6818      0.0000      0.0000
           y       0.0000     -0.6818      0.0000
           z       0.0000      0.0000     -0.6818
-------------------------------------------------------------------------------
  42 C5    x      -0.0734      0.0000      0.0000
           y       0.0000     -0.0734      0.0000
           z       0.0000      0.0000     -0.0734
-------------------------------------------------------------------------------
  43 C5    x      -0.1009      0.0000      0.0000
           y       0.0000     -0.1009      0.0000
           z       0.0000      0.0000     -0.1009
-------------------------------------------------------------------------------
  44 H5    x       0.1446      0.0000      0.0000
           y       0.0000      0.1446      0.0000
           z       0.0000      0.0000      0.1446
-------------------------------------------------------------------------------
  45 C5    x      -0.1678      0.0000      0.0000
           y       0.0000     -0.1678      0.0000
           z       0.0000      0.0000     -0.1678
-------------------------------------------------------------------------------
  46 H5    x       0.1169      0.0000      0.0000
           y       0.0000      0.1169      0.0000
           z       0.0000      0.0000      0.1169
-------------------------------------------------------------------------------
  47 C5    x       0.0333      0.0000      0.0000
           y       0.0000      0.0333      0.0000
           z       0.0000      0.0000      0.0333
-------------------------------------------------------------------------------
  48 C5    x      -0.1678      0.0000      0.0000
           y       0.0000     -0.1678      0.0000
           z       0.0000      0.0000     -0.1678
-------------------------------------------------------------------------------
  49 H5    x       0.1169      0.0000      0.0000
           y       0.0000      0.1169      0.0000
           z       0.0000      0.0000      0.1169
-------------------------------------------------------------------------------
  50 C5    x      -0.1009      0.0000      0.0000
           y       0.0000     -0.1009      0.0000
           z       0.0000      0.0000     -0.1009
-------------------------------------------------------------------------------
  51 H5    x       0.1446      0.0000      0.0000
           y       0.0000      0.1446      0.0000
           z       0.0000      0.0000      0.1446
-------------------------------------------------------------------------------
  52 N6    x      -0.0940      0.0000      0.0000
           y       0.0000     -0.0940      0.0000
           z       0.0000      0.0000     -0.0940
-------------------------------------------------------------------------------
  53 H6    x       0.2606      0.0000      0.0000
           y       0.0000      0.2606      0.0000
           z       0.0000      0.0000      0.2606
-------------------------------------------------------------------------------
  54 N5    x      -0.0985      0.0000      0.0000
           y       0.0000     -0.0985      0.0000
           z       0.0000      0.0000     -0.0985
-------------------------------------------------------------------------------
  55 C6    x      -0.0204      0.0000      0.0000
           y       0.0000     -0.0204      0.0000
           z       0.0000      0.0000     -0.0204
-------------------------------------------------------------------------------
  56 C5    x      -0.0023      0.0000      0.0000
           y       0.0000     -0.0023      0.0000
           z       0.0000      0.0000     -0.0023
-------------------------------------------------------------------------------
  57 C5    x      -0.2262      0.0000      0.0000
           y       0.0000     -0.2262      0.0000
           z       0.0000      0.0000     -0.2262
-------------------------------------------------------------------------------
  58 H5    x       0.1394      0.0000      0.0000
           y       0.0000      0.1394      0.0000
           z       0.0000      0.0000      0.1394
-------------------------------------------------------------------------------
  59 C5    x      -0.0513      0.0000      0.0000
           y       0.0000     -0.0513      0.0000
           z       0.0000      0.0000     -0.0513
-------------------------------------------------------------------------------
  60 H5    x       0.1440      0.0000      0.0000
           y       0.0000      0.1440      0.0000
           z       0.0000      0.0000      0.1440
-------------------------------------------------------------------------------
  61 C5    x      -0.1159      0.0000      0.0000
           y       0.0000     -0.1159      0.0000
           z       0.0000      0.0000     -0.1159
-------------------------------------------------------------------------------
  62 C5    x      -0.0935      0.0000      0.0000
           y       0.0000     -0.0935      0.0000
           z       0.0000      0.0000     -0.0935
-------------------------------------------------------------------------------
  63 H5    x       0.1278      0.0000      0.0000
           y       0.0000      0.1278      0.0000
           z       0.0000      0.0000      0.1278
-------------------------------------------------------------------------------
  64 C5    x       0.0347      0.0000      0.0000
           y       0.0000      0.0347      0.0000
           z       0.0000      0.0000      0.0347
-------------------------------------------------------------------------------
  65 C6    x      -0.1161      0.0000      0.0000
           y       0.0000     -0.1161      0.0000
           z       0.0000      0.0000     -0.1161
-------------------------------------------------------------------------------
  66 H5    x       0.1566      0.0000      0.0000
           y       0.0000      0.1566      0.0000
           z       0.0000      0.0000      0.1566
-------------------------------------------------------------------------------
  67 C7    x      -0.3625      0.0000      0.0000
           y       0.0000     -0.3625      0.0000
           z       0.0000      0.0000     -0.3625
-------------------------------------------------------------------------------
  68 H5    x       0.1432      0.0000      0.0000
           y       0.0000      0.1432      0.0000
           z       0.0000      0.0000      0.1432
-------------------------------------------------------------------------------
  69 C8    x       0.6081      0.0000      0.0000
           y       0.0000      0.6081      0.0000
           z       0.0000      0.0000      0.6081
-------------------------------------------------------------------------------
  70 O5    x      -0.5968      0.0000      0.0000
           y       0.0000     -0.5968      0.0000
           z       0.0000      0.0000     -0.5968
-------------------------------------------------------------------------------
  71 S5    x       1.1659      0.0000      0.0000
           y       0.0000      1.1659      0.0000
           z       0.0000      0.0000      1.1659
-------------------------------------------------------------------------------
  72 O5    x      -0.6823      0.0000      0.0000
           y       0.0000     -0.6823      0.0000
           z       0.0000      0.0000     -0.6823
-------------------------------------------------------------------------------
  73 O5    x      -0.6823      0.0000      0.0000
           y       0.0000     -0.6823      0.0000
           z       0.0000      0.0000     -0.6823
-------------------------------------------------------------------------------
  74 O5    x      -0.6823      0.0000      0.0000
           y       0.0000     -0.6823      0.0000
           z       0.0000      0.0000     -0.6823
-------------------------------------------------------------------------------
  75 Na5   x       1.0000      0.0000      0.0000
           y       0.0000      1.0000      0.0000
           z       0.0000      0.0000      1.0000
-------------------------------------------------------------------------------
  76 Na5   x       1.0000      0.0000      0.0000
           y       0.0000      1.0000      0.0000
           z       0.0000      0.0000      1.0000
-------------------------------------------------------------------------------
  77 Na5   x       1.0000      0.0000      0.0000
           y       0.0000      1.0000      0.0000
           z       0.0000      0.0000      1.0000
-------------------------------------------------------------------------------
  78 Na5   x       1.0000      0.0000      0.0000
           y       0.0000      1.0000      0.0000
           z       0.0000      0.0000      1.0000
-------------------------------------------------------------------------------




  Moment of inertia tensor (10^-46 x kgm^2): 

-------------------------------------------------------------------------------
                x           y           z           Principal axis system
-------------------------------------------------------------------------------
       x       1775.95     1101.32      -72.46         1279.846745
       y       1101.32     3731.90       -1.43         4225.204886
       z        -72.46       -1.43     4830.10         4832.896069
-------------------------------------------------------------------------------
  Centre of mass (Ang) =    17.229817    10.529903    10.557669
-------------------------------------------------------------------------------


  Vibrational Frequency Calculation : 

--------------------------------------------------------------------------------

 Frequencies (cm-1) : 

   -0.00   -0.00   -0.00    0.00    0.00    0.00    3.08   11.11   12.95
   18.18   21.16   25.16   26.51   30.14   31.06   39.70   40.33   41.38
   46.10   51.59   59.37   68.43   75.88   80.20   81.98   84.77   87.11
   95.41  101.13  103.84  107.31  110.16  119.23  124.34  139.35  142.49
  165.88  170.04  182.59  184.52  199.31  199.55  212.32  214.81  222.32
  224.04  246.88  247.52  284.26  292.31  293.45  294.57  296.25  298.02
  302.38  303.00  322.64  325.43  334.96  335.37  335.41  337.06  338.87
  339.66  343.53  344.78  348.77  351.99  369.72  370.76  373.25  374.18
  388.11  389.45  420.55  420.83  422.63  423.13  440.77  442.64  450.52
  451.46  456.56  457.29  473.59  475.23  496.76  498.95  522.86  523.75
  536.31  536.62  538.49  539.91  544.65  545.02  554.54  554.81  580.53
  580.69  604.43  604.61  645.31  645.85  658.80  658.92  690.69  691.89
  711.45  712.71  730.93  731.01  732.98  738.68  745.10  745.61  800.43
  801.07  803.30  803.48  856.48  857.65  866.80  867.20  896.80  897.12
  905.23  906.06  910.29  911.90  945.06  945.13  986.00  986.07 1008.91
 1008.96 1027.31 1027.50 1034.61 1035.30 1041.63 1041.69 1093.55 1093.68
 1108.41 1108.56 1112.21 1113.19 1125.02 1125.22 1147.75 1147.93 1150.77
 1151.00 1159.69 1159.98 1170.79 1171.26 1176.48 1176.77 1191.68 1191.82
 1208.48 1208.69 1221.93 1222.24 1232.95 1233.09 1282.68 1283.11 1292.56
 1292.85 1313.87 1313.99 1345.72 1345.97 1387.92 1388.17 1402.61 1403.04
 1484.74 1484.84 1501.01 1501.17 1532.92 1533.23 1546.86 1547.07 1621.74
 1621.85 1659.92 1660.08 1699.63 1699.85 1711.93 1712.12 1745.03 1745.27
 1762.15 1762.21 1782.85 1783.00 1797.41 1797.74 1813.13 1813.19 1827.33
 1827.73 1842.00 1842.22 1898.80 1898.86 1909.96 1910.06 2966.02 2966.21
 2967.97 2968.07 2968.42 2968.58 2969.84 2969.90 2970.10 2970.26 2971.04
 2971.11 2972.62 2972.77 2981.13 2981.17 2985.73 2985.87 3178.52 3179.98


--------------------------------------------------------------------------------

  No imaginary modes present - current symmetry is correct

  Vibrational properties (for cluster):  Temperature  =       0.000 K
--------------------------------------------------------------------------------
  Zero point energy             =        13.988381 eV
--------------------------------------------------------------------------------

  Vibrational density of states : 

--------------------------------------------------------------------------------
 Frequency     Density of States                                                
--------------------------------------------------------------------------------
    0.00000 |*****************************************************         0.069
   50.00000 |******************************                                0.039
  100.00000 |**************************                                    0.035
  150.00000 |********************                                          0.026
  200.00000 |********************                                          0.026
  250.00000 |********************                                          0.026
  300.00000 |*******************************************                   0.056
  350.00000 |***********************                                       0.030
  400.00000 |********************                                          0.026
  450.00000 |**************************                                    0.035
  500.00000 |**************************                                    0.035
  550.00000 |*************                                                 0.017
  600.00000 |*************                                                 0.017
  650.00000 |*************                                                 0.017
  700.00000 |**************************                                    0.035
  750.00000 |                                                              0.000
  800.00000 |*************                                                 0.017
  850.00000 |********************                                          0.026
  900.00000 |********************                                          0.026
  950.00000 |******                                                        0.009
 1000.00000 |**************************                                    0.035
 1050.00000 |******                                                        0.009
 1100.00000 |**************************                                    0.035
 1150.00000 |*********************************                             0.043
 1200.00000 |********************                                          0.026
 1250.00000 |*************                                                 0.017
 1300.00000 |*************                                                 0.017
 1350.00000 |******                                                        0.009
 1400.00000 |******                                                        0.009
 1450.00000 |******                                                        0.009
 1500.00000 |********************                                          0.026
 1550.00000 |                                                              0.000
 1600.00000 |******                                                        0.009
 1650.00000 |*************                                                 0.017
 1700.00000 |*************                                                 0.017
 1750.00000 |********************                                          0.026
 1800.00000 |********************                                          0.026
 1850.00000 |******                                                        0.009
 1900.00000 |******                                                        0.009
 1950.00000 |                                                              0.000
 2000.00000 |                                                              0.000
 2050.00000 |                                                              0.000
 2100.00000 |                                                              0.000
 2150.00000 |                                                              0.000
 2200.00000 |                                                              0.000
 2250.00000 |                                                              0.000
 2300.00000 |                                                              0.000
 2350.00000 |                                                              0.000
 2400.00000 |                                                              0.000
 2450.00000 |                                                              0.000
 2500.00000 |                                                              0.000
 2550.00000 |                                                              0.000
 2600.00000 |                                                              0.000
 2650.00000 |                                                              0.000
 2700.00000 |                                                              0.000
 2750.00000 |                                                              0.000
 2800.00000 |                                                              0.000
 2850.00000 |                                                              0.000
 2900.00000 |                                                              0.000
 2950.00000 |************************************************************  0.078
 3000.00000 |                                                              0.000
 3050.00000 |                                                              0.000
 3100.00000 |                                                              0.000
 3150.00000 |******                                                        0.009
--------------------------------------------------------------------------------



  Time to end of optimisation =       2.1984 seconds


  Peak dynamic memory used =       1.99 MB 


  Timing analysis for GULP :

--------------------------------------------------------------------------------
  Task / Subroutine                                          Time (Seconds)
--------------------------------------------------------------------------------
  Calculation of real space energy and derivatives                0.2825
  Calculation of three-body energy and derivatives                0.0148
  Calculation of four-body energy and derivatives                 0.0406
  Calculation of molecules and connectivity                       0.0004
  Calculation of phonons                                          0.1405
  Calculation of scattering                                       0.0000
  Calculation of matrix inversion                                 0.0103
  Disk read/write operations to scratch files                     0.0002
  Global summation overhead                                       0.0001
--------------------------------------------------------------------------------
  Total CPU time                                                  2.1985
--------------------------------------------------------------------------------


  Dump file written as ssy_dimer_c2prime_m.res                                 


  Job Finished at 15:31.45 28th March      2014                               

