********************************************************************************
*                       GENERAL UTILITY LATTICE PROGRAM                        *
*                                 Julian Gale                                  *
*                      Nanochemistry Research Institute                        *
*                           Department of Chemistry                            *
*                    Curtin University, Western Australia                      *
********************************************************************************
* Version = 4.2.0 * Last modified =  16th January 2014                         *
********************************************************************************
*  optimise     - perform optimisation run                                     *
*  conp         - constant pressure calculation                                *
*  phonon       - calculate phonons for final geometry                         *
*  eckart       - remove rotation/translation from vibrations of molecules     *
*  molmec       - molecule option activated, Coulomb subtract 1-2/1-3 terms    *
********************************************************************************

  Job Started  at 15:37.39 27th March      2014                               

  Number of CPUs =     1


  Total number of configurations input =   1

********************************************************************************
*  Input for Configuration =   1                                               *
********************************************************************************

  Formula = O14S4C32H20N4Na4                                            

  Number of irreducible atoms/shells =      78


  Total number atoms/shells =      78

  Dimensionality = 0               :  Cluster


  Charge on cluster =   0.000000


  Initial cluster dipoles : x =      0.124615 e.Angs
                            y =     -3.471573 e.Angs
                            z =     -0.250061 e.Angs

  Temperature of configuration =  0.000     K 

  Symmetry number =      1

  Cartesian coordinates of cluster :

--------------------------------------------------------------------------------
   No.  Atomic       x           y          z         Charge      Occupancy
        Label      (Angs)      (Angs)     (Angs)        (e)         (Frac)  
--------------------------------------------------------------------------------
      1 O5    c     10.8020 *    9.7880 *   15.7230 *  -0.68180    1.000000    
      2 S5    c     10.7910 *    9.9740 *   14.1770 *   1.14400    1.000000    
      3 O5    c      9.4920 *   10.7440 *   13.8180 *  -0.68180    1.000000    
      4 O5    c     10.7190 *    8.5590 *   13.5450 *  -0.68180    1.000000    
      5 C5    c     12.2830 *   10.8880 *   13.6350 *  -0.07340    1.000000    
      6 C5    c     12.2460 *   12.3110 *   13.6410 *  -0.10090    1.000000    
      7 H5    c     11.3040 *   12.8320 *   13.8200 *   0.14460    1.000000    
      8 C5    c     13.4540 *   13.0240 *   13.4360 *  -0.16780    1.000000    
      9 H5    c     13.4620 *   14.1180 *   13.4620 *   0.11690    1.000000    
     10 C5    c     14.6830 *   12.3080 *   13.2440 *   0.03330    1.000000    
     11 C5    c     14.6900 *   10.8760 *   13.1680 *  -0.16780    1.000000    
     12 H5    c     15.6280 *   10.3510 *   12.9820 *   0.11690    1.000000    
     13 C5    c     13.4810 *   10.1630 *   13.3690 *  -0.10090    1.000000    
     14 H5    c     13.4600 *    9.0720 *   13.3350 *   0.14460    1.000000    
     15 N6    c     15.8720 *   13.0820 *   13.1710 *  -0.09400    1.000000    
     16 H6    c     15.8540 *   14.1280 *   13.2370 *   0.26060    1.000000    
     17 N5    c     17.0920 *   12.5070 *   13.1680 *  -0.09850    1.000000    
     18 C6    c     18.1770 *   13.3220 *   13.2370 *  -0.02040    1.000000    
     19 C5    c     19.5120 *   12.6520 *   13.2750 *  -0.00230    1.000000    
     20 C5    c     19.6590 *   11.2230 *   13.1730 *  -0.22620    1.000000    
     21 H5    c     18.7710 *   10.6100 *   13.0080 *   0.13940    1.000000    
     22 C5    c     20.9270 *   10.6120 *   13.3050 *  -0.05130    1.000000    
     23 H5    c     21.0390 *    9.5270 *   13.2410 *   0.14400    1.000000    
     24 C5    c     22.0720 *   11.4360 *   13.5410 *  -0.11590    1.000000    
     25 C5    c     21.9850 *   12.8430 *   13.5910 *  -0.09350    1.000000    
     26 H5    c     22.8860 *   13.4400 *   13.7560 *   0.12780    1.000000    
     27 C5    c     20.7000 *   13.4710 *   13.4490 *   0.03470    1.000000    
     28 C6    c     20.5800 *   14.9380 *   13.5080 *  -0.11610    1.000000    
     29 H5    c     21.5040 *   15.5170 *   13.6100 *   0.15660    1.000000    
     30 C7    c     19.3590 *   15.5850 *   13.4440 *  -0.36250    1.000000    
     31 H5    c     19.2760 *   16.6740 *   13.4860 *   0.14320    1.000000    
     32 C8    c     18.0870 *   14.8310 *   13.3370 *   0.60810    1.000000    
     33 O5    c     16.9620 *   15.4360 *   13.3410 *  -0.59680    1.000000    
     34 S5    c     23.6790 *   10.6360 *   13.9040 *   1.16590    1.000000    
     35 O5    c     23.6460 *    9.9640 *   15.3080 *  -0.68230    1.000000    
     36 O5    c     24.8230 *   11.6860 *   13.9190 *  -0.68230    1.000000    
     37 O5    c     24.0220 *    9.5380 *   12.8690 *  -0.68230    1.000000    
     38 O5    c     24.8450 *   10.3480 *    6.9030 *  -0.68180    1.000000    
     39 S5    c     24.7900 *   10.1810 *    8.4510 *   1.14400    1.000000    
     40 O5    c     26.0190 *   10.9270 *    9.0380 *  -0.68180    1.000000    
     41 O5    c     24.9370 *    8.6660 *    8.7550 *  -0.68180    1.000000    
     42 C5    c     23.2190 *   10.8560 *    9.1020 *  -0.07340    1.000000    
     43 C5    c     23.1910 *   12.1980 *    9.5710 *  -0.10090    1.000000    
     44 H5    c     24.1210 *   12.7580 *    9.6810 *   0.14460    1.000000    
     45 C5    c     21.9360 *   12.7850 *    9.8740 *  -0.16780    1.000000    
     46 H5    c     21.8800 *   13.8210 *   10.2210 *   0.11690    1.000000    
     47 C5    c     20.7310 *   12.0300 *    9.6910 *   0.03330    1.000000    
     48 C5    c     20.7830 *   10.6570 *    9.2790 *  -0.16780    1.000000    
     49 H5    c     19.8560 *   10.0910 *    9.1690 *   0.11690    1.000000    
     50 C5    c     22.0360 *   10.0700 *    8.9770 *  -0.10090    1.000000    
     51 H5    c     22.1050 *    9.0350 *    8.6370 *   0.14460    1.000000    
     52 N6    c     19.5010 *   12.7130 *    9.8970 *  -0.09400    1.000000    
     53 H6    c     19.4660 *   13.7390 *   10.1070 *   0.26060    1.000000    
     54 N5    c     18.3170     12.0990      9.7230    -0.09850    1.000000    
     55 C6    c     17.1830 *   12.8380 *    9.8380 *  -0.02040    1.000000    
     56 C5    c     15.8900 *   12.1150 *    9.6390 *  -0.00230    1.000000    
     57 C5    c     15.8300 *   10.6980 *    9.3910 *  -0.22620    1.000000    
     58 H5    c     16.7580 *   10.1240 *    9.3780 *   0.13940    1.000000    
     59 C5    c     14.5970 *   10.0530 *    9.1450 *  -0.05130    1.000000    
     60 H5    c     14.5490 *    8.9800 *    8.9490 *   0.14400    1.000000    
     61 C5    c     13.3950 *   10.8280 *    9.1540 *  -0.11590    1.000000    
     62 C5    c     13.3970 *   12.2100 *    9.4440 *  -0.09350    1.000000    
     63 H5    c     12.4560 *   12.7660 *    9.4720 *   0.12780    1.000000    
     64 C5    c     14.6490 *   12.8720 *    9.6900 *   0.03470    1.000000    
     65 C6    c     14.6830 *   14.3150 *    9.9800 *  -0.11610    1.000000    
     66 H5    c     13.7250 *   14.8430 *   10.0330 *   0.15660    1.000000    
     67 C7    c     15.8670 *   15.0050 *   10.1850 *  -0.36250    1.000000    
     68 H5    c     15.8860 *   16.0730 *   10.4170 *   0.14320    1.000000    
     69 C8    c     17.1810 *   14.3240 *   10.1120 *   0.60810    1.000000    
     70 O5    c     18.2720 *   14.9710 *   10.2850 *  -0.59680    1.000000    
     71 S5    c     11.8220 *   10.0230 *    8.6640 *   1.16590    1.000000    
     72 O5    c     11.7180 *    9.8950 *    7.1160 *  -0.68230    1.000000    
     73 O5    c     10.6020 *   10.8500 *    9.1460 *  -0.68230    1.000000    
     74 O5    c     11.7170 *    8.5910 *    9.2500 *  -0.68230    1.000000    
     75 Na5   c      8.9810 *    8.8620 *   14.9200 *   1.00000    1.000000    
     76 Na5   c      9.9030 *    9.0410 *    8.0080 *   1.00000    1.000000    
     77 Na5   c     25.6420 *    9.6770 *   14.4710 *   1.00000    1.000000    
     78 Na5   c     26.6970 *    9.3770 *    7.5650 *   1.00000    1.000000    
--------------------------------------------------------------------------------



  Molecule list generated from bond lengths :

  Total number of molecules =     2

--------------------------------------------------------------------------------
Molecule No./:  Atoms
Periodicity  :  
--------------------------------------------------------------------------------
     1  0    : O5   c     1 S5   c     2 O5   c     3 O5   c     4 C5   c     5
             : C5   c     6 H5   c     7 C5   c     8 H5   c     9 C5   c    10
             : C5   c    11 H5   c    12 C5   c    13 H5   c    14 N6   c    15
             : H6   c    16 N5   c    17 C6   c    18 C5   c    19 C5   c    20
             : H5   c    21 C5   c    22 H5   c    23 C5   c    24 C5   c    25
             : H5   c    26 C5   c    27 C6   c    28 H5   c    29 C7   c    30
             : H5   c    31 C8   c    32 O5   c    33 S5   c    34 O5   c    35
             : O5   c    36 O5   c    37
     2  0    : O5   c    38 S5   c    39 O5   c    40 O5   c    41 C5   c    42
             : C5   c    43 H5   c    44 C5   c    45 H5   c    46 C5   c    47
             : C5   c    48 H5   c    49 C5   c    50 H5   c    51 N6   c    52
             : H6   c    53 N5   c    54 C6   c    55 C5   c    56 C5   c    57
             : H5   c    58 C5   c    59 H5   c    60 C5   c    61 C5   c    62
             : H5   c    63 C5   c    64 C6   c    65 H5   c    66 C7   c    67
             : H5   c    68 C8   c    69 O5   c    70 S5   c    71 O5   c    72
             : O5   c    73 O5   c    74
--------------------------------------------------------------------------------


********************************************************************************
*  General input information                                                   *
********************************************************************************

  Species output for all configurations : 

--------------------------------------------------------------------------------
  Species    Type    Atomic    Atomic    Charge       Radii (Angs)     Library
                     Number     Mass       (e)     Cova   Ionic  VDW   Symbol
--------------------------------------------------------------------------------
    O5       Core        8      16.00  -0.681800   0.730  0.000  1.360          
    S5       Core       16      32.07   1.144000   1.020  0.000  1.700          
    C5       Core        6      12.01  -0.073400   0.770  0.000  1.530          
    H5       Core        1       1.01   0.144600   0.370  0.000  1.080          
    N6       Core        7      14.01  -0.094000   0.750  0.000  1.480          
    H6       Core        1       1.01   0.260600   0.370  0.000  1.080          
    N5       Core        7      14.01  -0.098500   0.750  0.000  1.480          
    C6       Core        6      12.01  -0.020400   0.770  0.000  1.530          
    C7       Core        6      12.01  -0.362500   0.770  0.000  1.530          
    C8       Core        6      12.01   0.608100   0.770  0.000  1.530          
    Na5      Core       11      22.99   1.000000   0.010  0.000  2.300          
--------------------------------------------------------------------------------


  Accuracy factor for short range sums = 12.000

  Time limit = Infinity

  Maximum range for interatomic potentials =        10.000000 Angstroms

  Taper potentials to zero over  10.0000 Angstroms using M-D-F

  General interatomic potentials :

--------------------------------------------------------------------------------
Atom  Types   Potential         A         B         C         D     Cutoffs(Ang)
  1     2                                                            Min    Max 
--------------------------------------------------------------------------------
C8   c C8   c Lenn/es 12  6 0.373E-02  3.82      0.00      0.00     3Bond ******
C8   c O5   c Lenn/es 12  6 0.583E-02  3.57      0.00      0.00     3Bond ******
O5   c O5   c Lenn/es 12  6 0.911E-02  3.32      0.00      0.00     3Bond ******
C7   c C8   c Lenn/es 12  6 0.373E-02  3.82      0.00      0.00     3Bond ******
C7   c O5   c Lenn/es 12  6 0.583E-02  3.57      0.00      0.00     3Bond ******
C7   c C7   c Lenn/es 12  6 0.373E-02  3.82      0.00      0.00     3Bond ******
C6   c C8   c Lenn/es 12  6 0.373E-02  3.82      0.00      0.00     3Bond ******
C6   c O5   c Lenn/es 12  6 0.583E-02  3.57      0.00      0.00     3Bond ******
C6   c C7   c Lenn/es 12  6 0.373E-02  3.82      0.00      0.00     3Bond ******
C6   c C6   c Lenn/es 12  6 0.373E-02  3.82      0.00      0.00     3Bond ******
C8   c N5   c Lenn/es 12  6 0.524E-02  3.73      0.00      0.00     3Bond ******
N5   c O5   c Lenn/es 12  6 0.819E-02  3.49      0.00      0.00     3Bond ******
C7   c N5   c Lenn/es 12  6 0.524E-02  3.73      0.00      0.00     3Bond ******
C6   c N5   c Lenn/es 12  6 0.524E-02  3.73      0.00      0.00     3Bond ******
N5   c N5   c Lenn/es 12  6 0.737E-02  3.65      0.00      0.00     3Bond ******
C8   c N6   c Lenn/es 12  6 0.524E-02  3.73      0.00      0.00     3Bond ******
N6   c O5   c Lenn/es 12  6 0.819E-02  3.49      0.00      0.00     3Bond ******
C7   c N6   c Lenn/es 12  6 0.524E-02  3.73      0.00      0.00     3Bond ******
C6   c N6   c Lenn/es 12  6 0.524E-02  3.73      0.00      0.00     3Bond ******
N5   c N6   c Lenn/es 12  6 0.737E-02  3.65      0.00      0.00     3Bond ******
N6   c N6   c Lenn/es 12  6 0.737E-02  3.65      0.00      0.00     3Bond ******
C5   c C8   c Lenn/es 12  6 0.373E-02  3.82      0.00      0.00     3Bond ******
C5   c O5   c Lenn/es 12  6 0.583E-02  3.57      0.00      0.00     3Bond ******
C5   c C7   c Lenn/es 12  6 0.373E-02  3.82      0.00      0.00     3Bond ******
C5   c C6   c Lenn/es 12  6 0.373E-02  3.82      0.00      0.00     3Bond ******
C5   c N5   c Lenn/es 12  6 0.524E-02  3.73      0.00      0.00     3Bond ******
C5   c N6   c Lenn/es 12  6 0.524E-02  3.73      0.00      0.00     3Bond ******
C5   c C5   c Lenn/es 12  6 0.373E-02  3.82      0.00      0.00     3Bond ******
H6   c C8   c Lenn/es 12  6 0.159E-02  2.51      0.00      0.00     3Bond ******
H6   c O5   c Lenn/es 12  6 0.249E-02  2.26      0.00      0.00     3Bond ******
H6   c C7   c Lenn/es 12  6 0.159E-02  2.51      0.00      0.00     3Bond ******
H6   c C6   c Lenn/es 12  6 0.159E-02  2.51      0.00      0.00     3Bond ******
H6   c N5   c Lenn/es 12  6 0.224E-02  2.42      0.00      0.00     3Bond ******
H6   c N6   c Lenn/es 12  6 0.224E-02  2.42      0.00      0.00     3Bond ******
H6   c C5   c Lenn/es 12  6 0.159E-02  2.51      0.00      0.00     3Bond ******
H6   c H6   c Lenn/es 12  6 0.681E-03  1.20      0.00      0.00     3Bond ******
H5   c C8   c Lenn/es 12  6 0.156E-02  3.37      0.00      0.00     3Bond ******
H5   c O5   c Lenn/es 12  6 0.243E-02  3.12      0.00      0.00     3Bond ******
H5   c C7   c Lenn/es 12  6 0.156E-02  3.37      0.00      0.00     3Bond ******
H5   c C6   c Lenn/es 12  6 0.156E-02  3.37      0.00      0.00     3Bond ******
H5   c N5   c Lenn/es 12  6 0.219E-02  3.28      0.00      0.00     3Bond ******
H5   c N6   c Lenn/es 12  6 0.219E-02  3.28      0.00      0.00     3Bond ******
H5   c C5   c Lenn/es 12  6 0.156E-02  3.37      0.00      0.00     3Bond ******
H5   c H6   c Lenn/es 12  6 0.665E-03  2.06      0.00      0.00     3Bond ******
H5   c H5   c Lenn/es 12  6 0.650E-03  2.92      0.00      0.00     3Bond ******
C8   c S5   c Lenn/es 12  6 0.636E-02  3.91      0.00      0.00     3Bond ******
O5   c S5   c Lenn/es 12  6 0.994E-02  3.66      0.00      0.00     3Bond ******
C7   c S5   c Lenn/es 12  6 0.636E-02  3.91      0.00      0.00     3Bond ******
C6   c S5   c Lenn/es 12  6 0.636E-02  3.91      0.00      0.00     3Bond ******
N5   c S5   c Lenn/es 12  6 0.894E-02  3.82      0.00      0.00     3Bond ******
N6   c S5   c Lenn/es 12  6 0.894E-02  3.82      0.00      0.00     3Bond ******
C5   c S5   c Lenn/es 12  6 0.636E-02  3.91      0.00      0.00     3Bond ******
H6   c S5   c Lenn/es 12  6 0.272E-02  2.60      0.00      0.00     3Bond ******
H5   c S5   c Lenn/es 12  6 0.266E-02  3.46      0.00      0.00     3Bond ******
S5   c S5   c Lenn/es 12  6 0.108E-01  4.00      0.00      0.00     3Bond ******
C8   c Na5  c Lenn/es 12  6 0.669E-03  3.78      0.00      0.00     3Bond ******
O5   c Na5  c Lenn/es 12  6 0.105E-02  3.53      0.00      0.00     3Bond ******
C7   c Na5  c Lenn/es 12  6 0.669E-03  3.78      0.00      0.00     3Bond ******
C6   c Na5  c Lenn/es 12  6 0.669E-03  3.78      0.00      0.00     3Bond ******
N5   c Na5  c Lenn/es 12  6 0.941E-03  3.69      0.00      0.00     3Bond ******
N6   c Na5  c Lenn/es 12  6 0.941E-03  3.69      0.00      0.00     3Bond ******
C5   c Na5  c Lenn/es 12  6 0.669E-03  3.78      0.00      0.00     3Bond ******
H6   c Na5  c Lenn/es 12  6 0.286E-03  2.47      0.00      0.00     3Bond ******
H5   c Na5  c Lenn/es 12  6 0.280E-03  3.33      0.00      0.00     3Bond ******
Na5  c S5   c Lenn/es 12  6 0.114E-02  3.87      0.00      0.00     3Bond ******
Na5  c Na5  c Lenn/es 12  6 0.120E-03  3.74      0.00      0.00     3Bond ******
--------------------------------------------------------------------------------

  Intramolecular potentials :

--------------------------------------------------------------------------------
Atom  Types   Potential         A         B         C         D     Cutoffs(Ang)
  1     2                                                            Min    Max 
--------------------------------------------------------------------------------
X    c X    c Coulomb        0.00      0.00      0.00      1.00     1-4only 7.00
H6   c N6   c Harmonic       34.8      1.01      0.00      0.00     0.000 1 Bond
H5   c C5   c Harmonic       29.9      1.09      0.00      0.00     0.000 1 Bond
C5   c S5   c Harmonic       22.9      1.76      0.00      0.00     0.000 1 Bond
C8   c O5   c Harmonic       56.2      1.21      0.00      0.00     0.000 1 Bond
C6   c C7   c Harmonic       43.7      1.37      0.00      0.00     0.000 1 Bond
C6   c N5   c Harmonic       49.7      1.29      0.00      0.00     0.000 1 Bond
H5   c C6   c Harmonic       30.1      1.08      0.00      0.00     0.000 1 Bond
O5   c S5   c Harmonic       46.9      1.44      0.00      0.00     0.000 1 Bond
C7   c C8   c Harmonic       32.7      1.46      0.00      0.00     0.000 1 Bond
C6   c C8   c Harmonic       32.7      1.46      0.00      0.00     0.000 1 Bond
C5   c C6   c Harmonic       35.7      1.43      0.00      0.00     0.000 1 Bond
C5   c C5   c Harmonic       41.5      1.39      0.00      0.00     0.000 1 Bond
H5   c C7   c Harmonic       30.1      1.08      0.00      0.00     0.000 1 Bond
N5   c N6   c Harmonic       45.5      1.36      0.00      0.00     0.000 1 Bond
C5   c N6   c Harmonic       38.9      1.36      0.00      0.00     0.000 1 Bond
--------------------------------------------------------------------------------

  Intermolecular potentials :

--------------------------------------------------------------------------------
Atom  Types   Potential         A         B         C         D     Cutoffs(Ang)
  1     2                                                            Min    Max 
--------------------------------------------------------------------------------
O5   c Na5  c Harmonic       2.00      2.40      0.00      0.00     0.000  5.000
--------------------------------------------------------------------------------

  Intramolecular Three-body potentials :

  Harmonic form:

--------------------------------------------------------------------------------
Atom    Atom    Atom           Force Constants            Theta     Cutoffs  
  1       2       3     (eVrad**-2/eVrad**-3/eVrad**-4)   (deg)  1-2  1-3  2-3
--------------------------------------------------------------------------------
N6    c H6    c C5    c  4.257        0.0000    0.0000   116.130     Bonded
C6    c C5    c C7    c  5.918        0.0000    0.0000   113.510     Bonded
C6    c C5    c N5    c  5.942        0.0000    0.0000   120.720     Bonded
C8    c C6    c C7    c  5.701        0.0000    0.0000   112.790     Bonded
S5    c C5    c O5    c  3.710        0.0000    0.0000   104.070     Bonded
C6    c H5    c C5    c  4.024        0.0000    0.0000   124.040     Bonded
C8    c C7    c O5    c  5.976        0.0000    0.0000   125.710     Bonded
C5    c C5    c C6    c  5.723        0.0000    0.0000   120.100     Bonded
C5    c C5    c N6    c  6.014        0.0000    0.0000   120.130     Bonded
C5    c C5    c C5    c  5.826        0.0000    0.0000   119.970     Bonded
N6    c H6    c N5    c  4.343        0.0000    0.0000   118.220     Bonded
C6    c C8    c N5    c  5.944        0.0000    0.0000   120.890     Bonded
C7    c H5    c C6    c  4.193        0.0000    0.0000   122.890     Bonded
C5    c H5    c C5    c  4.203        0.0000    0.0000   120.010     Bonded
C7    c C6    c C8    c  5.662        0.0000    0.0000   121.320     Bonded
N5    c C6    c N6    c  6.101        0.0000    0.0000   118.470     Bonded
S5    c O5    c O5    c  4.047        0.0000    0.0000   119.730     Bonded
C6    c H5    c C7    c  4.193        0.0000    0.0000   122.890     Bonded
C5    c C5    c S5    c  6.825        0.0000    0.0000   120.540     Bonded
C7    c H5    c C8    c  4.075        0.0000    0.0000   117.020     Bonded
C6    c C5    c C8    c  5.512        0.0000    0.0000   122.950     Bonded
C8    c C6    c O5    c  5.976        0.0000    0.0000   125.710     Bonded
N6    c C5    c N5    c  5.882        0.0000    0.0000   121.110     Bonded
--------------------------------------------------------------------------------

  Intramolecular Four-body potentials :

  Standard form:

--------------------------------------------------------------------------------
         Atom Types             Force cst Sign Phase Phi0         Cutoffs
   1       2       3       4       (eV)                     1-2  2-3  3-4  4-1
--------------------------------------------------------------------------------
H5    c C7    c C8    c O5    c  0.1247     +   2   180.00  Bonded              
H5    c C7    c C6    c H5    c  0.1735     +   2   180.00  Bonded              
C6    c C7    c C8    c O5    c  0.1247     +   2   180.00  Bonded              
H5    c C5    c C5    c H5    c  0.1572     +   2   180.00  Bonded              
C5    c C6    c N5    c N6    c  0.1800     +   2   180.00  Bonded              
C5    c C5    c C5    c N6    c  0.1572     +   2   180.00  Bonded              
C5    c C5    c S5    c O5    c  0.5637E-01 +   2   180.00  Bonded              
C6    c N5    c N6    c H6    c  0.1214     +   2   180.00  Bonded              
C8    c C7    c C6    c C5    c  0.1735     +   2   180.00  Bonded              
N5    c C6    c C8    c O5    c  0.1247     +   2   180.00  Bonded              
C5    c C5    c C5    c H5    c  0.1572     +   2   180.00  Bonded              
C5    c C6    c C8    c O5    c  0.1247     +   2   180.00  Bonded              
C6    c C7    c C8    c C6    c  0.1247     +   2   180.00  Bonded              
C8    c C6    c N5    c N6    c  0.1800     +   2   180.00  Bonded              
C5    c C5    c C5    c S5    c  0.1572     +   2   180.00  Bonded              
C8    c C7    c C6    c H5    c  0.1735     +   2   180.00  Bonded              
H5    c C5    c C5    c N6    c  0.1572     +   2   180.00  Bonded              
C6    c C5    c C5    c C6    c  0.1572     +   2   180.00  Bonded              
C7    c C8    c C6    c N5    c  0.1247     +   2   180.00  Bonded              
C5    c C5    c N6    c N5    c  0.4553E-01 +   2   180.00  Bonded              
C6    c C8    c C7    c H5    c  0.1247     +   2   180.00  Bonded              
C5    c C6    c C8    c C7    c  0.1247     +   2   180.00  Bonded              
C5    c C5    c C5    c C6    c  0.1572     +   2   180.00  Bonded              
C5    c N6    c N5    c C6    c  0.1214     +   2   180.00  Bonded              
C5    c C5    c C5    c C5    c  0.1572     +   2   180.00  Bonded              
C5    c C6    c C7    c H5    c  0.1735     +   2   180.00  Bonded              
C5    c C5    c N6    c H6    c  0.4553E-01 +   2   180.00  Bonded              
H5    c C5    c C5    c S5    c  0.1572     +   2   180.00  Bonded              
C5    c C5    c C6    c C7    c  0.3036E-01 +   2   180.00  Bonded              
C5    c C5    c C6    c H5    c  0.3036E-01 +   2   180.00  Bonded              
C6    c C5    c C5    c H5    c  0.1572     +   2   180.00  Bonded              
C8    c C6    c C5    c C5    c  0.3036E-01 +   2   180.00  Bonded              
C5    c C5    c C6    c N5    c  0.3036E-01 +   2   180.00  Bonded              
C5    c C6    c C7    c H5    c  0.4770E-01 +   2   180.00  Improp              
C6    c C8    c C7    c O5    c  0.4553     +   2   180.00  Improp              
C5    c N6    c H6    c N5    c  0.4770E-01 +   2   180.00  Improp              
C8    c C6    c C5    c N5    c  0.4770E-01 +   2   180.00  Improp              
C5    c C5    c C5    c N6    c  0.2385E-01 +   2   180.00  Improp              
C8    c C7    c C6    c H5    c  0.4770E-01 +   2   180.00  Improp              
C5    c C5    c C5    c H5    c  0.2385E-01 +   2   180.00  Improp              
C5    c C5    c C5    c S5    c  0.2385E-01 +   2   180.00  Improp              
C5    c C5    c C5    c C6    c  0.2385E-01 +   2   180.00  Improp              
--------------------------------------------------------------------------------

********************************************************************************
*  Output for configuration   1                                                *
********************************************************************************


  Components of energy : 

--------------------------------------------------------------------------------
  Interatomic potentials     =          12.08485591 eV
  Three-body potentials      =           1.92729974 eV
  Four-body potentials       =           1.50058982 eV
  Improper torsions          =           0.00800322 eV
  Out of plane potentials    =           0.00000000 eV
  Monopole - monopole (real) =         -22.46574956 eV
--------------------------------------------------------------------------------
  Total lattice energy       =          -6.94500087 eV
--------------------------------------------------------------------------------
  Total lattice energy       =            -670.0864 kJ/mol
--------------------------------------------------------------------------------


  Number of variables =      231

  Maximum number of calculations  =          1000
  Maximum Hessian update interval =            10
  Maximum step size               =   1.000000000
  Maximum parameter tolerance     =   0.000010000
  Maximum function  tolerance     =   0.000010000
  Maximum gradient  tolerance     =   0.001000000
  Maximum gradient  component     =   0.010000000

  Symmetry not applied to optimisation

  Newton-Raphson optimiser to be used

  BFGS hessian update to be used

  Start of cluster optimisation :

  Cycle:      0 Energy:        -6.945001  Gnorm:      0.113272  CPU:    0.037
  ** Hessian calculated **
  Cycle:      1 Energy:       -14.489734  Gnorm:      0.044357  CPU:    0.073
  Cycle:      2 Energy:       -15.301939  Gnorm:      0.028413  CPU:    0.102
  Cycle:      3 Energy:       -15.755384  Gnorm:      0.017516  CPU:    0.130
  Cycle:      4 Energy:       -15.907272  Gnorm:      0.011351  CPU:    0.151
  Cycle:      5 Energy:       -15.996213  Gnorm:      0.008971  CPU:    0.175
  Cycle:      6 Energy:       -16.040374  Gnorm:      0.006136  CPU:    0.195
  Cycle:      7 Energy:       -16.075229  Gnorm:      0.006326  CPU:    0.221
  Cycle:      8 Energy:       -16.097133  Gnorm:      0.004516  CPU:    0.241
  Cycle:      9 Energy:       -16.114786  Gnorm:      0.004203  CPU:    0.265
  Cycle:     10 Energy:       -16.126194  Gnorm:      0.003260  CPU:    0.289
  ** Hessian calculated **
  Cycle:     11 Energy:       -16.131934  Gnorm:      0.002599  CPU:    0.335
  Cycle:     12 Energy:       -16.138094  Gnorm:      0.002789  CPU:    0.358
  Cycle:     13 Energy:       -16.145784  Gnorm:      0.003217  CPU:    0.389
  Cycle:     14 Energy:       -16.154924  Gnorm:      0.002584  CPU:    0.417
  Cycle:     15 Energy:       -16.161982  Gnorm:      0.003243  CPU:    0.440
  Cycle:     16 Energy:       -16.171910  Gnorm:      0.003231  CPU:    0.469
  Cycle:     17 Energy:       -16.182521  Gnorm:      0.003488  CPU:    0.498
  Cycle:     18 Energy:       -16.190696  Gnorm:      0.002957  CPU:    0.518
  Cycle:     19 Energy:       -16.199228  Gnorm:      0.003137  CPU:    0.542
  Cycle:     20 Energy:       -16.204487  Gnorm:      0.001910  CPU:    0.566
  ** Hessian calculated **
  Cycle:     21 Energy:       -16.206484  Gnorm:      0.001617  CPU:    0.605
  Cycle:     22 Energy:       -16.208460  Gnorm:      0.001391  CPU:    0.624
  Cycle:     23 Energy:       -16.210066  Gnorm:      0.001505  CPU:    0.638
  Cycle:     24 Energy:       -16.211906  Gnorm:      0.001413  CPU:    0.655
  Cycle:     25 Energy:       -16.214079  Gnorm:      0.001453  CPU:    0.677
  Cycle:     26 Energy:       -16.216142  Gnorm:      0.001582  CPU:    0.698
  Cycle:     27 Energy:       -16.218783  Gnorm:      0.001583  CPU:    0.715
  Cycle:     28 Energy:       -16.221928  Gnorm:      0.001843  CPU:    0.741
  Cycle:     29 Energy:       -16.225775  Gnorm:      0.001893  CPU:    0.767
  Cycle:     30 Energy:       -16.229417  Gnorm:      0.002253  CPU:    0.793
  ** Hessian calculated **
  Cycle:     31 Energy:       -16.231745  Gnorm:      0.001492  CPU:    0.826
  Cycle:     32 Energy:       -16.234116  Gnorm:      0.001532  CPU:    0.847
  Cycle:     33 Energy:       -16.236287  Gnorm:      0.001345  CPU:    0.866
  Cycle:     34 Energy:       -16.238110  Gnorm:      0.001380  CPU:    0.892
  Cycle:     35 Energy:       -16.239351  Gnorm:      0.000962  CPU:    0.923
  Cycle:     36 Energy:       -16.239952  Gnorm:      0.000876  CPU:    0.948
  Cycle:     37 Energy:       -16.240099  Gnorm:      0.000864  CPU:    0.978
  Cycle:     38 Energy:       -16.240175  Gnorm:      0.000858  CPU:    1.000
  Cycle:     39 Energy:       -16.240222  Gnorm:      0.000854  CPU:    1.027
  Cycle:     40 Energy:       -16.240234  Gnorm:      0.000854  CPU:    1.045
  ** Hessian calculated **
  Cycle:     41 Energy:       -16.240234  Gnorm:      0.000854  CPU:    1.101
  ** Hessian calculated **


  **** Optimisation achieved ****


  Final energy =     -16.24023392 eV
  Final Gnorm  =       0.00085378

  Components of energy : 

--------------------------------------------------------------------------------
  Interatomic potentials     =           1.98165528 eV
  Three-body potentials      =           2.59930704 eV
  Four-body potentials       =           1.33367132 eV
  Improper torsions          =           0.00636920 eV
  Out of plane potentials    =           0.00000000 eV
  Monopole - monopole (real) =         -22.16123675 eV
--------------------------------------------------------------------------------
  Total lattice energy       =         -16.24023392 eV
--------------------------------------------------------------------------------
  Total lattice energy       =           -1566.9343 kJ/mol
--------------------------------------------------------------------------------

  Final cartesian coordinates of atoms :

--------------------------------------------------------------------------------
   No.  Atomic        x           y          z          Radius
        Label       (Angs)      (Angs)     (Angs)       (Angs) 
--------------------------------------------------------------------------------
     1  O5    c    10.795924    9.862817   15.528816    0.000000
     2  S5    c    10.860224   10.005568   14.104203    0.000000
     3  O5    c     9.629857   10.669160   13.789152    0.000000
     4  O5    c    10.771552    8.655744   13.632393    0.000000
     5  C5    c    12.331350   10.888159   13.670071    0.000000
     6  C5    c    12.323946   12.283452   13.637009    0.000000
     7  H5    c    11.396607   12.821422   13.822342    0.000000
     8  C5    c    13.502939   12.989203   13.407957    0.000000
     9  H5    c    13.489232   14.077347   13.414803    0.000000
    10  C5    c    14.702767   12.308107   13.213930    0.000000
    11  C5    c    14.707262   10.911438   13.202439    0.000000
    12  H5    c    15.633386   10.366671   13.037505    0.000000
    13  C5    c    13.525664   10.205258   13.428371    0.000000
    14  H5    c    13.537748    9.117456   13.446162    0.000000
    15  N6    c    15.848097   13.044622   13.086750    0.000000
    16  H6    c    15.736639   14.058039   13.084996    0.000000
    17  N5    c    17.116850   12.559332   13.170615    0.000000
    18  C6    c    18.173237   13.325179   13.273017    0.000000
    19  C5    c    19.473557   12.681677   13.336580    0.000000
    20  C5    c    19.605640   11.284650   13.280072    0.000000
    21  H5    c    18.734406   10.645321   13.162575    0.000000
    22  C5    c    20.857706   10.682443   13.375781    0.000000
    23  H5    c    20.947830    9.598858   13.330397    0.000000
    24  C5    c    21.999443   11.461113   13.538609    0.000000
    25  C5    c    21.878835   12.848700   13.576184    0.000000
    26  H5    c    22.774582   13.454303   13.692886    0.000000
    27  C5    c    20.629676   13.462111   13.473150    0.000000
    28  C6    c    20.588277   14.902427   13.525537    0.000000
    29  H5    c    21.490237   15.501789   13.603535    0.000000
    30  C7    c    19.350548   15.504593   13.487834    0.000000
    31  H5    c    19.248240   16.582652   13.535175    0.000000
    32  C8    c    18.066990   14.807360   13.374366    0.000000
    33  O5    c    17.026923   15.444329   13.385141    0.000000
    34  S5    c    23.580213   10.699185   13.692501    0.000000
    35  O5    c    23.816516   10.236688   15.028121    0.000000
    36  O5    c    24.687367   11.564933   13.415787    0.000000
    37  O5    c    23.716566    9.511951   12.904686    0.000000
    38  O5    c    24.921906   10.407011    7.121118    0.000000
    39  S5    c    24.765710   10.162189    8.524976    0.000000
    40  O5    c    25.949457   10.728090    9.103057    0.000000
    41  O5    c    24.875624    8.736347    8.618164    0.000000
    42  C5    c    23.222744   10.845314    9.059479    0.000000
    43  C5    c    23.157839   12.153494    9.543082    0.000000
    44  H5    c    24.070477   12.737353    9.645585    0.000000
    45  C5    c    21.926564   12.725387    9.861058    0.000000
    46  H5    c    21.887984   13.753536   10.214192    0.000000
    47  C5    c    20.747280   11.997748    9.700364    0.000000
    48  C5    c    20.814146   10.674561    9.256624    0.000000
    49  H5    c    19.906746   10.088975    9.132527    0.000000
    50  C5    c    22.045494   10.104173    8.936415    0.000000
    51  H5    c    22.089511    9.082821    8.563935    0.000000
    52  N6    c    19.554633   12.624274    9.945840    0.000000
    53  H6    c    19.604922   13.607353   10.214355    0.000000
    54  N5    c    18.317000   12.099000    9.723000    0.000000
    55  C6    c    17.217053   12.806820    9.803273    0.000000
    56  C5    c    15.950832   12.124957    9.596439    0.000000
    57  C5    c    15.899358   10.755421    9.292500    0.000000
    58  H5    c    16.809234   10.164717    9.224301    0.000000
    59  C5    c    14.681635   10.123144    9.056360    0.000000
    60  H5    c    14.656449    9.062752    8.810628    0.000000
    61  C5    c    13.492758   10.843475    9.122035    0.000000
    62  C5    c    13.530544   12.198103    9.448998    0.000000
    63  H5    c    12.597551   12.755269    9.509178    0.000000
    64  C5    c    14.747801   12.841873    9.682880    0.000000
    65  C6    c    14.710260   14.248639    9.997512    0.000000
    66  H5    c    13.773957   14.790526   10.094971    0.000000
    67  C7    c    15.915002   14.896064   10.160401    0.000000
    68  H5    c    15.957439   15.956043   10.388839    0.000000
    69  C8    c    17.237764   14.271964   10.070011    0.000000
    70  O5    c    18.239306   14.950489   10.214945    0.000000
    71  S5    c    11.960498   10.048703    8.768228    0.000000
    72  O5    c    11.760764    9.937683    7.354551    0.000000
    73  O5    c    10.792935   10.730948    9.238383    0.000000
    74  O5    c    11.902910    8.682820    9.194043    0.000000
    75  Na5   c     8.782876    8.760809   14.987702    0.000000
    76  Na5   c     9.769548    8.866753    8.121597    0.000000
    77  Na5   c    25.855905    9.540409   13.959188    0.000000
    78  Na5   c    26.931235    9.237293    7.469752    0.000000
--------------------------------------------------------------------------------


  Final Cartesian derivatives :

--------------------------------------------------------------------------------
   No.  Atomic          x             y             z           Radius
        Label       (eV/Angs)     (eV/Angs)    (eV/Angs)      (eV/Angs)
--------------------------------------------------------------------------------
      1 O5    c      -0.003143     -0.006668      0.004612      0.000000
      2 S5    c       0.007709      0.023572      0.031578      0.000000
      3 O5    c       0.003925     -0.005129      0.000996      0.000000
      4 O5    c      -0.008330      0.009940      0.013996      0.000000
      5 C5    c       0.016540      0.006318     -0.025042      0.000000
      6 C5    c       0.023185     -0.022181     -0.004171      0.000000
      7 H5    c       0.015822     -0.000498     -0.005820      0.000000
      8 C5    c       0.013674     -0.009171      0.016804      0.000000
      9 H5    c       0.007612      0.008884     -0.000701      0.000000
     10 C5    c      -0.010212     -0.007039      0.003493      0.000000
     11 C5    c      -0.013720      0.016744      0.009196      0.000000
     12 H5    c      -0.006162      0.007834      0.001536      0.000000
     13 C5    c      -0.000763      0.005757     -0.004210      0.000000
     14 H5    c       0.002345      0.012429      0.001550      0.000000
     15 N6    c      -0.013159     -0.022012     -0.000119      0.000000
     16 H6    c      -0.014503     -0.026035      0.001358      0.000000
     17 N5    c       0.009773      0.003514     -0.001176      0.000000
     18 C6    c       0.006327     -0.004417     -0.001754      0.000000
     19 C5    c       0.023352     -0.004300     -0.002753      0.000000
     20 C5    c       0.007406     -0.012218      0.012548      0.000000
     21 H5    c       0.011054     -0.005359      0.009079      0.000000
     22 C5    c      -0.002644      0.011786     -0.007198      0.000000
     23 H5    c       0.006622      0.018504      0.005772      0.000000
     24 C5    c       0.016060     -0.025413      0.008679      0.000000
     25 C5    c       0.001562     -0.008771      0.003595      0.000000
     26 H5    c      -0.002117     -0.014352      0.004595      0.000000
     27 C5    c      -0.006596     -0.020351     -0.000888      0.000000
     28 C6    c      -0.018648     -0.008600     -0.003329      0.000000
     29 H5    c      -0.013339      0.002713     -0.000627      0.000000
     30 C7    c      -0.010461      0.014108     -0.000097      0.000000
     31 H5    c       0.003493      0.007910      0.002958      0.000000
     32 C8    c       0.052085      0.000100     -0.012479      0.000000
     33 O5    c      -0.011533     -0.000637      0.006204      0.000000
     34 S5    c       0.011348     -0.015344      0.047055      0.000000
     35 O5    c      -0.008985      0.003192      0.075348      0.000000
     36 O5    c       0.013470     -0.000284      0.009476      0.000000
     37 O5    c       0.000441      0.020204     -0.008513      0.000000
     38 O5    c      -0.003459     -0.000280     -0.023655      0.000000
     39 S5    c      -0.006348      0.016902     -0.015359      0.000000
     40 O5    c       0.008525      0.010999     -0.016955      0.000000
     41 O5    c       0.000414      0.004802     -0.000432      0.000000
     42 C5    c      -0.015117      0.002586      0.009297      0.000000
     43 C5    c      -0.000507     -0.009955     -0.005638      0.000000
     44 H5    c      -0.009766      0.005160     -0.006717      0.000000
     45 C5    c       0.009434      0.005539     -0.011016      0.000000
     46 H5    c       0.003204     -0.004569     -0.004239      0.000000
     47 C5    c      -0.006885      0.015738     -0.022494      0.000000
     48 C5    c       0.020672     -0.005646      0.009414      0.000000
     49 H5    c      -0.000031      0.002141     -0.000271      0.000000
     50 C5    c      -0.002261      0.022639     -0.000249      0.000000
     51 H5    c      -0.004404      0.003998      0.004785      0.000000
     52 N6    c      -0.011252      0.021305     -0.004665      0.000000
     53 H6    c       0.007304      0.008413     -0.001813      0.000000
     54 N5    c       0.000000      0.000000      0.000000      0.000000
     55 C6    c      -0.002031      0.019798      0.001781      0.000000
     56 C5    c      -0.010390     -0.012637      0.001644      0.000000
     57 C5    c      -0.010894     -0.007541     -0.001947      0.000000
     58 H5    c      -0.002943      0.002230      0.000594      0.000000
     59 C5    c      -0.010592      0.015831     -0.005380      0.000000
     60 H5    c       0.003264      0.001608      0.005043      0.000000
     61 C5    c       0.000740      0.003655      0.002404      0.000000
     62 C5    c      -0.036212      0.000803     -0.002495      0.000000
     63 H5    c      -0.019962     -0.005552     -0.005400      0.000000
     64 C5    c      -0.020092      0.000446     -0.007219      0.000000
     65 C6    c       0.031867     -0.008667      0.001576      0.000000
     66 H5    c       0.000708      0.003779      0.003021      0.000000
     67 C7    c       0.009970      0.010414     -0.006924      0.000000
     68 H5    c      -0.007938      0.022560     -0.002805      0.000000
     69 C8    c      -0.012067      0.032446     -0.000424      0.000000
     70 O5    c      -0.004055      0.007122      0.002048      0.000000
     71 S5    c       0.012069      0.014659     -0.037012      0.000000
     72 O5    c      -0.001098     -0.006135      0.005728      0.000000
     73 O5    c       0.000224     -0.004231     -0.006776      0.000000
     74 O5    c      -0.011315      0.005870     -0.012138      0.000000
     75 Na5   c      -0.001063     -0.002414      0.000865      0.000000
     76 Na5   c       0.006314     -0.006263     -0.002657      0.000000
     77 Na5   c      -0.010728     -0.002476      0.004351      0.000000
     78 Na5   c       0.001151     -0.001229     -0.001409      0.000000
--------------------------------------------------------------------------------
  Maximum abs         0.052085      0.032446      0.075348      0.000000
--------------------------------------------------------------------------------


  Born effective charge tensors : 

-------------------------------------------------------------------------------
  Atom             x           y             z
-------------------------------------------------------------------------------
   1 O5    x      -0.6818      0.0000      0.0000
           y       0.0000     -0.6818      0.0000
           z       0.0000      0.0000     -0.6818
-------------------------------------------------------------------------------
   2 S5    x       1.1440      0.0000      0.0000
           y       0.0000      1.1440      0.0000
           z       0.0000      0.0000      1.1440
-------------------------------------------------------------------------------
   3 O5    x      -0.6818      0.0000      0.0000
           y       0.0000     -0.6818      0.0000
           z       0.0000      0.0000     -0.6818
-------------------------------------------------------------------------------
   4 O5    x      -0.6818      0.0000      0.0000
           y       0.0000     -0.6818      0.0000
           z       0.0000      0.0000     -0.6818
-------------------------------------------------------------------------------
   5 C5    x      -0.0734      0.0000      0.0000
           y       0.0000     -0.0734      0.0000
           z       0.0000      0.0000     -0.0734
-------------------------------------------------------------------------------
   6 C5    x      -0.1009      0.0000      0.0000
           y       0.0000     -0.1009      0.0000
           z       0.0000      0.0000     -0.1009
-------------------------------------------------------------------------------
   7 H5    x       0.1446      0.0000      0.0000
           y       0.0000      0.1446      0.0000
           z       0.0000      0.0000      0.1446
-------------------------------------------------------------------------------
   8 C5    x      -0.1678      0.0000      0.0000
           y       0.0000     -0.1678      0.0000
           z       0.0000      0.0000     -0.1678
-------------------------------------------------------------------------------
   9 H5    x       0.1169      0.0000      0.0000
           y       0.0000      0.1169      0.0000
           z       0.0000      0.0000      0.1169
-------------------------------------------------------------------------------
  10 C5    x       0.0333      0.0000      0.0000
           y       0.0000      0.0333      0.0000
           z       0.0000      0.0000      0.0333
-------------------------------------------------------------------------------
  11 C5    x      -0.1678      0.0000      0.0000
           y       0.0000     -0.1678      0.0000
           z       0.0000      0.0000     -0.1678
-------------------------------------------------------------------------------
  12 H5    x       0.1169      0.0000      0.0000
           y       0.0000      0.1169      0.0000
           z       0.0000      0.0000      0.1169
-------------------------------------------------------------------------------
  13 C5    x      -0.1009      0.0000      0.0000
           y       0.0000     -0.1009      0.0000
           z       0.0000      0.0000     -0.1009
-------------------------------------------------------------------------------
  14 H5    x       0.1446      0.0000      0.0000
           y       0.0000      0.1446      0.0000
           z       0.0000      0.0000      0.1446
-------------------------------------------------------------------------------
  15 N6    x      -0.0940      0.0000      0.0000
           y       0.0000     -0.0940      0.0000
           z       0.0000      0.0000     -0.0940
-------------------------------------------------------------------------------
  16 H6    x       0.2606      0.0000      0.0000
           y       0.0000      0.2606      0.0000
           z       0.0000      0.0000      0.2606
-------------------------------------------------------------------------------
  17 N5    x      -0.0985      0.0000      0.0000
           y       0.0000     -0.0985      0.0000
           z       0.0000      0.0000     -0.0985
-------------------------------------------------------------------------------
  18 C6    x      -0.0204      0.0000      0.0000
           y       0.0000     -0.0204      0.0000
           z       0.0000      0.0000     -0.0204
-------------------------------------------------------------------------------
  19 C5    x      -0.0023      0.0000      0.0000
           y       0.0000     -0.0023      0.0000
           z       0.0000      0.0000     -0.0023
-------------------------------------------------------------------------------
  20 C5    x      -0.2262      0.0000      0.0000
           y       0.0000     -0.2262      0.0000
           z       0.0000      0.0000     -0.2262
-------------------------------------------------------------------------------
  21 H5    x       0.1394      0.0000      0.0000
           y       0.0000      0.1394      0.0000
           z       0.0000      0.0000      0.1394
-------------------------------------------------------------------------------
  22 C5    x      -0.0513      0.0000      0.0000
           y       0.0000     -0.0513      0.0000
           z       0.0000      0.0000     -0.0513
-------------------------------------------------------------------------------
  23 H5    x       0.1440      0.0000      0.0000
           y       0.0000      0.1440      0.0000
           z       0.0000      0.0000      0.1440
-------------------------------------------------------------------------------
  24 C5    x      -0.1159      0.0000      0.0000
           y       0.0000     -0.1159      0.0000
           z       0.0000      0.0000     -0.1159
-------------------------------------------------------------------------------
  25 C5    x      -0.0935      0.0000      0.0000
           y       0.0000     -0.0935      0.0000
           z       0.0000      0.0000     -0.0935
-------------------------------------------------------------------------------
  26 H5    x       0.1278      0.0000      0.0000
           y       0.0000      0.1278      0.0000
           z       0.0000      0.0000      0.1278
-------------------------------------------------------------------------------
  27 C5    x       0.0347      0.0000      0.0000
           y       0.0000      0.0347      0.0000
           z       0.0000      0.0000      0.0347
-------------------------------------------------------------------------------
  28 C6    x      -0.1161      0.0000      0.0000
           y       0.0000     -0.1161      0.0000
           z       0.0000      0.0000     -0.1161
-------------------------------------------------------------------------------
  29 H5    x       0.1566      0.0000      0.0000
           y       0.0000      0.1566      0.0000
           z       0.0000      0.0000      0.1566
-------------------------------------------------------------------------------
  30 C7    x      -0.3625      0.0000      0.0000
           y       0.0000     -0.3625      0.0000
           z       0.0000      0.0000     -0.3625
-------------------------------------------------------------------------------
  31 H5    x       0.1432      0.0000      0.0000
           y       0.0000      0.1432      0.0000
           z       0.0000      0.0000      0.1432
-------------------------------------------------------------------------------
  32 C8    x       0.6081      0.0000      0.0000
           y       0.0000      0.6081      0.0000
           z       0.0000      0.0000      0.6081
-------------------------------------------------------------------------------
  33 O5    x      -0.5968      0.0000      0.0000
           y       0.0000     -0.5968      0.0000
           z       0.0000      0.0000     -0.5968
-------------------------------------------------------------------------------
  34 S5    x       1.1659      0.0000      0.0000
           y       0.0000      1.1659      0.0000
           z       0.0000      0.0000      1.1659
-------------------------------------------------------------------------------
  35 O5    x      -0.6823      0.0000      0.0000
           y       0.0000     -0.6823      0.0000
           z       0.0000      0.0000     -0.6823
-------------------------------------------------------------------------------
  36 O5    x      -0.6823      0.0000      0.0000
           y       0.0000     -0.6823      0.0000
           z       0.0000      0.0000     -0.6823
-------------------------------------------------------------------------------
  37 O5    x      -0.6823      0.0000      0.0000
           y       0.0000     -0.6823      0.0000
           z       0.0000      0.0000     -0.6823
-------------------------------------------------------------------------------
  38 O5    x      -0.6818      0.0000      0.0000
           y       0.0000     -0.6818      0.0000
           z       0.0000      0.0000     -0.6818
-------------------------------------------------------------------------------
  39 S5    x       1.1440      0.0000      0.0000
           y       0.0000      1.1440      0.0000
           z       0.0000      0.0000      1.1440
-------------------------------------------------------------------------------
  40 O5    x      -0.6818      0.0000      0.0000
           y       0.0000     -0.6818      0.0000
           z       0.0000      0.0000     -0.6818
-------------------------------------------------------------------------------
  41 O5    x      -0.6818      0.0000      0.0000
           y       0.0000     -0.6818      0.0000
           z       0.0000      0.0000     -0.6818
-------------------------------------------------------------------------------
  42 C5    x      -0.0734      0.0000      0.0000
           y       0.0000     -0.0734      0.0000
           z       0.0000      0.0000     -0.0734
-------------------------------------------------------------------------------
  43 C5    x      -0.1009      0.0000      0.0000
           y       0.0000     -0.1009      0.0000
           z       0.0000      0.0000     -0.1009
-------------------------------------------------------------------------------
  44 H5    x       0.1446      0.0000      0.0000
           y       0.0000      0.1446      0.0000
           z       0.0000      0.0000      0.1446
-------------------------------------------------------------------------------
  45 C5    x      -0.1678      0.0000      0.0000
           y       0.0000     -0.1678      0.0000
           z       0.0000      0.0000     -0.1678
-------------------------------------------------------------------------------
  46 H5    x       0.1169      0.0000      0.0000
           y       0.0000      0.1169      0.0000
           z       0.0000      0.0000      0.1169
-------------------------------------------------------------------------------
  47 C5    x       0.0333      0.0000      0.0000
           y       0.0000      0.0333      0.0000
           z       0.0000      0.0000      0.0333
-------------------------------------------------------------------------------
  48 C5    x      -0.1678      0.0000      0.0000
           y       0.0000     -0.1678      0.0000
           z       0.0000      0.0000     -0.1678
-------------------------------------------------------------------------------
  49 H5    x       0.1169      0.0000      0.0000
           y       0.0000      0.1169      0.0000
           z       0.0000      0.0000      0.1169
-------------------------------------------------------------------------------
  50 C5    x      -0.1009      0.0000      0.0000
           y       0.0000     -0.1009      0.0000
           z       0.0000      0.0000     -0.1009
-------------------------------------------------------------------------------
  51 H5    x       0.1446      0.0000      0.0000
           y       0.0000      0.1446      0.0000
           z       0.0000      0.0000      0.1446
-------------------------------------------------------------------------------
  52 N6    x      -0.0940      0.0000      0.0000
           y       0.0000     -0.0940      0.0000
           z       0.0000      0.0000     -0.0940
-------------------------------------------------------------------------------
  53 H6    x       0.2606      0.0000      0.0000
           y       0.0000      0.2606      0.0000
           z       0.0000      0.0000      0.2606
-------------------------------------------------------------------------------
  54 N5    x      -0.0985      0.0000      0.0000
           y       0.0000     -0.0985      0.0000
           z       0.0000      0.0000     -0.0985
-------------------------------------------------------------------------------
  55 C6    x      -0.0204      0.0000      0.0000
           y       0.0000     -0.0204      0.0000
           z       0.0000      0.0000     -0.0204
-------------------------------------------------------------------------------
  56 C5    x      -0.0023      0.0000      0.0000
           y       0.0000     -0.0023      0.0000
           z       0.0000      0.0000     -0.0023
-------------------------------------------------------------------------------
  57 C5    x      -0.2262      0.0000      0.0000
           y       0.0000     -0.2262      0.0000
           z       0.0000      0.0000     -0.2262
-------------------------------------------------------------------------------
  58 H5    x       0.1394      0.0000      0.0000
           y       0.0000      0.1394      0.0000
           z       0.0000      0.0000      0.1394
-------------------------------------------------------------------------------
  59 C5    x      -0.0513      0.0000      0.0000
           y       0.0000     -0.0513      0.0000
           z       0.0000      0.0000     -0.0513
-------------------------------------------------------------------------------
  60 H5    x       0.1440      0.0000      0.0000
           y       0.0000      0.1440      0.0000
           z       0.0000      0.0000      0.1440
-------------------------------------------------------------------------------
  61 C5    x      -0.1159      0.0000      0.0000
           y       0.0000     -0.1159      0.0000
           z       0.0000      0.0000     -0.1159
-------------------------------------------------------------------------------
  62 C5    x      -0.0935      0.0000      0.0000
           y       0.0000     -0.0935      0.0000
           z       0.0000      0.0000     -0.0935
-------------------------------------------------------------------------------
  63 H5    x       0.1278      0.0000      0.0000
           y       0.0000      0.1278      0.0000
           z       0.0000      0.0000      0.1278
-------------------------------------------------------------------------------
  64 C5    x       0.0347      0.0000      0.0000
           y       0.0000      0.0347      0.0000
           z       0.0000      0.0000      0.0347
-------------------------------------------------------------------------------
  65 C6    x      -0.1161      0.0000      0.0000
           y       0.0000     -0.1161      0.0000
           z       0.0000      0.0000     -0.1161
-------------------------------------------------------------------------------
  66 H5    x       0.1566      0.0000      0.0000
           y       0.0000      0.1566      0.0000
           z       0.0000      0.0000      0.1566
-------------------------------------------------------------------------------
  67 C7    x      -0.3625      0.0000      0.0000
           y       0.0000     -0.3625      0.0000
           z       0.0000      0.0000     -0.3625
-------------------------------------------------------------------------------
  68 H5    x       0.1432      0.0000      0.0000
           y       0.0000      0.1432      0.0000
           z       0.0000      0.0000      0.1432
-------------------------------------------------------------------------------
  69 C8    x       0.6081      0.0000      0.0000
           y       0.0000      0.6081      0.0000
           z       0.0000      0.0000      0.6081
-------------------------------------------------------------------------------
  70 O5    x      -0.5968      0.0000      0.0000
           y       0.0000     -0.5968      0.0000
           z       0.0000      0.0000     -0.5968
-------------------------------------------------------------------------------
  71 S5    x       1.1659      0.0000      0.0000
           y       0.0000      1.1659      0.0000
           z       0.0000      0.0000      1.1659
-------------------------------------------------------------------------------
  72 O5    x      -0.6823      0.0000      0.0000
           y       0.0000     -0.6823      0.0000
           z       0.0000      0.0000     -0.6823
-------------------------------------------------------------------------------
  73 O5    x      -0.6823      0.0000      0.0000
           y       0.0000     -0.6823      0.0000
           z       0.0000      0.0000     -0.6823
-------------------------------------------------------------------------------
  74 O5    x      -0.6823      0.0000      0.0000
           y       0.0000     -0.6823      0.0000
           z       0.0000      0.0000     -0.6823
-------------------------------------------------------------------------------
  75 Na5   x       1.0000      0.0000      0.0000
           y       0.0000      1.0000      0.0000
           z       0.0000      0.0000      1.0000
-------------------------------------------------------------------------------
  76 Na5   x       1.0000      0.0000      0.0000
           y       0.0000      1.0000      0.0000
           z       0.0000      0.0000      1.0000
-------------------------------------------------------------------------------
  77 Na5   x       1.0000      0.0000      0.0000
           y       0.0000      1.0000      0.0000
           z       0.0000      0.0000      1.0000
-------------------------------------------------------------------------------
  78 Na5   x       1.0000      0.0000      0.0000
           y       0.0000      1.0000      0.0000
           z       0.0000      0.0000      1.0000
-------------------------------------------------------------------------------




  Moment of inertia tensor (10^-46 x kgm^2): 

-------------------------------------------------------------------------------
                x           y           z           Principal axis system
-------------------------------------------------------------------------------
       x       1414.58     -110.78      279.29         1389.210924
       y       -110.78     5220.84     -101.59         4829.587868
       z        279.29     -101.59     4837.76         5254.375173
-------------------------------------------------------------------------------
  Centre of mass (Ang) =    17.755049    11.318127    11.377552
-------------------------------------------------------------------------------


  Vibrational Frequency Calculation : 

--------------------------------------------------------------------------------

  Frequencies (cm-1) :

  -21.18  -13.38   -7.68   -7.23   -0.00   -0.00   -0.00   -0.00   -0.00
    0.00    6.80    8.54   11.76   13.45   18.13   20.34   23.01   27.24
   31.60   34.02   37.83   44.69   51.56   56.22   65.60   79.44   81.62
   90.32   96.30   99.66  101.14  104.54  116.31  119.12  140.15  141.44
  165.55  171.01  177.89  179.05  198.88  199.79  203.97  206.88  220.70
  221.24  246.32  247.93  285.56  287.56  292.20  292.55  296.07  300.23
  302.93  303.15  324.05  325.45  333.56  334.19  335.19  336.47  337.55
  338.00  339.80  340.34  347.24  348.74  362.88  364.49  365.37  366.59
  388.28  388.56  415.49  415.86  424.80  424.98  437.21  438.35  453.27
  454.47  457.14  458.21  472.15  474.14  497.79  498.73  518.74  520.66
  535.05  536.03  536.85  538.23  545.03  545.60  553.95  554.50  575.86
  577.17  604.59  604.71  643.79  644.03  658.32  658.97  689.89  691.49
  707.54  708.17  730.47  730.60  736.92  738.89  748.80  748.87  792.47
  795.12  803.28  803.47  849.20  855.35  868.65  869.09  893.19  893.20
  903.23  904.72  906.68  908.66  944.91  945.09  985.83  986.04 1010.05
 1010.30 1019.18 1020.32 1025.99 1027.20 1040.35 1040.75 1088.17 1091.40
 1105.86 1105.91 1110.95 1112.05 1122.02 1122.22 1147.20 1148.32 1148.51
 1150.63 1159.93 1160.33 1170.79 1171.79 1175.82 1176.96 1190.09 1190.59
 1206.45 1207.56 1220.40 1220.81 1232.19 1232.55 1281.36 1282.13 1292.43
 1292.92 1312.65 1313.11 1343.96 1344.21 1389.47 1390.69 1403.06 1403.42
 1482.58 1483.34 1499.99 1500.33 1532.02 1532.44 1544.92 1546.12 1621.13
 1622.18 1659.44 1660.49 1698.01 1698.13 1711.43 1711.79 1744.36 1745.03
 1761.33 1761.57 1782.86 1783.09 1797.13 1797.20 1812.27 1813.16 1826.85
 1827.33 1841.05 1841.84 1897.75 1898.57 1909.65 1909.89 2966.19 2966.37
 2968.21 2968.27 2968.32 2968.45 2969.19 2969.27 2970.03 2970.08 2970.31
 2970.44 2971.15 2971.24 2980.68 2980.93 2983.12 2983.46 3180.53 3181.14


--------------------------------------------------------------------------------

  Vibrational properties (for cluster):  Temperature  =       0.000 K
--------------------------------------------------------------------------------
  Zero point energy             =        13.950622 eV
--------------------------------------------------------------------------------

  Vibrational density of states : 

--------------------------------------------------------------------------------
 Frequency     Density of States                                                
--------------------------------------------------------------------------------
    0.00000 |*******************************************                   0.058
   50.00000 |**************************                                    0.036
  100.00000 |********************                                          0.027
  150.00000 |********************                                          0.027
  200.00000 |********************                                          0.027
  250.00000 |****************                                              0.022
  300.00000 |**************************************************            0.067
  350.00000 |********************                                          0.027
  400.00000 |********************                                          0.027
  450.00000 |**************************                                    0.036
  500.00000 |**************************                                    0.036
  550.00000 |*************                                                 0.018
  600.00000 |*************                                                 0.018
  650.00000 |*************                                                 0.018
  700.00000 |**************************                                    0.036
  750.00000 |******                                                        0.009
  800.00000 |**********                                                    0.013
  850.00000 |****************                                              0.022
  900.00000 |********************                                          0.027
  950.00000 |******                                                        0.009
 1000.00000 |**************************                                    0.036
 1050.00000 |******                                                        0.009
 1100.00000 |******************************                                0.040
 1150.00000 |******************************                                0.040
 1200.00000 |********************                                          0.027
 1250.00000 |*************                                                 0.018
 1300.00000 |*************                                                 0.018
 1350.00000 |******                                                        0.009
 1400.00000 |******                                                        0.009
 1450.00000 |**********                                                    0.013
 1500.00000 |****************                                              0.022
 1550.00000 |                                                              0.000
 1600.00000 |******                                                        0.009
 1650.00000 |*************                                                 0.018
 1700.00000 |*************                                                 0.018
 1750.00000 |********************                                          0.027
 1800.00000 |********************                                          0.027
 1850.00000 |******                                                        0.009
 1900.00000 |******                                                        0.009
 1950.00000 |                                                              0.000
 2000.00000 |                                                              0.000
 2050.00000 |                                                              0.000
 2100.00000 |                                                              0.000
 2150.00000 |                                                              0.000
 2200.00000 |                                                              0.000
 2250.00000 |                                                              0.000
 2300.00000 |                                                              0.000
 2350.00000 |                                                              0.000
 2400.00000 |                                                              0.000
 2450.00000 |                                                              0.000
 2500.00000 |                                                              0.000
 2550.00000 |                                                              0.000
 2600.00000 |                                                              0.000
 2650.00000 |                                                              0.000
 2700.00000 |                                                              0.000
 2750.00000 |                                                              0.000
 2800.00000 |                                                              0.000
 2850.00000 |                                                              0.000
 2900.00000 |                                                              0.000
 2950.00000 |************************************************************  0.080
 3000.00000 |                                                              0.000
 3050.00000 |                                                              0.000
 3100.00000 |                                                              0.000
 3150.00000 |******                                                        0.009
--------------------------------------------------------------------------------



  Time to end of optimisation =       1.2507 seconds


  Peak dynamic memory used =       1.98 MB 


  Timing analysis for GULP :

--------------------------------------------------------------------------------
  Task / Subroutine                                          Time (Seconds)
--------------------------------------------------------------------------------
  Calculation of real space energy and derivatives                0.8751
  Calculation of three-body energy and derivatives                0.0494
  Calculation of four-body energy and derivatives                 0.1341
  Calculation of molecules and connectivity                       0.0006
  Calculation of phonons                                          0.0763
  Calculation of scattering                                       0.0000
  Calculation of matrix inversion                                 0.0621
  Disk read/write operations to scratch files                     0.0003
  Global summation overhead                                       0.0007
--------------------------------------------------------------------------------
  Total CPU time                                                  1.2511
--------------------------------------------------------------------------------


  Dump file written as ssy_dimer_c_2_prime.res                                 


  Job Finished at 15:37.42 27th March      2014                               

