ITEM: TIMESTEP
0
ITEM: NUMBER OF ATOMS
8640
ITEM: BOX BOUNDS xy xz yz pp pp pp
-1.2133912711598960e-01 2.1711739127115706e+01 0.0000000000000000e+00
-9.5172080504410062e-02 2.1685572080505004e+01 0.0000000000000000e+00
-2.1139311072189173e+00 2.0819393110722007e+02 0.0000000000000000e+00
ITEM: ATOMS id type x y z c_peratom fx fy fz 
6 1 1.20281 0.528122 0.668841 -7.97079 -1.19366 -1.04774 0.176498 
222 1 0.354602 0.603589 6.00653 -7.95762 0.255179 -0.512704 1.48464 
3 1 1.91364 2.47695 -2.01051 -8.06412 -0.151316 -0.817175 -0.47667 
42 1 0.533543 4.67293 1.61065 -7.99056 -0.513424 -0.339184 -0.771246 
258 1 0.544443 4.04316 6.71566 -8.09767 0.0363681 0.648657 -0.363445 
474 1 0.884324 3.86114 12.0711 -8.69664 0.111593 -0.058394 2.21588 
78 1 1.17269 7.57454 0.850413 -8.88273 -2.82195 1.45012 -2.72391 
294 1 0.664108 8.02845 6.13277 -7.057 -1.23297 -0.318912 -1.44636 
510 1 0.0667575 7.99675 11.2608 -8.11449 0.408645 0.865314 -0.227188 
114 1 0.394074 12.047 1.54128 -8.36541 -0.0907089 0.548887 -0.87828 
330 1 0.808436 11.7482 6.82213 -7.90769 -0.449954 -2.06394 0.166728 
546 1 0.744146 11.139 12.272 -8.52503 -0.733735 1.03266 -0.345362 
150 1 1.01044 14.9586 0.336011 -7.87457 -0.466587 1.00712 1.91392 
366 1 0.627367 15.2295 6.01239 -7.70489 -0.976485 -0.781206 0.714596 
8579 1 3.3567 14.8821 -1.03489 -8.3946 0.285056 -0.471824 -2.63561 
186 1 0.563671 19.2788 1.69078 -7.36522 -1.44311 0.643728 -1.55136 
402 1 0.731266 18.6929 6.65116 -8.10585 -1.19824 -0.999146 -0.536881 
618 1 0.811241 18.5347 12.1303 -8.32019 0.718264 0.171272 -0.869572 
12 1 4.19966 1.20836 1.55241 -7.40684 0.22823 -0.415223 0.863559 
228 1 4.37724 0.478232 6.71853 -9.08193 -0.507836 0.844552 -1.21738 
444 1 4.38315 0.404093 11.9409 -8.55214 -0.289253 -0.893853 -0.389114 
48 1 4.78539 3.91616 0.767156 -7.61205 0.0707402 0.853599 -1.31398 
264 1 4.06361 4.4414 5.99418 -8.09616 -0.413313 -1.66602 0.0500663 
480 1 3.79033 4.43252 11.466 -8.48474 0.238933 0.429546 -1.26234 
84 1 4.33161 8.23364 1.51777 -7.50361 -2.26011 0.52843 -0.845465 
300 1 4.27014 7.9336 6.78831 -7.94023 0.165687 -0.0972641 -1.5019 
516 1 4.30771 7.56065 12.2744 -8.26435 1.63095 -1.49261 -1.18374 
120 1 4.56656 11.3889 0.551321 -7.97251 1.10506 0.00255844 0.191635 
336 1 4.10818 11.5556 6.02833 -7.6853 1.01519 -0.455292 0.43576 
552 1 3.77198 11.7486 11.3049 -8.16394 -1.01428 1.6697 -0.375027 
156 1 3.84622 15.6062 1.30876 -7.95603 1.94755 -0.295877 1.31382 
372 1 4.59221 14.9804 6.58015 -7.24783 -1.57402 1.56435 -0.255304 
588 1 4.52759 15.1341 12.1973 -8.69464 -1.15517 -3.00636 -1.22007 
192 1 4.85689 18.5834 0.34215 -8.22968 -0.91212 -0.0597737 -0.367418 
408 1 4.04255 18.7241 5.93412 -7.56071 -0.370645 -0.200529 0.723186 
624 1 3.76021 18.9472 11.248 -7.97067 -0.865401 0.734366 0.436176 
18 1 8.27522 0.366278 0.635581 -8.18648 -0.0633976 -0.103893 -0.161672 
234 1 7.6037 0.582455 6.12445 -7.70085 -1.48607 0.0913384 -0.252463 
450 1 7.37229 0.78608 11.1849 -7.8513 0.537971 -1.59986 0.39615 
54 1 7.54101 4.90681 1.5575 -7.54045 1.98616 -1.31658 -0.978737 
270 1 8.11829 4.2303 6.66379 -8.33385 -0.36634 1.03073 -1.37342 
486 1 8.07236 3.96924 12.3699 -7.70406 0.608295 1.00832 -1.08642 
90 1 8.2748 7.86981 0.812003 -8.1395 0.0714847 -0.84457 -1.20102 
306 1 7.6999 7.89843 5.86529 -7.47166 0.699764 -0.0923798 0.51265 
522 1 7.18919 8.23314 11.0176 -7.33466 0.279987 -0.225987 1.28135 
126 1 7.72156 12.0232 1.3521 -7.99533 1.34029 0.0410032 1.81921 
342 1 8.02517 11.6177 6.80113 -8.24507 0.870655 -0.714225 -1.90974 
558 1 7.84547 11.2029 12.0114 -7.95848 0.822504 -0.561988 1.40264 
162 1 8.24189 14.885 0.654986 -8.3835 0.529125 2.61334 0.839107 
378 1 7.67622 14.9722 6.37449 -6.88082 0.515684 0.908021 -1.86755 
594 1 7.33089 15.2547 11.348 -8.39804 1.53953 0.296166 -2.58148 
198 1 7.59323 19.2763 1.4999 -7.99218 0.889941 -0.792807 -0.798639 
414 1 8.08142 18.74 6.72848 -7.47421 -0.906944 0.273451 0.748452 
630 1 8.17824 18.3434 12.1218 -7.75861 0.020845 -0.652326 -0.638239 
5 1 0.465803 21.6655 3.36392 -7.64242 -1.49063 -0.449036 0.0988191 
221 1 0.733661 1.81742 8.52014 -7.90519 0.839168 -2.01067 -0.517581 
437 1 0.809161 1.75312 13.9423 -8.07043 0.987114 -0.0458713 -1.64147 
591 1 10.6674 17.2418 8.64507 -8.53673 -0.444766 -0.776464 1.0425 
257 1 1.4614 4.31124 9.6545 -7.92839 1.53655 1.61627 -1.7322 
473 1 1.51312 4.56033 15.0378 -8.70939 0.309151 -2.96076 -0.93267 
77 1 0.508404 6.84665 3.39301 -7.73518 0.441152 2.03603 -1.17201 
293 1 0.647854 8.76408 8.52327 -7.6174 0.441532 0.924341 1.00495 
509 1 1.01507 8.87344 13.7059 -7.95974 -2.75128 0.09 0.642388 
8549 1 6.96902 11.3478 -1.074 -8.27559 -0.551376 0.689243 -1.34103 
329 1 1.35399 11.4762 9.66735 -7.96234 0.236576 2.04297 -0.531066 
545 1 1.72669 11.8307 14.9444 -8.53094 -1.68601 0.634431 -1.36642 
149 1 0.550895 14.519 3.2561 -8.2528 0.9009 -1.09529 -0.895074 
365 1 0.955751 16.0914 8.68626 -7.84438 -2.22816 0.239669 -1.00257 
581 1 0.836702 16.0957 13.7112 -8.65266 0.0319904 0.161324 1.49416 
159 1 8.73452 16.7571 -1.96628 -7.12637 1.98673 -1.5775 -1.37989 
401 1 1.56701 18.8013 9.24667 -8.49175 -0.351823 -1.13726 1.33233 
617 1 1.47532 19.062 14.9148 -8.33253 -2.11123 -1.4054 -0.0125138 
11 1 3.22984 0.608193 4.32939 -8.02337 1.45835 -0.759318 -0.258684 
227 1 5.01599 0.764893 9.25966 -8.23297 -1.44106 0.0898062 1.55731 
443 1 5.02742 0.818926 14.5807 -8.30538 0.120701 0.241224 2.97414 
47 1 3.99563 3.37693 3.40439 -8.1285 1.11904 0.0347748 0.702133 
263 1 4.45429 5.38578 8.53334 -7.76327 -2.32499 0.854579 0.670192 
479 1 4.49035 5.35898 13.9222 -7.88487 -0.774788 -0.892734 0.599284 
83 1 3.28959 7.68205 4.19258 -8.13347 0.653866 -0.831053 0.0865429 
299 1 4.88707 8.14945 9.38014 -7.65643 -0.335368 -1.37019 0.464866 
515 1 5.12466 8.25359 14.9185 -8.08078 -0.530638 -1.60574 -1.21547 
119 1 4.13226 10.8077 3.26379 -6.97479 0.717371 0.928782 0.351043 
335 1 4.58202 12.4405 8.67157 -8.16566 -2.09727 0.0957806 -0.326531 
551 1 4.38003 12.4399 13.7813 -8.73348 -1.19748 1.24193 -0.120668 
155 1 3.28067 15.026 4.04684 -8.78433 -0.0570771 -0.200036 0.474723 
371 1 5.15427 15.2045 9.38168 -8.12338 -0.301999 -0.582295 2.15222 
587 1 5.21672 15.51 14.8373 -7.86153 -1.27438 -0.185726 -0.784896 
191 1 4.04627 18.0224 3.24738 -7.7953 0.726827 -0.857788 -0.28209 
407 1 4.48594 19.66 8.55729 -8.05133 -1.3456 -0.372012 -1.10352 
623 1 4.56038 19.7662 13.94 -7.89475 -0.307747 0.934137 -1.37356 
17 1 7.8209 21.5364 3.53203 -8.37833 -0.895588 1.58917 -2.19147 
233 1 7.72357 1.60652 8.59882 -7.73562 1.86179 -0.335836 0.346205 
449 1 7.9945 1.4829 13.9001 -8.09973 0.152744 -0.133866 -0.243145 
53 1 7.10206 4.22097 4.07708 -7.93945 0.697815 -1.36274 2.60263 
269 1 8.56095 4.54889 9.42216 -8.21345 -0.00763615 -0.864288 0.953008 
485 1 8.87709 4.65108 14.8394 -7.64202 -2.69243 0.141627 1.36187 
89 1 7.83083 7.0687 3.2368 -7.51787 0.335563 0.392668 0.661276 
305 1 7.94932 8.81604 8.47717 -7.40579 2.55505 0.188331 0.0804305 
521 1 8.21445 8.90238 13.9985 -8.20675 -0.743079 1.0616 -1.03785 
125 1 7.19579 11.333 4.07571 -8.3277 0.403275 1.42102 0.820243 
341 1 8.88681 11.7474 9.52918 -7.86945 0.772555 -1.31898 -0.133295 
557 1 8.88271 11.8531 14.797 -7.91007 -0.739139 -1.76592 -0.00799125 
161 1 7.80039 14.2738 3.4852 -7.35808 -0.137824 -0.221023 -1.33949 
377 1 7.92784 16.1811 8.53745 -8.59383 1.2972 0.202073 1.3113 
593 1 8.13974 16.0156 13.9929 -8.04105 -0.249036 0.454953 -0.71227 
197 1 6.66611 18.5573 4.12599 -6.7499 0.93789 0.677547 -0.254195 
413 1 8.57478 18.8041 9.41832 -8.33149 0.33649 0.256579 0.312395 
629 1 8.70743 19.0694 14.8319 -7.26031 1.36195 -0.876655 -0.182525 
2 2 0.596404 2.26849 -0.208417 -29.187 0.216085 0.466866 -0.0305973 
218 2 0.312499 2.37559 5.27956 -28.8476 0.69816 0.813619 -1.22628 
434 2 0.572412 2.71141 10.362 -28.4701 -0.0822857 -0.691116 -0.0988029 
447 1 10.3707 2.67441 8.55248 -7.987 0.739879 0.900121 1.19689 
38 2 0.674848 5.90151 -0.1596 -27.9513 -0.462882 -2.13294 -0.713994 
254 2 0.63661 6.02752 5.26052 -29.3065 -1.20707 0.311992 0.400858 
470 2 0.806852 6.13464 10.5913 -28.7077 -1.18501 -0.224864 -1.26022 
153 1 6.03192 16.0428 -1.21399 -8.4516 -2.62557 -0.652059 -0.849114 
74 2 0.477857 9.64132 -0.245476 -27.9916 0.586645 1.46212 0.576096 
290 2 0.502352 9.94562 5.28842 -29.1873 1.21969 -1.35779 -0.335324 
506 2 0.68114 9.7686 10.2932 -28.8855 0.0114195 -0.505416 1.0141 
8465 1 0.00498402 4.06293 -1.17473 -8.16605 -0.974347 0.903507 0.665665 
110 2 0.592527 13.1484 -0.352674 -28.9676 -0.743598 -0.0748858 0.247024 
326 2 0.503059 13.3476 5.07259 -28.8302 0.149852 0.199113 -0.043005 
542 2 0.657192 13.4155 10.5063 -28.8535 0.428663 -0.751605 -1.02365 
123 1 9.44041 12.5736 -1.07977 -7.69208 0.704891 -0.652312 -0.268578 
146 2 0.401234 16.9546 -0.377516 -29.3179 1.08073 -0.183726 0.650843 
362 2 0.446921 16.9004 4.86108 -28.9852 0.672378 -1.00667 1.67915 
578 2 0.768747 16.9578 10.5069 -28.5604 -0.770411 1.93207 -0.00895477 
8621 1 7.40175 18.5097 -1.32661 -7.61372 -2.89343 2.58353 1.6723 
182 2 0.46748 20.4925 -0.201739 -29.5234 0.960033 -0.398675 -0.997176 
398 2 0.612804 20.5429 5.22434 -29.2539 -0.255513 -1.33754 -1.07372 
614 2 0.773336 20.2505 10.3128 -27.888 -0.326722 1.69456 1.0183 
268 1 9.69551 6.32618 6.72842 -8.1635 -0.945883 -0.0559209 0.100011 
8 2 4.01775 2.21852 -0.332908 -29.2794 -1.1193 0.714278 1.0106 
224 2 4.18391 2.37966 5.25255 -28.3231 0.0989555 0.391845 0.0666754 
440 2 4.26697 2.61077 10.2547 -28.2067 2.62295 1.26357 -0.32533 
23 1 10.7064 0.340073 4.06065 -8.29535 -0.498435 0.528676 -0.700726 
44 2 4.13226 5.91976 -0.331092 -28.6377 0.942285 -1.5378 0.777299 
260 2 4.16967 6.16378 5.0502 -28.212 -0.265562 -0.123676 0.35589 
476 2 4.26051 6.40118 10.4152 -28.5024 1.44185 -0.292603 -0.159118 
8447 1 10.6357 0.423847 -0.960509 -7.70079 0.0196426 1.53792 -1.27349 
80 2 3.96348 9.60978 -0.327232 -28.3749 0.352707 -0.0670942 0.845063 
296 2 4.20649 9.54989 5.04758 -29.722 -0.525114 0.908569 -0.942058 
512 2 4.31324 10.0368 10.2524 -29.4322 1.19993 -0.485885 0.318721 
81 1 6.17746 8.75651 -1.25665 -8.0731 -2.98932 0.705604 0.937571 
116 2 4.25279 13.1866 -0.420831 -28.239 -2.01153 -1.39525 0.914112 
332 2 4.02105 13.3643 4.98999 -29.0951 1.15924 -1.18824 1.90963 
548 2 4.37079 13.6578 10.356 -28.1778 -0.332082 -1.02747 0.300931 
111 1 2.15729 12.283 -1.34003 -7.80943 1.29918 0.901521 1.74724 
152 2 4.01724 16.6964 -0.477876 -28.7742 -0.364847 1.50222 1.00452 
368 2 4.21844 16.6672 5.11318 -29.2304 0.891094 1.53945 -0.233284 
584 2 4.46038 17.1049 10.5694 -29.1214 0.166687 0.392349 -0.622644 
340 1 9.75569 13.6307 6.6322 -8.37514 1.15049 -1.36382 -0.715005 
188 2 4.1901 20.4143 -0.249527 -28.7166 -1.90206 1.32812 -0.581614 
404 2 4.05543 20.6398 5.18936 -28.8434 -0.313126 -1.56187 -0.210628 
620 2 4.26805 20.7018 10.2863 -28.5962 1.88005 -0.250896 0.544864 
556 1 9.24248 13.3717 12.067 -8.06619 1.44913 0.35395 0.486703 
14 2 7.5581 2.29078 -0.227856 -28.6248 1.54209 -0.227267 -2.35452 
230 2 7.84505 2.46388 5.26792 -28.6449 -1.12103 0.399084 0.0442457 
446 2 7.70218 2.66452 10.3442 -29.2921 0.154651 0.801401 1.05663 
52 1 10.1496 5.873 1.43877 -8.0431 -0.239797 0.702884 0.0760691 
50 2 7.76397 5.83037 -0.237449 -29.0382 0.252788 0.663464 -0.976226 
266 2 7.69406 5.96658 5.07035 -29.0024 1.43265 0.921588 -0.695425 
482 2 8.06501 6.36515 10.397 -29.2164 -1.08907 0.810512 -0.393273 
663 1 10.4762 2.8431 14.0262 -7.86797 0.112068 -2.3161 -2.09365 
86 2 7.60468 9.52433 -0.22572 -28.9892 2.4735 1.42089 0.431639 
302 2 7.86504 9.76937 5.08789 -28.9882 -0.399452 -1.96842 0.098102 
518 2 7.87188 10.05 10.3476 -29.4155 -0.230274 -1.03552 -1.03887 
183 1 2.09441 19.7564 -1.12867 -7.52979 2.47412 0.109891 0.220827 
122 2 7.68866 13.1994 -0.271639 -28.7532 1.0331 -0.648114 -0.584561 
338 2 8.07799 13.18 5.19202 -29.0552 -2.69298 2.02288 0.738546 
554 2 8.14951 13.4529 10.4202 -29.032 -1.2342 -0.610145 -0.489073 
124 1 10.189 13.3461 1.49936 -7.87704 -0.241831 -1.05024 -0.270213 
158 2 7.51977 16.712 -0.238626 -28.6918 1.37176 1.1005 -0.0986227 
374 2 7.531 16.956 5.13022 -30.3628 2.13904 0.0319303 -1.29425 
590 2 8.1559 16.9923 10.285 -28.1243 -0.59403 1.47538 2.89064 
448 1 9.64067 2.18195 11.1107 -8.06065 0.130636 -0.91393 0.187225 
194 2 7.75252 20.3023 -0.421187 -28.5138 -0.817461 1.3275 1.2233 
410 2 7.87686 20.5358 5.17879 -29.647 0.908697 -2.80447 0.752954 
626 2 7.95655 20.6393 10.3127 -28.7161 -0.672965 -0.108532 1.76517 
160 1 9.49562 17.43 0.460639 -8.73402 -0.384799 -1.24694 1.7314 
1 2 2.18596 0.482434 2.52985 -29.7185 1.76224 -0.159829 -1.11434 
217 2 2.54319 0.833881 7.80405 -28.1093 -1.30674 -0.126432 -0.396536 
433 2 2.46213 1.00246 12.5406 -27.7892 -0.527683 -1.07119 3.88451 
37 2 2.33328 4.09706 2.55338 -29.2288 -0.479937 -1.32324 -1.356 
253 2 2.44398 4.45799 7.5524 -28.6962 0.0547937 -1.09947 1.1585 
469 2 2.64012 4.5325 13.1887 -28.1389 0.392353 1.06571 0.0665548 
73 2 2.30973 7.60121 2.32253 -28.5064 2.27305 2.22571 2.97394 
289 2 2.51366 8.05367 7.72128 -29.439 -1.28836 0.938385 0.0533966 
505 2 2.64683 8.17583 13.0258 -28.8143 -0.20689 -0.508169 0.299645 
109 2 2.13176 11.4098 2.40364 -29.2488 2.08859 -1.7725 0.908002 
325 2 2.65263 11.6782 7.70638 -29.0216 -0.560455 0.962727 -0.683385 
541 2 2.45776 11.7996 12.9829 -28.1347 1.59302 -1.27193 -0.0574187 
145 2 2.3075 14.9189 2.27564 -28.261 -1.54181 1.33236 -1.13696 
361 2 2.49589 15.3751 7.76842 -29.1757 0.652945 -1.96982 -1.63929 
577 2 2.68012 15.5035 13.0455 -28.1235 -0.438439 -0.00176589 -0.41637 
181 2 2.3603 18.5632 2.45704 -29.4855 -1.02339 1.90857 -2.2501 
397 2 2.58539 18.6336 7.54807 -28.8653 1.18779 0.000780602 -0.641641 
613 2 2.6344 19.3789 13.3075 -28.7838 0.320952 -0.512625 -1.10673 
7 2 5.97641 0.569689 2.54624 -28.3413 -0.679737 -0.54138 -1.31418 
223 2 6.1406 0.624589 7.62742 -28.8875 1.52309 0.771836 0.341378 
439 2 6.15445 0.644458 13.0831 -28.8004 1.15744 1.25608 -2.39306 
43 2 5.9446 4.00808 2.56487 -29.2722 -1.09966 0.0730947 -2.15381 
259 2 6.20115 4.6252 7.75739 -29.3598 -0.914971 -0.959221 -0.592866 
475 2 6.1671 4.49632 12.9392 -29.2581 -0.270745 0.918469 0.657652 
79 2 6.21494 7.75202 2.17169 -29.7629 -0.575756 -0.818982 1.64837 
295 2 6.28397 7.98661 7.60827 -29.829 -0.801232 0.996878 0.497702 
511 2 6.07352 8.42064 13.1208 -28.9187 2.01318 -1.06496 -0.283472 
115 2 6.11589 11.5335 2.32348 -29.0126 -3.32247 -0.622128 1.14483 
331 2 6.03992 11.7293 7.49702 -29.5947 0.90873 0.494872 0.396717 
547 2 6.02348 11.8352 12.9498 -28.629 1.91855 -0.2842 -1.54642 
151 2 5.9185 14.9843 2.34964 -28.7196 0.872197 0.829184 0.403393 
367 2 6.29247 15.2201 7.8119 -29.4231 -1.16141 -0.988217 -2.40896 
583 2 6.34454 15.5076 12.9686 -28.7032 0.76292 -0.841497 3.08141 
187 2 5.71285 18.9347 2.27884 -29.502 0.82894 -1.20522 1.05031 
403 2 6.13162 18.8145 7.57933 -29.2169 0.158483 0.353194 1.05731 
619 2 6.31155 18.979 13.1534 -29.5791 1.18539 0.38955 -0.610873 
13 2 9.3981 0.537389 2.28464 -28.6033 1.1184 -0.723491 0.222335 
229 2 9.77877 0.851841 7.93039 -28.7971 -0.943025 -0.133176 -2.0225 
445 2 9.83144 0.99288 12.8233 -28.5407 -1.5503 -0.306875 1.54549 
49 2 9.63297 4.17384 2.39821 -28.7589 -0.729618 -0.0635076 -0.00340697 
265 2 9.68001 4.5847 7.76149 -28.6959 2.0668 -1.34935 0.33528 
481 2 9.80239 4.62779 13.1543 -28.8099 1.01971 0.242748 -0.990951 
85 2 9.76459 7.71583 2.51087 -29.0641 -1.85264 0.47741 0.172979 
301 2 9.96701 8.08029 7.70872 -29.0764 -1.40587 1.54493 0.446808 
517 2 9.93399 8.18588 13.075 -28.3616 0.720169 1.69741 -1.33886 
121 2 9.67635 11.5059 2.45607 -29.1974 0.642191 -1.38112 -2.08317 
337 2 9.94558 11.7219 7.58 -28.6378 -0.607445 -0.587766 1.29191 
553 2 9.89231 11.5211 12.9724 -28.8329 -0.594535 1.30119 0.142294 
157 2 9.70994 15.1359 2.21195 -28.7867 -0.943929 -0.303816 1.91582 
373 2 9.72895 15.48 7.72757 -28.9783 -0.460366 -0.50894 -1.68437 
589 2 10.0136 15.2812 13.1934 -28.9561 0.0566273 0.575021 -1.82602 
193 2 9.57073 18.4567 2.17743 -28.8853 -0.69192 1.37659 2.79695 
409 2 9.86884 19.0239 7.85734 -29.0243 -0.162076 0.107322 -2.27723 
625 2 10.0478 18.8229 12.8496 -28.9188 -2.99714 1.27721 1.07258 
304 1 9.68895 9.69188 6.21319 -8.03009 -0.222874 1.39987 -0.18398 
219 1 1.39681 2.22664 3.20313 -7.41991 -0.459991 1.86033 0.887312 
435 1 3.42884 2.73714 8.30233 -8.28076 -0.419235 -0.249614 0.165692 
651 1 3.42414 2.75162 13.7677 -8.47185 -1.05338 0.0896859 -0.330582 
88 1 9.53698 10.3026 0.405522 -7.36471 0.588355 -0.81261 1.08762 
255 1 2.08224 5.14233 4.22897 -7.99635 1.94344 -0.5658 0.686575 
471 1 2.35779 6.97286 9.66449 -8.45817 1.44485 -0.276301 -0.283881 
687 1 2.51259 6.83307 14.9544 -8.09194 2.53281 2.02636 -0.147191 
232 1 9.60148 2.05216 6.26609 -7.83188 -0.923324 1.86595 -2.19426 
291 1 1.81334 9.63568 3.37508 -7.14404 -2.56698 -1.0362 0.0804731 
507 1 3.17902 10.0076 8.59175 -8.15747 0.083282 -0.668226 -0.517553 
723 1 3.28292 9.87256 13.9521 -7.92755 0.583811 1.46916 -0.136534 
412 1 9.61506 20.8571 6.49849 -7.49447 -0.235331 -0.0912426 1.34389 
327 1 1.96678 12.363 4.24075 -8.24324 2.10109 1.42749 -0.439577 
543 1 2.39754 14.0381 9.41942 -8.19036 1.31241 -0.805734 1.1502 
759 1 2.65789 14.3833 14.8062 -8.35314 -0.159376 0.102793 -0.760674 
196 1 10.1239 20.3138 1.5573 -7.96488 -0.358423 0.860403 0.895982 
363 1 1.51879 17.0275 3.18832 -7.65167 0.776914 -3.05805 0.180375 
579 1 3.55592 16.8388 8.47158 -7.74313 -0.0081396 2.80511 0.436167 
795 1 3.23897 17.4006 13.6518 -8.51883 0.360707 -0.757511 1.19322 
628 1 9.56444 20.7546 12.0584 -8.00606 -0.579089 1.38598 -1.06177 
399 1 2.05674 19.8004 3.98047 -7.47324 1.83155 0.601357 1.74476 
615 1 2.50341 21.2782 9.52993 -8.5017 -0.432645 1.21753 -0.970093 
831 1 2.58548 21.3643 14.5895 -8.0895 0.885998 1.25246 0.32205 
16 1 9.44427 3.01671 0.653252 -8.39267 0.03555 -0.264354 0.332462 
225 1 6.05923 1.82093 4.19419 -8.72655 -1.19652 -0.69439 -0.101687 
441 1 5.97283 3.48861 9.34151 -7.67684 0.221001 -1.58374 2.11115 
657 1 6.29052 3.44462 14.8104 -7.98722 -0.734491 -0.551011 0.684727 
195 1 9.6312 19.8757 -1.08004 -8.08249 -1.23711 -0.15549 -0.840596 
261 1 5.30265 5.81308 3.21715 -7.86215 -1.60537 1.79808 1.3107 
477 1 7.06742 6.31625 8.40443 -7.84838 0.979409 0.527824 0.543118 
693 1 6.89166 6.43574 13.8487 -7.74937 0.09909 0.11847 -0.872544 
582 1 0.131692 15.2305 11.1945 -7.92087 0.281858 0.686389 -0.1452 
297 1 5.87289 8.85092 4.10725 -7.32035 -0.136542 -0.791219 0.862835 
513 1 6.174 10.5031 9.29531 -7.42504 -0.291777 1.04167 0.46004 
729 1 6.16516 10.6361 14.4948 -8.01438 0.895599 -0.39361 0.959525 
484 1 9.09568 6.72629 12.0925 -7.95147 0.901382 -2.63443 0.370818 
333 1 5.14486 13.3013 3.24152 -8.24983 -0.184065 -0.160503 -0.920036 
549 1 7.14712 13.4297 8.56817 -7.37279 -0.562777 0.928729 0.526996 
765 1 6.90066 13.6848 13.97 -7.90584 -1.01071 -1.21897 -1.8321 
9 1 5.72697 1.48858 -1.10119 -8.5648 0.981137 -0.0814965 -0.373711 
369 1 5.89946 16.0681 4.00528 -7.54966 -1.02793 -0.97382 1.07041 
585 1 6.04222 17.7307 9.56367 -7.64678 1.25127 -0.0631858 -0.922207 
801 1 6.17823 17.9283 14.8152 -7.26791 0.969698 -1.18751 0.391199 
39 1 2.35131 5.08112 -1.32652 -8.25014 0.838492 2.7038 1.51706 
405 1 5.04331 20.63 3.40267 -8.16468 0.818452 1.13617 0.209692 
621 1 6.93677 20.75 8.5679 -7.87559 0.490917 -0.494568 -0.342346 
837 1 7.12702 20.7255 13.7473 -7.65774 -0.635534 1.72638 -0.379116 
622 1 6.19967 20.0667 11.2262 -7.87502 -0.360853 0.988342 0.367419 
231 1 9.04235 2.30471 3.31713 -8.55762 -0.420714 0.546769 1.40862 
438 1 -0.0105247 0.808628 11.259 -8.49787 0.937989 -0.0638563 -0.891127 
8507 1 3.49623 7.69155 -1.13717 -8.76822 -0.444102 0.438963 0.0696705 
520 1 9.76883 9.49087 11.323 -8.31168 -0.14538 -0.186573 0.408618 
267 1 9.46937 5.23718 4.18781 -8.21945 1.70865 -0.271015 0.164173 
483 1 9.84279 7.09106 9.54629 -8.37858 -0.221536 -0.251179 -0.681627 
699 1 9.85842 7.03924 14.624 -8.44681 0.986887 -0.710699 1.33924 
51 1 9.61808 5.28335 -1.16735 -7.86051 0.135339 -0.325205 0.682861 
303 1 9.03755 9.68516 3.24386 -7.62077 -0.797781 0.165623 -0.0302376 
8477 1 6.98679 4.00272 -1.32876 -7.9862 0.717591 0.334244 2.00894 
8519 1 10.761 7.74497 -1.15094 -8.32955 -0.325022 -0.25739 -0.626146 
592 1 9.96095 16.1449 11.4414 -7.95758 -1.01025 2.00988 -2.69293 
339 1 9.69498 12.6578 4.09747 -8.51993 0.290322 -1.26484 1.05375 
555 1 9.85973 14.2813 9.42584 -8.2114 -0.34494 1.0268 0.391692 
771 1 9.88069 14.2154 14.6723 -7.9524 0.727272 -0.861895 2.49374 
376 1 9.43065 16.7588 6.00716 -6.76776 -0.121981 -0.153458 0.238349 
375 1 8.80353 16.7677 3.3014 -7.47993 -0.317085 0.651537 -2.34104 
8591 1 10.6991 14.9111 -1.08808 -7.89513 -0.134059 0.347493 1.06341 
167 1 10.7425 15.2302 4.09107 -7.8687 0.802038 -0.629503 -0.0964195 
8435 1 3.31596 0.371655 -1.1484 -7.75853 1.43618 0.405669 -0.415605 
411 1 9.31792 19.4197 4.18921 -6.90407 0.60158 0.813237 -0.953766 
627 1 9.67679 21.3496 9.40824 -8.98438 0.150482 -0.330037 0.3694 
843 1 9.83566 21.5961 14.7846 -7.86413 2.09487 0.435862 -0.537031 
4 1 2.33881 2.86608 0.753792 -7.60769 -0.615357 0.929806 -0.819892 
220 1 2.28186 2.33203 5.98955 -7.86791 0.895349 0.453591 0.875107 
436 1 2.5822 1.92689 10.845 -8.90333 -1.51101 0.353187 0.134082 
40 1 2.84026 5.85383 1.40823 -8.38752 1.14974 -0.816719 -0.305015 
256 1 2.23003 6.27234 6.73329 -8.19783 1.41697 -1.45286 -0.224133 
472 1 1.89103 6.31909 12.3852 -8.25431 0.732135 -0.628968 -1.25552 
76 1 2.17356 10.0254 0.836837 -8.17685 0.735146 0.0362158 -1.25645 
292 1 2.40199 9.77428 6.03885 -7.30071 0.221651 0.00998248 0.974431 
508 1 2.62353 9.303 11.2338 -7.90261 -1.04605 -0.0556178 -0.391727 
112 1 2.68686 13.1028 1.37413 -8.23644 0.96077 0.527773 0.122057 
328 1 2.60721 13.5354 6.77414 -7.55208 -0.807984 0.426008 -0.843841 
544 1 1.99102 13.6893 12.2357 -8.66406 0.750934 -0.837193 -0.433511 
148 1 2.18689 17.5352 0.547454 -7.49815 1.04689 -0.392454 -0.00864887 
364 1 2.45196 16.8219 6.11422 -7.82719 0.127399 0.209653 -0.556771 
580 1 2.59971 16.4532 11.1329 -8.28863 -0.0876668 -0.459971 -0.294058 
184 1 3.10717 20.4776 1.46372 -7.66909 -0.622151 -0.918452 0.406921 
400 1 2.30211 20.5703 6.56039 -8.20916 1.03036 2.19801 1.11408 
616 1 1.86653 20.8308 12.1085 -8.26435 1.00615 0.686617 -1.54999 
10 1 6.81965 2.27491 1.49665 -8.25495 -1.18933 -0.292596 2.25633 
226 1 6.13052 2.83371 6.72718 -7.72906 -2.20623 -1.7486 -1.60382 
442 1 5.94046 2.72473 12.0362 -7.74991 -2.10455 -0.673398 -1.08045 
46 1 5.88355 6.50495 0.544359 -7.66316 0.487649 0.0224319 -1.49863 
262 1 5.96051 6.11416 6.11716 -8.24944 0.261989 -0.707392 -0.93524 
478 1 6.27148 5.64528 10.9771 -7.91056 -1.09507 0.066136 1.49936 
82 1 6.51822 9.68033 1.6796 -7.74605 0.761696 0.230364 -2.28637 
298 1 6.04415 9.82015 6.67972 -7.83142 -0.379728 0.89647 -1.61227 
514 1 5.48097 9.91941 11.9759 -7.81433 0.20869 0.880055 0.454273 
118 1 5.96163 13.7912 0.647266 -8.73188 -2.07393 -0.0442075 -0.189148 
334 1 6.0476 13.174 5.91137 -6.83658 0.347553 -1.93484 -0.69362 
550 1 6.13943 12.86 11.1085 -7.95003 -0.280132 1.12987 0.746248 
154 1 6.2679 16.8042 1.44669 -7.76188 1.45178 -0.415922 -0.420435 
370 1 5.98758 17.0864 6.47125 -8.17646 -0.122252 0.126097 1.68765 
586 1 5.81092 17.2272 12.256 -7.76161 -0.725613 1.50115 -0.875451 
190 1 5.81265 21.0115 0.830776 -8.02014 1.08553 -0.143725 -0.658439 
406 1 6.05526 20.2329 6.07986 -7.69456 -0.798448 2.29584 0.169286 
807 1 10.5407 17.2066 13.8308 -8.06228 0.717578 0.132853 0.831112 
501 1 -0.0796918 6.19405 8.27742 -6.90613 -0.0999811 -1.07292 3.24422 
15 1 8.99777 2.36476 -1.97185 -7.65245 -0.396435 -0.146035 0.168128 
87 1 8.80315 9.60353 -2.06825 -8.03276 0.105269 -0.606588 -0.645777 
95 1 10.4395 7.87895 4.47389 -7.85499 1.00163 -1.39461 -1.3673 
861 1 -0.0295522 21.0355 13.8687 -8.44764 -2.09361 -0.696604 -0.289504 
8543 1 4.18199 10.865 -2.0052 -8.15676 0.400386 -1.37232 -0.708955 
492 1 10.7582 4.56136 11.1957 -8.19059 -0.231076 1.25422 0.552604 
189 1 5.43977 20.3128 -2.00871 -8.59254 0.252738 1.59287 1.63016 
75 1 1.72761 9.57158 -1.79024 -8.66833 0.318286 -0.672367 -2.11615 
147 1 1.78647 16.9616 -2.03349 -7.78107 -0.544004 -1.81412 0.532111 
8585 1 7.81578 14.294 -2.02778 -8.02762 -1.35747 -0.165678 -0.0736741 
8441 1 7.80935 -0.0521157 -2.07106 -8.22971 -0.62055 -0.643109 -0.191354 
8429 1 0.63268 0.203075 -2.06526 -7.84748 -0.586531 -0.94173 0.428057 
798 1 0.0829327 15.1115 16.4694 -8.15317 -1.13424 4.53893 0.464757 
796 1 2.41284 16.5472 16.4853 -8.16006 0.526387 0.465702 -1.15478 
800 2 4.24314 17.2894 15.4682 -28.8569 1.64825 -0.316685 1.27936 
1302 1 2.18199 1.28172 32.2023 -8.05586 0.506065 -0.106667 -2.18716 
690 1 0.954243 3.70896 17.6571 -8.50729 -0.0306788 1.91132 -0.239846 
906 1 0.73988 3.80142 22.7451 -8.16333 1.01774 0.0927486 0.741619 
1122 1 0.925508 4.03125 28.0686 -8.44286 1.43422 -1.37787 -1.13193 
726 1 0.339027 8.22976 16.2918 -8.23861 -0.797032 -0.78213 1.36008 
652 1 2.68484 1.98873 16.4323 -9.12889 -0.340749 -0.296012 -0.241095 
728 2 4.49941 9.90931 15.7846 -28.8528 0.452626 1.59074 -0.623527 
1086 1 0.193933 1.12984 26.9364 -8.54642 0.0793394 -2.07127 1.67852 
1374 1 2.02053 8.46267 32.0644 -7.98776 1.37832 3.37156 1.06584 
1024 1 10.1317 16.3569 21.7644 -7.58012 -0.28307 3.55489 -0.311863 
978 1 1.03138 11.3054 22.8093 -7.89195 1.04099 -1.02121 -2.09083 
1194 1 1.05118 11.172 27.7825 -8.20448 -1.56358 0.149705 2.3691 
738 1 7.35623 8.20851 16.486 -7.74564 0.760267 0.398728 0.315505 
650 2 0.83523 2.72691 15.8422 -28.1896 -0.922567 0.93924 -1.23707 
1060 1 9.52243 20.9043 22.6733 -8.5992 -0.988876 -0.0972313 0.833294 
696 1 3.82992 4.58207 16.6574 -9.07717 0.548187 -0.0809671 -0.605816 
1446 1 2.48217 16.0592 31.9968 -8.10986 -0.220299 -0.260042 -0.487401 
834 1 0.910869 18.4532 17.5417 -8.06385 -0.241383 0.635147 -0.492755 
1050 1 1.0185 18.6209 22.9061 -8.31609 0.127977 -0.808474 -1.0297 
1266 1 1.07513 18.2246 27.768 -7.74945 -0.130501 1.03511 2.06265 
1230 1 0.370007 15.7161 27.0614 -8.04552 -1.24121 -0.706164 -0.0898865 
660 1 4.59283 0.203521 17.5632 -8.02757 -0.484031 0.403804 -0.191143 
876 1 4.69079 0.27896 22.7576 -7.92046 1.37122 -0.406792 -1.48946 
1092 1 4.65049 0.412092 27.9021 -7.73401 -1.65862 -0.704668 -0.246981 
879 1 10.7179 2.55471 19.2405 -7.9279 -1.23777 2.36996 0.377265 
808 1 10.1006 16.5265 16.3979 -8.10859 0.442958 0.310794 0.438189 
912 1 3.91648 4.63788 21.7211 -7.92785 -0.119975 1.87793 0.934812 
1128 1 3.89034 4.8684 26.9884 -7.75216 0.449074 -0.942455 -0.949294 
1344 1 5.92365 4.98817 31.8288 -7.61535 0.363352 -0.232924 1.34471 
732 1 4.71405 7.7517 17.4353 -8.40912 -0.922134 -0.978927 1.52105 
948 1 4.72234 7.63381 22.5216 -8.37623 -0.404091 0.316105 2.84904 
1164 1 4.60144 7.56449 27.9162 -7.92514 1.76724 0.0975111 -0.752383 
1014 1 0.513168 15.5205 21.8168 -7.80591 -1.22878 0.181154 -0.326731 
766 1 6.38519 13.0739 16.4373 -8.35401 -1.33305 -0.106407 0.188489 
984 1 3.92097 11.8207 21.5995 -7.61288 0.357332 0.161213 0.264392 
1200 1 4.01014 11.8964 27.0017 -7.80171 -1.2867 -0.0646503 0.15613 
1416 1 5.82623 12.175 32.1871 -8.01955 -0.455612 0.523711 -0.782139 
804 1 4.40161 14.8225 17.1731 -8.14781 0.315179 0.00305052 1.97543 
1020 1 4.68141 14.7701 22.7239 -8.32315 0.0706399 -0.674302 -0.473378 
1236 1 4.70769 14.7637 27.9629 -7.86318 0.649958 0.404177 0.844921 
1204 1 9.39396 13.7555 27.795 -7.24877 0.0438728 1.21294 0.230712 
840 1 3.73074 19.0634 16.28 -8.21066 -0.363763 0.0530205 2.22941 
1056 1 3.67987 19.123 21.8113 -7.5079 2.04511 0.764382 -0.88084 
1272 1 3.94095 19.2804 26.9535 -8.07642 0.399122 -0.253122 -0.82303 
1488 1 5.9338 19.4639 31.9561 -7.39024 0.859261 -1.4692 1.12645 
870 1 0.123061 0.993991 21.5991 -8.27055 0.23352 0.401722 2.62646 
882 1 7.72906 0.982632 21.7378 -8.69577 -1.28186 -1.23258 1.54666 
1098 1 7.45355 0.966754 26.9087 -8.3159 0.906187 0.775071 -0.0697657 
1314 1 9.23867 1.31346 32.1967 -7.5864 1.21472 -0.53586 1.35136 
702 1 7.75628 3.7521 17.5024 -7.63152 2.01034 0.172594 -0.594238 
918 1 8.37154 4.30598 22.4735 -8.56108 0.458773 -1.99433 0.503028 
1134 1 8.11771 3.73846 27.8881 -7.4376 1.30357 -0.498763 -0.756729 
772 1 9.42954 13.6562 17.3832 -8.23141 1.26608 0.141018 0.131318 
764 2 4.42719 13.5391 15.416 -28.6035 0.431119 1.00932 2.42216 
954 1 7.66121 8.3847 21.7761 -7.64482 -0.642141 -0.386241 -0.0105395 
1170 1 7.35441 8.53511 27.024 -7.33045 0.609795 -0.983368 -0.977589 
1386 1 9.58122 8.81582 32.0965 -8.30682 -0.715756 -1.20217 -0.113252 
774 1 8.26808 11.3006 17.4232 -8.38854 -0.338878 -0.129475 0.736026 
990 1 8.43077 11.2135 22.8813 -7.86484 -0.56604 -0.787436 -0.463124 
1206 1 8.3757 11.4291 27.8708 -7.91937 -1.42766 -1.86187 -0.762422 
988 1 9.65349 13.7728 22.5355 -8.04549 -0.897168 -0.886122 0.758312 
762 1 0.870514 11.0835 17.6295 -6.96539 0.951568 0.656812 -2.4046 
1026 1 7.51182 15.4129 21.8625 -7.91087 0.287805 1.03503 -0.127942 
1242 1 7.6062 15.7888 27.0672 -7.53015 -0.728049 -0.738391 -0.463947 
1458 1 9.57573 15.7039 32.0135 -8.67765 -1.1981 1.12868 0.0228567 
846 1 8.23641 18.3277 17.3152 -7.98636 0.647611 1.16577 1.62402 
1062 1 8.30768 18.2177 22.8004 -8.59009 1.30216 1.00193 -0.193257 
1278 1 8.35945 18.2654 28.1166 -8.03995 -0.379269 0.274808 -1.76518 
1384 1 10.6919 11.5398 32.0737 -7.75398 -0.735028 -1.43436 -0.897142 
653 1 1.04489 1.66701 19.3124 -7.75249 -2.03497 -1.85342 -1.50885 
869 1 1.17337 1.52916 24.6453 -8.6132 -0.773456 -0.0984683 -0.815581 
1085 1 0.912542 1.29414 29.8244 -8.23415 1.60922 -1.01928 -0.923387 
689 1 1.57501 4.61484 20.2158 -8.41614 -0.809575 1.11532 -0.590677 
905 1 1.69137 4.54553 25.3579 -8.5947 -0.905524 0.454001 0.307221 
1121 1 1.14066 4.91428 30.5252 -7.90107 -0.782827 -0.182691 -0.428226 
725 1 1.02997 8.96137 19.0233 -8.10107 -0.712817 -2.14091 1.258 
941 1 0.983753 8.92632 24.2282 -8.07287 0.781064 -1.20283 0.7784 
1157 1 1.17311 8.58247 29.4922 -7.73814 1.75573 1.19745 1.46478 
761 1 1.52689 11.8414 20.0488 -7.32598 1.41793 -0.944167 0.911276 
977 1 1.62966 11.6663 25.3697 -7.52177 0.866356 3.3553 -1.12675 
1193 1 1.14431 11.9768 30.3618 -7.9842 -0.00768547 1.20204 -0.744652 
797 1 0.930824 16.044 19.1909 -7.92708 -1.06748 1.31922 -0.0648635 