LAMMPS (22 Dec 2022)
  using 1 OpenMP thread(s) per MPI task
Loaded 1 plugins from C:\Program Files\LAMMPS 64-bit 23Jun2022\plugins
Loaded 0 plugins from C:\Program Files\LAMMPS 64-bit 23Jun2022-MPI\plugins
Loaded 1 plugins from C:\Program Files\LAMMPS 64-bit 22Dec2022-MSMPI\plugins
Loaded 1 plugins from C:\Program Files\LAMMPS 64-bit 28Mar2023-MPI\plugins
#------------------------------------------------------------------------------------------
# LAMMPS 64-bit 22Dec2022-MSMPI
#------------------------------------------------------------------------------------------
clear
  using 1 OpenMP thread(s) per MPI task
Loaded 1 plugins from C:\Program Files\LAMMPS 64-bit 23Jun2022\plugins
Loaded 0 plugins from C:\Program Files\LAMMPS 64-bit 23Jun2022-MPI\plugins
Loaded 1 plugins from C:\Program Files\LAMMPS 64-bit 22Dec2022-MSMPI\plugins
Loaded 1 plugins from C:\Program Files\LAMMPS 64-bit 28Mar2023-MPI\plugins
#echo both
# ---------- Initializing Simulation ---------------------------------
units metal
dimension 3
boundary p p p
atom_style atomic
atom_modify map array

read_data ./../../TiV.data
Reading data file ...
  orthogonal box = (0 0 0) to (3.02 3.02 3.02)
  2 by 2 by 2 MPI processor grid
  reading atoms ...
  2 atoms
  read_data CPU = 0.001 seconds

replicate 1 1 1
Replication is creating a 1x1x1 = 1 times larger system...
  orthogonal box = (0 0 0) to (3.02 3.02 3.02)
  2 by 2 by 2 MPI processor grid
  2 atoms
  replicate CPU = 0.000 seconds

# ---------- Defining the Interatomic Potential ---------------------
pair_style meam
pair_coeff * * ./../../library.meam Ti V N ./../../TiVN.meam Ti V

# ---------- Running Minimization -------------------------------------
fix 1 all box/relax iso 0.0 vmax 0.001

thermo 10
thermo_style custom step pe etotal lx ly lz vol press pxx pyy pzz

min_style cg
minimize 1e-25 1e-25 5000 10000
Neighbor list info ...
  update: every = 1 steps, delay = 0 steps, check = yes
  max neighbors/atom: 2000, page size: 100000
  master list distance cutoff = 7
  ghost atom cutoff = 7
  binsize = 3.5, bins = 1 1 1
  2 neighbor lists, perpetual/occasional/extra = 2 0 0
  (1) pair meam, perpetual
      attributes: full, newton on
      pair build: full/bin/atomonly
      stencil: full/bin/3d
      bin: standard
  (2) pair meam, perpetual, half/full from (1)
      attributes: half, newton on
      pair build: halffull/newton
      stencil: none
      bin: none
WARNING: Proc sub-domain size < neighbor skin, could lead to lost atoms (src/domain.cpp:966)
Per MPI rank memory allocation (min/avg/max) = 9.67 | 9.67 | 9.67 Mbytes
   Step         PotEng         TotEng           Lx             Ly             Lz           Volume         Press           Pxx            Pyy            Pzz      
         0  -10.402821     -10.402821      3.02           3.02           3.02           27.543608      45901.354      45901.354      45901.354      45901.354    
        10  -10.415826     -10.415826      3.0502         3.0502         3.0502         28.378207      5018.688       5018.688       5018.688       5018.688     
        20  -10.416        -10.416         3.0541829      3.0541829      3.0541829      28.48952      -5.0937415e-10 -5.3538917e-10 -5.3695007e-10 -4.557832e-10 
        30  -10.416        -10.416         3.0541829      3.0541829      3.0541829      28.48952       2.336149e-10   2.0603898e-10  3.1061937e-10  1.8418636e-10
        38  -10.416        -10.416         3.0541829      3.0541829      3.0541829      28.48952       8.1999352e-10  8.1635142e-10  7.7108528e-10  8.7254386e-10
Loop time of 0.0130009 on 8 procs for 38 steps with 2 atoms

15.0% CPU use with 8 MPI tasks x 1 OpenMP threads

Minimization stats:
  Stopping criterion = energy tolerance
  Energy initial, next-to-last, final = 
     -10.4028205921576  -10.4160000000516  -10.4160000000516
  Force two-norm initial, final = 2.3673214 4.3267151e-14
  Force max component initial, final = 2.3673214 4.3253211e-14
  Final line search alpha, max atom move = 1 4.3253211e-14
  Iterations, force evaluations = 38 65

MPI task timing breakdown:
Section |  min time  |  avg time  |  max time  |%varavg| %total
---------------------------------------------------------------
Pair    | 0.007363   | 0.0078117  | 0.008367   |   0.4 | 60.09
Neigh   | 0          | 0          | 0          |   0.0 |  0.00
Comm    | 0.001654   | 0.0020711  | 0.002714   |   0.9 | 15.93
Output  | 4.3e-05    | 4.7625e-05 | 5.7e-05    |   0.0 |  0.37
Modify  | 0          | 0          | 0          |   0.0 |  0.00
Other   |            | 0.00307    |            |       | 23.62

Nlocal:           0.25 ave           1 max           0 min
Histogram: 6 0 0 0 0 0 0 0 0 2
Nghost:         249.75 ave         250 max         249 min
Histogram: 2 0 0 0 0 0 0 0 0 6
Neighs:             14 ave          56 max           0 min
Histogram: 6 0 0 0 0 0 0 0 0 2
FullNghs:           28 ave         112 max           0 min
Histogram: 6 0 0 0 0 0 0 0 0 2

Total # of neighbors = 224
Ave neighs/atom = 112
Neighbor list builds = 0
Dangerous builds = 0

variable  natoms equal "count(all)"
variable      x0 equal "lx"
variable      y0 equal "ly"
variable      z0 equal "lz"
variable      v0 equal "vol"
variable   etot0 equal "etotal"
variable   ecoh0 equal "pe/v_natoms"

unfix 1
#write_data ./../step2_elastic/data.in

# ---------- For Equation of States -------------------------------------
change_box all x scale 0.94 y scale 0.94 z scale 0.94 remap
Changing box ...
  orthogonal box = (0.074534025 -0.017091463 -0.017091463) to (2.945466 3.0370915 3.0370915)
  orthogonal box = (0.074534025 0.074534025 -0.017091463) to (2.945466 2.945466 3.0370915)
  orthogonal box = (0.074534025 0.074534025 0.074534025) to (2.945466 2.945466 2.945466)
run 1
WARNING: No fixes with time integration, atoms won't move (src/verlet.cpp:60)
WARNING: Proc sub-domain size < neighbor skin, could lead to lost atoms (src/domain.cpp:966)
Per MPI rank memory allocation (min/avg/max) = 8.545 | 8.545 | 8.545 Mbytes
   Step         PotEng         TotEng           Lx             Ly             Lz           Volume         Press           Pxx            Pyy            Pzz      
        38  -9.9778187     -9.9778187      2.870932       2.870932       2.870932       23.66294       337864.42      337864.42      337864.42      337864.42    
        39  -9.9778187     -9.9778187      2.870932       2.870932       2.870932       23.66294       337864.42      337864.42      337864.42      337864.42    
Loop time of 0.000138875 on 8 procs for 1 steps with 2 atoms

Performance: 622.142 ns/day, 0.039 hours/ns, 7200.720 timesteps/s, 14.401 katom-step/s
0.0% CPU use with 8 MPI tasks x 1 OpenMP threads

MPI task timing breakdown:
Section |  min time  |  avg time  |  max time  |%varavg| %total
---------------------------------------------------------------
Pair    | 9.5e-05    | 9.7625e-05 | 0.000103   |   0.0 | 70.30
Neigh   | 0          | 0          | 0          |   0.0 |  0.00
Comm    | 1.9e-05    | 2.275e-05  | 2.8e-05    |   0.0 | 16.38
Output  | 1.2e-05    | 1.4375e-05 | 1.9e-05    |   0.0 | 10.35
Modify  | 0          | 2.5e-07    | 1e-06      |   0.0 |  0.18
Other   |            | 3.875e-06  |            |       |  2.79

Nlocal:           0.25 ave           1 max           0 min
Histogram: 6 0 0 0 0 0 0 0 0 2
Nghost:         249.75 ave         250 max         249 min
Histogram: 2 0 0 0 0 0 0 0 0 6
Neighs:             14 ave          56 max           0 min
Histogram: 6 0 0 0 0 0 0 0 0 2
FullNghs:           28 ave         112 max           0 min
Histogram: 6 0 0 0 0 0 0 0 0 2

Total # of neighbors = 224
Ave neighs/atom = 112
Neighbor list builds = 0
Dangerous builds = 0
print "# Lattice constant (Angstroms), Volume (Angstrom), Total energy (eV), Cohesive energy (eV/atom)" file lattice_cohesive_energy.txt screen no


# Loop over lattice constants
variable i loop 49 # Number of steps
label loop

change_box all x scale 1.0025 y scale 1.0025 z scale 1.0025 remap
Changing box ...
  orthogonal box = (0.07094536 0.074534025 0.074534025) to (2.9490546 2.945466 2.945466)
  orthogonal box = (0.07094536 0.07094536 0.074534025) to (2.9490546 2.9490546 2.945466)
  orthogonal box = (0.07094536 0.07094536 0.07094536) to (2.9490546 2.9490546 2.9490546)

run 1
WARNING: No fixes with time integration, atoms won't move (src/verlet.cpp:60)
WARNING: Proc sub-domain size < neighbor skin, could lead to lost atoms (src/domain.cpp:966)
Per MPI rank memory allocation (min/avg/max) = 8.545 | 8.545 | 8.545 Mbytes
   Step         PotEng         TotEng           Lx             Ly             Lz           Volume         Press           Pxx            Pyy            Pzz      
        39  -10.014322     -10.014322      2.8781093      2.8781093      2.8781093      23.840856      319675.78      319675.78      319675.78      319675.78    
        40  -10.014322     -10.014322      2.8781093      2.8781093      2.8781093      23.840856      319675.78      319675.78      319675.78      319675.78    
Loop time of 0.000133125 on 8 procs for 1 steps with 2 atoms

Performance: 649.014 ns/day, 0.037 hours/ns, 7511.737 timesteps/s, 15.023 katom-step/s
0.0% CPU use with 8 MPI tasks x 1 OpenMP threads

MPI task timing breakdown:
Section |  min time  |  avg time  |  max time  |%varavg| %total
---------------------------------------------------------------
Pair    | 9.4e-05    | 9.6125e-05 | 0.0001     |   0.0 | 72.21
Neigh   | 0          | 0          | 0          |   0.0 |  0.00
Comm    | 1.7e-05    | 2.0125e-05 | 2.4e-05    |   0.0 | 15.12
Output  | 1.2e-05    | 1.375e-05  | 1.7e-05    |   0.0 | 10.33
Modify  | 0          | 0          | 0          |   0.0 |  0.00
Other   |            | 3.125e-06  |            |       |  2.35

Nlocal:           0.25 ave           1 max           0 min
Histogram: 6 0 0 0 0 0 0 0 0 2
Nghost:         249.75 ave         250 max         249 min
Histogram: 2 0 0 0 0 0 0 0 0 6
Neighs:             14 ave          56 max           0 min
Histogram: 6 0 0 0 0 0 0 0 0 2
FullNghs:           28 ave         112 max           0 min
Histogram: 6 0 0 0 0 0 0 0 0 2

Total # of neighbors = 224
Ave neighs/atom = 112
Neighbor list builds = 0
Dangerous builds = 0
variable  natoms equal "count(all)"
variable xlength equal "lx"
variable  volume equal "vol"
variable  etotal equal "etotal"
variable    ecoh equal "pe/v_natoms"
print "${xlength}, ${volume}, ${etotal}, ${ecoh}" append lattice_cohesive_energy.txt screen no

next i
jump SELF loop

change_box all x scale 1.0025 y scale 1.0025 z scale 1.0025 remap
Changing box ...
  orthogonal box = (0.067347723 0.07094536 0.07094536) to (2.9526523 2.9490546 2.9490546)
  orthogonal box = (0.067347723 0.067347723 0.07094536) to (2.9526523 2.9526523 2.9490546)
  orthogonal box = (0.067347723 0.067347723 0.067347723) to (2.9526523 2.9526523 2.9526523)

run 1
WARNING: No fixes with time integration, atoms won't move (src/verlet.cpp:60)
WARNING: Proc sub-domain size < neighbor skin, could lead to lost atoms (src/domain.cpp:966)
Per MPI rank memory allocation (min/avg/max) = 8.545 | 8.545 | 8.545 Mbytes
   Step         PotEng         TotEng           Lx             Ly             Lz           Volume         Press           Pxx            Pyy            Pzz      
        40  -10.04909      -10.04909       2.8853046      2.8853046      2.8853046      24.02011       301923.78      301923.78      301923.78      301923.78    
        41  -10.04909      -10.04909       2.8853046      2.8853046      2.8853046      24.02011       301923.78      301923.78      301923.78      301923.78    
Loop time of 0.000164 on 8 procs for 1 steps with 2 atoms

Performance: 526.829 ns/day, 0.046 hours/ns, 6097.561 timesteps/s, 12.195 katom-step/s
0.0% CPU use with 8 MPI tasks x 1 OpenMP threads

MPI task timing breakdown:
Section |  min time  |  avg time  |  max time  |%varavg| %total
---------------------------------------------------------------
Pair    | 0.00011    | 0.0001145  | 0.000121   |   0.0 | 69.82
Neigh   | 0          | 0          | 0          |   0.0 |  0.00
Comm    | 2e-05      | 2.6875e-05 | 3.2e-05    |   0.0 | 16.39
Output  | 1.2e-05    | 1.575e-05  | 2e-05      |   0.0 |  9.60
Modify  | 0          | 2.5e-07    | 1e-06      |   0.0 |  0.15
Other   |            | 6.625e-06  |            |       |  4.04

Nlocal:           0.25 ave           1 max           0 min
Histogram: 6 0 0 0 0 0 0 0 0 2
Nghost:         249.75 ave         250 max         249 min
Histogram: 2 0 0 0 0 0 0 0 0 6
Neighs:             14 ave          56 max           0 min
Histogram: 6 0 0 0 0 0 0 0 0 2
FullNghs:           28 ave         112 max           0 min
Histogram: 6 0 0 0 0 0 0 0 0 2

Total # of neighbors = 224
Ave neighs/atom = 112
Neighbor list builds = 0
Dangerous builds = 0
variable  natoms equal "count(all)"
variable xlength equal "lx"
variable  volume equal "vol"
variable  etotal equal "etotal"
variable    ecoh equal "pe/v_natoms"
print "${xlength}, ${volume}, ${etotal}, ${ecoh}" append lattice_cohesive_energy.txt screen no

next i
jump SELF loop

change_box all x scale 1.0025 y scale 1.0025 z scale 1.0025 remap
Changing box ...
  orthogonal box = (0.063741093 0.067347723 0.067347723) to (2.9562589 2.9526523 2.9526523)
  orthogonal box = (0.063741093 0.063741093 0.067347723) to (2.9562589 2.9562589 2.9526523)
  orthogonal box = (0.063741093 0.063741093 0.063741093) to (2.9562589 2.9562589 2.9562589)

run 1
WARNING: No fixes with time integration, atoms won't move (src/verlet.cpp:60)
WARNING: Proc sub-domain size < neighbor skin, could lead to lost atoms (src/domain.cpp:966)
Per MPI rank memory allocation (min/avg/max) = 8.545 | 8.545 | 8.545 Mbytes
   Step         PotEng         TotEng           Lx             Ly             Lz           Volume         Press           Pxx            Pyy            Pzz      
        41  -10.082142     -10.082142      2.8925178      2.8925178      2.8925178      24.200711      284600.85      284600.85      284600.85      284600.85    
        42  -10.082142     -10.082142      2.8925178      2.8925178      2.8925178      24.200711      284600.85      284600.85      284600.85      284600.85    
Loop time of 0.000224 on 8 procs for 1 steps with 2 atoms

Performance: 385.714 ns/day, 0.062 hours/ns, 4464.286 timesteps/s, 8.929 katom-step/s
0.0% CPU use with 8 MPI tasks x 1 OpenMP threads

MPI task timing breakdown:
Section |  min time  |  avg time  |  max time  |%varavg| %total
---------------------------------------------------------------
Pair    | 0.000157   | 0.000161   | 0.000168   |   0.0 | 71.88
Neigh   | 0          | 0          | 0          |   0.0 |  0.00
Comm    | 2.1e-05    | 2.725e-05  | 3.4e-05    |   0.0 | 12.17
Output  | 1.4e-05    | 1.8375e-05 | 2.8e-05    |   0.0 |  8.20
Modify  | 0          | 3.75e-07   | 1e-06      |   0.0 |  0.17
Other   |            | 1.7e-05    |            |       |  7.59

Nlocal:           0.25 ave           1 max           0 min
Histogram: 6 0 0 0 0 0 0 0 0 2
Nghost:         249.75 ave         250 max         249 min
Histogram: 2 0 0 0 0 0 0 0 0 6
Neighs:             14 ave          56 max           0 min
Histogram: 6 0 0 0 0 0 0 0 0 2
FullNghs:           28 ave         112 max           0 min
Histogram: 6 0 0 0 0 0 0 0 0 2

Total # of neighbors = 224
Ave neighs/atom = 112
Neighbor list builds = 0
Dangerous builds = 0
variable  natoms equal "count(all)"
variable xlength equal "lx"
variable  volume equal "vol"
variable  etotal equal "etotal"
variable    ecoh equal "pe/v_natoms"
print "${xlength}, ${volume}, ${etotal}, ${ecoh}" append lattice_cohesive_energy.txt screen no

next i
jump SELF loop

change_box all x scale 1.0025 y scale 1.0025 z scale 1.0025 remap
Changing box ...
  orthogonal box = (0.060125445 0.063741093 0.063741093) to (2.9598746 2.9562589 2.9562589)
  orthogonal box = (0.060125445 0.060125445 0.063741093) to (2.9598746 2.9598746 2.9562589)
  orthogonal box = (0.060125445 0.060125445 0.060125445) to (2.9598746 2.9598746 2.9598746)

run 1
WARNING: No fixes with time integration, atoms won't move (src/verlet.cpp:60)
WARNING: Proc sub-domain size < neighbor skin, could lead to lost atoms (src/domain.cpp:966)
Per MPI rank memory allocation (min/avg/max) = 8.545 | 8.545 | 8.545 Mbytes
   Step         PotEng         TotEng           Lx             Ly             Lz           Volume         Press           Pxx            Pyy            Pzz      
        42  -10.113499     -10.113499      2.8997491      2.8997491      2.8997491      24.382671      267699.51      267699.51      267699.51      267699.51    
        43  -10.113499     -10.113499      2.8997491      2.8997491      2.8997491      24.382671      267699.51      267699.51      267699.51      267699.51    
Loop time of 0.00016775 on 8 procs for 1 steps with 2 atoms

Performance: 515.052 ns/day, 0.047 hours/ns, 5961.252 timesteps/s, 11.923 katom-step/s
0.0% CPU use with 8 MPI tasks x 1 OpenMP threads

MPI task timing breakdown:
Section |  min time  |  avg time  |  max time  |%varavg| %total
---------------------------------------------------------------
Pair    | 0.000109   | 0.00011563 | 0.000124   |   0.0 | 68.93
Neigh   | 0          | 0          | 0          |   0.0 |  0.00
Comm    | 2.1e-05    | 2.875e-05  | 3.7e-05    |   0.0 | 17.14
Output  | 1.3e-05    | 1.65e-05   | 2.1e-05    |   0.0 |  9.84
Modify  | 0          | 1.25e-07   | 1e-06      |   0.0 |  0.07
Other   |            | 6.75e-06   |            |       |  4.02

Nlocal:           0.25 ave           1 max           0 min
Histogram: 6 0 0 0 0 0 0 0 0 2
Nghost:         249.75 ave         250 max         249 min
Histogram: 2 0 0 0 0 0 0 0 0 6
Neighs:             14 ave          56 max           0 min
Histogram: 6 0 0 0 0 0 0 0 0 2
FullNghs:           28 ave         112 max           0 min
Histogram: 6 0 0 0 0 0 0 0 0 2

Total # of neighbors = 224
Ave neighs/atom = 112
Neighbor list builds = 0
Dangerous builds = 0
variable  natoms equal "count(all)"
variable xlength equal "lx"
variable  volume equal "vol"
variable  etotal equal "etotal"
variable    ecoh equal "pe/v_natoms"
print "${xlength}, ${volume}, ${etotal}, ${ecoh}" append lattice_cohesive_energy.txt screen no

next i
jump SELF loop

change_box all x scale 1.0025 y scale 1.0025 z scale 1.0025 remap
Changing box ...
  orthogonal box = (0.056500759 0.060125445 0.060125445) to (2.9634992 2.9598746 2.9598746)
  orthogonal box = (0.056500759 0.056500759 0.060125445) to (2.9634992 2.9634992 2.9598746)
  orthogonal box = (0.056500759 0.056500759 0.056500759) to (2.9634992 2.9634992 2.9634992)

run 1
WARNING: No fixes with time integration, atoms won't move (src/verlet.cpp:60)
WARNING: Proc sub-domain size < neighbor skin, could lead to lost atoms (src/domain.cpp:966)
Per MPI rank memory allocation (min/avg/max) = 8.545 | 8.545 | 8.545 Mbytes
   Step         PotEng         TotEng           Lx             Ly             Lz           Volume         Press           Pxx            Pyy            Pzz      
        43  -10.143182     -10.143182      2.9069985      2.9069985      2.9069985      24.565998      251212.35      251212.35      251212.35      251212.35    
        44  -10.143182     -10.143182      2.9069985      2.9069985      2.9069985      24.565998      251212.35      251212.35      251212.35      251212.35    
Loop time of 0.000163 on 8 procs for 1 steps with 2 atoms

Performance: 530.061 ns/day, 0.045 hours/ns, 6134.969 timesteps/s, 12.270 katom-step/s
0.0% CPU use with 8 MPI tasks x 1 OpenMP threads

MPI task timing breakdown:
Section |  min time  |  avg time  |  max time  |%varavg| %total
---------------------------------------------------------------
Pair    | 0.000109   | 0.0001135  | 0.000121   |   0.0 | 69.63
Neigh   | 0          | 0          | 0          |   0.0 |  0.00
Comm    | 2e-05      | 2.7125e-05 | 3.3e-05    |   0.0 | 16.64
Output  | 1.3e-05    | 1.5875e-05 | 2.1e-05    |   0.0 |  9.74
Modify  | 0          | 0          | 0          |   0.0 |  0.00
Other   |            | 6.5e-06    |            |       |  3.99

Nlocal:           0.25 ave           1 max           0 min
Histogram: 6 0 0 0 0 0 0 0 0 2
Nghost:         249.75 ave         250 max         249 min
Histogram: 2 0 0 0 0 0 0 0 0 6
Neighs:             14 ave          56 max           0 min
Histogram: 6 0 0 0 0 0 0 0 0 2
FullNghs:           28 ave         112 max           0 min
Histogram: 6 0 0 0 0 0 0 0 0 2

Total # of neighbors = 224
Ave neighs/atom = 112
Neighbor list builds = 0
Dangerous builds = 0
variable  natoms equal "count(all)"
variable xlength equal "lx"
variable  volume equal "vol"
variable  etotal equal "etotal"
variable    ecoh equal "pe/v_natoms"
print "${xlength}, ${volume}, ${etotal}, ${ecoh}" append lattice_cohesive_energy.txt screen no

next i
jump SELF loop

change_box all x scale 1.0025 y scale 1.0025 z scale 1.0025 remap
Changing box ...
  orthogonal box = (0.052867011 0.056500759 0.056500759) to (2.967133 2.9634992 2.9634992)
  orthogonal box = (0.052867011 0.052867011 0.056500759) to (2.967133 2.967133 2.9634992)
  orthogonal box = (0.052867011 0.052867011 0.052867011) to (2.967133 2.967133 2.967133)

run 1
WARNING: No fixes with time integration, atoms won't move (src/verlet.cpp:60)
WARNING: Proc sub-domain size < neighbor skin, could lead to lost atoms (src/domain.cpp:966)
Per MPI rank memory allocation (min/avg/max) = 8.545 | 8.545 | 8.545 Mbytes
   Step         PotEng         TotEng           Lx             Ly             Lz           Volume         Press           Pxx            Pyy            Pzz      
        44  -10.171211     -10.171211      2.914266       2.914266       2.914266       24.750704      235132.1       235132.1       235132.1       235132.1     
        45  -10.171211     -10.171211      2.914266       2.914266       2.914266       24.750704      235132.1       235132.1       235132.1       235132.1     
Loop time of 0.0001645 on 8 procs for 1 steps with 2 atoms

Performance: 525.228 ns/day, 0.046 hours/ns, 6079.027 timesteps/s, 12.158 katom-step/s
0.0% CPU use with 8 MPI tasks x 1 OpenMP threads

MPI task timing breakdown:
Section |  min time  |  avg time  |  max time  |%varavg| %total
---------------------------------------------------------------
Pair    | 0.00011    | 0.0001145  | 0.000122   |   0.0 | 69.60
Neigh   | 0          | 0          | 0          |   0.0 |  0.00
Comm    | 2e-05      | 2.7e-05    | 3.3e-05    |   0.0 | 16.41
Output  | 1.3e-05    | 1.6125e-05 | 2.1e-05    |   0.0 |  9.80
Modify  | 0          | 0          | 0          |   0.0 |  0.00
Other   |            | 6.875e-06  |            |       |  4.18

Nlocal:           0.25 ave           1 max           0 min
Histogram: 6 0 0 0 0 0 0 0 0 2
Nghost:         249.75 ave         250 max         249 min
Histogram: 2 0 0 0 0 0 0 0 0 6
Neighs:             14 ave          56 max           0 min
Histogram: 6 0 0 0 0 0 0 0 0 2
FullNghs:           28 ave         112 max           0 min
Histogram: 6 0 0 0 0 0 0 0 0 2

Total # of neighbors = 224
Ave neighs/atom = 112
Neighbor list builds = 0
Dangerous builds = 0
variable  natoms equal "count(all)"
variable xlength equal "lx"
variable  volume equal "vol"
variable  etotal equal "etotal"
variable    ecoh equal "pe/v_natoms"
print "${xlength}, ${volume}, ${etotal}, ${ecoh}" append lattice_cohesive_energy.txt screen no

next i
jump SELF loop

change_box all x scale 1.0025 y scale 1.0025 z scale 1.0025 remap
Changing box ...
  orthogonal box = (0.049224179 0.052867011 0.052867011) to (2.9707758 2.967133 2.967133)
  orthogonal box = (0.049224179 0.049224179 0.052867011) to (2.9707758 2.9707758 2.967133)
  orthogonal box = (0.049224179 0.049224179 0.049224179) to (2.9707758 2.9707758 2.9707758)

run 1
WARNING: No fixes with time integration, atoms won't move (src/verlet.cpp:60)
WARNING: Proc sub-domain size < neighbor skin, could lead to lost atoms (src/domain.cpp:966)
Per MPI rank memory allocation (min/avg/max) = 8.573 | 8.573 | 8.575 Mbytes
   Step         PotEng         TotEng           Lx             Ly             Lz           Volume         Press           Pxx            Pyy            Pzz      
        45  -10.197606     -10.197606      2.9215516      2.9215516      2.9215516      24.936799      219451.56      219451.56      219451.56      219451.56    
        46  -10.197606     -10.197606      2.9215516      2.9215516      2.9215516      24.936799      219451.56      219451.56      219451.56      219451.56    
Loop time of 0.00018575 on 8 procs for 1 steps with 2 atoms

Performance: 465.141 ns/day, 0.052 hours/ns, 5383.580 timesteps/s, 10.767 katom-step/s
0.0% CPU use with 8 MPI tasks x 1 OpenMP threads

MPI task timing breakdown:
Section |  min time  |  avg time  |  max time  |%varavg| %total
---------------------------------------------------------------
Pair    | 0.000131   | 0.0001345  | 0.000142   |   0.0 | 72.41
Neigh   | 0          | 0          | 0          |   0.0 |  0.00
Comm    | 1.5e-05    | 2.2875e-05 | 3.2e-05    |   0.0 | 12.31
Output  | 1.5e-05    | 2.1875e-05 | 3.2e-05    |   0.0 | 11.78
Modify  | 0          | 1.25e-07   | 1e-06      |   0.0 |  0.07
Other   |            | 6.375e-06  |            |       |  3.43

Nlocal:           0.25 ave           2 max           0 min
Histogram: 7 0 0 0 0 0 0 0 0 1
Nghost:         249.75 ave         250 max         248 min
Histogram: 1 0 0 0 0 0 0 0 0 7
Neighs:             14 ave         112 max           0 min
Histogram: 7 0 0 0 0 0 0 0 0 1
FullNghs:           28 ave         224 max           0 min
Histogram: 7 0 0 0 0 0 0 0 0 1

Total # of neighbors = 224
Ave neighs/atom = 112
Neighbor list builds = 0
Dangerous builds = 0
variable  natoms equal "count(all)"
variable xlength equal "lx"
variable  volume equal "vol"
variable  etotal equal "etotal"
variable    ecoh equal "pe/v_natoms"
print "${xlength}, ${volume}, ${etotal}, ${ecoh}" append lattice_cohesive_energy.txt screen no

next i
jump SELF loop

change_box all x scale 1.0025 y scale 1.0025 z scale 1.0025 remap
Changing box ...
  orthogonal box = (0.045572239 0.049224179 0.049224179) to (2.9744278 2.9707758 2.9707758)
  orthogonal box = (0.045572239 0.045572239 0.049224179) to (2.9744278 2.9744278 2.9707758)
  orthogonal box = (0.045572239 0.045572239 0.045572239) to (2.9744278 2.9744278 2.9744278)

run 1
WARNING: No fixes with time integration, atoms won't move (src/verlet.cpp:60)
WARNING: Proc sub-domain size < neighbor skin, could lead to lost atoms (src/domain.cpp:966)
Per MPI rank memory allocation (min/avg/max) = 8.573 | 8.573 | 8.575 Mbytes
   Step         PotEng         TotEng           Lx             Ly             Lz           Volume         Press           Pxx            Pyy            Pzz      
        46  -10.222388     -10.222388      2.9288555      2.9288555      2.9288555      25.124293      204163.63      204163.63      204163.63      204163.63    
        47  -10.222388     -10.222388      2.9288555      2.9288555      2.9288555      25.124293      204163.63      204163.63      204163.63      204163.63    
Loop time of 0.000186125 on 8 procs for 1 steps with 2 atoms

Performance: 464.204 ns/day, 0.052 hours/ns, 5372.733 timesteps/s, 10.745 katom-step/s
0.0% CPU use with 8 MPI tasks x 1 OpenMP threads

MPI task timing breakdown:
Section |  min time  |  avg time  |  max time  |%varavg| %total
---------------------------------------------------------------
Pair    | 0.000131   | 0.00013463 | 0.000142   |   0.0 | 72.33
Neigh   | 0          | 0          | 0          |   0.0 |  0.00
Comm    | 1.5e-05    | 2.25e-05   | 3.1e-05    |   0.0 | 12.09
Output  | 1.5e-05    | 2.175e-05  | 3.2e-05    |   0.0 | 11.69
Modify  | 0          | 1.25e-07   | 1e-06      |   0.0 |  0.07
Other   |            | 7.125e-06  |            |       |  3.83

Nlocal:           0.25 ave           2 max           0 min
Histogram: 7 0 0 0 0 0 0 0 0 1
Nghost:         249.75 ave         250 max         248 min
Histogram: 1 0 0 0 0 0 0 0 0 7
Neighs:             14 ave         112 max           0 min
Histogram: 7 0 0 0 0 0 0 0 0 1
FullNghs:           28 ave         224 max           0 min
Histogram: 7 0 0 0 0 0 0 0 0 1

Total # of neighbors = 224
Ave neighs/atom = 112
Neighbor list builds = 0
Dangerous builds = 0
variable  natoms equal "count(all)"
variable xlength equal "lx"
variable  volume equal "vol"
variable  etotal equal "etotal"
variable    ecoh equal "pe/v_natoms"
print "${xlength}, ${volume}, ${etotal}, ${ecoh}" append lattice_cohesive_energy.txt screen no

next i
jump SELF loop

change_box all x scale 1.0025 y scale 1.0025 z scale 1.0025 remap
Changing box ...
  orthogonal box = (0.04191117 0.045572239 0.045572239) to (2.9780888 2.9744278 2.9744278)
  orthogonal box = (0.04191117 0.04191117 0.045572239) to (2.9780888 2.9780888 2.9744278)
  orthogonal box = (0.04191117 0.04191117 0.04191117) to (2.9780888 2.9780888 2.9780888)

run 1
WARNING: No fixes with time integration, atoms won't move (src/verlet.cpp:60)
WARNING: Proc sub-domain size < neighbor skin, could lead to lost atoms (src/domain.cpp:966)
Per MPI rank memory allocation (min/avg/max) = 8.573 | 8.573 | 8.575 Mbytes
   Step         PotEng         TotEng           Lx             Ly             Lz           Volume         Press           Pxx            Pyy            Pzz      
        47  -10.245576     -10.245576      2.9361777      2.9361777      2.9361777      25.313196      189261.33      189261.33      189261.33      189261.33    
        48  -10.245576     -10.245576      2.9361777      2.9361777      2.9361777      25.313196      189261.33      189261.33      189261.33      189261.33    
Loop time of 0.0001835 on 8 procs for 1 steps with 2 atoms

Performance: 470.845 ns/day, 0.051 hours/ns, 5449.591 timesteps/s, 10.899 katom-step/s
0.0% CPU use with 8 MPI tasks x 1 OpenMP threads

MPI task timing breakdown:
Section |  min time  |  avg time  |  max time  |%varavg| %total
---------------------------------------------------------------
Pair    | 0.000129   | 0.000133   | 0.000141   |   0.0 | 72.48
Neigh   | 0          | 0          | 0          |   0.0 |  0.00
Comm    | 1.5e-05    | 2.1875e-05 | 3e-05      |   0.0 | 11.92
Output  | 1.5e-05    | 2.2375e-05 | 3.2e-05    |   0.0 | 12.19
Modify  | 0          | 3.75e-07   | 1e-06      |   0.0 |  0.20
Other   |            | 5.875e-06  |            |       |  3.20

Nlocal:           0.25 ave           2 max           0 min
Histogram: 7 0 0 0 0 0 0 0 0 1
Nghost:         249.75 ave         250 max         248 min
Histogram: 1 0 0 0 0 0 0 0 0 7
Neighs:             14 ave         112 max           0 min
Histogram: 7 0 0 0 0 0 0 0 0 1
FullNghs:           28 ave         224 max           0 min
Histogram: 7 0 0 0 0 0 0 0 0 1

Total # of neighbors = 224
Ave neighs/atom = 112
Neighbor list builds = 0
Dangerous builds = 0
variable  natoms equal "count(all)"
variable xlength equal "lx"
variable  volume equal "vol"
variable  etotal equal "etotal"
variable    ecoh equal "pe/v_natoms"
print "${xlength}, ${volume}, ${etotal}, ${ecoh}" append lattice_cohesive_energy.txt screen no

next i
jump SELF loop

change_box all x scale 1.0025 y scale 1.0025 z scale 1.0025 remap
Changing box ...
  orthogonal box = (0.038240947 0.04191117 0.04191117) to (2.9817591 2.9780888 2.9780888)
  orthogonal box = (0.038240947 0.038240947 0.04191117) to (2.9817591 2.9817591 2.9780888)
  orthogonal box = (0.038240947 0.038240947 0.038240947) to (2.9817591 2.9817591 2.9817591)

run 1
WARNING: No fixes with time integration, atoms won't move (src/verlet.cpp:60)
WARNING: Proc sub-domain size < neighbor skin, could lead to lost atoms (src/domain.cpp:966)
Per MPI rank memory allocation (min/avg/max) = 8.573 | 8.573 | 8.575 Mbytes
   Step         PotEng         TotEng           Lx             Ly             Lz           Volume         Press           Pxx            Pyy            Pzz      
        48  -10.267191     -10.267191      2.9435181      2.9435181      2.9435181      25.50352       174737.76      174737.76      174737.76      174737.76    
        49  -10.267191     -10.267191      2.9435181      2.9435181      2.9435181      25.50352       174737.76      174737.76      174737.76      174737.76    
Loop time of 0.000199625 on 8 procs for 1 steps with 2 atoms

Performance: 432.812 ns/day, 0.055 hours/ns, 5009.393 timesteps/s, 10.019 katom-step/s
0.0% CPU use with 8 MPI tasks x 1 OpenMP threads

MPI task timing breakdown:
Section |  min time  |  avg time  |  max time  |%varavg| %total
---------------------------------------------------------------
Pair    | 0.000144   | 0.00014675 | 0.000154   |   0.0 | 73.51
Neigh   | 0          | 0          | 0          |   0.0 |  0.00
Comm    | 1.5e-05    | 2.225e-05  | 3e-05      |   0.0 | 11.15
Output  | 1.6e-05    | 2.2875e-05 | 3.2e-05    |   0.0 | 11.46
Modify  | 0          | 0          | 0          |   0.0 |  0.00
Other   |            | 7.75e-06   |            |       |  3.88

Nlocal:           0.25 ave           2 max           0 min
Histogram: 7 0 0 0 0 0 0 0 0 1
Nghost:         249.75 ave         250 max         248 min
Histogram: 1 0 0 0 0 0 0 0 0 7
Neighs:             14 ave         112 max           0 min
Histogram: 7 0 0 0 0 0 0 0 0 1
FullNghs:           28 ave         224 max           0 min
Histogram: 7 0 0 0 0 0 0 0 0 1

Total # of neighbors = 224
Ave neighs/atom = 112
Neighbor list builds = 0
Dangerous builds = 0
variable  natoms equal "count(all)"
variable xlength equal "lx"
variable  volume equal "vol"
variable  etotal equal "etotal"
variable    ecoh equal "pe/v_natoms"
print "${xlength}, ${volume}, ${etotal}, ${ecoh}" append lattice_cohesive_energy.txt screen no

next i
jump SELF loop

change_box all x scale 1.0025 y scale 1.0025 z scale 1.0025 remap
Changing box ...
  orthogonal box = (0.03456155 0.038240947 0.038240947) to (2.9854385 2.9817591 2.9817591)
  orthogonal box = (0.03456155 0.03456155 0.038240947) to (2.9854385 2.9854385 2.9817591)
  orthogonal box = (0.03456155 0.03456155 0.03456155) to (2.9854385 2.9854385 2.9854385)

run 1
WARNING: No fixes with time integration, atoms won't move (src/verlet.cpp:60)
WARNING: Proc sub-domain size < neighbor skin, could lead to lost atoms (src/domain.cpp:966)
Per MPI rank memory allocation (min/avg/max) = 8.573 | 8.573 | 8.575 Mbytes
   Step         PotEng         TotEng           Lx             Ly             Lz           Volume         Press           Pxx            Pyy            Pzz      
        49  -10.287253     -10.287253      2.9508769      2.9508769      2.9508769      25.695275      160586.09      160586.09      160586.09      160586.09    
        50  -10.287253     -10.287253      2.9508769      2.9508769      2.9508769      25.695275      160586.09      160586.09      160586.09      160586.09    
Loop time of 0.000185125 on 8 procs for 1 steps with 2 atoms

Performance: 466.712 ns/day, 0.051 hours/ns, 5401.756 timesteps/s, 10.804 katom-step/s
0.0% CPU use with 8 MPI tasks x 1 OpenMP threads

MPI task timing breakdown:
Section |  min time  |  avg time  |  max time  |%varavg| %total
---------------------------------------------------------------
Pair    | 0.000131   | 0.0001345  | 0.000142   |   0.0 | 72.65
Neigh   | 0          | 0          | 0          |   0.0 |  0.00
Comm    | 1.5e-05    | 2.2125e-05 | 3.1e-05    |   0.0 | 11.95
Output  | 1.6e-05    | 2.2125e-05 | 3.1e-05    |   0.0 | 11.95
Modify  | 0          | 2.5e-07    | 1e-06      |   0.0 |  0.14
Other   |            | 6.125e-06  |            |       |  3.31

Nlocal:           0.25 ave           2 max           0 min
Histogram: 7 0 0 0 0 0 0 0 0 1
Nghost:         249.75 ave         250 max         248 min
Histogram: 1 0 0 0 0 0 0 0 0 7
Neighs:             14 ave         112 max           0 min
Histogram: 7 0 0 0 0 0 0 0 0 1
FullNghs:           28 ave         224 max           0 min
Histogram: 7 0 0 0 0 0 0 0 0 1

Total # of neighbors = 224
Ave neighs/atom = 112
Neighbor list builds = 0
Dangerous builds = 0
variable  natoms equal "count(all)"
variable xlength equal "lx"
variable  volume equal "vol"
variable  etotal equal "etotal"
variable    ecoh equal "pe/v_natoms"
print "${xlength}, ${volume}, ${etotal}, ${ecoh}" append lattice_cohesive_energy.txt screen no

next i
jump SELF loop

change_box all x scale 1.0025 y scale 1.0025 z scale 1.0025 remap
Changing box ...
  orthogonal box = (0.030872954 0.03456155 0.03456155) to (2.989127 2.9854385 2.9854385)
  orthogonal box = (0.030872954 0.030872954 0.03456155) to (2.989127 2.989127 2.9854385)
  orthogonal box = (0.030872954 0.030872954 0.030872954) to (2.989127 2.989127 2.989127)

run 1
WARNING: No fixes with time integration, atoms won't move (src/verlet.cpp:60)
WARNING: Proc sub-domain size < neighbor skin, could lead to lost atoms (src/domain.cpp:966)
Per MPI rank memory allocation (min/avg/max) = 8.573 | 8.573 | 8.575 Mbytes
   Step         PotEng         TotEng           Lx             Ly             Lz           Volume         Press           Pxx            Pyy            Pzz      
        50  -10.305781     -10.305781      2.9582541      2.9582541      2.9582541      25.888472      146799.64      146799.64      146799.64      146799.64    
        51  -10.305781     -10.305781      2.9582541      2.9582541      2.9582541      25.888472      146799.64      146799.64      146799.64      146799.64    
Loop time of 0.000186 on 8 procs for 1 steps with 2 atoms

Performance: 464.516 ns/day, 0.052 hours/ns, 5376.344 timesteps/s, 10.753 katom-step/s
0.0% CPU use with 8 MPI tasks x 1 OpenMP threads

MPI task timing breakdown:
Section |  min time  |  avg time  |  max time  |%varavg| %total
---------------------------------------------------------------
Pair    | 0.000131   | 0.00013538 | 0.000143   |   0.0 | 72.78
Neigh   | 0          | 0          | 0          |   0.0 |  0.00
Comm    | 1.6e-05    | 2.25e-05   | 3.1e-05    |   0.0 | 12.10
Output  | 1.6e-05    | 2.1875e-05 | 3.2e-05    |   0.0 | 11.76
Modify  | 0          | 1.25e-07   | 1e-06      |   0.0 |  0.07
Other   |            | 6.125e-06  |            |       |  3.29

Nlocal:           0.25 ave           2 max           0 min
Histogram: 7 0 0 0 0 0 0 0 0 1
Nghost:         249.75 ave         250 max         248 min
Histogram: 1 0 0 0 0 0 0 0 0 7
Neighs:             14 ave         112 max           0 min
Histogram: 7 0 0 0 0 0 0 0 0 1
FullNghs:           28 ave         224 max           0 min
Histogram: 7 0 0 0 0 0 0 0 0 1

Total # of neighbors = 224
Ave neighs/atom = 112
Neighbor list builds = 0
Dangerous builds = 0
variable  natoms equal "count(all)"
variable xlength equal "lx"
variable  volume equal "vol"
variable  etotal equal "etotal"
variable    ecoh equal "pe/v_natoms"
print "${xlength}, ${volume}, ${etotal}, ${ecoh}" append lattice_cohesive_energy.txt screen no

next i
jump SELF loop

change_box all x scale 1.0025 y scale 1.0025 z scale 1.0025 remap
Changing box ...
  orthogonal box = (0.027175136 0.030872954 0.030872954) to (2.9928249 2.989127 2.989127)
  orthogonal box = (0.027175136 0.027175136 0.030872954) to (2.9928249 2.9928249 2.989127)
  orthogonal box = (0.027175136 0.027175136 0.027175136) to (2.9928249 2.9928249 2.9928249)

run 1
WARNING: No fixes with time integration, atoms won't move (src/verlet.cpp:60)
WARNING: Proc sub-domain size < neighbor skin, could lead to lost atoms (src/domain.cpp:966)
Per MPI rank memory allocation (min/avg/max) = 8.573 | 8.573 | 8.575 Mbytes
   Step         PotEng         TotEng           Lx             Ly             Lz           Volume         Press           Pxx            Pyy            Pzz      
        51  -10.322796     -10.322796      2.9656497      2.9656497      2.9656497      26.083122      133371.78      133371.78      133371.78      133371.78    
        52  -10.322796     -10.322796      2.9656497      2.9656497      2.9656497      26.083122      133371.78      133371.78      133371.78      133371.78    
Loop time of 0.0001885 on 8 procs for 1 steps with 2 atoms

Performance: 458.355 ns/day, 0.052 hours/ns, 5305.040 timesteps/s, 10.610 katom-step/s
0.0% CPU use with 8 MPI tasks x 1 OpenMP threads

MPI task timing breakdown:
Section |  min time  |  avg time  |  max time  |%varavg| %total
---------------------------------------------------------------
Pair    | 0.000132   | 0.00013587 | 0.000144   |   0.0 | 72.08
Neigh   | 0          | 0          | 0          |   0.0 |  0.00
Comm    | 1.5e-05    | 2.25e-05   | 3.2e-05    |   0.0 | 11.94
Output  | 1.6e-05    | 2.225e-05  | 3.2e-05    |   0.0 | 11.80
Modify  | 0          | 0          | 0          |   0.0 |  0.00
Other   |            | 7.875e-06  |            |       |  4.18

Nlocal:           0.25 ave           2 max           0 min
Histogram: 7 0 0 0 0 0 0 0 0 1
Nghost:         249.75 ave         250 max         248 min
Histogram: 1 0 0 0 0 0 0 0 0 7
Neighs:             14 ave         112 max           0 min
Histogram: 7 0 0 0 0 0 0 0 0 1
FullNghs:           28 ave         224 max           0 min
Histogram: 7 0 0 0 0 0 0 0 0 1

Total # of neighbors = 224
Ave neighs/atom = 112
Neighbor list builds = 0
Dangerous builds = 0
variable  natoms equal "count(all)"
variable xlength equal "lx"
variable  volume equal "vol"
variable  etotal equal "etotal"
variable    ecoh equal "pe/v_natoms"
print "${xlength}, ${volume}, ${etotal}, ${ecoh}" append lattice_cohesive_energy.txt screen no

next i
jump SELF loop

change_box all x scale 1.0025 y scale 1.0025 z scale 1.0025 remap
Changing box ...
  orthogonal box = (0.023468074 0.027175136 0.027175136) to (2.9965319 2.9928249 2.9928249)
  orthogonal box = (0.023468074 0.023468074 0.027175136) to (2.9965319 2.9965319 2.9928249)
  orthogonal box = (0.023468074 0.023468074 0.023468074) to (2.9965319 2.9965319 2.9965319)

run 1
WARNING: No fixes with time integration, atoms won't move (src/verlet.cpp:60)
WARNING: Proc sub-domain size < neighbor skin, could lead to lost atoms (src/domain.cpp:966)
Per MPI rank memory allocation (min/avg/max) = 8.573 | 8.573 | 8.575 Mbytes
   Step         PotEng         TotEng           Lx             Ly             Lz           Volume         Press           Pxx            Pyy            Pzz      
        52  -10.338316     -10.338316      2.9730639      2.9730639      2.9730639      26.279234      120295.98      120295.98      120295.98      120295.98    
        53  -10.338316     -10.338316      2.9730639      2.9730639      2.9730639      26.279234      120295.98      120295.98      120295.98      120295.98    
Loop time of 0.000186 on 8 procs for 1 steps with 2 atoms

Performance: 464.516 ns/day, 0.052 hours/ns, 5376.344 timesteps/s, 10.753 katom-step/s
0.0% CPU use with 8 MPI tasks x 1 OpenMP threads

MPI task timing breakdown:
Section |  min time  |  avg time  |  max time  |%varavg| %total
---------------------------------------------------------------
Pair    | 0.00013    | 0.0001345  | 0.000142   |   0.0 | 72.31
Neigh   | 0          | 0          | 0          |   0.0 |  0.00
Comm    | 1.6e-05    | 2.25e-05   | 3.2e-05    |   0.0 | 12.10
Output  | 1.5e-05    | 2.1875e-05 | 3.2e-05    |   0.0 | 11.76
Modify  | 0          | 2.5e-07    | 1e-06      |   0.0 |  0.13
Other   |            | 6.875e-06  |            |       |  3.70

Nlocal:           0.25 ave           2 max           0 min
Histogram: 7 0 0 0 0 0 0 0 0 1
Nghost:         249.75 ave         250 max         248 min
Histogram: 1 0 0 0 0 0 0 0 0 7
Neighs:             14 ave         112 max           0 min
Histogram: 7 0 0 0 0 0 0 0 0 1
FullNghs:           28 ave         224 max           0 min
Histogram: 7 0 0 0 0 0 0 0 0 1

Total # of neighbors = 224
Ave neighs/atom = 112
Neighbor list builds = 0
Dangerous builds = 0
variable  natoms equal "count(all)"
variable xlength equal "lx"
variable  volume equal "vol"
variable  etotal equal "etotal"
variable    ecoh equal "pe/v_natoms"
print "${xlength}, ${volume}, ${etotal}, ${ecoh}" append lattice_cohesive_energy.txt screen no

next i
jump SELF loop

change_box all x scale 1.0025 y scale 1.0025 z scale 1.0025 remap
Changing box ...
  orthogonal box = (0.019751744 0.023468074 0.023468074) to (3.0002483 2.9965319 2.9965319)
  orthogonal box = (0.019751744 0.019751744 0.023468074) to (3.0002483 3.0002483 2.9965319)
  orthogonal box = (0.019751744 0.019751744 0.019751744) to (3.0002483 3.0002483 3.0002483)

run 1
WARNING: No fixes with time integration, atoms won't move (src/verlet.cpp:60)
WARNING: Proc sub-domain size < neighbor skin, could lead to lost atoms (src/domain.cpp:966)
Per MPI rank memory allocation (min/avg/max) = 8.573 | 8.573 | 8.575 Mbytes
   Step         PotEng         TotEng           Lx             Ly             Lz           Volume         Press           Pxx            Pyy            Pzz      
        53  -10.352362     -10.352362      2.9804965      2.9804965      2.9804965      26.476822      107565.81      107565.81      107565.81      107565.81    
        54  -10.352362     -10.352362      2.9804965      2.9804965      2.9804965      26.476822      107565.81      107565.81      107565.81      107565.81    
Loop time of 0.0001875 on 8 procs for 1 steps with 2 atoms

Performance: 460.800 ns/day, 0.052 hours/ns, 5333.333 timesteps/s, 10.667 katom-step/s
0.0% CPU use with 8 MPI tasks x 1 OpenMP threads

MPI task timing breakdown:
Section |  min time  |  avg time  |  max time  |%varavg| %total
---------------------------------------------------------------
Pair    | 0.000131   | 0.00013438 | 0.000142   |   0.0 | 71.67
Neigh   | 0          | 0          | 0          |   0.0 |  0.00
Comm    | 1.6e-05    | 2.25e-05   | 3.1e-05    |   0.0 | 12.00
Output  | 1.6e-05    | 2.325e-05  | 3.3e-05    |   0.0 | 12.40
Modify  | 0          | 0          | 0          |   0.0 |  0.00
Other   |            | 7.375e-06  |            |       |  3.93

Nlocal:           0.25 ave           2 max           0 min
Histogram: 7 0 0 0 0 0 0 0 0 1
Nghost:         249.75 ave         250 max         248 min
Histogram: 1 0 0 0 0 0 0 0 0 7
Neighs:             14 ave         112 max           0 min
Histogram: 7 0 0 0 0 0 0 0 0 1
FullNghs:           28 ave         224 max           0 min
Histogram: 7 0 0 0 0 0 0 0 0 1

Total # of neighbors = 224
Ave neighs/atom = 112
Neighbor list builds = 0
Dangerous builds = 0
variable  natoms equal "count(all)"
variable xlength equal "lx"
variable  volume equal "vol"
variable  etotal equal "etotal"
variable    ecoh equal "pe/v_natoms"
print "${xlength}, ${volume}, ${etotal}, ${ecoh}" append lattice_cohesive_energy.txt screen no

next i
jump SELF loop

change_box all x scale 1.0025 y scale 1.0025 z scale 1.0025 remap
Changing box ...
  orthogonal box = (0.016026123 0.019751744 0.019751744) to (3.0039739 3.0002483 3.0002483)
  orthogonal box = (0.016026123 0.016026123 0.019751744) to (3.0039739 3.0039739 3.0002483)
  orthogonal box = (0.016026123 0.016026123 0.016026123) to (3.0039739 3.0039739 3.0039739)

run 1
WARNING: No fixes with time integration, atoms won't move (src/verlet.cpp:60)
WARNING: Proc sub-domain size < neighbor skin, could lead to lost atoms (src/domain.cpp:966)
Per MPI rank memory allocation (min/avg/max) = 8.573 | 8.573 | 8.575 Mbytes
   Step         PotEng         TotEng           Lx             Ly             Lz           Volume         Press           Pxx            Pyy            Pzz      
        54  -10.364953     -10.364953      2.9879478      2.9879478      2.9879478      26.675895      95174.918      95174.918      95174.918      95174.918    
        55  -10.364953     -10.364953      2.9879478      2.9879478      2.9879478      26.675895      95174.918      95174.918      95174.918      95174.918    
Loop time of 0.00018675 on 8 procs for 1 steps with 2 atoms

Performance: 462.651 ns/day, 0.052 hours/ns, 5354.752 timesteps/s, 10.710 katom-step/s
0.0% CPU use with 8 MPI tasks x 1 OpenMP threads

MPI task timing breakdown:
Section |  min time  |  avg time  |  max time  |%varavg| %total
---------------------------------------------------------------
Pair    | 0.000132   | 0.000136   | 0.000144   |   0.0 | 72.82
Neigh   | 0          | 0          | 0          |   0.0 |  0.00
Comm    | 1.5e-05    | 2.1875e-05 | 3.1e-05    |   0.0 | 11.71
Output  | 1.6e-05    | 2.225e-05  | 3.2e-05    |   0.0 | 11.91
Modify  | 0          | 0          | 0          |   0.0 |  0.00
Other   |            | 6.625e-06  |            |       |  3.55

Nlocal:           0.25 ave           2 max           0 min
Histogram: 7 0 0 0 0 0 0 0 0 1
Nghost:         249.75 ave         250 max         248 min
Histogram: 1 0 0 0 0 0 0 0 0 7
Neighs:             14 ave         112 max           0 min
Histogram: 7 0 0 0 0 0 0 0 0 1
FullNghs:           28 ave         224 max           0 min
Histogram: 7 0 0 0 0 0 0 0 0 1

Total # of neighbors = 224
Ave neighs/atom = 112
Neighbor list builds = 0
Dangerous builds = 0
variable  natoms equal "count(all)"
variable xlength equal "lx"
variable  volume equal "vol"
variable  etotal equal "etotal"
variable    ecoh equal "pe/v_natoms"
print "${xlength}, ${volume}, ${etotal}, ${ecoh}" append lattice_cohesive_energy.txt screen no

next i
jump SELF loop

change_box all x scale 1.0025 y scale 1.0025 z scale 1.0025 remap
Changing box ...
  orthogonal box = (0.012291189 0.016026123 0.016026123) to (3.0077088 3.0039739 3.0039739)
  orthogonal box = (0.012291189 0.012291189 0.016026123) to (3.0077088 3.0077088 3.0039739)
  orthogonal box = (0.012291189 0.012291189 0.012291189) to (3.0077088 3.0077088 3.0077088)

run 1
WARNING: No fixes with time integration, atoms won't move (src/verlet.cpp:60)
WARNING: Proc sub-domain size < neighbor skin, could lead to lost atoms (src/domain.cpp:966)
Per MPI rank memory allocation (min/avg/max) = 8.573 | 8.573 | 8.575 Mbytes
   Step         PotEng         TotEng           Lx             Ly             Lz           Volume         Press           Pxx            Pyy            Pzz      
        55  -10.376109     -10.376109      2.9954176      2.9954176      2.9954176      26.876465      83117.045      83117.045      83117.045      83117.045    
        56  -10.376109     -10.376109      2.9954176      2.9954176      2.9954176      26.876465      83117.045      83117.045      83117.045      83117.045    
Loop time of 0.00019625 on 8 procs for 1 steps with 2 atoms

Performance: 440.255 ns/day, 0.055 hours/ns, 5095.541 timesteps/s, 10.191 katom-step/s
1990.4% CPU use with 8 MPI tasks x 1 OpenMP threads

MPI task timing breakdown:
Section |  min time  |  avg time  |  max time  |%varavg| %total
---------------------------------------------------------------
Pair    | 0.000131   | 0.00014063 | 0.000151   |   0.0 | 71.66
Neigh   | 0          | 0          | 0          |   0.0 |  0.00
Comm    | 1.5e-05    | 2.35e-05   | 4e-05      |   0.0 | 11.97
Output  | 1.6e-05    | 2.4e-05    | 4e-05      |   0.0 | 12.23
Modify  | 0          | 1.25e-07   | 1e-06      |   0.0 |  0.06
Other   |            | 8e-06      |            |       |  4.08

Nlocal:           0.25 ave           2 max           0 min
Histogram: 7 0 0 0 0 0 0 0 0 1
Nghost:         249.75 ave         250 max         248 min
Histogram: 1 0 0 0 0 0 0 0 0 7
Neighs:             14 ave         112 max           0 min
Histogram: 7 0 0 0 0 0 0 0 0 1
FullNghs:           28 ave         224 max           0 min
Histogram: 7 0 0 0 0 0 0 0 0 1

Total # of neighbors = 224
Ave neighs/atom = 112
Neighbor list builds = 0
Dangerous builds = 0
variable  natoms equal "count(all)"
variable xlength equal "lx"
variable  volume equal "vol"
variable  etotal equal "etotal"
variable    ecoh equal "pe/v_natoms"
print "${xlength}, ${volume}, ${etotal}, ${ecoh}" append lattice_cohesive_energy.txt screen no

next i
jump SELF loop

change_box all x scale 1.0025 y scale 1.0025 z scale 1.0025 remap
Changing box ...
  orthogonal box = (0.0085469168 0.012291189 0.012291189) to (3.0114531 3.0077088 3.0077088)
  orthogonal box = (0.0085469168 0.0085469168 0.012291189) to (3.0114531 3.0114531 3.0077088)
  orthogonal box = (0.0085469168 0.0085469168 0.0085469168) to (3.0114531 3.0114531 3.0114531)

run 1
WARNING: No fixes with time integration, atoms won't move (src/verlet.cpp:60)
WARNING: Proc sub-domain size < neighbor skin, could lead to lost atoms (src/domain.cpp:966)
Per MPI rank memory allocation (min/avg/max) = 8.573 | 8.573 | 8.575 Mbytes
   Step         PotEng         TotEng           Lx             Ly             Lz           Volume         Press           Pxx            Pyy            Pzz      
        56  -10.385848     -10.385848      3.0029062      3.0029062      3.0029062      27.078543      71386.032      71386.032      71386.032      71386.032    
        57  -10.385848     -10.385848      3.0029062      3.0029062      3.0029062      27.078543      71386.032      71386.032      71386.032      71386.032    
Loop time of 0.00026725 on 8 procs for 1 steps with 2 atoms

Performance: 323.293 ns/day, 0.074 hours/ns, 3741.815 timesteps/s, 7.484 katom-step/s
2192.5% CPU use with 8 MPI tasks x 1 OpenMP threads

MPI task timing breakdown:
Section |  min time  |  avg time  |  max time  |%varavg| %total
---------------------------------------------------------------
Pair    | 0.000131   | 0.000146   | 0.00019    |   0.0 | 54.63
Neigh   | 0          | 0          | 0          |   0.0 |  0.00
Comm    | 1.5e-05    | 4.2875e-05 | 9.6e-05    |   0.0 | 16.04
Output  | 2.4e-05    | 6.6875e-05 | 0.000111   |   0.0 | 25.02
Modify  | 0          | 0          | 0          |   0.0 |  0.00
Other   |            | 1.15e-05   |            |       |  4.30

Nlocal:           0.25 ave           2 max           0 min
Histogram: 7 0 0 0 0 0 0 0 0 1
Nghost:         249.75 ave         250 max         248 min
Histogram: 1 0 0 0 0 0 0 0 0 7
Neighs:             14 ave         112 max           0 min
Histogram: 7 0 0 0 0 0 0 0 0 1
FullNghs:           28 ave         224 max           0 min
Histogram: 7 0 0 0 0 0 0 0 0 1

Total # of neighbors = 224
Ave neighs/atom = 112
Neighbor list builds = 0
Dangerous builds = 0
variable  natoms equal "count(all)"
variable xlength equal "lx"
variable  volume equal "vol"
variable  etotal equal "etotal"
variable    ecoh equal "pe/v_natoms"
print "${xlength}, ${volume}, ${etotal}, ${ecoh}" append lattice_cohesive_energy.txt screen no

next i
jump SELF loop

change_box all x scale 1.0025 y scale 1.0025 z scale 1.0025 remap
Changing box ...
  orthogonal box = (0.0047932841 0.0085469168 0.0085469168) to (3.0152067 3.0114531 3.0114531)
  orthogonal box = (0.0047932841 0.0047932841 0.0085469168) to (3.0152067 3.0152067 3.0114531)
  orthogonal box = (0.0047932841 0.0047932841 0.0047932841) to (3.0152067 3.0152067 3.0152067)

run 1
WARNING: No fixes with time integration, atoms won't move (src/verlet.cpp:60)
WARNING: Proc sub-domain size < neighbor skin, could lead to lost atoms (src/domain.cpp:966)
Per MPI rank memory allocation (min/avg/max) = 8.573 | 8.573 | 8.575 Mbytes
   Step         PotEng         TotEng           Lx             Ly             Lz           Volume         Press           Pxx            Pyy            Pzz      
        57  -10.39419      -10.39419       3.0104134      3.0104134      3.0104134      27.28214       59975.793      59975.793      59975.793      59975.793    
        58  -10.39419      -10.39419       3.0104134      3.0104134      3.0104134      27.28214       59975.793      59975.793      59975.793      59975.793    
Loop time of 0.000159375 on 8 procs for 1 steps with 2 atoms

Performance: 542.118 ns/day, 0.044 hours/ns, 6274.510 timesteps/s, 12.549 katom-step/s
0.0% CPU use with 8 MPI tasks x 1 OpenMP threads

MPI task timing breakdown:
Section |  min time  |  avg time  |  max time  |%varavg| %total
---------------------------------------------------------------
Pair    | 0.000118   | 0.000119   | 0.000123   |   0.0 | 74.67
Neigh   | 0          | 0          | 0          |   0.0 |  0.00
Comm    | 1.4e-05    | 1.85e-05   | 2.4e-05    |   0.0 | 11.61
Output  | 1.1e-05    | 1.6625e-05 | 2.2e-05    |   0.0 | 10.43
Modify  | 0          | 2.5e-07    | 1e-06      |   0.0 |  0.16
Other   |            | 5e-06      |            |       |  3.14

Nlocal:           0.25 ave           2 max           0 min
Histogram: 7 0 0 0 0 0 0 0 0 1
Nghost:         249.75 ave         250 max         248 min
Histogram: 1 0 0 0 0 0 0 0 0 7
Neighs:             14 ave         112 max           0 min
Histogram: 7 0 0 0 0 0 0 0 0 1
FullNghs:           28 ave         224 max           0 min
Histogram: 7 0 0 0 0 0 0 0 0 1

Total # of neighbors = 224
Ave neighs/atom = 112
Neighbor list builds = 0
Dangerous builds = 0
variable  natoms equal "count(all)"
variable xlength equal "lx"
variable  volume equal "vol"
variable  etotal equal "etotal"
variable    ecoh equal "pe/v_natoms"
print "${xlength}, ${volume}, ${etotal}, ${ecoh}" append lattice_cohesive_energy.txt screen no

next i
jump SELF loop

change_box all x scale 1.0025 y scale 1.0025 z scale 1.0025 remap
Changing box ...
  orthogonal box = (0.0010302673 0.0047932841 0.0047932841) to (3.0189697 3.0152067 3.0152067)
  orthogonal box = (0.0010302673 0.0010302673 0.0047932841) to (3.0189697 3.0189697 3.0152067)
  orthogonal box = (0.0010302673 0.0010302673 0.0010302673) to (3.0189697 3.0189697 3.0189697)

run 1
WARNING: No fixes with time integration, atoms won't move (src/verlet.cpp:60)
WARNING: Proc sub-domain size < neighbor skin, could lead to lost atoms (src/domain.cpp:966)
Per MPI rank memory allocation (min/avg/max) = 8.573 | 8.573 | 8.575 Mbytes
   Step         PotEng         TotEng           Lx             Ly             Lz           Volume         Press           Pxx            Pyy            Pzz      
        58  -10.401154     -10.401154      3.0179395      3.0179395      3.0179395      27.487268      48880.324      48880.324      48880.324      48880.324    
        59  -10.401154     -10.401154      3.0179395      3.0179395      3.0179395      27.487268      48880.324      48880.324      48880.324      48880.324    
Loop time of 0.0002215 on 8 procs for 1 steps with 2 atoms

Performance: 390.068 ns/day, 0.062 hours/ns, 4514.673 timesteps/s, 9.029 katom-step/s
0.0% CPU use with 8 MPI tasks x 1 OpenMP threads

MPI task timing breakdown:
Section |  min time  |  avg time  |  max time  |%varavg| %total
---------------------------------------------------------------
Pair    | 0.000128   | 0.00015075 | 0.000176   |   0.0 | 68.06
Neigh   | 0          | 0          | 0          |   0.0 |  0.00
Comm    | 1.3e-05    | 2.6375e-05 | 6.2e-05    |   0.0 | 11.91
Output  | 1.5e-05    | 3.5e-05    | 6.7e-05    |   0.0 | 15.80
Modify  | 0          | 2.5e-07    | 1e-06      |   0.0 |  0.11
Other   |            | 9.125e-06  |            |       |  4.12

Nlocal:           0.25 ave           2 max           0 min
Histogram: 7 0 0 0 0 0 0 0 0 1
Nghost:         249.75 ave         250 max         248 min
Histogram: 1 0 0 0 0 0 0 0 0 7
Neighs:             14 ave         112 max           0 min
Histogram: 7 0 0 0 0 0 0 0 0 1
FullNghs:           28 ave         224 max           0 min
Histogram: 7 0 0 0 0 0 0 0 0 1

Total # of neighbors = 224
Ave neighs/atom = 112
Neighbor list builds = 0
Dangerous builds = 0
variable  natoms equal "count(all)"
variable xlength equal "lx"
variable  volume equal "vol"
variable  etotal equal "etotal"
variable    ecoh equal "pe/v_natoms"
print "${xlength}, ${volume}, ${etotal}, ${ecoh}" append lattice_cohesive_energy.txt screen no

next i
jump SELF loop

change_box all x scale 1.0025 y scale 1.0025 z scale 1.0025 remap
Changing box ...
  orthogonal box = (-0.0027421571 0.0010302673 0.0010302673) to (3.0227422 3.0189697 3.0189697)
  orthogonal box = (-0.0027421571 -0.0027421571 0.0010302673) to (3.0227422 3.0227422 3.0189697)
  orthogonal box = (-0.0027421571 -0.0027421571 -0.0027421571) to (3.0227422 3.0227422 3.0227422)

run 1
WARNING: No fixes with time integration, atoms won't move (src/verlet.cpp:60)
WARNING: Proc sub-domain size < neighbor skin, could lead to lost atoms (src/domain.cpp:966)
Per MPI rank memory allocation (min/avg/max) = 8.573 | 8.573 | 8.575 Mbytes
   Step         PotEng         TotEng           Lx             Ly             Lz           Volume         Press           Pxx            Pyy            Pzz      
        59  -10.40676      -10.40676       3.0254843      3.0254843      3.0254843      27.693938      38093.73       38093.73       38093.73       38093.73     
        60  -10.40676      -10.40676       3.0254843      3.0254843      3.0254843      27.693938      38093.73       38093.73       38093.73       38093.73     
Loop time of 0.000196875 on 8 procs for 1 steps with 2 atoms

Performance: 438.857 ns/day, 0.055 hours/ns, 5079.365 timesteps/s, 10.159 katom-step/s
0.0% CPU use with 8 MPI tasks x 1 OpenMP threads

MPI task timing breakdown:
Section |  min time  |  avg time  |  max time  |%varavg| %total
---------------------------------------------------------------
Pair    | 0.000122   | 0.00013075 | 0.000151   |   0.0 | 66.41
Neigh   | 0          | 0          | 0          |   0.0 |  0.00
Comm    | 1.3e-05    | 2.4375e-05 | 4.7e-05    |   0.0 | 12.38
Output  | 1.5e-05    | 3.25e-05   | 5.1e-05    |   0.0 | 16.51
Modify  | 0          | 1.25e-07   | 1e-06      |   0.0 |  0.06
Other   |            | 9.125e-06  |            |       |  4.63

Nlocal:           0.25 ave           2 max           0 min
Histogram: 7 0 0 0 0 0 0 0 0 1
Nghost:         249.75 ave         250 max         248 min
Histogram: 1 0 0 0 0 0 0 0 0 7
Neighs:             14 ave         112 max           0 min
Histogram: 7 0 0 0 0 0 0 0 0 1
FullNghs:           28 ave         224 max           0 min
Histogram: 7 0 0 0 0 0 0 0 0 1

Total # of neighbors = 224
Ave neighs/atom = 112
Neighbor list builds = 0
Dangerous builds = 0
variable  natoms equal "count(all)"
variable xlength equal "lx"
variable  volume equal "vol"
variable  etotal equal "etotal"
variable    ecoh equal "pe/v_natoms"
print "${xlength}, ${volume}, ${etotal}, ${ecoh}" append lattice_cohesive_energy.txt screen no

next i
jump SELF loop

change_box all x scale 1.0025 y scale 1.0025 z scale 1.0025 remap
Changing box ...
  orthogonal box = (-0.0065240125 -0.0027421571 -0.0027421571) to (3.026524 3.0227422 3.0227422)
  orthogonal box = (-0.0065240125 -0.0065240125 -0.0027421571) to (3.026524 3.026524 3.0227422)
  orthogonal box = (-0.0065240125 -0.0065240125 -0.0065240125) to (3.026524 3.026524 3.026524)

run 1
WARNING: No fixes with time integration, atoms won't move (src/verlet.cpp:60)
WARNING: Proc sub-domain size < neighbor skin, could lead to lost atoms (src/domain.cpp:966)
Per MPI rank memory allocation (min/avg/max) = 8.573 | 8.573 | 8.575 Mbytes
   Step         PotEng         TotEng           Lx             Ly             Lz           Volume         Press           Pxx            Pyy            Pzz      
        60  -10.411025     -10.411025      3.033048       3.033048       3.033048       27.902162      27610.172      27610.172      27610.172      27610.172    
        61  -10.411025     -10.411025      3.033048       3.033048       3.033048       27.902162      27610.172      27610.172      27610.172      27610.172    
Loop time of 0.0002 on 8 procs for 1 steps with 2 atoms

Performance: 432.000 ns/day, 0.056 hours/ns, 5000.000 timesteps/s, 10.000 katom-step/s
0.0% CPU use with 8 MPI tasks x 1 OpenMP threads

MPI task timing breakdown:
Section |  min time  |  avg time  |  max time  |%varavg| %total
---------------------------------------------------------------
Pair    | 0.000126   | 0.00013362 | 0.000152   |   0.0 | 66.81
Neigh   | 0          | 0          | 0          |   0.0 |  0.00
Comm    | 1.3e-05    | 2.4125e-05 | 4.6e-05    |   0.0 | 12.06
Output  | 1.6e-05    | 3.325e-05  | 5.1e-05    |   0.0 | 16.62
Modify  | 0          | 1.25e-07   | 1e-06      |   0.0 |  0.06
Other   |            | 8.875e-06  |            |       |  4.44

Nlocal:           0.25 ave           2 max           0 min
Histogram: 7 0 0 0 0 0 0 0 0 1
Nghost:         249.75 ave         250 max         248 min
Histogram: 1 0 0 0 0 0 0 0 0 7
Neighs:             14 ave         112 max           0 min
Histogram: 7 0 0 0 0 0 0 0 0 1
FullNghs:           28 ave         224 max           0 min
Histogram: 7 0 0 0 0 0 0 0 0 1

Total # of neighbors = 224
Ave neighs/atom = 112
Neighbor list builds = 0
Dangerous builds = 0
variable  natoms equal "count(all)"
variable xlength equal "lx"
variable  volume equal "vol"
variable  etotal equal "etotal"
variable    ecoh equal "pe/v_natoms"
print "${xlength}, ${volume}, ${etotal}, ${ecoh}" append lattice_cohesive_energy.txt screen no

next i
jump SELF loop

change_box all x scale 1.0025 y scale 1.0025 z scale 1.0025 remap
Changing box ...
  orthogonal box = (-0.010315322 -0.0065240125 -0.0065240125) to (3.0303153 3.026524 3.026524)
  orthogonal box = (-0.010315322 -0.010315322 -0.0065240125) to (3.0303153 3.0303153 3.026524)
  orthogonal box = (-0.010315322 -0.010315322 -0.010315322) to (3.0303153 3.0303153 3.0303153)

run 1
WARNING: No fixes with time integration, atoms won't move (src/verlet.cpp:60)
WARNING: Proc sub-domain size < neighbor skin, could lead to lost atoms (src/domain.cpp:966)
Per MPI rank memory allocation (min/avg/max) = 8.573 | 8.573 | 8.575 Mbytes
   Step         PotEng         TotEng           Lx             Ly             Lz           Volume         Press           Pxx            Pyy            Pzz      
        61  -10.413969     -10.413969      3.0406306      3.0406306      3.0406306      28.111952      17423.91       17423.91       17423.91       17423.91     
        62  -10.413969     -10.413969      3.0406306      3.0406306      3.0406306      28.111952      17423.91       17423.91       17423.91       17423.91     
Loop time of 0.0002025 on 8 procs for 1 steps with 2 atoms

Performance: 426.667 ns/day, 0.056 hours/ns, 4938.272 timesteps/s, 9.877 katom-step/s
0.0% CPU use with 8 MPI tasks x 1 OpenMP threads

MPI task timing breakdown:
Section |  min time  |  avg time  |  max time  |%varavg| %total
---------------------------------------------------------------
Pair    | 0.000124   | 0.00013275 | 0.000152   |   0.0 | 65.56
Neigh   | 0          | 0          | 0          |   0.0 |  0.00
Comm    | 1.3e-05    | 2.6375e-05 | 4.8e-05    |   0.0 | 13.02
Output  | 1.6e-05    | 3.2375e-05 | 5e-05      |   0.0 | 15.99
Modify  | 0          | 3.75e-07   | 2e-06      |   0.0 |  0.19
Other   |            | 1.063e-05  |            |       |  5.25

Nlocal:           0.25 ave           2 max           0 min
Histogram: 7 0 0 0 0 0 0 0 0 1
Nghost:         249.75 ave         250 max         248 min
Histogram: 1 0 0 0 0 0 0 0 0 7
Neighs:             14 ave         112 max           0 min
Histogram: 7 0 0 0 0 0 0 0 0 1
FullNghs:           28 ave         224 max           0 min
Histogram: 7 0 0 0 0 0 0 0 0 1

Total # of neighbors = 224
Ave neighs/atom = 112
Neighbor list builds = 0
Dangerous builds = 0
variable  natoms equal "count(all)"
variable xlength equal "lx"
variable  volume equal "vol"
variable  etotal equal "etotal"
variable    ecoh equal "pe/v_natoms"
print "${xlength}, ${volume}, ${etotal}, ${ecoh}" append lattice_cohesive_energy.txt screen no

next i
jump SELF loop

change_box all x scale 1.0025 y scale 1.0025 z scale 1.0025 remap
Changing box ...
  orthogonal box = (-0.014116111 -0.010315322 -0.010315322) to (3.0341161 3.0303153 3.0303153)
  orthogonal box = (-0.014116111 -0.014116111 -0.010315322) to (3.0341161 3.0341161 3.0303153)
  orthogonal box = (-0.014116111 -0.014116111 -0.014116111) to (3.0341161 3.0341161 3.0341161)

run 1
WARNING: No fixes with time integration, atoms won't move (src/verlet.cpp:60)
WARNING: Proc sub-domain size < neighbor skin, could lead to lost atoms (src/domain.cpp:966)
Per MPI rank memory allocation (min/avg/max) = 8.573 | 8.573 | 8.575 Mbytes
   Step         PotEng         TotEng           Lx             Ly             Lz           Volume         Press           Pxx            Pyy            Pzz      
        62  -10.415611     -10.415611      3.0482322      3.0482322      3.0482322      28.323319      7529.2931      7529.2931      7529.2931      7529.2931    
        63  -10.415611     -10.415611      3.0482322      3.0482322      3.0482322      28.323319      7529.2931      7529.2931      7529.2931      7529.2931    
Loop time of 0.000203375 on 8 procs for 1 steps with 2 atoms

Performance: 424.831 ns/day, 0.056 hours/ns, 4917.025 timesteps/s, 9.834 katom-step/s
0.0% CPU use with 8 MPI tasks x 1 OpenMP threads

MPI task timing breakdown:
Section |  min time  |  avg time  |  max time  |%varavg| %total
---------------------------------------------------------------
Pair    | 0.000128   | 0.00014263 | 0.000157   |   0.0 | 70.13
Neigh   | 0          | 0          | 0          |   0.0 |  0.00
Comm    | 1.3e-05    | 2.475e-05  | 4.9e-05    |   0.0 | 12.17
Output  | 1.5e-05    | 2.7e-05    | 5.1e-05    |   0.0 | 13.28
Modify  | 0          | 1.25e-07   | 1e-06      |   0.0 |  0.06
Other   |            | 8.875e-06  |            |       |  4.36

Nlocal:           0.25 ave           2 max           0 min
Histogram: 7 0 0 0 0 0 0 0 0 1
Nghost:         249.75 ave         250 max         248 min
Histogram: 1 0 0 0 0 0 0 0 0 7
Neighs:             14 ave         112 max           0 min
Histogram: 7 0 0 0 0 0 0 0 0 1
FullNghs:           28 ave         224 max           0 min
Histogram: 7 0 0 0 0 0 0 0 0 1

Total # of neighbors = 224
Ave neighs/atom = 112
Neighbor list builds = 0
Dangerous builds = 0
variable  natoms equal "count(all)"
variable xlength equal "lx"
variable  volume equal "vol"
variable  etotal equal "etotal"
variable    ecoh equal "pe/v_natoms"
print "${xlength}, ${volume}, ${etotal}, ${ecoh}" append lattice_cohesive_energy.txt screen no

next i
jump SELF loop

change_box all x scale 1.0025 y scale 1.0025 z scale 1.0025 remap
Changing box ...
  orthogonal box = (-0.017926401 -0.014116111 -0.014116111) to (3.0379264 3.0341161 3.0341161)
  orthogonal box = (-0.017926401 -0.017926401 -0.014116111) to (3.0379264 3.0379264 3.0341161)
  orthogonal box = (-0.017926401 -0.017926401 -0.017926401) to (3.0379264 3.0379264 3.0379264)

run 1
WARNING: No fixes with time integration, atoms won't move (src/verlet.cpp:60)
WARNING: Proc sub-domain size < neighbor skin, could lead to lost atoms (src/domain.cpp:966)
Per MPI rank memory allocation (min/avg/max) = 8.573 | 8.573 | 8.575 Mbytes
   Step         PotEng         TotEng           Lx             Ly             Lz           Volume         Press           Pxx            Pyy            Pzz      
        63  -10.41597      -10.41597       3.0558528      3.0558528      3.0558528      28.536276     -2079.2724     -2079.2724     -2079.2724     -2079.2724    
        64  -10.41597      -10.41597       3.0558528      3.0558528      3.0558528      28.536276     -2079.2724     -2079.2724     -2079.2724     -2079.2724    
Loop time of 0.000204875 on 8 procs for 1 steps with 2 atoms

Performance: 421.721 ns/day, 0.057 hours/ns, 4881.025 timesteps/s, 9.762 katom-step/s
0.0% CPU use with 8 MPI tasks x 1 OpenMP threads

MPI task timing breakdown:
Section |  min time  |  avg time  |  max time  |%varavg| %total
---------------------------------------------------------------
Pair    | 0.000128   | 0.00014337 | 0.000157   |   0.0 | 69.98
Neigh   | 0          | 0          | 0          |   0.0 |  0.00
Comm    | 1.4e-05    | 2.6375e-05 | 5.1e-05    |   0.0 | 12.87
Output  | 1.5e-05    | 2.7375e-05 | 5.1e-05    |   0.0 | 13.36
Modify  | 0          | 0          | 0          |   0.0 |  0.00
Other   |            | 7.75e-06   |            |       |  3.78

Nlocal:           0.25 ave           2 max           0 min
Histogram: 7 0 0 0 0 0 0 0 0 1
Nghost:         249.75 ave         250 max         248 min
Histogram: 1 0 0 0 0 0 0 0 0 7
Neighs:             14 ave         112 max           0 min
Histogram: 7 0 0 0 0 0 0 0 0 1
FullNghs:           28 ave         224 max           0 min
Histogram: 7 0 0 0 0 0 0 0 0 1

Total # of neighbors = 224
Ave neighs/atom = 112
Neighbor list builds = 0
Dangerous builds = 0
variable  natoms equal "count(all)"
variable xlength equal "lx"
variable  volume equal "vol"
variable  etotal equal "etotal"
variable    ecoh equal "pe/v_natoms"
print "${xlength}, ${volume}, ${etotal}, ${ecoh}" append lattice_cohesive_energy.txt screen no

next i
jump SELF loop

change_box all x scale 1.0025 y scale 1.0025 z scale 1.0025 remap
Changing box ...
  orthogonal box = (-0.021746217 -0.017926401 -0.017926401) to (3.0417462 3.0379264 3.0379264)
  orthogonal box = (-0.021746217 -0.021746217 -0.017926401) to (3.0417462 3.0417462 3.0379264)
  orthogonal box = (-0.021746217 -0.021746217 -0.021746217) to (3.0417462 3.0417462 3.0417462)

run 1
WARNING: No fixes with time integration, atoms won't move (src/verlet.cpp:60)
WARNING: Proc sub-domain size < neighbor skin, could lead to lost atoms (src/domain.cpp:966)
Per MPI rank memory allocation (min/avg/max) = 8.573 | 8.573 | 8.575 Mbytes
   Step         PotEng         TotEng           Lx             Ly             Lz           Volume         Press           Pxx            Pyy            Pzz      
        64  -10.415063     -10.415063      3.0634924      3.0634924      3.0634924      28.750833     -11407.272     -11407.272     -11407.272     -11407.272    
        65  -10.415063     -10.415063      3.0634924      3.0634924      3.0634924      28.750833     -11407.272     -11407.272     -11407.272     -11407.272    
Loop time of 0.00020725 on 8 procs for 1 steps with 2 atoms

Performance: 416.888 ns/day, 0.058 hours/ns, 4825.090 timesteps/s, 9.650 katom-step/s
0.0% CPU use with 8 MPI tasks x 1 OpenMP threads

MPI task timing breakdown:
Section |  min time  |  avg time  |  max time  |%varavg| %total
---------------------------------------------------------------
Pair    | 0.000127   | 0.00014225 | 0.000157   |   0.0 | 68.64
Neigh   | 0          | 0          | 0          |   0.0 |  0.00
Comm    | 1.3e-05    | 2.475e-05  | 4.9e-05    |   0.0 | 11.94
Output  | 1.5e-05    | 2.75e-05   | 5e-05      |   0.0 | 13.27
Modify  | 0          | 0          | 0          |   0.0 |  0.00
Other   |            | 1.275e-05  |            |       |  6.15

Nlocal:           0.25 ave           2 max           0 min
Histogram: 7 0 0 0 0 0 0 0 0 1
Nghost:         249.75 ave         250 max         248 min
Histogram: 1 0 0 0 0 0 0 0 0 7
Neighs:             14 ave         112 max           0 min
Histogram: 7 0 0 0 0 0 0 0 0 1
FullNghs:           28 ave         224 max           0 min
Histogram: 7 0 0 0 0 0 0 0 0 1

Total # of neighbors = 224
Ave neighs/atom = 112
Neighbor list builds = 0
Dangerous builds = 0
variable  natoms equal "count(all)"
variable xlength equal "lx"
variable  volume equal "vol"
variable  etotal equal "etotal"
variable    ecoh equal "pe/v_natoms"
print "${xlength}, ${volume}, ${etotal}, ${ecoh}" append lattice_cohesive_energy.txt screen no

next i
jump SELF loop

change_box all x scale 1.0025 y scale 1.0025 z scale 1.0025 remap
Changing box ...
  orthogonal box = (-0.025575583 -0.021746217 -0.021746217) to (3.0455756 3.0417462 3.0417462)
  orthogonal box = (-0.025575583 -0.025575583 -0.021746217) to (3.0455756 3.0455756 3.0417462)
  orthogonal box = (-0.025575583 -0.025575583 -0.025575583) to (3.0455756 3.0455756 3.0455756)

run 1
WARNING: No fixes with time integration, atoms won't move (src/verlet.cpp:60)
WARNING: Proc sub-domain size < neighbor skin, could lead to lost atoms (src/domain.cpp:966)
Per MPI rank memory allocation (min/avg/max) = 8.573 | 8.573 | 8.575 Mbytes
   Step         PotEng         TotEng           Lx             Ly             Lz           Volume         Press           Pxx            Pyy            Pzz      
        65  -10.412909     -10.412909      3.0711512      3.0711512      3.0711512      28.967004     -20460.127     -20460.127     -20460.127     -20460.127    
        66  -10.412909     -10.412909      3.0711512      3.0711512      3.0711512      28.967004     -20460.127     -20460.127     -20460.127     -20460.127    
Loop time of 0.0002395 on 8 procs for 1 steps with 2 atoms

Performance: 360.752 ns/day, 0.067 hours/ns, 4175.365 timesteps/s, 8.351 katom-step/s
0.0% CPU use with 8 MPI tasks x 1 OpenMP threads

MPI task timing breakdown:
Section |  min time  |  avg time  |  max time  |%varavg| %total
---------------------------------------------------------------
Pair    | 0.000156   | 0.00016988 | 0.000187   |   0.0 | 70.93
Neigh   | 0          | 0          | 0          |   0.0 |  0.00
Comm    | 1.6e-05    | 2.925e-05  | 5.6e-05    |   0.0 | 12.21
Output  | 1.7e-05    | 3.075e-05  | 5.7e-05    |   0.0 | 12.84
Modify  | 0          | 5e-07      | 2e-06      |   0.0 |  0.21
Other   |            | 9.125e-06  |            |       |  3.81

Nlocal:           0.25 ave           2 max           0 min
Histogram: 7 0 0 0 0 0 0 0 0 1
Nghost:         249.75 ave         250 max         248 min
Histogram: 1 0 0 0 0 0 0 0 0 7
Neighs:             14 ave         112 max           0 min
Histogram: 7 0 0 0 0 0 0 0 0 1
FullNghs:           28 ave         224 max           0 min
Histogram: 7 0 0 0 0 0 0 0 0 1

Total # of neighbors = 224
Ave neighs/atom = 112
Neighbor list builds = 0
Dangerous builds = 0
variable  natoms equal "count(all)"
variable xlength equal "lx"
variable  volume equal "vol"
variable  etotal equal "etotal"
variable    ecoh equal "pe/v_natoms"
print "${xlength}, ${volume}, ${etotal}, ${ecoh}" append lattice_cohesive_energy.txt screen no

next i
jump SELF loop

change_box all x scale 1.0025 y scale 1.0025 z scale 1.0025 remap
Changing box ...
  orthogonal box = (-0.029414522 -0.025575583 -0.025575583) to (3.0494145 3.0455756 3.0455756)
  orthogonal box = (-0.029414522 -0.029414522 -0.025575583) to (3.0494145 3.0494145 3.0455756)
  orthogonal box = (-0.029414522 -0.029414522 -0.029414522) to (3.0494145 3.0494145 3.0494145)

run 1
WARNING: No fixes with time integration, atoms won't move (src/verlet.cpp:60)
WARNING: Proc sub-domain size < neighbor skin, could lead to lost atoms (src/domain.cpp:966)
Per MPI rank memory allocation (min/avg/max) = 8.573 | 8.573 | 8.575 Mbytes
   Step         PotEng         TotEng           Lx             Ly             Lz           Volume         Press           Pxx            Pyy            Pzz      
        66  -10.409527     -10.409527      3.078829       3.078829       3.078829       29.1848       -29243.182     -29243.182     -29243.182     -29243.182    
        67  -10.409527     -10.409527      3.078829       3.078829       3.078829       29.1848       -29243.182     -29243.182     -29243.182     -29243.182    
Loop time of 0.000271875 on 8 procs for 1 steps with 2 atoms

[...]
Histogram: 7 0 0 0 0 0 0 0 0 1
FullNghs:           22 ave         176 max           0 min
Histogram: 7 0 0 0 0 0 0 0 0 1

Total # of neighbors = 176
Ave neighs/atom = 88
Neighbor list builds = 0
Dangerous builds = 0
variable  natoms equal "count(all)"
variable xlength equal "lx"
variable  volume equal "vol"
variable  etotal equal "etotal"
variable    ecoh equal "pe/v_natoms"
print "${xlength}, ${volume}, ${etotal}, ${ecoh}" append lattice_cohesive_energy.txt screen no

next i
jump SELF loop

change_box all x scale 1.0025 y scale 1.0025 z scale 1.0025 remap
Changing box ...
  orthogonal box = (-0.088163834 -0.084178388 -0.084178388) to (3.1081638 3.1041784 3.1041784)
  orthogonal box = (-0.088163834 -0.088163834 -0.084178388) to (3.1081638 3.1081638 3.1041784)
  orthogonal box = (-0.088163834 -0.088163834 -0.088163834) to (3.1081638 3.1081638 3.1081638)

run 1
WARNING: No fixes with time integration, atoms won't move (src/verlet.cpp:60)
WARNING: Proc sub-domain size < neighbor skin, could lead to lost atoms (src/domain.cpp:966)
Per MPI rank memory allocation (min/avg/max) = 8.573 | 8.573 | 8.575 Mbytes
   Step         PotEng         TotEng           Lx             Ly             Lz           Volume         Press           Pxx            Pyy            Pzz      
        81  -10.223546     -10.223546      3.1963277      3.1963277      3.1963277      32.655315     -132010.89     -132010.89     -132010.89     -132010.89    
        82  -10.223546     -10.223546      3.1963277      3.1963277      3.1963277      32.655315     -132010.89     -132010.89     -132010.89     -132010.89    
Loop time of 0.00020125 on 8 procs for 1 steps with 2 atoms

Performance: 429.317 ns/day, 0.056 hours/ns, 4968.944 timesteps/s, 9.938 katom-step/s
0.0% CPU use with 8 MPI tasks x 1 OpenMP threads

MPI task timing breakdown:
Section |  min time  |  avg time  |  max time  |%varavg| %total
---------------------------------------------------------------
Pair    | 0.000126   | 0.00013312 | 0.00015    |   0.0 | 66.15
Neigh   | 0          | 0          | 0          |   0.0 |  0.00
Comm    | 1.4e-05    | 2.5e-05    | 4.7e-05    |   0.0 | 12.42
Output  | 1.6e-05    | 3.2125e-05 | 4.9e-05    |   0.0 | 15.96
Modify  | 0          | 3.75e-07   | 1e-06      |   0.0 |  0.19
Other   |            | 1.062e-05  |            |       |  5.28

Nlocal:           0.25 ave           2 max           0 min
Histogram: 7 0 0 0 0 0 0 0 0 1
Nghost:         249.75 ave         250 max         248 min
Histogram: 1 0 0 0 0 0 0 0 0 7
Neighs:             11 ave          88 max           0 min
Histogram: 7 0 0 0 0 0 0 0 0 1
FullNghs:           22 ave         176 max           0 min
Histogram: 7 0 0 0 0 0 0 0 0 1

Total # of neighbors = 176
Ave neighs/atom = 88
Neighbor list builds = 0
Dangerous builds = 0
variable  natoms equal "count(all)"
variable xlength equal "lx"
variable  volume equal "vol"
variable  etotal equal "etotal"
variable    ecoh equal "pe/v_natoms"
print "${xlength}, ${volume}, ${etotal}, ${ecoh}" append lattice_cohesive_energy.txt screen no

next i
jump SELF loop

change_box all x scale 1.0025 y scale 1.0025 z scale 1.0025 remap
Changing box ...
  orthogonal box = (-0.092159243 -0.088163834 -0.088163834) to (3.1121592 3.1081638 3.1081638)
  orthogonal box = (-0.092159243 -0.092159243 -0.088163834) to (3.1121592 3.1121592 3.1081638)
  orthogonal box = (-0.092159243 -0.092159243 -0.092159243) to (3.1121592 3.1121592 3.1121592)

run 1
WARNING: No fixes with time integration, atoms won't move (src/verlet.cpp:60)
WARNING: Proc sub-domain size < neighbor skin, could lead to lost atoms (src/domain.cpp:966)
Per MPI rank memory allocation (min/avg/max) = 8.573 | 8.573 | 8.575 Mbytes
   Step         PotEng         TotEng           Lx             Ly             Lz           Volume         Press           Pxx            Pyy            Pzz      
        82  -10.20292      -10.20292       3.2043185      3.2043185      3.2043185      32.900843     -137141.95     -137141.95     -137141.95     -137141.95    
        83  -10.20292      -10.20292       3.2043185      3.2043185      3.2043185      32.900843     -137141.95     -137141.95     -137141.95     -137141.95    
Loop time of 0.000216 on 8 procs for 1 steps with 2 atoms

Performance: 400.000 ns/day, 0.060 hours/ns, 4629.630 timesteps/s, 9.259 katom-step/s
0.0% CPU use with 8 MPI tasks x 1 OpenMP threads

MPI task timing breakdown:
Section |  min time  |  avg time  |  max time  |%varavg| %total
---------------------------------------------------------------
Pair    | 0.000143   | 0.00015475 | 0.00017    |   0.0 | 71.64
Neigh   | 0          | 0          | 0          |   0.0 |  0.00
Comm    | 1.6e-05    | 2.6e-05    | 4.6e-05    |   0.0 | 12.04
Output  | 1.5e-05    | 2.7375e-05 | 4.8e-05    |   0.0 | 12.67
Modify  | 0          | 2.5e-07    | 1e-06      |   0.0 |  0.12
Other   |            | 7.625e-06  |            |       |  3.53

Nlocal:           0.25 ave           2 max           0 min
Histogram: 7 0 0 0 0 0 0 0 0 1
Nghost:         249.75 ave         250 max         248 min
Histogram: 1 0 0 0 0 0 0 0 0 7
Neighs:             11 ave          88 max           0 min
Histogram: 7 0 0 0 0 0 0 0 0 1
FullNghs:           22 ave         176 max           0 min
Histogram: 7 0 0 0 0 0 0 0 0 1

Total # of neighbors = 176
Ave neighs/atom = 88
Neighbor list builds = 0
Dangerous builds = 0
variable  natoms equal "count(all)"
variable xlength equal "lx"
variable  volume equal "vol"
variable  etotal equal "etotal"
variable    ecoh equal "pe/v_natoms"
print "${xlength}, ${volume}, ${etotal}, ${ecoh}" append lattice_cohesive_energy.txt screen no

next i
jump SELF loop

change_box all x scale 1.0025 y scale 1.0025 z scale 1.0025 remap
Changing box ...
  orthogonal box = (-0.096164641 -0.092159243 -0.092159243) to (3.1161646 3.1121592 3.1121592)
  orthogonal box = (-0.096164641 -0.096164641 -0.092159243) to (3.1161646 3.1161646 3.1121592)
  orthogonal box = (-0.096164641 -0.096164641 -0.096164641) to (3.1161646 3.1161646 3.1161646)

run 1
WARNING: No fixes with time integration, atoms won't move (src/verlet.cpp:60)
WARNING: Proc sub-domain size < neighbor skin, could lead to lost atoms (src/domain.cpp:966)
Per MPI rank memory allocation (min/avg/max) = 8.573 | 8.573 | 8.575 Mbytes
   Step         PotEng         TotEng           Lx             Ly             Lz           Volume         Press           Pxx            Pyy            Pzz      
        83  -10.181361     -10.181361      3.2123293      3.2123293      3.2123293      33.148217     -142082.7      -142082.7      -142082.7      -142082.7     
        84  -10.181361     -10.181361      3.2123293      3.2123293      3.2123293      33.148217     -142082.7      -142082.7      -142082.7      -142082.7     
Loop time of 0.000226 on 8 procs for 1 steps with 2 atoms

Performance: 382.301 ns/day, 0.063 hours/ns, 4424.779 timesteps/s, 8.850 katom-step/s
864.2% CPU use with 8 MPI tasks x 1 OpenMP threads

MPI task timing breakdown:
Section |  min time  |  avg time  |  max time  |%varavg| %total
---------------------------------------------------------------
Pair    | 0.00015    | 0.0001605  | 0.000176   |   0.0 | 71.02
Neigh   | 0          | 0          | 0          |   0.0 |  0.00
Comm    | 1.6e-05    | 2.725e-05  | 4.7e-05    |   0.0 | 12.06
Output  | 1.7e-05    | 2.8375e-05 | 5e-05      |   0.0 | 12.56
Modify  | 0          | 2.5e-07    | 1e-06      |   0.0 |  0.11
Other   |            | 9.625e-06  |            |       |  4.26

Nlocal:           0.25 ave           2 max           0 min
Histogram: 7 0 0 0 0 0 0 0 0 1
Nghost:         249.75 ave         250 max         248 min
Histogram: 1 0 0 0 0 0 0 0 0 7
Neighs:              8 ave          64 max           0 min
Histogram: 7 0 0 0 0 0 0 0 0 1
FullNghs:           16 ave         128 max           0 min
Histogram: 7 0 0 0 0 0 0 0 0 1

Total # of neighbors = 128
Ave neighs/atom = 64
Neighbor list builds = 0
Dangerous builds = 0
variable  natoms equal "count(all)"
variable xlength equal "lx"
variable  volume equal "vol"
variable  etotal equal "etotal"
variable    ecoh equal "pe/v_natoms"
print "${xlength}, ${volume}, ${etotal}, ${ecoh}" append lattice_cohesive_energy.txt screen no

next i
jump SELF loop

change_box all x scale 1.0025 y scale 1.0025 z scale 1.0025 remap
Changing box ...
  orthogonal box = (-0.10018005 -0.096164641 -0.096164641) to (3.1201801 3.1161646 3.1161646)
  orthogonal box = (-0.10018005 -0.10018005 -0.096164641) to (3.1201801 3.1201801 3.1161646)
  orthogonal box = (-0.10018005 -0.10018005 -0.10018005) to (3.1201801 3.1201801 3.1201801)

run 1
WARNING: No fixes with time integration, atoms won't move (src/verlet.cpp:60)
WARNING: Proc sub-domain size < neighbor skin, could lead to lost atoms (src/domain.cpp:966)
Per MPI rank memory allocation (min/avg/max) = 8.573 | 8.573 | 8.575 Mbytes
   Step         PotEng         TotEng           Lx             Ly             Lz           Volume         Press           Pxx            Pyy            Pzz      
        84  -10.158886     -10.158886      3.2203601      3.2203601      3.2203601      33.39745      -146837.18     -146837.18     -146837.18     -146837.18    
        85  -10.158886     -10.158886      3.2203601      3.2203601      3.2203601      33.39745      -146837.18     -146837.18     -146837.18     -146837.18    
Loop time of 0.000194375 on 8 procs for 1 steps with 2 atoms

Performance: 444.502 ns/day, 0.054 hours/ns, 5144.695 timesteps/s, 10.289 katom-step/s
0.0% CPU use with 8 MPI tasks x 1 OpenMP threads

MPI task timing breakdown:
Section |  min time  |  avg time  |  max time  |%varavg| %total
---------------------------------------------------------------
Pair    | 0.000147   | 0.00014862 | 0.000151   |   0.0 | 76.46
Neigh   | 0          | 0          | 0          |   0.0 |  0.00
Comm    | 1.6e-05    | 2.0125e-05 | 2.3e-05    |   0.0 | 10.35
Output  | 1.4e-05    | 1.7625e-05 | 2.2e-05    |   0.0 |  9.07
Modify  | 0          | 1.25e-07   | 1e-06      |   0.0 |  0.06
Other   |            | 7.875e-06  |            |       |  4.05

Nlocal:           0.25 ave           2 max           0 min
Histogram: 7 0 0 0 0 0 0 0 0 1
Nghost:         249.75 ave         250 max         248 min
Histogram: 1 0 0 0 0 0 0 0 0 7
Neighs:              8 ave          64 max           0 min
Histogram: 7 0 0 0 0 0 0 0 0 1
FullNghs:           16 ave         128 max           0 min
Histogram: 7 0 0 0 0 0 0 0 0 1

Total # of neighbors = 128
Ave neighs/atom = 64
Neighbor list builds = 0
Dangerous builds = 0
variable  natoms equal "count(all)"
variable xlength equal "lx"
variable  volume equal "vol"
variable  etotal equal "etotal"
variable    ecoh equal "pe/v_natoms"
print "${xlength}, ${volume}, ${etotal}, ${ecoh}" append lattice_cohesive_energy.txt screen no

next i
jump SELF loop

change_box all x scale 1.0025 y scale 1.0025 z scale 1.0025 remap
Changing box ...
  orthogonal box = (-0.1042055 -0.10018005 -0.10018005) to (3.1242055 3.1201801 3.1201801)
  orthogonal box = (-0.1042055 -0.1042055 -0.10018005) to (3.1242055 3.1242055 3.1201801)
  orthogonal box = (-0.1042055 -0.1042055 -0.1042055) to (3.1242055 3.1242055 3.1242055)

run 1
WARNING: No fixes with time integration, atoms won't move (src/verlet.cpp:60)
WARNING: Proc sub-domain size < neighbor skin, could lead to lost atoms (src/domain.cpp:966)
Per MPI rank memory allocation (min/avg/max) = 8.573 | 8.573 | 8.575 Mbytes
   Step         PotEng         TotEng           Lx             Ly             Lz           Volume         Press           Pxx            Pyy            Pzz      
        85  -10.135512     -10.135512      3.228411       3.228411       3.228411       33.648558     -151409.4      -151409.4      -151409.4      -151409.4     
        86  -10.135512     -10.135512      3.228411       3.228411       3.228411       33.648558     -151409.4      -151409.4      -151409.4      -151409.4     
Loop time of 0.000208625 on 8 procs for 1 steps with 2 atoms

Performance: 414.140 ns/day, 0.058 hours/ns, 4793.289 timesteps/s, 9.587 katom-step/s
0.0% CPU use with 8 MPI tasks x 1 OpenMP threads

MPI task timing breakdown:
Section |  min time  |  avg time  |  max time  |%varavg| %total
---------------------------------------------------------------
Pair    | 0.000131   | 0.00014538 | 0.000159   |   0.0 | 69.68
Neigh   | 0          | 0          | 0          |   0.0 |  0.00
Comm    | 1.3e-05    | 2.25e-05   | 4.8e-05    |   0.0 | 10.78
Output  | 1.5e-05    | 3.1375e-05 | 5.4e-05    |   0.0 | 15.04
Modify  | 0          | 1.25e-07   | 1e-06      |   0.0 |  0.06
Other   |            | 9.25e-06   |            |       |  4.43

Nlocal:           0.25 ave           2 max           0 min
Histogram: 7 0 0 0 0 0 0 0 0 1
Nghost:         249.75 ave         250 max         248 min
Histogram: 1 0 0 0 0 0 0 0 0 7
Neighs:              8 ave          64 max           0 min
Histogram: 7 0 0 0 0 0 0 0 0 1
FullNghs:           16 ave         128 max           0 min
Histogram: 7 0 0 0 0 0 0 0 0 1

Total # of neighbors = 128
Ave neighs/atom = 64
Neighbor list builds = 0
Dangerous builds = 0
variable  natoms equal "count(all)"
variable xlength equal "lx"
variable  volume equal "vol"
variable  etotal equal "etotal"
variable    ecoh equal "pe/v_natoms"
print "${xlength}, ${volume}, ${etotal}, ${ecoh}" append lattice_cohesive_energy.txt screen no

next i
jump SELF loop

change_box all x scale 1.0025 y scale 1.0025 z scale 1.0025 remap
Changing box ...
  orthogonal box = (-0.10824102 -0.1042055 -0.1042055) to (3.128241 3.1242055 3.1242055)
  orthogonal box = (-0.10824102 -0.10824102 -0.1042055) to (3.128241 3.128241 3.1242055)
  orthogonal box = (-0.10824102 -0.10824102 -0.10824102) to (3.128241 3.128241 3.128241)

run 1
WARNING: No fixes with time integration, atoms won't move (src/verlet.cpp:60)
WARNING: Proc sub-domain size < neighbor skin, could lead to lost atoms (src/domain.cpp:966)
Per MPI rank memory allocation (min/avg/max) = 8.573 | 8.573 | 8.575 Mbytes
   Step         PotEng         TotEng           Lx             Ly             Lz           Volume         Press           Pxx            Pyy            Pzz      
        86  -10.111253     -10.111253      3.236482       3.236482       3.236482       33.901554     -155803.28     -155803.28     -155803.28     -155803.28    
        87  -10.111253     -10.111253      3.236482       3.236482       3.236482       33.901554     -155803.28     -155803.28     -155803.28     -155803.28    
Loop time of 0.000204625 on 8 procs for 1 steps with 2 atoms

Performance: 422.236 ns/day, 0.057 hours/ns, 4886.988 timesteps/s, 9.774 katom-step/s
0.0% CPU use with 8 MPI tasks x 1 OpenMP threads

MPI task timing breakdown:
Section |  min time  |  avg time  |  max time  |%varavg| %total
---------------------------------------------------------------
Pair    | 0.00013    | 0.00014413 | 0.000158   |   0.0 | 70.43
Neigh   | 0          | 0          | 0          |   0.0 |  0.00
Comm    | 1.3e-05    | 2.1875e-05 | 4.6e-05    |   0.0 | 10.69
Output  | 1.5e-05    | 3e-05      | 5.1e-05    |   0.0 | 14.66
Modify  | 0          | 2.5e-07    | 1e-06      |   0.0 |  0.12
Other   |            | 8.375e-06  |            |       |  4.09

Nlocal:           0.25 ave           2 max           0 min
Histogram: 7 0 0 0 0 0 0 0 0 1
Nghost:         249.75 ave         250 max         248 min
Histogram: 1 0 0 0 0 0 0 0 0 7
Neighs:              8 ave          64 max           0 min
Histogram: 7 0 0 0 0 0 0 0 0 1
FullNghs:           16 ave         128 max           0 min
Histogram: 7 0 0 0 0 0 0 0 0 1

Total # of neighbors = 128
Ave neighs/atom = 64
Neighbor list builds = 0
Dangerous builds = 0
variable  natoms equal "count(all)"
variable xlength equal "lx"
variable  volume equal "vol"
variable  etotal equal "etotal"
variable    ecoh equal "pe/v_natoms"
print "${xlength}, ${volume}, ${etotal}, ${ecoh}" append lattice_cohesive_energy.txt screen no

next i
jump SELF loop

change_box all x scale 1.0025 y scale 1.0025 z scale 1.0025 remap
Changing box ...
  orthogonal box = (-0.11228662 -0.10824102 -0.10824102) to (3.1322866 3.128241 3.128241)
  orthogonal box = (-0.11228662 -0.11228662 -0.10824102) to (3.1322866 3.1322866 3.128241)
  orthogonal box = (-0.11228662 -0.11228662 -0.11228662) to (3.1322866 3.1322866 3.1322866)

run 1
WARNING: No fixes with time integration, atoms won't move (src/verlet.cpp:60)
Per MPI rank memory allocation (min/avg/max) = 8.573 | 8.573 | 8.575 Mbytes
   Step         PotEng         TotEng           Lx             Ly             Lz           Volume         Press           Pxx            Pyy            Pzz      
WARNING: Too many warnings: 101 vs 100. All future warnings will be suppressed (src/thermo.cpp:466)
        87  -10.086127     -10.086127      3.2445732      3.2445732      3.2445732      34.156451     -160022.7      -160022.7      -160022.7      -160022.7     
        88  -10.086127     -10.086127      3.2445732      3.2445732      3.2445732      34.156451     -160022.7      -160022.7      -160022.7      -160022.7     
Loop time of 0.000201375 on 8 procs for 1 steps with 2 atoms

Performance: 429.050 ns/day, 0.056 hours/ns, 4965.860 timesteps/s, 9.932 katom-step/s
0.0% CPU use with 8 MPI tasks x 1 OpenMP threads

MPI task timing breakdown:
Section |  min time  |  avg time  |  max time  |%varavg| %total
---------------------------------------------------------------
Pair    | 0.000127   | 0.000142   | 0.000156   |   0.0 | 70.52
Neigh   | 0          | 0          | 0          |   0.0 |  0.00
Comm    | 1.2e-05    | 2.1125e-05 | 4.6e-05    |   0.0 | 10.49
Output  | 1.4e-05    | 2.9625e-05 | 5.3e-05    |   0.0 | 14.71
Modify  | 0          | 0          | 0          |   0.0 |  0.00
Other   |            | 8.625e-06  |            |       |  4.28

Nlocal:           0.25 ave           2 max           0 min
Histogram: 7 0 0 0 0 0 0 0 0 1
Nghost:         249.75 ave         250 max         248 min
Histogram: 1 0 0 0 0 0 0 0 0 7
Neighs:              8 ave          64 max           0 min
Histogram: 7 0 0 0 0 0 0 0 0 1
FullNghs:           16 ave         128 max           0 min
Histogram: 7 0 0 0 0 0 0 0 0 1

Total # of neighbors = 128
Ave neighs/atom = 64
Neighbor list builds = 0
Dangerous builds = 0
variable  natoms equal "count(all)"
variable xlength equal "lx"
variable  volume equal "vol"
variable  etotal equal "etotal"
variable    ecoh equal "pe/v_natoms"
print "${xlength}, ${volume}, ${etotal}, ${ecoh}" append lattice_cohesive_energy.txt screen no

next i
jump SELF loop

print "-------------------------------------------------------------"
-------------------------------------------------------------
print "Show results of 1st step (Running Minimization)"
Show results of 1st step (Running Minimization)
print "The number of atoms = ${natoms};"
The number of atoms = 2;
print "The lattice constant, x (Angstoms) = ${x0};"
The lattice constant, x (Angstoms) = 3.24457323889205;
print "The lattice constant, y (Angstoms) = ${y0};"
The lattice constant, y (Angstoms) = 3.24457323889205;
print "The lattice constant, z (Angstoms) = ${z0};"
The lattice constant, z (Angstoms) = 3.24457323889205;
print "The volume (Angstoms^3) = ${v0};"
The volume (Angstoms^3) = 34.1564514825024;
print "The total energy (eV) = ${etot0};"
The total energy (eV) = -10.0861274570351;
print "The cohesive energy (eV/atom) = ${ecoh0};"
The cohesive energy (eV/atom) = -5.04306372851753;
print "-------------------------------------------------------------"
-------------------------------------------------------------
print "Simulations completed !"
Simulations completed !
Total wall time: 0:00:00
