LAMMPS (22 Dec 2022)
  using 1 OpenMP thread(s) per MPI task
Loaded 1 plugins from C:\Program Files\LAMMPS 64-bit 23Jun2022\plugins
Loaded 0 plugins from C:\Program Files\LAMMPS 64-bit 23Jun2022-MPI\plugins
Loaded 1 plugins from C:\Program Files\LAMMPS 64-bit 22Dec2022-MSMPI\plugins
Loaded 1 plugins from C:\Program Files\LAMMPS 64-bit 28Mar2023-MPI\plugins
#------------------------------------------------------------------------------------------
# LAMMPS 64-bit 22Dec2022-MSMPI
#------------------------------------------------------------------------------------------
clear
  using 1 OpenMP thread(s) per MPI task
Loaded 1 plugins from C:\Program Files\LAMMPS 64-bit 23Jun2022\plugins
Loaded 0 plugins from C:\Program Files\LAMMPS 64-bit 23Jun2022-MPI\plugins
Loaded 1 plugins from C:\Program Files\LAMMPS 64-bit 22Dec2022-MSMPI\plugins
Loaded 1 plugins from C:\Program Files\LAMMPS 64-bit 28Mar2023-MPI\plugins
#echo both
# ---------- Initializing Simulation ---------------------------------
units metal
dimension 3
boundary p p p
atom_style atomic
atom_modify map array

read_data ./../../TiV.data
Reading data file ...
  orthogonal box = (0 0 0) to (3.06 3.06 3.06)
  2 by 2 by 2 MPI processor grid
  reading atoms ...
  2 atoms
  read_data CPU = 0.001 seconds

replicate 1 1 1
Replication is creating a 1x1x1 = 1 times larger system...
  orthogonal box = (0 0 0) to (3.06 3.06 3.06)
  2 by 2 by 2 MPI processor grid
  2 atoms
  replicate CPU = 0.000 seconds

# ---------- Defining the Interatomic Potential ---------------------
pair_style meam
pair_coeff * * ./../../library.meam Ti V N ./../../TiVN.meam Ti V

# ---------- Running Minimization -------------------------------------
fix 1 all box/relax iso 0.0 vmax 0.001

thermo 10
thermo_style custom step pe etotal lx ly lz vol press pxx pyy pzz

min_style cg
minimize 1e-25 1e-25 5000 10000
Neighbor list info ...
  update: every = 1 steps, delay = 0 steps, check = yes
  max neighbors/atom: 2000, page size: 100000
  master list distance cutoff = 7
  ghost atom cutoff = 7
  binsize = 3.5, bins = 1 1 1
  2 neighbor lists, perpetual/occasional/extra = 2 0 0
  (1) pair meam, perpetual
      attributes: full, newton on
      pair build: full/bin/atomonly
      stencil: full/bin/3d
      bin: standard
  (2) pair meam, perpetual, half/full from (1)
      attributes: half, newton on
      pair build: halffull/newton
      stencil: none
      bin: none
WARNING: Proc sub-domain size < neighbor skin, could lead to lost atoms (src/domain.cpp:966)
Per MPI rank memory allocation (min/avg/max) = 9.698 | 9.698 | 9.7 Mbytes
   Step         PotEng         TotEng           Lx             Ly             Lz           Volume         Press           Pxx            Pyy            Pzz      
         0  -10.409751     -10.409751      3.06           3.06           3.06           28.652616     -8246.596      -8246.596      -8246.596      -8246.596     
        10  -10.416        -10.416         3.054183       3.054183       3.054183       28.489521     -0.050474722   -0.050474723   -0.050474722   -0.050474722  
        20  -10.416        -10.416         3.0541829      3.0541829      3.0541829      28.48952      -1.26558e-11    1.4699941e-10  1.9745402e-10 -3.8242084e-10
        25  -10.416        -10.416         3.0541829      3.0541829      3.0541829      28.48952      -3.0808805e-10 -4.4740877e-10 -2.263307e-11  -4.542223e-10 
Loop time of 0.0085735 on 8 procs for 25 steps with 2 atoms

0.0% CPU use with 8 MPI tasks x 1 OpenMP threads

Minimization stats:
  Stopping criterion = energy tolerance
  Energy initial, next-to-last, final = 
       -10.40975095363  -10.4160000000448  -10.4160000000448
  Force two-norm initial, final = 0.52707951 1.7409318e-14
  Force max component initial, final = 0.44243543 1.6466347e-14
  Final line search alpha, max atom move = 1 1.6466347e-14
  Iterations, force evaluations = 25 44

MPI task timing breakdown:
Section |  min time  |  avg time  |  max time  |%varavg| %total
---------------------------------------------------------------
Pair    | 0.005248   | 0.005374   | 0.005541   |   0.1 | 62.68
Neigh   | 0          | 0          | 0          |   0.0 |  0.00
Comm    | 0.000626   | 0.00088875 | 0.001258   |   0.0 | 10.37
Output  | 2.6e-05    | 2.8e-05    | 3.2e-05    |   0.0 |  0.33
Modify  | 0          | 0          | 0          |   0.0 |  0.00
Other   |            | 0.002283   |            |       | 26.63

Nlocal:           0.25 ave           2 max           0 min
Histogram: 7 0 0 0 0 0 0 0 0 1
Nghost:         249.75 ave         250 max         248 min
Histogram: 1 0 0 0 0 0 0 0 0 7
Neighs:             14 ave         112 max           0 min
Histogram: 7 0 0 0 0 0 0 0 0 1
FullNghs:           28 ave         224 max           0 min
Histogram: 7 0 0 0 0 0 0 0 0 1

Total # of neighbors = 224
Ave neighs/atom = 112
Neighbor list builds = 0
Dangerous builds = 0

variable  natoms equal "count(all)"
variable      x0 equal "lx"
variable      y0 equal "ly"
variable      z0 equal "lz"
variable      v0 equal "vol"
variable   etot0 equal "etotal"
variable   ecoh0 equal "pe/v_natoms"

unfix 1
write_data ./../step2_elastic/data.in
System init for write_data ...
WARNING: Proc sub-domain size < neighbor skin, could lead to lost atoms (src/domain.cpp:966)

# ---------- For Equation of States -------------------------------------
change_box all x scale 0.94 y scale 0.94 z scale 0.94 remap
Changing box ...
  orthogonal box = (0.094534026 0.002908538 0.002908538) to (2.965466 3.0570915 3.0570915)
  orthogonal box = (0.094534026 0.094534026 0.002908538) to (2.965466 2.965466 3.0570915)
  orthogonal box = (0.094534026 0.094534026 0.094534026) to (2.965466 2.965466 2.965466)
run 1
WARNING: No fixes with time integration, atoms won't move (src/verlet.cpp:60)
WARNING: Proc sub-domain size < neighbor skin, could lead to lost atoms (src/domain.cpp:966)
Per MPI rank memory allocation (min/avg/max) = 8.573 | 8.573 | 8.575 Mbytes
   Step         PotEng         TotEng           Lx             Ly             Lz           Volume         Press           Pxx            Pyy            Pzz      
        25  -9.9778187     -9.9778187      2.8709319      2.8709319      2.8709319      23.66294       337864.43      337864.43      337864.43      337864.43    
        26  -9.9778187     -9.9778187      2.8709319      2.8709319      2.8709319      23.66294       337864.43      337864.43      337864.43      337864.43    
Loop time of 0.000140875 on 8 procs for 1 steps with 2 atoms

Performance: 613.310 ns/day, 0.039 hours/ns, 7098.492 timesteps/s, 14.197 katom-step/s
0.0% CPU use with 8 MPI tasks x 1 OpenMP threads

MPI task timing breakdown:
Section |  min time  |  avg time  |  max time  |%varavg| %total
---------------------------------------------------------------
Pair    | 9.6e-05    | 0.00010025 | 0.000105   |   0.0 | 71.16
Neigh   | 0          | 0          | 0          |   0.0 |  0.00
Comm    | 2e-05      | 2.375e-05  | 3e-05      |   0.0 | 16.86
Output  | 1.1e-05    | 1.3625e-05 | 1.7e-05    |   0.0 |  9.67
Modify  | 0          | 1.25e-07   | 1e-06      |   0.0 |  0.09
Other   |            | 3.125e-06  |            |       |  2.22

Nlocal:           0.25 ave           1 max           0 min
Histogram: 6 0 0 0 0 0 0 0 0 2
Nghost:         249.75 ave         250 max         249 min
Histogram: 2 0 0 0 0 0 0 0 0 6
Neighs:             14 ave          56 max           0 min
Histogram: 6 0 0 0 0 0 0 0 0 2
FullNghs:           28 ave         112 max           0 min
Histogram: 6 0 0 0 0 0 0 0 0 2

Total # of neighbors = 224
Ave neighs/atom = 112
Neighbor list builds = 0
Dangerous builds = 0
print "# Lattice constant (Angstroms), Volume (Angstrom), Total energy (eV), Cohesive energy (eV/atom)" file lattice_cohesive_energy.txt screen no


# Loop over lattice constants
variable i loop 49 # Number of steps
label loop

change_box all x scale 1.0025 y scale 1.0025 z scale 1.0025 remap
Changing box ...
  orthogonal box = (0.090945361 0.094534026 0.094534026) to (2.9690546 2.965466 2.965466)
  orthogonal box = (0.090945361 0.090945361 0.094534026) to (2.9690546 2.9690546 2.965466)
  orthogonal box = (0.090945361 0.090945361 0.090945361) to (2.9690546 2.9690546 2.9690546)

run 1
WARNING: No fixes with time integration, atoms won't move (src/verlet.cpp:60)
WARNING: Proc sub-domain size < neighbor skin, could lead to lost atoms (src/domain.cpp:966)
Per MPI rank memory allocation (min/avg/max) = 8.573 | 8.573 | 8.575 Mbytes
   Step         PotEng         TotEng           Lx             Ly             Lz           Volume         Press           Pxx            Pyy            Pzz      
        26  -10.014322     -10.014322      2.8781093      2.8781093      2.8781093      23.840856      319675.78      319675.78      319675.78      319675.78    
        27  -10.014322     -10.014322      2.8781093      2.8781093      2.8781093      23.840856      319675.78      319675.78      319675.78      319675.78    
Loop time of 0.000140375 on 8 procs for 1 steps with 2 atoms

Performance: 615.494 ns/day, 0.039 hours/ns, 7123.776 timesteps/s, 14.248 katom-step/s
0.0% CPU use with 8 MPI tasks x 1 OpenMP threads

MPI task timing breakdown:
Section |  min time  |  avg time  |  max time  |%varavg| %total
---------------------------------------------------------------
Pair    | 9.7e-05    | 9.9375e-05 | 0.000104   |   0.0 | 70.79
Neigh   | 0          | 0          | 0          |   0.0 |  0.00
Comm    | 2e-05      | 2.3625e-05 | 2.8e-05    |   0.0 | 16.83
Output  | 1.1e-05    | 1.375e-05  | 1.8e-05    |   0.0 |  9.80
Modify  | 0          | 0          | 0          |   0.0 |  0.00
Other   |            | 3.625e-06  |            |       |  2.58

Nlocal:           0.25 ave           1 max           0 min
Histogram: 6 0 0 0 0 0 0 0 0 2
Nghost:         249.75 ave         250 max         249 min
Histogram: 2 0 0 0 0 0 0 0 0 6
Neighs:             14 ave          56 max           0 min
Histogram: 6 0 0 0 0 0 0 0 0 2
FullNghs:           28 ave         112 max           0 min
Histogram: 6 0 0 0 0 0 0 0 0 2

Total # of neighbors = 224
Ave neighs/atom = 112
Neighbor list builds = 0
Dangerous builds = 0
variable  natoms equal "count(all)"
variable xlength equal "lx"
variable  volume equal "vol"
variable  etotal equal "etotal"
variable    ecoh equal "pe/v_natoms"
print "${xlength}, ${volume}, ${etotal}, ${ecoh}" append lattice_cohesive_energy.txt screen no

next i
jump SELF loop

change_box all x scale 1.0025 y scale 1.0025 z scale 1.0025 remap
Changing box ...
  orthogonal box = (0.087347724 0.090945361 0.090945361) to (2.9726523 2.9690546 2.9690546)
  orthogonal box = (0.087347724 0.087347724 0.090945361) to (2.9726523 2.9726523 2.9690546)
  orthogonal box = (0.087347724 0.087347724 0.087347724) to (2.9726523 2.9726523 2.9726523)

run 1
WARNING: No fixes with time integration, atoms won't move (src/verlet.cpp:60)
WARNING: Proc sub-domain size < neighbor skin, could lead to lost atoms (src/domain.cpp:966)
Per MPI rank memory allocation (min/avg/max) = 8.573 | 8.573 | 8.575 Mbytes
   Step         PotEng         TotEng           Lx             Ly             Lz           Volume         Press           Pxx            Pyy            Pzz      
        27  -10.04909      -10.04909       2.8853046      2.8853046      2.8853046      24.020109      301923.79      301923.79      301923.79      301923.79    
        28  -10.04909      -10.04909       2.8853046      2.8853046      2.8853046      24.020109      301923.79      301923.79      301923.79      301923.79    
Loop time of 0.000137875 on 8 procs for 1 steps with 2 atoms

Performance: 626.655 ns/day, 0.038 hours/ns, 7252.947 timesteps/s, 14.506 katom-step/s
0.0% CPU use with 8 MPI tasks x 1 OpenMP threads

MPI task timing breakdown:
Section |  min time  |  avg time  |  max time  |%varavg| %total
---------------------------------------------------------------
Pair    | 9.5e-05    | 9.7375e-05 | 0.000102   |   0.0 | 70.63
Neigh   | 0          | 0          | 0          |   0.0 |  0.00
Comm    | 2e-05      | 2.2625e-05 | 2.7e-05    |   0.0 | 16.41
Output  | 1.2e-05    | 1.4e-05    | 1.7e-05    |   0.0 | 10.15
Modify  | 0          | 2.5e-07    | 1e-06      |   0.0 |  0.18
Other   |            | 3.625e-06  |            |       |  2.63

Nlocal:           0.25 ave           1 max           0 min
Histogram: 6 0 0 0 0 0 0 0 0 2
Nghost:         249.75 ave         250 max         249 min
Histogram: 2 0 0 0 0 0 0 0 0 6
Neighs:             14 ave          56 max           0 min
Histogram: 6 0 0 0 0 0 0 0 0 2
FullNghs:           28 ave         112 max           0 min
Histogram: 6 0 0 0 0 0 0 0 0 2

Total # of neighbors = 224
Ave neighs/atom = 112
Neighbor list builds = 0
Dangerous builds = 0
variable  natoms equal "count(all)"
variable xlength equal "lx"
variable  volume equal "vol"
variable  etotal equal "etotal"
variable    ecoh equal "pe/v_natoms"
print "${xlength}, ${volume}, ${etotal}, ${ecoh}" append lattice_cohesive_energy.txt screen no

next i
jump SELF loop

change_box all x scale 1.0025 y scale 1.0025 z scale 1.0025 remap
Changing box ...
  orthogonal box = (0.083741094 0.087347724 0.087347724) to (2.9762589 2.9726523 2.9726523)
  orthogonal box = (0.083741094 0.083741094 0.087347724) to (2.9762589 2.9762589 2.9726523)
  orthogonal box = (0.083741094 0.083741094 0.083741094) to (2.9762589 2.9762589 2.9762589)

run 1
WARNING: No fixes with time integration, atoms won't move (src/verlet.cpp:60)
WARNING: Proc sub-domain size < neighbor skin, could lead to lost atoms (src/domain.cpp:966)
Per MPI rank memory allocation (min/avg/max) = 8.573 | 8.573 | 8.575 Mbytes
   Step         PotEng         TotEng           Lx             Ly             Lz           Volume         Press           Pxx            Pyy            Pzz      
        28  -10.082142     -10.082142      2.8925178      2.8925178      2.8925178      24.200711      284600.86      284600.86      284600.86      284600.86    
        29  -10.082142     -10.082142      2.8925178      2.8925178      2.8925178      24.200711      284600.86      284600.86      284600.86      284600.86    
Loop time of 0.00014275 on 8 procs for 1 steps with 2 atoms

Performance: 605.254 ns/day, 0.040 hours/ns, 7005.254 timesteps/s, 14.011 katom-step/s
0.0% CPU use with 8 MPI tasks x 1 OpenMP threads

MPI task timing breakdown:
Section |  min time  |  avg time  |  max time  |%varavg| %total
---------------------------------------------------------------
Pair    | 9.2e-05    | 9.5375e-05 | 9.9e-05    |   0.0 | 66.81
Neigh   | 0          | 0          | 0          |   0.0 |  0.00
Comm    | 1.8e-05    | 2.1625e-05 | 2.7e-05    |   0.0 | 15.15
Output  | 1.1e-05    | 1.45e-05   | 2e-05      |   0.0 | 10.16
Modify  | 0          | 0          | 0          |   0.0 |  0.00
Other   |            | 1.125e-05  |            |       |  7.88

Nlocal:           0.25 ave           1 max           0 min
Histogram: 6 0 0 0 0 0 0 0 0 2
Nghost:         249.75 ave         250 max         249 min
Histogram: 2 0 0 0 0 0 0 0 0 6
Neighs:             14 ave          56 max           0 min
Histogram: 6 0 0 0 0 0 0 0 0 2
FullNghs:           28 ave         112 max           0 min
Histogram: 6 0 0 0 0 0 0 0 0 2

Total # of neighbors = 224
Ave neighs/atom = 112
Neighbor list builds = 0
Dangerous builds = 0
variable  natoms equal "count(all)"
variable xlength equal "lx"
variable  volume equal "vol"
variable  etotal equal "etotal"
variable    ecoh equal "pe/v_natoms"
print "${xlength}, ${volume}, ${etotal}, ${ecoh}" append lattice_cohesive_energy.txt screen no

next i
jump SELF loop

change_box all x scale 1.0025 y scale 1.0025 z scale 1.0025 remap
Changing box ...
  orthogonal box = (0.080125446 0.083741094 0.083741094) to (2.9798746 2.9762589 2.9762589)
  orthogonal box = (0.080125446 0.080125446 0.083741094) to (2.9798746 2.9798746 2.9762589)
  orthogonal box = (0.080125446 0.080125446 0.080125446) to (2.9798746 2.9798746 2.9798746)

run 1
WARNING: No fixes with time integration, atoms won't move (src/verlet.cpp:60)
WARNING: Proc sub-domain size < neighbor skin, could lead to lost atoms (src/domain.cpp:966)
Per MPI rank memory allocation (min/avg/max) = 8.573 | 8.573 | 8.575 Mbytes
   Step         PotEng         TotEng           Lx             Ly             Lz           Volume         Press           Pxx            Pyy            Pzz      
        29  -10.113499     -10.113499      2.8997491      2.8997491      2.8997491      24.382671      267699.52      267699.52      267699.52      267699.52    
        30  -10.113499     -10.113499      2.8997491      2.8997491      2.8997491      24.382671      267699.52      267699.52      267699.52      267699.52    
Loop time of 0.000133125 on 8 procs for 1 steps with 2 atoms

Performance: 649.014 ns/day, 0.037 hours/ns, 7511.737 timesteps/s, 15.023 katom-step/s
0.0% CPU use with 8 MPI tasks x 1 OpenMP threads

MPI task timing breakdown:
Section |  min time  |  avg time  |  max time  |%varavg| %total
---------------------------------------------------------------
Pair    | 9.2e-05    | 9.4375e-05 | 9.7e-05    |   0.0 | 70.89
Neigh   | 0          | 0          | 0          |   0.0 |  0.00
Comm    | 1.8e-05    | 2.1625e-05 | 2.6e-05    |   0.0 | 16.24
Output  | 1.1e-05    | 1.275e-05  | 1.5e-05    |   0.0 |  9.58
Modify  | 0          | 1.25e-07   | 1e-06      |   0.0 |  0.09
Other   |            | 4.25e-06   |            |       |  3.19

Nlocal:           0.25 ave           1 max           0 min
Histogram: 6 0 0 0 0 0 0 0 0 2
Nghost:         249.75 ave         250 max         249 min
Histogram: 2 0 0 0 0 0 0 0 0 6
Neighs:             14 ave          56 max           0 min
Histogram: 6 0 0 0 0 0 0 0 0 2
FullNghs:           28 ave         112 max           0 min
Histogram: 6 0 0 0 0 0 0 0 0 2

Total # of neighbors = 224
Ave neighs/atom = 112
Neighbor list builds = 0
Dangerous builds = 0
variable  natoms equal "count(all)"
variable xlength equal "lx"
variable  volume equal "vol"
variable  etotal equal "etotal"
variable    ecoh equal "pe/v_natoms"
print "${xlength}, ${volume}, ${etotal}, ${ecoh}" append lattice_cohesive_energy.txt screen no

next i
jump SELF loop

change_box all x scale 1.0025 y scale 1.0025 z scale 1.0025 remap
Changing box ...
  orthogonal box = (0.07650076 0.080125446 0.080125446) to (2.9834992 2.9798746 2.9798746)
  orthogonal box = (0.07650076 0.07650076 0.080125446) to (2.9834992 2.9834992 2.9798746)
  orthogonal box = (0.07650076 0.07650076 0.07650076) to (2.9834992 2.9834992 2.9834992)

run 1
WARNING: No fixes with time integration, atoms won't move (src/verlet.cpp:60)
WARNING: Proc sub-domain size < neighbor skin, could lead to lost atoms (src/domain.cpp:966)
Per MPI rank memory allocation (min/avg/max) = 8.573 | 8.573 | 8.575 Mbytes
   Step         PotEng         TotEng           Lx             Ly             Lz           Volume         Press           Pxx            Pyy            Pzz      
        30  -10.143182     -10.143182      2.9069985      2.9069985      2.9069985      24.565998      251212.36      251212.36      251212.36      251212.36    
        31  -10.143182     -10.143182      2.9069985      2.9069985      2.9069985      24.565998      251212.36      251212.36      251212.36      251212.36    
Loop time of 0.000191625 on 8 procs for 1 steps with 2 atoms

Performance: 450.881 ns/day, 0.053 hours/ns, 5218.526 timesteps/s, 10.437 katom-step/s
0.0% CPU use with 8 MPI tasks x 1 OpenMP threads

MPI task timing breakdown:
Section |  min time  |  avg time  |  max time  |%varavg| %total
---------------------------------------------------------------
Pair    | 0.000141   | 0.0001485  | 0.000154   |   0.0 | 77.50
Neigh   | 0          | 0          | 0          |   0.0 |  0.00
Comm    | 1.7e-05    | 2.4375e-05 | 3.2e-05    |   0.0 | 12.72
Output  | 1.2e-05    | 1.4375e-05 | 1.9e-05    |   0.0 |  7.50
Modify  | 0          | 0          | 0          |   0.0 |  0.00
Other   |            | 4.375e-06  |            |       |  2.28

Nlocal:           0.25 ave           1 max           0 min
Histogram: 6 0 0 0 0 0 0 0 0 2
Nghost:         249.75 ave         250 max         249 min
Histogram: 2 0 0 0 0 0 0 0 0 6
Neighs:             14 ave          56 max           0 min
Histogram: 6 0 0 0 0 0 0 0 0 2
FullNghs:           28 ave         112 max           0 min
Histogram: 6 0 0 0 0 0 0 0 0 2

Total # of neighbors = 224
Ave neighs/atom = 112
Neighbor list builds = 0
Dangerous builds = 0
variable  natoms equal "count(all)"
variable xlength equal "lx"
variable  volume equal "vol"
variable  etotal equal "etotal"
variable    ecoh equal "pe/v_natoms"
print "${xlength}, ${volume}, ${etotal}, ${ecoh}" append lattice_cohesive_energy.txt screen no

next i
jump SELF loop

change_box all x scale 1.0025 y scale 1.0025 z scale 1.0025 remap
Changing box ...
  orthogonal box = (0.072867012 0.07650076 0.07650076) to (2.987133 2.9834992 2.9834992)
  orthogonal box = (0.072867012 0.072867012 0.07650076) to (2.987133 2.987133 2.9834992)
  orthogonal box = (0.072867012 0.072867012 0.072867012) to (2.987133 2.987133 2.987133)

run 1
WARNING: No fixes with time integration, atoms won't move (src/verlet.cpp:60)
WARNING: Proc sub-domain size < neighbor skin, could lead to lost atoms (src/domain.cpp:966)
Per MPI rank memory allocation (min/avg/max) = 8.573 | 8.573 | 8.575 Mbytes
   Step         PotEng         TotEng           Lx             Ly             Lz           Volume         Press           Pxx            Pyy            Pzz      
        31  -10.171211     -10.171211      2.914266       2.914266       2.914266       24.750704      235132.1       235132.1       235132.1       235132.1     
        32  -10.171211     -10.171211      2.914266       2.914266       2.914266       24.750704      235132.1       235132.1       235132.1       235132.1     
Loop time of 0.00013725 on 8 procs for 1 steps with 2 atoms

Performance: 629.508 ns/day, 0.038 hours/ns, 7285.974 timesteps/s, 14.572 katom-step/s
0.0% CPU use with 8 MPI tasks x 1 OpenMP threads

MPI task timing breakdown:
Section |  min time  |  avg time  |  max time  |%varavg| %total
---------------------------------------------------------------
Pair    | 9.5e-05    | 9.825e-05  | 0.000103   |   0.0 | 71.58
Neigh   | 0          | 0          | 0          |   0.0 |  0.00
Comm    | 1.6e-05    | 2.2e-05    | 2.7e-05    |   0.0 | 16.03
Output  | 1e-05      | 1.3e-05    | 1.7e-05    |   0.0 |  9.47
Modify  | 0          | 2.5e-07    | 1e-06      |   0.0 |  0.18
Other   |            | 3.75e-06   |            |       |  2.73

Nlocal:           0.25 ave           1 max           0 min
Histogram: 6 0 0 0 0 0 0 0 0 2
Nghost:         249.75 ave         250 max         249 min
Histogram: 2 0 0 0 0 0 0 0 0 6
Neighs:             14 ave          56 max           0 min
Histogram: 6 0 0 0 0 0 0 0 0 2
FullNghs:           28 ave         112 max           0 min
Histogram: 6 0 0 0 0 0 0 0 0 2

Total # of neighbors = 224
Ave neighs/atom = 112
Neighbor list builds = 0
Dangerous builds = 0
variable  natoms equal "count(all)"
variable xlength equal "lx"
variable  volume equal "vol"
variable  etotal equal "etotal"
variable    ecoh equal "pe/v_natoms"
print "${xlength}, ${volume}, ${etotal}, ${ecoh}" append lattice_cohesive_energy.txt screen no

next i
jump SELF loop

change_box all x scale 1.0025 y scale 1.0025 z scale 1.0025 remap
Changing box ...
  orthogonal box = (0.069224179 0.072867012 0.072867012) to (2.9907758 2.987133 2.987133)
  orthogonal box = (0.069224179 0.069224179 0.072867012) to (2.9907758 2.9907758 2.987133)
  orthogonal box = (0.069224179 0.069224179 0.069224179) to (2.9907758 2.9907758 2.9907758)

run 1
WARNING: No fixes with time integration, atoms won't move (src/verlet.cpp:60)
WARNING: Proc sub-domain size < neighbor skin, could lead to lost atoms (src/domain.cpp:966)
Per MPI rank memory allocation (min/avg/max) = 8.573 | 8.573 | 8.575 Mbytes
   Step         PotEng         TotEng           Lx             Ly             Lz           Volume         Press           Pxx            Pyy            Pzz      
        32  -10.197606     -10.197606      2.9215516      2.9215516      2.9215516      24.936799      219451.56      219451.56      219451.56      219451.56    
        33  -10.197606     -10.197606      2.9215516      2.9215516      2.9215516      24.936799      219451.56      219451.56      219451.56      219451.56    
Loop time of 0.00012975 on 8 procs for 1 steps with 2 atoms

Performance: 665.896 ns/day, 0.036 hours/ns, 7707.129 timesteps/s, 15.414 katom-step/s
0.0% CPU use with 8 MPI tasks x 1 OpenMP threads

MPI task timing breakdown:
Section |  min time  |  avg time  |  max time  |%varavg| %total
---------------------------------------------------------------
Pair    | 9e-05      | 9.225e-05  | 9.5e-05    |   0.0 | 71.10
Neigh   | 0          | 0          | 0          |   0.0 |  0.00
Comm    | 1.6e-05    | 2e-05      | 2.4e-05    |   0.0 | 15.41
Output  | 1.2e-05    | 1.3625e-05 | 1.7e-05    |   0.0 | 10.50
Modify  | 0          | 0          | 0          |   0.0 |  0.00
Other   |            | 3.875e-06  |            |       |  2.99

Nlocal:           0.25 ave           1 max           0 min
Histogram: 6 0 0 0 0 0 0 0 0 2
Nghost:         249.75 ave         250 max         249 min
Histogram: 2 0 0 0 0 0 0 0 0 6
Neighs:             14 ave          56 max           0 min
Histogram: 6 0 0 0 0 0 0 0 0 2
FullNghs:           28 ave         112 max           0 min
Histogram: 6 0 0 0 0 0 0 0 0 2

Total # of neighbors = 224
Ave neighs/atom = 112
Neighbor list builds = 0
Dangerous builds = 0
variable  natoms equal "count(all)"
variable xlength equal "lx"
variable  volume equal "vol"
variable  etotal equal "etotal"
variable    ecoh equal "pe/v_natoms"
print "${xlength}, ${volume}, ${etotal}, ${ecoh}" append lattice_cohesive_energy.txt screen no

next i
jump SELF loop

change_box all x scale 1.0025 y scale 1.0025 z scale 1.0025 remap
Changing box ...
  orthogonal box = (0.06557224 0.069224179 0.069224179) to (2.9944278 2.9907758 2.9907758)
  orthogonal box = (0.06557224 0.06557224 0.069224179) to (2.9944278 2.9944278 2.9907758)
  orthogonal box = (0.06557224 0.06557224 0.06557224) to (2.9944278 2.9944278 2.9944278)

run 1
WARNING: No fixes with time integration, atoms won't move (src/verlet.cpp:60)
WARNING: Proc sub-domain size < neighbor skin, could lead to lost atoms (src/domain.cpp:966)
Per MPI rank memory allocation (min/avg/max) = 8.573 | 8.573 | 8.575 Mbytes
   Step         PotEng         TotEng           Lx             Ly             Lz           Volume         Press           Pxx            Pyy            Pzz      
        33  -10.222388     -10.222388      2.9288555      2.9288555      2.9288555      25.124293      204163.64      204163.64      204163.64      204163.64    
        34  -10.222388     -10.222388      2.9288555      2.9288555      2.9288555      25.124293      204163.64      204163.64      204163.64      204163.64    
Loop time of 0.00013 on 8 procs for 1 steps with 2 atoms

Performance: 664.615 ns/day, 0.036 hours/ns, 7692.308 timesteps/s, 15.385 katom-step/s
0.0% CPU use with 8 MPI tasks x 1 OpenMP threads

MPI task timing breakdown:
Section |  min time  |  avg time  |  max time  |%varavg| %total
---------------------------------------------------------------
Pair    | 9.2e-05    | 9.35e-05   | 9.6e-05    |   0.0 | 71.92
Neigh   | 0          | 0          | 0          |   0.0 |  0.00
Comm    | 1.8e-05    | 1.95e-05   | 2.3e-05    |   0.0 | 15.00
Output  | 1.1e-05    | 1.275e-05  | 1.6e-05    |   0.0 |  9.81
Modify  | 0          | 2.5e-07    | 1e-06      |   0.0 |  0.19
Other   |            | 4e-06      |            |       |  3.08

Nlocal:           0.25 ave           1 max           0 min
Histogram: 6 0 0 0 0 0 0 0 0 2
Nghost:         249.75 ave         250 max         249 min
Histogram: 2 0 0 0 0 0 0 0 0 6
Neighs:             14 ave          56 max           0 min
Histogram: 6 0 0 0 0 0 0 0 0 2
FullNghs:           28 ave         112 max           0 min
Histogram: 6 0 0 0 0 0 0 0 0 2

Total # of neighbors = 224
Ave neighs/atom = 112
Neighbor list builds = 0
Dangerous builds = 0
variable  natoms equal "count(all)"
variable xlength equal "lx"
variable  volume equal "vol"
variable  etotal equal "etotal"
variable    ecoh equal "pe/v_natoms"
print "${xlength}, ${volume}, ${etotal}, ${ecoh}" append lattice_cohesive_energy.txt screen no

next i
jump SELF loop

change_box all x scale 1.0025 y scale 1.0025 z scale 1.0025 remap
Changing box ...
  orthogonal box = (0.06191117 0.06557224 0.06557224) to (2.9980888 2.9944278 2.9944278)
  orthogonal box = (0.06191117 0.06191117 0.06557224) to (2.9980888 2.9980888 2.9944278)
  orthogonal box = (0.06191117 0.06191117 0.06191117) to (2.9980888 2.9980888 2.9980888)

run 1
WARNING: No fixes with time integration, atoms won't move (src/verlet.cpp:60)
WARNING: Proc sub-domain size < neighbor skin, could lead to lost atoms (src/domain.cpp:966)
Per MPI rank memory allocation (min/avg/max) = 8.573 | 8.573 | 8.575 Mbytes
   Step         PotEng         TotEng           Lx             Ly             Lz           Volume         Press           Pxx            Pyy            Pzz      
        34  -10.245576     -10.245576      2.9361777      2.9361777      2.9361777      25.313196      189261.33      189261.33      189261.33      189261.33    
        35  -10.245576     -10.245576      2.9361777      2.9361777      2.9361777      25.313196      189261.33      189261.33      189261.33      189261.33    
Loop time of 0.000132375 on 8 procs for 1 steps with 2 atoms

Performance: 652.691 ns/day, 0.037 hours/ns, 7554.297 timesteps/s, 15.109 katom-step/s
0.0% CPU use with 8 MPI tasks x 1 OpenMP threads

MPI task timing breakdown:
Section |  min time  |  avg time  |  max time  |%varavg| %total
---------------------------------------------------------------
Pair    | 9.2e-05    | 9.475e-05  | 9.9e-05    |   0.0 | 71.58
Neigh   | 0          | 0          | 0          |   0.0 |  0.00
Comm    | 1.7e-05    | 2.125e-05  | 2.6e-05    |   0.0 | 16.05
Output  | 1e-05      | 1.2125e-05 | 1.5e-05    |   0.0 |  9.16
Modify  | 0          | 0          | 0          |   0.0 |  0.00
Other   |            | 4.25e-06   |            |       |  3.21

Nlocal:           0.25 ave           1 max           0 min
Histogram: 6 0 0 0 0 0 0 0 0 2
Nghost:         249.75 ave         250 max         249 min
Histogram: 2 0 0 0 0 0 0 0 0 6
Neighs:             14 ave          56 max           0 min
Histogram: 6 0 0 0 0 0 0 0 0 2
FullNghs:           28 ave         112 max           0 min
Histogram: 6 0 0 0 0 0 0 0 0 2

Total # of neighbors = 224
Ave neighs/atom = 112
Neighbor list builds = 0
Dangerous builds = 0
variable  natoms equal "count(all)"
variable xlength equal "lx"
variable  volume equal "vol"
variable  etotal equal "etotal"
variable    ecoh equal "pe/v_natoms"
print "${xlength}, ${volume}, ${etotal}, ${ecoh}" append lattice_cohesive_energy.txt screen no

next i
jump SELF loop

change_box all x scale 1.0025 y scale 1.0025 z scale 1.0025 remap
Changing box ...
  orthogonal box = (0.058240948 0.06191117 0.06191117) to (3.0017591 2.9980888 2.9980888)
  orthogonal box = (0.058240948 0.058240948 0.06191117) to (3.0017591 3.0017591 2.9980888)
  orthogonal box = (0.058240948 0.058240948 0.058240948) to (3.0017591 3.0017591 3.0017591)

run 1
WARNING: No fixes with time integration, atoms won't move (src/verlet.cpp:60)
WARNING: Proc sub-domain size < neighbor skin, could lead to lost atoms (src/domain.cpp:966)
Per MPI rank memory allocation (min/avg/max) = 8.573 | 8.573 | 8.575 Mbytes
   Step         PotEng         TotEng           Lx             Ly             Lz           Volume         Press           Pxx            Pyy            Pzz      
        35  -10.267191     -10.267191      2.9435181      2.9435181      2.9435181      25.50352       174737.76      174737.76      174737.76      174737.76    
        36  -10.267191     -10.267191      2.9435181      2.9435181      2.9435181      25.50352       174737.76      174737.76      174737.76      174737.76    
Loop time of 0.000126875 on 8 procs for 1 steps with 2 atoms

Performance: 680.985 ns/day, 0.035 hours/ns, 7881.773 timesteps/s, 15.764 katom-step/s
0.0% CPU use with 8 MPI tasks x 1 OpenMP threads

MPI task timing breakdown:
Section |  min time  |  avg time  |  max time  |%varavg| %total
---------------------------------------------------------------
Pair    | 8.9e-05    | 9.0375e-05 | 9.3e-05    |   0.0 | 71.23
Neigh   | 0          | 0          | 0          |   0.0 |  0.00
Comm    | 1.8e-05    | 2.025e-05  | 2.4e-05    |   0.0 | 15.96
Output  | 1e-05      | 1.2375e-05 | 1.5e-05    |   0.0 |  9.75
Modify  | 0          | 2.5e-07    | 1e-06      |   0.0 |  0.20
Other   |            | 3.625e-06  |            |       |  2.86

Nlocal:           0.25 ave           1 max           0 min
Histogram: 6 0 0 0 0 0 0 0 0 2
Nghost:         249.75 ave         250 max         249 min
Histogram: 2 0 0 0 0 0 0 0 0 6
Neighs:             14 ave          56 max           0 min
Histogram: 6 0 0 0 0 0 0 0 0 2
FullNghs:           28 ave         112 max           0 min
Histogram: 6 0 0 0 0 0 0 0 0 2

Total # of neighbors = 224
Ave neighs/atom = 112
Neighbor list builds = 0
Dangerous builds = 0
variable  natoms equal "count(all)"
variable xlength equal "lx"
variable  volume equal "vol"
variable  etotal equal "etotal"
variable    ecoh equal "pe/v_natoms"
print "${xlength}, ${volume}, ${etotal}, ${ecoh}" append lattice_cohesive_energy.txt screen no

next i
jump SELF loop

change_box all x scale 1.0025 y scale 1.0025 z scale 1.0025 remap
Changing box ...
  orthogonal box = (0.054561551 0.058240948 0.058240948) to (3.0054384 3.0017591 3.0017591)
  orthogonal box = (0.054561551 0.054561551 0.058240948) to (3.0054384 3.0054384 3.0017591)
  orthogonal box = (0.054561551 0.054561551 0.054561551) to (3.0054384 3.0054384 3.0054384)

run 1
WARNING: No fixes with time integration, atoms won't move (src/verlet.cpp:60)
WARNING: Proc sub-domain size < neighbor skin, could lead to lost atoms (src/domain.cpp:966)
Per MPI rank memory allocation (min/avg/max) = 8.573 | 8.573 | 8.575 Mbytes
   Step         PotEng         TotEng           Lx             Ly             Lz           Volume         Press           Pxx            Pyy            Pzz      
        36  -10.287253     -10.287253      2.9508769      2.9508769      2.9508769      25.695275      160586.1       160586.1       160586.1       160586.1     
        37  -10.287253     -10.287253      2.9508769      2.9508769      2.9508769      25.695275      160586.1       160586.1       160586.1       160586.1     
Loop time of 0.000135 on 8 procs for 1 steps with 2 atoms

Performance: 640.000 ns/day, 0.038 hours/ns, 7407.407 timesteps/s, 14.815 katom-step/s
0.0% CPU use with 8 MPI tasks x 1 OpenMP threads

MPI task timing breakdown:
Section |  min time  |  avg time  |  max time  |%varavg| %total
---------------------------------------------------------------
Pair    | 9.5e-05    | 9.725e-05  | 0.0001     |   0.0 | 72.04
Neigh   | 0          | 0          | 0          |   0.0 |  0.00
Comm    | 1.8e-05    | 2.1125e-05 | 2.5e-05    |   0.0 | 15.65
Output  | 1.1e-05    | 1.25e-05   | 1.5e-05    |   0.0 |  9.26
Modify  | 0          | 0          | 0          |   0.0 |  0.00
Other   |            | 4.125e-06  |            |       |  3.06

Nlocal:           0.25 ave           1 max           0 min
Histogram: 6 0 0 0 0 0 0 0 0 2
Nghost:         249.75 ave         250 max         249 min
Histogram: 2 0 0 0 0 0 0 0 0 6
Neighs:             14 ave          56 max           0 min
Histogram: 6 0 0 0 0 0 0 0 0 2
FullNghs:           28 ave         112 max           0 min
Histogram: 6 0 0 0 0 0 0 0 0 2

Total # of neighbors = 224
Ave neighs/atom = 112
Neighbor list builds = 0
Dangerous builds = 0
variable  natoms equal "count(all)"
variable xlength equal "lx"
variable  volume equal "vol"
variable  etotal equal "etotal"
variable    ecoh equal "pe/v_natoms"
print "${xlength}, ${volume}, ${etotal}, ${ecoh}" append lattice_cohesive_energy.txt screen no

next i
jump SELF loop

change_box all x scale 1.0025 y scale 1.0025 z scale 1.0025 remap
Changing box ...
  orthogonal box = (0.050872955 0.054561551 0.054561551) to (3.009127 3.0054384 3.0054384)
  orthogonal box = (0.050872955 0.050872955 0.054561551) to (3.009127 3.009127 3.0054384)
  orthogonal box = (0.050872955 0.050872955 0.050872955) to (3.009127 3.009127 3.009127)

run 1
WARNING: No fixes with time integration, atoms won't move (src/verlet.cpp:60)
WARNING: Proc sub-domain size < neighbor skin, could lead to lost atoms (src/domain.cpp:966)
Per MPI rank memory allocation (min/avg/max) = 8.573 | 8.573 | 8.575 Mbytes
   Step         PotEng         TotEng           Lx             Ly             Lz           Volume         Press           Pxx            Pyy            Pzz      
        37  -10.305781     -10.305781      2.9582541      2.9582541      2.9582541      25.888472      146799.64      146799.64      146799.64      146799.64    
        38  -10.305781     -10.305781      2.9582541      2.9582541      2.9582541      25.888472      146799.64      146799.64      146799.64      146799.64    
Loop time of 0.000129875 on 8 procs for 1 steps with 2 atoms

Performance: 665.255 ns/day, 0.036 hours/ns, 7699.711 timesteps/s, 15.399 katom-step/s
0.0% CPU use with 8 MPI tasks x 1 OpenMP threads

MPI task timing breakdown:
Section |  min time  |  avg time  |  max time  |%varavg| %total
---------------------------------------------------------------
Pair    | 9.2e-05    | 9.35e-05   | 9.6e-05    |   0.0 | 71.99
Neigh   | 0          | 0          | 0          |   0.0 |  0.00
Comm    | 1.7e-05    | 1.9625e-05 | 2.2e-05    |   0.0 | 15.11
Output  | 1e-05      | 1.2625e-05 | 1.6e-05    |   0.0 |  9.72
Modify  | 0          | 1.25e-07   | 1e-06      |   0.0 |  0.10
Other   |            | 4e-06      |            |       |  3.08

Nlocal:           0.25 ave           1 max           0 min
Histogram: 6 0 0 0 0 0 0 0 0 2
Nghost:         249.75 ave         250 max         249 min
Histogram: 2 0 0 0 0 0 0 0 0 6
Neighs:             14 ave          56 max           0 min
Histogram: 6 0 0 0 0 0 0 0 0 2
FullNghs:           28 ave         112 max           0 min
Histogram: 6 0 0 0 0 0 0 0 0 2

Total # of neighbors = 224
Ave neighs/atom = 112
Neighbor list builds = 0
Dangerous builds = 0
variable  natoms equal "count(all)"
variable xlength equal "lx"
variable  volume equal "vol"
variable  etotal equal "etotal"
variable    ecoh equal "pe/v_natoms"
print "${xlength}, ${volume}, ${etotal}, ${ecoh}" append lattice_cohesive_energy.txt screen no

next i
jump SELF loop

change_box all x scale 1.0025 y scale 1.0025 z scale 1.0025 remap
Changing box ...
  orthogonal box = (0.047175137 0.050872955 0.050872955) to (3.0128249 3.009127 3.009127)
  orthogonal box = (0.047175137 0.047175137 0.050872955) to (3.0128249 3.0128249 3.009127)
  orthogonal box = (0.047175137 0.047175137 0.047175137) to (3.0128249 3.0128249 3.0128249)

run 1
WARNING: No fixes with time integration, atoms won't move (src/verlet.cpp:60)
WARNING: Proc sub-domain size < neighbor skin, could lead to lost atoms (src/domain.cpp:966)
Per MPI rank memory allocation (min/avg/max) = 8.573 | 8.573 | 8.575 Mbytes
   Step         PotEng         TotEng           Lx             Ly             Lz           Volume         Press           Pxx            Pyy            Pzz      
        38  -10.322796     -10.322796      2.9656497      2.9656497      2.9656497      26.083122      133371.79      133371.79      133371.79      133371.79    
        39  -10.322796     -10.322796      2.9656497      2.9656497      2.9656497      26.083122      133371.79      133371.79      133371.79      133371.79    
Loop time of 0.000132375 on 8 procs for 1 steps with 2 atoms

Performance: 652.691 ns/day, 0.037 hours/ns, 7554.297 timesteps/s, 15.109 katom-step/s
0.0% CPU use with 8 MPI tasks x 1 OpenMP threads

MPI task timing breakdown:
Section |  min time  |  avg time  |  max time  |%varavg| %total
---------------------------------------------------------------
Pair    | 9.2e-05    | 9.525e-05  | 9.8e-05    |   0.0 | 71.95
Neigh   | 0          | 0          | 0          |   0.0 |  0.00
Comm    | 1.5e-05    | 2.05e-05   | 2.6e-05    |   0.0 | 15.49
Output  | 1.1e-05    | 1.3125e-05 | 1.6e-05    |   0.0 |  9.92
Modify  | 0          | 0          | 0          |   0.0 |  0.00
Other   |            | 3.5e-06    |            |       |  2.64

Nlocal:           0.25 ave           1 max           0 min
Histogram: 6 0 0 0 0 0 0 0 0 2
Nghost:         249.75 ave         250 max         249 min
Histogram: 2 0 0 0 0 0 0 0 0 6
Neighs:             14 ave          56 max           0 min
Histogram: 6 0 0 0 0 0 0 0 0 2
FullNghs:           28 ave         112 max           0 min
Histogram: 6 0 0 0 0 0 0 0 0 2

Total # of neighbors = 224
Ave neighs/atom = 112
Neighbor list builds = 0
Dangerous builds = 0
variable  natoms equal "count(all)"
variable xlength equal "lx"
variable  volume equal "vol"
variable  etotal equal "etotal"
variable    ecoh equal "pe/v_natoms"
print "${xlength}, ${volume}, ${etotal}, ${ecoh}" append lattice_cohesive_energy.txt screen no

next i
jump SELF loop

change_box all x scale 1.0025 y scale 1.0025 z scale 1.0025 remap
Changing box ...
  orthogonal box = (0.043468075 0.047175137 0.047175137) to (3.0165319 3.0128249 3.0128249)
  orthogonal box = (0.043468075 0.043468075 0.047175137) to (3.0165319 3.0165319 3.0128249)
  orthogonal box = (0.043468075 0.043468075 0.043468075) to (3.0165319 3.0165319 3.0165319)

run 1
WARNING: No fixes with time integration, atoms won't move (src/verlet.cpp:60)
WARNING: Proc sub-domain size < neighbor skin, could lead to lost atoms (src/domain.cpp:966)
Per MPI rank memory allocation (min/avg/max) = 8.573 | 8.573 | 8.575 Mbytes
   Step         PotEng         TotEng           Lx             Ly             Lz           Volume         Press           Pxx            Pyy            Pzz      
        39  -10.338316     -10.338316      2.9730639      2.9730639      2.9730639      26.279234      120295.99      120295.99      120295.99      120295.99    
        40  -10.338316     -10.338316      2.9730639      2.9730639      2.9730639      26.279234      120295.99      120295.99      120295.99      120295.99    
Loop time of 0.000127 on 8 procs for 1 steps with 2 atoms

Performance: 680.315 ns/day, 0.035 hours/ns, 7874.016 timesteps/s, 15.748 katom-step/s
0.0% CPU use with 8 MPI tasks x 1 OpenMP threads

MPI task timing breakdown:
Section |  min time  |  avg time  |  max time  |%varavg| %total
---------------------------------------------------------------
Pair    | 9e-05      | 9.1375e-05 | 9.3e-05    |   0.0 | 71.95
Neigh   | 0          | 0          | 0          |   0.0 |  0.00
Comm    | 1.7e-05    | 1.9e-05    | 2.1e-05    |   0.0 | 14.96
Output  | 1.1e-05    | 1.275e-05  | 1.5e-05    |   0.0 | 10.04
Modify  | 0          | 1.25e-07   | 1e-06      |   0.0 |  0.10
Other   |            | 3.75e-06   |            |       |  2.95

Nlocal:           0.25 ave           1 max           0 min
Histogram: 6 0 0 0 0 0 0 0 0 2
Nghost:         249.75 ave         250 max         249 min
Histogram: 2 0 0 0 0 0 0 0 0 6
Neighs:             14 ave          56 max           0 min
Histogram: 6 0 0 0 0 0 0 0 0 2
FullNghs:           28 ave         112 max           0 min
Histogram: 6 0 0 0 0 0 0 0 0 2

Total # of neighbors = 224
Ave neighs/atom = 112
Neighbor list builds = 0
Dangerous builds = 0
variable  natoms equal "count(all)"
variable xlength equal "lx"
variable  volume equal "vol"
variable  etotal equal "etotal"
variable    ecoh equal "pe/v_natoms"
print "${xlength}, ${volume}, ${etotal}, ${ecoh}" append lattice_cohesive_energy.txt screen no

next i
jump SELF loop

change_box all x scale 1.0025 y scale 1.0025 z scale 1.0025 remap
Changing box ...
  orthogonal box = (0.039751745 0.043468075 0.043468075) to (3.0202483 3.0165319 3.0165319)
  orthogonal box = (0.039751745 0.039751745 0.043468075) to (3.0202483 3.0202483 3.0165319)
  orthogonal box = (0.039751745 0.039751745 0.039751745) to (3.0202483 3.0202483 3.0202483)

run 1
WARNING: No fixes with time integration, atoms won't move (src/verlet.cpp:60)
WARNING: Proc sub-domain size < neighbor skin, could lead to lost atoms (src/domain.cpp:966)
Per MPI rank memory allocation (min/avg/max) = 8.573 | 8.573 | 8.575 Mbytes
   Step         PotEng         TotEng           Lx             Ly             Lz           Volume         Press           Pxx            Pyy            Pzz      
        40  -10.352362     -10.352362      2.9804965      2.9804965      2.9804965      26.476822      107565.81      107565.81      107565.81      107565.81    
        41  -10.352362     -10.352362      2.9804965      2.9804965      2.9804965      26.476822      107565.81      107565.81      107565.81      107565.81    
Loop time of 0.00013875 on 8 procs for 1 steps with 2 atoms

Performance: 622.703 ns/day, 0.039 hours/ns, 7207.207 timesteps/s, 14.414 katom-step/s
0.0% CPU use with 8 MPI tasks x 1 OpenMP threads

MPI task timing breakdown:
Section |  min time  |  avg time  |  max time  |%varavg| %total
---------------------------------------------------------------
Pair    | 9.5e-05    | 9.7375e-05 | 9.9e-05    |   0.0 | 70.18
Neigh   | 0          | 0          | 0          |   0.0 |  0.00
Comm    | 1.7e-05    | 2.125e-05  | 2.5e-05    |   0.0 | 15.32
Output  | 1.1e-05    | 1.375e-05  | 1.9e-05    |   0.0 |  9.91
Modify  | 0          | 1.25e-07   | 1e-06      |   0.0 |  0.09
Other   |            | 6.25e-06   |            |       |  4.50

Nlocal:           0.25 ave           1 max           0 min
Histogram: 6 0 0 0 0 0 0 0 0 2
Nghost:         249.75 ave         250 max         249 min
Histogram: 2 0 0 0 0 0 0 0 0 6
Neighs:             14 ave          56 max           0 min
Histogram: 6 0 0 0 0 0 0 0 0 2
FullNghs:           28 ave         112 max           0 min
Histogram: 6 0 0 0 0 0 0 0 0 2

Total # of neighbors = 224
Ave neighs/atom = 112
Neighbor list builds = 0
Dangerous builds = 0
variable  natoms equal "count(all)"
variable xlength equal "lx"
variable  volume equal "vol"
variable  etotal equal "etotal"
variable    ecoh equal "pe/v_natoms"
print "${xlength}, ${volume}, ${etotal}, ${ecoh}" append lattice_cohesive_energy.txt screen no

next i
jump SELF loop

change_box all x scale 1.0025 y scale 1.0025 z scale 1.0025 remap
Changing box ...
  orthogonal box = (0.036026124 0.039751745 0.039751745) to (3.0239739 3.0202483 3.0202483)
  orthogonal box = (0.036026124 0.036026124 0.039751745) to (3.0239739 3.0239739 3.0202483)
  orthogonal box = (0.036026124 0.036026124 0.036026124) to (3.0239739 3.0239739 3.0239739)

run 1
WARNING: No fixes with time integration, atoms won't move (src/verlet.cpp:60)
WARNING: Proc sub-domain size < neighbor skin, could lead to lost atoms (src/domain.cpp:966)
Per MPI rank memory allocation (min/avg/max) = 8.573 | 8.573 | 8.575 Mbytes
   Step         PotEng         TotEng           Lx             Ly             Lz           Volume         Press           Pxx            Pyy            Pzz      
        41  -10.364953     -10.364953      2.9879478      2.9879478      2.9879478      26.675895      95174.921      95174.921      95174.921      95174.921    
        42  -10.364953     -10.364953      2.9879478      2.9879478      2.9879478      26.675895      95174.921      95174.921      95174.921      95174.921    
Loop time of 0.000130375 on 8 procs for 1 steps with 2 atoms

Performance: 662.704 ns/day, 0.036 hours/ns, 7670.182 timesteps/s, 15.340 katom-step/s
0.0% CPU use with 8 MPI tasks x 1 OpenMP threads

MPI task timing breakdown:
Section |  min time  |  avg time  |  max time  |%varavg| %total
---------------------------------------------------------------
Pair    | 8.8e-05    | 9.1875e-05 | 9.7e-05    |   0.0 | 70.47
Neigh   | 0          | 0          | 0          |   0.0 |  0.00
Comm    | 1.6e-05    | 2.1875e-05 | 2.7e-05    |   0.0 | 16.78
Output  | 1e-05      | 1.325e-05  | 1.8e-05    |   0.0 | 10.16
Modify  | 0          | 0          | 0          |   0.0 |  0.00
Other   |            | 3.375e-06  |            |       |  2.59

Nlocal:           0.25 ave           1 max           0 min
Histogram: 6 0 0 0 0 0 0 0 0 2
Nghost:         249.75 ave         250 max         249 min
Histogram: 2 0 0 0 0 0 0 0 0 6
Neighs:             14 ave          56 max           0 min
Histogram: 6 0 0 0 0 0 0 0 0 2
FullNghs:           28 ave         112 max           0 min
Histogram: 6 0 0 0 0 0 0 0 0 2

Total # of neighbors = 224
Ave neighs/atom = 112
Neighbor list builds = 0
Dangerous builds = 0
variable  natoms equal "count(all)"
variable xlength equal "lx"
variable  volume equal "vol"
variable  etotal equal "etotal"
variable    ecoh equal "pe/v_natoms"
print "${xlength}, ${volume}, ${etotal}, ${ecoh}" append lattice_cohesive_energy.txt screen no

next i
jump SELF loop

change_box all x scale 1.0025 y scale 1.0025 z scale 1.0025 remap
Changing box ...
  orthogonal box = (0.03229119 0.036026124 0.036026124) to (3.0277088 3.0239739 3.0239739)
  orthogonal box = (0.03229119 0.03229119 0.036026124) to (3.0277088 3.0277088 3.0239739)
  orthogonal box = (0.03229119 0.03229119 0.03229119) to (3.0277088 3.0277088 3.0277088)

run 1
WARNING: No fixes with time integration, atoms won't move (src/verlet.cpp:60)
WARNING: Proc sub-domain size < neighbor skin, could lead to lost atoms (src/domain.cpp:966)
Per MPI rank memory allocation (min/avg/max) = 8.573 | 8.573 | 8.575 Mbytes
   Step         PotEng         TotEng           Lx             Ly             Lz           Volume         Press           Pxx            Pyy            Pzz      
        42  -10.376109     -10.376109      2.9954176      2.9954176      2.9954176      26.876465      83117.046      83117.046      83117.046      83117.046    
        43  -10.376109     -10.376109      2.9954176      2.9954176      2.9954176      26.876465      83117.046      83117.046      83117.046      83117.046    
Loop time of 0.000132625 on 8 procs for 1 steps with 2 atoms

Performance: 651.461 ns/day, 0.037 hours/ns, 7540.057 timesteps/s, 15.080 katom-step/s
0.0% CPU use with 8 MPI tasks x 1 OpenMP threads

MPI task timing breakdown:
Section |  min time  |  avg time  |  max time  |%varavg| %total
---------------------------------------------------------------
Pair    | 9.1e-05    | 9.2625e-05 | 9.5e-05    |   0.0 | 69.84
Neigh   | 0          | 0          | 0          |   0.0 |  0.00
Comm    | 1.8e-05    | 1.9875e-05 | 2.3e-05    |   0.0 | 14.99
Output  | 1.2e-05    | 1.3375e-05 | 1.5e-05    |   0.0 | 10.08
Modify  | 0          | 1.25e-07   | 1e-06      |   0.0 |  0.09
Other   |            | 6.625e-06  |            |       |  5.00

Nlocal:           0.25 ave           1 max           0 min
Histogram: 6 0 0 0 0 0 0 0 0 2
Nghost:         249.75 ave         250 max         249 min
Histogram: 2 0 0 0 0 0 0 0 0 6
Neighs:             14 ave          56 max           0 min
Histogram: 6 0 0 0 0 0 0 0 0 2
FullNghs:           28 ave         112 max           0 min
Histogram: 6 0 0 0 0 0 0 0 0 2

Total # of neighbors = 224
Ave neighs/atom = 112
Neighbor list builds = 0
Dangerous builds = 0
variable  natoms equal "count(all)"
variable xlength equal "lx"
variable  volume equal "vol"
variable  etotal equal "etotal"
variable    ecoh equal "pe/v_natoms"
print "${xlength}, ${volume}, ${etotal}, ${ecoh}" append lattice_cohesive_energy.txt screen no

next i
jump SELF loop

change_box all x scale 1.0025 y scale 1.0025 z scale 1.0025 remap
Changing box ...
  orthogonal box = (0.028546918 0.03229119 0.03229119) to (3.0314531 3.0277088 3.0277088)
  orthogonal box = (0.028546918 0.028546918 0.03229119) to (3.0314531 3.0314531 3.0277088)
  orthogonal box = (0.028546918 0.028546918 0.028546918) to (3.0314531 3.0314531 3.0314531)

run 1
WARNING: No fixes with time integration, atoms won't move (src/verlet.cpp:60)
WARNING: Proc sub-domain size < neighbor skin, could lead to lost atoms (src/domain.cpp:966)
Per MPI rank memory allocation (min/avg/max) = 8.573 | 8.573 | 8.575 Mbytes
   Step         PotEng         TotEng           Lx             Ly             Lz           Volume         Press           Pxx            Pyy            Pzz      
        43  -10.385848     -10.385848      3.0029062      3.0029062      3.0029062      27.078542      71386.032      71386.032      71386.032      71386.032    
        44  -10.385848     -10.385848      3.0029062      3.0029062      3.0029062      27.078542      71386.032      71386.032      71386.032      71386.032    
Loop time of 0.000129625 on 8 procs for 1 steps with 2 atoms

Performance: 666.538 ns/day, 0.036 hours/ns, 7714.561 timesteps/s, 15.429 katom-step/s
0.0% CPU use with 8 MPI tasks x 1 OpenMP threads

MPI task timing breakdown:
Section |  min time  |  avg time  |  max time  |%varavg| %total
---------------------------------------------------------------
Pair    | 9e-05      | 9.2125e-05 | 9.5e-05    |   0.0 | 71.07
Neigh   | 0          | 0          | 0          |   0.0 |  0.00
Comm    | 1.7e-05    | 2.0625e-05 | 2.4e-05    |   0.0 | 15.91
Output  | 1e-05      | 1.3e-05    | 1.8e-05    |   0.0 | 10.03
Modify  | 0          | 2.5e-07    | 1e-06      |   0.0 |  0.19
Other   |            | 3.625e-06  |            |       |  2.80

Nlocal:           0.25 ave           1 max           0 min
Histogram: 6 0 0 0 0 0 0 0 0 2
Nghost:         249.75 ave         250 max         249 min
Histogram: 2 0 0 0 0 0 0 0 0 6
Neighs:             14 ave          56 max           0 min
Histogram: 6 0 0 0 0 0 0 0 0 2
FullNghs:           28 ave         112 max           0 min
Histogram: 6 0 0 0 0 0 0 0 0 2

Total # of neighbors = 224
Ave neighs/atom = 112
Neighbor list builds = 0
Dangerous builds = 0
variable  natoms equal "count(all)"
variable xlength equal "lx"
variable  volume equal "vol"
variable  etotal equal "etotal"
variable    ecoh equal "pe/v_natoms"
print "${xlength}, ${volume}, ${etotal}, ${ecoh}" append lattice_cohesive_energy.txt screen no

next i
jump SELF loop

change_box all x scale 1.0025 y scale 1.0025 z scale 1.0025 remap
Changing box ...
  orthogonal box = (0.024793285 0.028546918 0.028546918) to (3.0352067 3.0314531 3.0314531)
  orthogonal box = (0.024793285 0.024793285 0.028546918) to (3.0352067 3.0352067 3.0314531)
  orthogonal box = (0.024793285 0.024793285 0.024793285) to (3.0352067 3.0352067 3.0352067)

run 1
WARNING: No fixes with time integration, atoms won't move (src/verlet.cpp:60)
WARNING: Proc sub-domain size < neighbor skin, could lead to lost atoms (src/domain.cpp:966)
Per MPI rank memory allocation (min/avg/max) = 8.573 | 8.573 | 8.575 Mbytes
   Step         PotEng         TotEng           Lx             Ly             Lz           Volume         Press           Pxx            Pyy            Pzz      
        44  -10.39419      -10.39419       3.0104134      3.0104134      3.0104134      27.28214       59975.795      59975.795      59975.795      59975.795    
        45  -10.39419      -10.39419       3.0104134      3.0104134      3.0104134      27.28214       59975.795      59975.795      59975.795      59975.795    
Loop time of 0.000139375 on 8 procs for 1 steps with 2 atoms

Performance: 619.910 ns/day, 0.039 hours/ns, 7174.888 timesteps/s, 14.350 katom-step/s
0.0% CPU use with 8 MPI tasks x 1 OpenMP threads

MPI task timing breakdown:
Section |  min time  |  avg time  |  max time  |%varavg| %total
---------------------------------------------------------------
Pair    | 9e-05      | 9.3875e-05 | 9.8e-05    |   0.0 | 67.35
Neigh   | 0          | 0          | 0          |   0.0 |  0.00
Comm    | 1.8e-05    | 2.075e-05  | 2.5e-05    |   0.0 | 14.89
Output  | 1.1e-05    | 1.4e-05    | 2e-05      |   0.0 | 10.04
Modify  | 0          | 1.25e-07   | 1e-06      |   0.0 |  0.09
Other   |            | 1.063e-05  |            |       |  7.62

Nlocal:           0.25 ave           1 max           0 min
Histogram: 6 0 0 0 0 0 0 0 0 2
Nghost:         249.75 ave         250 max         249 min
Histogram: 2 0 0 0 0 0 0 0 0 6
Neighs:             14 ave          56 max           0 min
Histogram: 6 0 0 0 0 0 0 0 0 2
FullNghs:           28 ave         112 max           0 min
Histogram: 6 0 0 0 0 0 0 0 0 2

Total # of neighbors = 224
Ave neighs/atom = 112
Neighbor list builds = 0
Dangerous builds = 0
variable  natoms equal "count(all)"
variable xlength equal "lx"
variable  volume equal "vol"
variable  etotal equal "etotal"
variable    ecoh equal "pe/v_natoms"
print "${xlength}, ${volume}, ${etotal}, ${ecoh}" append lattice_cohesive_energy.txt screen no

next i
jump SELF loop

change_box all x scale 1.0025 y scale 1.0025 z scale 1.0025 remap
Changing box ...
  orthogonal box = (0.021030268 0.024793285 0.024793285) to (3.0389697 3.0352067 3.0352067)
  orthogonal box = (0.021030268 0.021030268 0.024793285) to (3.0389697 3.0389697 3.0352067)
  orthogonal box = (0.021030268 0.021030268 0.021030268) to (3.0389697 3.0389697 3.0389697)

run 1
WARNING: No fixes with time integration, atoms won't move (src/verlet.cpp:60)
WARNING: Proc sub-domain size < neighbor skin, could lead to lost atoms (src/domain.cpp:966)
Per MPI rank memory allocation (min/avg/max) = 8.573 | 8.573 | 8.575 Mbytes
   Step         PotEng         TotEng           Lx             Ly             Lz           Volume         Press           Pxx            Pyy            Pzz      
        45  -10.401154     -10.401154      3.0179395      3.0179395      3.0179395      27.487268      48880.329      48880.329      48880.329      48880.329    
        46  -10.401154     -10.401154      3.0179395      3.0179395      3.0179395      27.487268      48880.329      48880.329      48880.329      48880.329    
Loop time of 0.000170875 on 8 procs for 1 steps with 2 atoms

Performance: 505.633 ns/day, 0.047 hours/ns, 5852.231 timesteps/s, 11.704 katom-step/s
1143.0% CPU use with 8 MPI tasks x 1 OpenMP threads

MPI task timing breakdown:
Section |  min time  |  avg time  |  max time  |%varavg| %total
---------------------------------------------------------------
Pair    | 0.000111   | 0.000117   | 0.000126   |   0.0 | 68.47
Neigh   | 0          | 0          | 0          |   0.0 |  0.00
Comm    | 2.1e-05    | 2.8875e-05 | 3.7e-05    |   0.0 | 16.90
Output  | 1.4e-05    | 1.7e-05    | 2.1e-05    |   0.0 |  9.95
Modify  | 0          | 0          | 0          |   0.0 |  0.00
Other   |            | 8e-06      |            |       |  4.68

Nlocal:           0.25 ave           1 max           0 min
Histogram: 6 0 0 0 0 0 0 0 0 2
Nghost:         249.75 ave         250 max         249 min
Histogram: 2 0 0 0 0 0 0 0 0 6
Neighs:             14 ave          56 max           0 min
Histogram: 6 0 0 0 0 0 0 0 0 2
FullNghs:           28 ave         112 max           0 min
Histogram: 6 0 0 0 0 0 0 0 0 2

Total # of neighbors = 224
Ave neighs/atom = 112
Neighbor list builds = 0
Dangerous builds = 0
variable  natoms equal "count(all)"
variable xlength equal "lx"
variable  volume equal "vol"
variable  etotal equal "etotal"
variable    ecoh equal "pe/v_natoms"
print "${xlength}, ${volume}, ${etotal}, ${ecoh}" append lattice_cohesive_energy.txt screen no

next i
jump SELF loop

change_box all x scale 1.0025 y scale 1.0025 z scale 1.0025 remap
Changing box ...
  orthogonal box = (0.017257844 0.021030268 0.021030268) to (3.0427422 3.0389697 3.0389697)
  orthogonal box = (0.017257844 0.017257844 0.021030268) to (3.0427422 3.0427422 3.0389697)
  orthogonal box = (0.017257844 0.017257844 0.017257844) to (3.0427422 3.0427422 3.0427422)

run 1
WARNING: No fixes with time integration, atoms won't move (src/verlet.cpp:60)
WARNING: Proc sub-domain size < neighbor skin, could lead to lost atoms (src/domain.cpp:966)
Per MPI rank memory allocation (min/avg/max) = 8.573 | 8.573 | 8.575 Mbytes
   Step         PotEng         TotEng           Lx             Ly             Lz           Volume         Press           Pxx            Pyy            Pzz      
        46  -10.40676      -10.40676       3.0254843      3.0254843      3.0254843      27.693938      38093.733      38093.733      38093.733      38093.733    
        47  -10.40676      -10.40676       3.0254843      3.0254843      3.0254843      27.693938      38093.733      38093.733      38093.733      38093.733    
Loop time of 0.000162125 on 8 procs for 1 steps with 2 atoms

Performance: 532.922 ns/day, 0.045 hours/ns, 6168.080 timesteps/s, 12.336 katom-step/s
0.0% CPU use with 8 MPI tasks x 1 OpenMP threads

MPI task timing breakdown:
Section |  min time  |  avg time  |  max time  |%varavg| %total
---------------------------------------------------------------
Pair    | 0.000102   | 0.0001095  | 0.000118   |   0.0 | 67.54
Neigh   | 0          | 0          | 0          |   0.0 |  0.00
Comm    | 2e-05      | 2.925e-05  | 3.8e-05    |   0.0 | 18.04
Output  | 1.3e-05    | 1.625e-05  | 2e-05      |   0.0 | 10.02
Modify  | 0          | 1.25e-07   | 1e-06      |   0.0 |  0.08
Other   |            | 7e-06      |            |       |  4.32

Nlocal:           0.25 ave           1 max           0 min
Histogram: 6 0 0 0 0 0 0 0 0 2
Nghost:         249.75 ave         250 max         249 min
Histogram: 2 0 0 0 0 0 0 0 0 6
Neighs:             14 ave          56 max           0 min
Histogram: 6 0 0 0 0 0 0 0 0 2
FullNghs:           28 ave         112 max           0 min
Histogram: 6 0 0 0 0 0 0 0 0 2

Total # of neighbors = 224
Ave neighs/atom = 112
Neighbor list builds = 0
Dangerous builds = 0
variable  natoms equal "count(all)"
variable xlength equal "lx"
variable  volume equal "vol"
variable  etotal equal "etotal"
variable    ecoh equal "pe/v_natoms"
print "${xlength}, ${volume}, ${etotal}, ${ecoh}" append lattice_cohesive_energy.txt screen no

next i
jump SELF loop

change_box all x scale 1.0025 y scale 1.0025 z scale 1.0025 remap
Changing box ...
  orthogonal box = (0.013475988 0.017257844 0.017257844) to (3.046524 3.0427422 3.0427422)
  orthogonal box = (0.013475988 0.013475988 0.017257844) to (3.046524 3.046524 3.0427422)
  orthogonal box = (0.013475988 0.013475988 0.013475988) to (3.046524 3.046524 3.046524)

run 1
WARNING: No fixes with time integration, atoms won't move (src/verlet.cpp:60)
WARNING: Proc sub-domain size < neighbor skin, could lead to lost atoms (src/domain.cpp:966)
Per MPI rank memory allocation (min/avg/max) = 8.573 | 8.573 | 8.575 Mbytes
   Step         PotEng         TotEng           Lx             Ly             Lz           Volume         Press           Pxx            Pyy            Pzz      
        47  -10.411025     -10.411025      3.033048       3.033048       3.033048       27.902162      27610.173      27610.173      27610.173      27610.173    
        48  -10.411025     -10.411025      3.033048       3.033048       3.033048       27.902162      27610.173      27610.173      27610.173      27610.173    
Loop time of 0.000158125 on 8 procs for 1 steps with 2 atoms

Performance: 546.403 ns/day, 0.044 hours/ns, 6324.111 timesteps/s, 12.648 katom-step/s
0.0% CPU use with 8 MPI tasks x 1 OpenMP threads

MPI task timing breakdown:
Section |  min time  |  avg time  |  max time  |%varavg| %total
---------------------------------------------------------------
Pair    | 0.000102   | 0.00010762 | 0.000115   |   0.0 | 68.06
Neigh   | 0          | 0          | 0          |   0.0 |  0.00
Comm    | 2e-05      | 2.775e-05  | 3.5e-05    |   0.0 | 17.55
Output  | 1.3e-05    | 1.6e-05    | 2.1e-05    |   0.0 | 10.12
Modify  | 0          | 0          | 0          |   0.0 |  0.00
Other   |            | 6.75e-06   |            |       |  4.27

Nlocal:           0.25 ave           1 max           0 min
Histogram: 6 0 0 0 0 0 0 0 0 2
Nghost:         249.75 ave         250 max         249 min
Histogram: 2 0 0 0 0 0 0 0 0 6
Neighs:             14 ave          56 max           0 min
Histogram: 6 0 0 0 0 0 0 0 0 2
FullNghs:           28 ave         112 max           0 min
Histogram: 6 0 0 0 0 0 0 0 0 2

Total # of neighbors = 224
Ave neighs/atom = 112
Neighbor list builds = 0
Dangerous builds = 0
variable  natoms equal "count(all)"
variable xlength equal "lx"
variable  volume equal "vol"
variable  etotal equal "etotal"
variable    ecoh equal "pe/v_natoms"
print "${xlength}, ${volume}, ${etotal}, ${ecoh}" append lattice_cohesive_energy.txt screen no

next i
jump SELF loop

change_box all x scale 1.0025 y scale 1.0025 z scale 1.0025 remap
Changing box ...
  orthogonal box = (0.0096846783 0.013475988 0.013475988) to (3.0503153 3.046524 3.046524)
  orthogonal box = (0.0096846783 0.0096846783 0.013475988) to (3.0503153 3.0503153 3.046524)
  orthogonal box = (0.0096846783 0.0096846783 0.0096846783) to (3.0503153 3.0503153 3.0503153)

run 1
WARNING: No fixes with time integration, atoms won't move (src/verlet.cpp:60)
WARNING: Proc sub-domain size < neighbor skin, could lead to lost atoms (src/domain.cpp:966)
Per MPI rank memory allocation (min/avg/max) = 8.573 | 8.573 | 8.575 Mbytes
   Step         PotEng         TotEng           Lx             Ly             Lz           Volume         Press           Pxx            Pyy            Pzz      
        48  -10.413969     -10.413969      3.0406306      3.0406306      3.0406306      28.111952      17423.91       17423.91       17423.91       17423.91     
        49  -10.413969     -10.413969      3.0406306      3.0406306      3.0406306      28.111952      17423.91       17423.91       17423.91       17423.91     
Loop time of 0.00016025 on 8 procs for 1 steps with 2 atoms

Performance: 539.158 ns/day, 0.045 hours/ns, 6240.250 timesteps/s, 12.480 katom-step/s
0.0% CPU use with 8 MPI tasks x 1 OpenMP threads

MPI task timing breakdown:
Section |  min time  |  avg time  |  max time  |%varavg| %total
---------------------------------------------------------------
Pair    | 0.000105   | 0.0001085  | 0.000115   |   0.0 | 67.71
Neigh   | 0          | 0          | 0          |   0.0 |  0.00
Comm    | 2.2e-05    | 2.75e-05   | 3.1e-05    |   0.0 | 17.16
Output  | 1.4e-05    | 1.7125e-05 | 2.1e-05    |   0.0 | 10.69
Modify  | 0          | 3.75e-07   | 1e-06      |   0.0 |  0.23
Other   |            | 6.75e-06   |            |       |  4.21

Nlocal:           0.25 ave           1 max           0 min
Histogram: 6 0 0 0 0 0 0 0 0 2
Nghost:         249.75 ave         250 max         249 min
Histogram: 2 0 0 0 0 0 0 0 0 6
Neighs:             14 ave          56 max           0 min
Histogram: 6 0 0 0 0 0 0 0 0 2
FullNghs:           28 ave         112 max           0 min
Histogram: 6 0 0 0 0 0 0 0 0 2

Total # of neighbors = 224
Ave neighs/atom = 112
Neighbor list builds = 0
Dangerous builds = 0
variable  natoms equal "count(all)"
variable xlength equal "lx"
variable  volume equal "vol"
variable  etotal equal "etotal"
variable    ecoh equal "pe/v_natoms"
print "${xlength}, ${volume}, ${etotal}, ${ecoh}" append lattice_cohesive_energy.txt screen no

next i
jump SELF loop

change_box all x scale 1.0025 y scale 1.0025 z scale 1.0025 remap
Changing box ...
  orthogonal box = (0.00588389 0.0096846783 0.0096846783) to (3.0541161 3.0503153 3.0503153)
  orthogonal box = (0.00588389 0.00588389 0.0096846783) to (3.0541161 3.0541161 3.0503153)
  orthogonal box = (0.00588389 0.00588389 0.00588389) to (3.0541161 3.0541161 3.0541161)

run 1
WARNING: No fixes with time integration, atoms won't move (src/verlet.cpp:60)
WARNING: Proc sub-domain size < neighbor skin, could lead to lost atoms (src/domain.cpp:966)
Per MPI rank memory allocation (min/avg/max) = 8.573 | 8.573 | 8.575 Mbytes
   Step         PotEng         TotEng           Lx             Ly             Lz           Volume         Press           Pxx            Pyy            Pzz      
        49  -10.415611     -10.415611      3.0482322      3.0482322      3.0482322      28.323319      7529.2939      7529.2939      7529.2939      7529.2939    
        50  -10.415611     -10.415611      3.0482322      3.0482322      3.0482322      28.323319      7529.2939      7529.2939      7529.2939      7529.2939    
Loop time of 0.000218 on 8 procs for 1 steps with 2 atoms

Performance: 396.330 ns/day, 0.061 hours/ns, 4587.156 timesteps/s, 9.174 katom-step/s
0.0% CPU use with 8 MPI tasks x 1 OpenMP threads

MPI task timing breakdown:
Section |  min time  |  avg time  |  max time  |%varavg| %total
---------------------------------------------------------------
Pair    | 0.000114   | 0.0001395  | 0.000174   |   0.0 | 63.99
Neigh   | 0          | 0          | 0          |   0.0 |  0.00
Comm    | 2e-05      | 4.8125e-05 | 8.2e-05    |   0.0 | 22.08
Output  | 1.5e-05    | 2.3125e-05 | 4.3e-05    |   0.0 | 10.61
Modify  | 0          | 2.5e-07    | 1e-06      |   0.0 |  0.11
Other   |            | 7e-06      |            |       |  3.21

Nlocal:           0.25 ave           1 max           0 min
Histogram: 6 0 0 0 0 0 0 0 0 2
Nghost:         249.75 ave         250 max         249 min
Histogram: 2 0 0 0 0 0 0 0 0 6
Neighs:             14 ave          56 max           0 min
Histogram: 6 0 0 0 0 0 0 0 0 2
FullNghs:           28 ave         112 max           0 min
Histogram: 6 0 0 0 0 0 0 0 0 2

Total # of neighbors = 224
Ave neighs/atom = 112
Neighbor list builds = 0
Dangerous builds = 0
variable  natoms equal "count(all)"
variable xlength equal "lx"
variable  volume equal "vol"
variable  etotal equal "etotal"
variable    ecoh equal "pe/v_natoms"
print "${xlength}, ${volume}, ${etotal}, ${ecoh}" append lattice_cohesive_energy.txt screen no

next i
jump SELF loop

change_box all x scale 1.0025 y scale 1.0025 z scale 1.0025 remap
Changing box ...
  orthogonal box = (0.0020735998 0.00588389 0.00588389) to (3.0579264 3.0541161 3.0541161)
  orthogonal box = (0.0020735998 0.0020735998 0.00588389) to (3.0579264 3.0579264 3.0541161)
  orthogonal box = (0.0020735998 0.0020735998 0.0020735998) to (3.0579264 3.0579264 3.0579264)

run 1
WARNING: No fixes with time integration, atoms won't move (src/verlet.cpp:60)
WARNING: Proc sub-domain size < neighbor skin, could lead to lost atoms (src/domain.cpp:966)
Per MPI rank memory allocation (min/avg/max) = 8.573 | 8.573 | 8.575 Mbytes
   Step         PotEng         TotEng           Lx             Ly             Lz           Volume         Press           Pxx            Pyy            Pzz      
        50  -10.41597      -10.41597       3.0558528      3.0558528      3.0558528      28.536276     -2079.268      -2079.268      -2079.268      -2079.268     
        51  -10.41597      -10.41597       3.0558528      3.0558528      3.0558528      28.536276     -2079.268      -2079.268      -2079.268      -2079.268     
Loop time of 0.000157 on 8 procs for 1 steps with 2 atoms

Performance: 550.318 ns/day, 0.044 hours/ns, 6369.427 timesteps/s, 12.739 katom-step/s
0.0% CPU use with 8 MPI tasks x 1 OpenMP threads

MPI task timing breakdown:
Section |  min time  |  avg time  |  max time  |%varavg| %total
---------------------------------------------------------------
Pair    | 0.000104   | 0.00010763 | 0.000114   |   0.0 | 68.55
Neigh   | 0          | 0          | 0          |   0.0 |  0.00
Comm    | 2.1e-05    | 2.625e-05  | 3.1e-05    |   0.0 | 16.72
Output  | 1.4e-05    | 1.65e-05   | 2e-05      |   0.0 | 10.51
Modify  | 0          | 2.5e-07    | 1e-06      |   0.0 |  0.16
Other   |            | 6.375e-06  |            |       |  4.06

Nlocal:           0.25 ave           1 max           0 min
Histogram: 6 0 0 0 0 0 0 0 0 2
Nghost:         249.75 ave         250 max         249 min
Histogram: 2 0 0 0 0 0 0 0 0 6
Neighs:             14 ave          56 max           0 min
Histogram: 6 0 0 0 0 0 0 0 0 2
FullNghs:           28 ave         112 max           0 min
Histogram: 6 0 0 0 0 0 0 0 0 2

Total # of neighbors = 224
Ave neighs/atom = 112
Neighbor list builds = 0
Dangerous builds = 0
variable  natoms equal "count(all)"
variable xlength equal "lx"
variable  volume equal "vol"
variable  etotal equal "etotal"
variable    ecoh equal "pe/v_natoms"
print "${xlength}, ${volume}, ${etotal}, ${ecoh}" append lattice_cohesive_energy.txt screen no

next i
jump SELF loop

change_box all x scale 1.0025 y scale 1.0025 z scale 1.0025 remap
Changing box ...
  orthogonal box = (-0.0017462162 0.0020735998 0.0020735998) to (3.0617462 3.0579264 3.0579264)
  orthogonal box = (-0.0017462162 -0.0017462162 0.0020735998) to (3.0617462 3.0617462 3.0579264)
  orthogonal box = (-0.0017462162 -0.0017462162 -0.0017462162) to (3.0617462 3.0617462 3.0617462)

run 1
WARNING: No fixes with time integration, atoms won't move (src/verlet.cpp:60)
WARNING: Proc sub-domain size < neighbor skin, could lead to lost atoms (src/domain.cpp:966)
Per MPI rank memory allocation (min/avg/max) = 8.573 | 8.573 | 8.575 Mbytes
   Step         PotEng         TotEng           Lx             Ly             Lz           Volume         Press           Pxx            Pyy            Pzz      
        51  -10.415063     -10.415063      3.0634924      3.0634924      3.0634924      28.750833     -11407.268     -11407.268     -11407.268     -11407.268    
        52  -10.415063     -10.415063      3.0634924      3.0634924      3.0634924      28.750833     -11407.268     -11407.268     -11407.268     -11407.268    
Loop time of 0.000158125 on 8 procs for 1 steps with 2 atoms

Performance: 546.403 ns/day, 0.044 hours/ns, 6324.111 timesteps/s, 12.648 katom-step/s
0.0% CPU use with 8 MPI tasks x 1 OpenMP threads

MPI task timing breakdown:
Section |  min time  |  avg time  |  max time  |%varavg| %total
---------------------------------------------------------------
Pair    | 0.000104   | 0.0001085  | 0.000115   |   0.0 | 68.62
Neigh   | 0          | 0          | 0          |   0.0 |  0.00
Comm    | 2.1e-05    | 2.6875e-05 | 3.3e-05    |   0.0 | 17.00
Output  | 1.3e-05    | 1.6125e-05 | 2e-05      |   0.0 | 10.20
Modify  | 0          | 1.25e-07   | 1e-06      |   0.0 |  0.08
Other   |            | 6.5e-06    |            |       |  4.11

Nlocal:           0.25 ave           1 max           0 min
Histogram: 6 0 0 0 0 0 0 0 0 2
Nghost:         249.75 ave         250 max         249 min
Histogram: 2 0 0 0 0 0 0 0 0 6
Neighs:             14 ave          56 max           0 min
Histogram: 6 0 0 0 0 0 0 0 0 2
FullNghs:           28 ave         112 max           0 min
Histogram: 6 0 0 0 0 0 0 0 0 2

Total # of neighbors = 224
Ave neighs/atom = 112
Neighbor list builds = 0
Dangerous builds = 0
variable  natoms equal "count(all)"
variable xlength equal "lx"
variable  volume equal "vol"
variable  etotal equal "etotal"
variable    ecoh equal "pe/v_natoms"
print "${xlength}, ${volume}, ${etotal}, ${ecoh}" append lattice_cohesive_energy.txt screen no

next i
jump SELF loop

change_box all x scale 1.0025 y scale 1.0025 z scale 1.0025 remap
Changing box ...
  orthogonal box = (-0.0055755818 -0.0017462162 -0.0017462162) to (3.0655756 3.0617462 3.0617462)
  orthogonal box = (-0.0055755818 -0.0055755818 -0.0017462162) to (3.0655756 3.0655756 3.0617462)
  orthogonal box = (-0.0055755818 -0.0055755818 -0.0055755818) to (3.0655756 3.0655756 3.0655756)

run 1
WARNING: No fixes with time integration, atoms won't move (src/verlet.cpp:60)
WARNING: Proc sub-domain size < neighbor skin, could lead to lost atoms (src/domain.cpp:966)
Per MPI rank memory allocation (min/avg/max) = 8.573 | 8.573 | 8.575 Mbytes
   Step         PotEng         TotEng           Lx             Ly             Lz           Volume         Press           Pxx            Pyy            Pzz      
        52  -10.412909     -10.412909      3.0711512      3.0711512      3.0711512      28.967004     -20460.126     -20460.126     -20460.126     -20460.126    
        53  -10.412909     -10.412909      3.0711512      3.0711512      3.0711512      28.967004     -20460.126     -20460.126     -20460.126     -20460.126    
Loop time of 0.000161375 on 8 procs for 1 steps with 2 atoms

Performance: 535.399 ns/day, 0.045 hours/ns, 6196.747 timesteps/s, 12.393 katom-step/s
0.0% CPU use with 8 MPI tasks x 1 OpenMP threads

MPI task timing breakdown:
Section |  min time  |  avg time  |  max time  |%varavg| %total
---------------------------------------------------------------
Pair    | 0.000102   | 0.00010763 | 0.000117   |   0.0 | 66.69
Neigh   | 0          | 0          | 0          |   0.0 |  0.00
Comm    | 2.2e-05    | 2.925e-05  | 3.6e-05    |   0.0 | 18.13
Output  | 1.4e-05    | 1.7625e-05 | 2.4e-05    |   0.0 | 10.92
Modify  | 0          | 2.5e-07    | 1e-06      |   0.0 |  0.15
Other   |            | 6.625e-06  |            |       |  4.11

Nlocal:           0.25 ave           1 max           0 min
Histogram: 6 0 0 0 0 0 0 0 0 2
Nghost:         249.75 ave         250 max         249 min
Histogram: 2 0 0 0 0 0 0 0 0 6
Neighs:             14 ave          56 max           0 min
Histogram: 6 0 0 0 0 0 0 0 0 2
FullNghs:           28 ave         112 max           0 min
Histogram: 6 0 0 0 0 0 0 0 0 2

Total # of neighbors = 224
Ave neighs/atom = 112
Neighbor list builds = 0
Dangerous builds = 0
variable  natoms equal "count(all)"
variable xlength equal "lx"
variable  volume equal "vol"
variable  etotal equal "etotal"
variable    ecoh equal "pe/v_natoms"
print "${xlength}, ${volume}, ${etotal}, ${ecoh}" append lattice_cohesive_energy.txt screen no

next i
jump SELF loop

change_box all x scale 1.0025 y scale 1.0025 z scale 1.0025 remap
Changing box ...
  orthogonal box = (-0.0094145207 -0.0055755818 -0.0055755818) to (3.0694145 3.0655756 3.0655756)
  orthogonal box = (-0.0094145207 -0.0094145207 -0.0055755818) to (3.0694145 3.0694145 3.0655756)
  orthogonal box = (-0.0094145207 -0.0094145207 -0.0094145207) to (3.0694145 3.0694145 3.0694145)

run 1
WARNING: No fixes with time integration, atoms won't move (src/verlet.cpp:60)
WARNING: Proc sub-domain size < neighbor skin, could lead to lost atoms (src/domain.cpp:966)
Per MPI rank memory allocation (min/avg/max) = 8.573 | 8.573 | 8.575 Mbytes
   Step         PotEng         TotEng           Lx             Ly             Lz           Volume         Press           Pxx            Pyy            Pzz      
        53  -10.409527     -10.409527      3.078829       3.078829       3.078829       29.1848       -29243.181     -29243.181     -29243.181     -29243.181    
        54  -10.409527     -10.409527      3.078829       3.078829       3.078829       29.1848       -29243.181     -29243.181     -29243.181     -29243.181    
Loop time of 0.00015875 on 8 procs for 1 steps with 2 atoms

Performance: 544.252 ns/day, 0.044 hours/ns, 6299.213 timesteps/s, 12.598 katom-step/s
[...]
Histogram: 6 0 0 0 0 0 0 0 0 2
FullNghs:           22 ave          88 max           0 min
Histogram: 6 0 0 0 0 0 0 0 0 2

Total # of neighbors = 176
Ave neighs/atom = 88
Neighbor list builds = 0
Dangerous builds = 0
variable  natoms equal "count(all)"
variable xlength equal "lx"
variable  volume equal "vol"
variable  etotal equal "etotal"
variable    ecoh equal "pe/v_natoms"
print "${xlength}, ${volume}, ${etotal}, ${ecoh}" append lattice_cohesive_energy.txt screen no

next i
jump SELF loop

change_box all x scale 1.0025 y scale 1.0025 z scale 1.0025 remap
Changing box ...
  orthogonal box = (-0.068163833 -0.064178387 -0.064178387) to (3.1281638 3.1241784 3.1241784)
  orthogonal box = (-0.068163833 -0.068163833 -0.064178387) to (3.1281638 3.1281638 3.1241784)
  orthogonal box = (-0.068163833 -0.068163833 -0.068163833) to (3.1281638 3.1281638 3.1281638)

run 1
WARNING: No fixes with time integration, atoms won't move (src/verlet.cpp:60)
WARNING: Proc sub-domain size < neighbor skin, could lead to lost atoms (src/domain.cpp:966)
Per MPI rank memory allocation (min/avg/max) = 8.573 | 8.573 | 8.575 Mbytes
   Step         PotEng         TotEng           Lx             Ly             Lz           Volume         Press           Pxx            Pyy            Pzz      
        68  -10.223546     -10.223546      3.1963277      3.1963277      3.1963277      32.655315     -132010.89     -132010.89     -132010.89     -132010.89    
        69  -10.223546     -10.223546      3.1963277      3.1963277      3.1963277      32.655315     -132010.89     -132010.89     -132010.89     -132010.89    
Loop time of 0.0002315 on 8 procs for 1 steps with 2 atoms

Performance: 373.218 ns/day, 0.064 hours/ns, 4319.654 timesteps/s, 8.639 katom-step/s
0.0% CPU use with 8 MPI tasks x 1 OpenMP threads

MPI task timing breakdown:
Section |  min time  |  avg time  |  max time  |%varavg| %total
---------------------------------------------------------------
Pair    | 0.000137   | 0.000152   | 0.000181   |   0.0 | 65.66
Neigh   | 0          | 0          | 0          |   0.0 |  0.00
Comm    | 2.5e-05    | 4.4875e-05 | 7e-05      |   0.0 | 19.38
Output  | 1.5e-05    | 2.625e-05  | 5.2e-05    |   0.0 | 11.34
Modify  | 0          | 1.25e-07   | 1e-06      |   0.0 |  0.05
Other   |            | 8.25e-06   |            |       |  3.56

Nlocal:           0.25 ave           1 max           0 min
Histogram: 6 0 0 0 0 0 0 0 0 2
Nghost:         249.75 ave         250 max         249 min
Histogram: 2 0 0 0 0 0 0 0 0 6
Neighs:             11 ave          44 max           0 min
Histogram: 6 0 0 0 0 0 0 0 0 2
FullNghs:           22 ave          88 max           0 min
Histogram: 6 0 0 0 0 0 0 0 0 2

Total # of neighbors = 176
Ave neighs/atom = 88
Neighbor list builds = 0
Dangerous builds = 0
variable  natoms equal "count(all)"
variable xlength equal "lx"
variable  volume equal "vol"
variable  etotal equal "etotal"
variable    ecoh equal "pe/v_natoms"
print "${xlength}, ${volume}, ${etotal}, ${ecoh}" append lattice_cohesive_energy.txt screen no

next i
jump SELF loop

change_box all x scale 1.0025 y scale 1.0025 z scale 1.0025 remap
Changing box ...
  orthogonal box = (-0.072159242 -0.068163833 -0.068163833) to (3.1321592 3.1281638 3.1281638)
  orthogonal box = (-0.072159242 -0.072159242 -0.068163833) to (3.1321592 3.1321592 3.1281638)
  orthogonal box = (-0.072159242 -0.072159242 -0.072159242) to (3.1321592 3.1321592 3.1321592)

run 1
WARNING: No fixes with time integration, atoms won't move (src/verlet.cpp:60)
WARNING: Proc sub-domain size < neighbor skin, could lead to lost atoms (src/domain.cpp:966)
Per MPI rank memory allocation (min/avg/max) = 8.573 | 8.573 | 8.575 Mbytes
   Step         PotEng         TotEng           Lx             Ly             Lz           Volume         Press           Pxx            Pyy            Pzz      
        69  -10.20292      -10.20292       3.2043185      3.2043185      3.2043185      32.900843     -137141.95     -137141.95     -137141.95     -137141.95    
        70  -10.20292      -10.20292       3.2043185      3.2043185      3.2043185      32.900843     -137141.95     -137141.95     -137141.95     -137141.95    
Loop time of 0.00023125 on 8 procs for 1 steps with 2 atoms

Performance: 373.622 ns/day, 0.064 hours/ns, 4324.324 timesteps/s, 8.649 katom-step/s
0.0% CPU use with 8 MPI tasks x 1 OpenMP threads

MPI task timing breakdown:
Section |  min time  |  avg time  |  max time  |%varavg| %total
---------------------------------------------------------------
Pair    | 0.000136   | 0.00015325 | 0.000179   |   0.0 | 66.27
Neigh   | 0          | 0          | 0          |   0.0 |  0.00
Comm    | 2.5e-05    | 4.475e-05  | 7.1e-05    |   0.0 | 19.35
Output  | 1.5e-05    | 2.5625e-05 | 4.8e-05    |   0.0 | 11.08
Modify  | 0          | 0          | 0          |   0.0 |  0.00
Other   |            | 7.625e-06  |            |       |  3.30

Nlocal:           0.25 ave           1 max           0 min
Histogram: 6 0 0 0 0 0 0 0 0 2
Nghost:         249.75 ave         250 max         249 min
Histogram: 2 0 0 0 0 0 0 0 0 6
Neighs:             11 ave          44 max           0 min
Histogram: 6 0 0 0 0 0 0 0 0 2
FullNghs:           22 ave          88 max           0 min
Histogram: 6 0 0 0 0 0 0 0 0 2

Total # of neighbors = 176
Ave neighs/atom = 88
Neighbor list builds = 0
Dangerous builds = 0
variable  natoms equal "count(all)"
variable xlength equal "lx"
variable  volume equal "vol"
variable  etotal equal "etotal"
variable    ecoh equal "pe/v_natoms"
print "${xlength}, ${volume}, ${etotal}, ${ecoh}" append lattice_cohesive_energy.txt screen no

next i
jump SELF loop

change_box all x scale 1.0025 y scale 1.0025 z scale 1.0025 remap
Changing box ...
  orthogonal box = (-0.076164641 -0.072159242 -0.072159242) to (3.1361646 3.1321592 3.1321592)
  orthogonal box = (-0.076164641 -0.076164641 -0.072159242) to (3.1361646 3.1361646 3.1321592)
  orthogonal box = (-0.076164641 -0.076164641 -0.076164641) to (3.1361646 3.1361646 3.1361646)

run 1
WARNING: No fixes with time integration, atoms won't move (src/verlet.cpp:60)
WARNING: Proc sub-domain size < neighbor skin, could lead to lost atoms (src/domain.cpp:966)
Per MPI rank memory allocation (min/avg/max) = 8.573 | 8.573 | 8.575 Mbytes
   Step         PotEng         TotEng           Lx             Ly             Lz           Volume         Press           Pxx            Pyy            Pzz      
        70  -10.181361     -10.181361      3.2123293      3.2123293      3.2123293      33.148217     -142082.7      -142082.7      -142082.7      -142082.7     
        71  -10.181361     -10.181361      3.2123293      3.2123293      3.2123293      33.148217     -142082.7      -142082.7      -142082.7      -142082.7     
Loop time of 0.0002335 on 8 procs for 1 steps with 2 atoms

Performance: 370.021 ns/day, 0.065 hours/ns, 4282.655 timesteps/s, 8.565 katom-step/s
0.0% CPU use with 8 MPI tasks x 1 OpenMP threads

MPI task timing breakdown:
Section |  min time  |  avg time  |  max time  |%varavg| %total
---------------------------------------------------------------
Pair    | 0.00014    | 0.00015312 | 0.000181   |   0.0 | 65.58
Neigh   | 0          | 0          | 0          |   0.0 |  0.00
Comm    | 2.4e-05    | 4.5125e-05 | 6.9e-05    |   0.0 | 19.33
Output  | 1.6e-05    | 2.725e-05  | 5.4e-05    |   0.0 | 11.67
Modify  | 0          | 1.25e-07   | 1e-06      |   0.0 |  0.05
Other   |            | 7.875e-06  |            |       |  3.37

Nlocal:           0.25 ave           1 max           0 min
Histogram: 6 0 0 0 0 0 0 0 0 2
Nghost:         249.75 ave         250 max         249 min
Histogram: 2 0 0 0 0 0 0 0 0 6
Neighs:              8 ave          32 max           0 min
Histogram: 6 0 0 0 0 0 0 0 0 2
FullNghs:           16 ave          64 max           0 min
Histogram: 6 0 0 0 0 0 0 0 0 2

Total # of neighbors = 128
Ave neighs/atom = 64
Neighbor list builds = 0
Dangerous builds = 0
variable  natoms equal "count(all)"
variable xlength equal "lx"
variable  volume equal "vol"
variable  etotal equal "etotal"
variable    ecoh equal "pe/v_natoms"
print "${xlength}, ${volume}, ${etotal}, ${ecoh}" append lattice_cohesive_energy.txt screen no

next i
jump SELF loop

change_box all x scale 1.0025 y scale 1.0025 z scale 1.0025 remap
Changing box ...
  orthogonal box = (-0.080180052 -0.076164641 -0.076164641) to (3.1401801 3.1361646 3.1361646)
  orthogonal box = (-0.080180052 -0.080180052 -0.076164641) to (3.1401801 3.1401801 3.1361646)
  orthogonal box = (-0.080180052 -0.080180052 -0.080180052) to (3.1401801 3.1401801 3.1401801)

run 1
WARNING: No fixes with time integration, atoms won't move (src/verlet.cpp:60)
WARNING: Proc sub-domain size < neighbor skin, could lead to lost atoms (src/domain.cpp:966)
Per MPI rank memory allocation (min/avg/max) = 8.573 | 8.573 | 8.575 Mbytes
   Step         PotEng         TotEng           Lx             Ly             Lz           Volume         Press           Pxx            Pyy            Pzz      
        71  -10.158886     -10.158886      3.2203601      3.2203601      3.2203601      33.39745      -146837.18     -146837.18     -146837.18     -146837.18    
        72  -10.158886     -10.158886      3.2203601      3.2203601      3.2203601      33.39745      -146837.18     -146837.18     -146837.18     -146837.18    
Loop time of 0.000230875 on 8 procs for 1 steps with 2 atoms

Performance: 374.228 ns/day, 0.064 hours/ns, 4331.348 timesteps/s, 8.663 katom-step/s
0.0% CPU use with 8 MPI tasks x 1 OpenMP threads

MPI task timing breakdown:
Section |  min time  |  avg time  |  max time  |%varavg| %total
---------------------------------------------------------------
Pair    | 0.000136   | 0.00015337 | 0.00018    |   0.0 | 66.43
Neigh   | 0          | 0          | 0          |   0.0 |  0.00
Comm    | 2.4e-05    | 4.3875e-05 | 7e-05      |   0.0 | 19.00
Output  | 1.6e-05    | 2.5875e-05 | 4.9e-05    |   0.0 | 11.21
Modify  | 0          | 5e-07      | 1e-06      |   0.0 |  0.22
Other   |            | 7.25e-06   |            |       |  3.14

Nlocal:           0.25 ave           1 max           0 min
Histogram: 6 0 0 0 0 0 0 0 0 2
Nghost:         249.75 ave         250 max         249 min
Histogram: 2 0 0 0 0 0 0 0 0 6
Neighs:              8 ave          32 max           0 min
Histogram: 6 0 0 0 0 0 0 0 0 2
FullNghs:           16 ave          64 max           0 min
Histogram: 6 0 0 0 0 0 0 0 0 2

Total # of neighbors = 128
Ave neighs/atom = 64
Neighbor list builds = 0
Dangerous builds = 0
variable  natoms equal "count(all)"
variable xlength equal "lx"
variable  volume equal "vol"
variable  etotal equal "etotal"
variable    ecoh equal "pe/v_natoms"
print "${xlength}, ${volume}, ${etotal}, ${ecoh}" append lattice_cohesive_energy.txt screen no

next i
jump SELF loop

change_box all x scale 1.0025 y scale 1.0025 z scale 1.0025 remap
Changing box ...
  orthogonal box = (-0.084205502 -0.080180052 -0.080180052) to (3.1442055 3.1401801 3.1401801)
  orthogonal box = (-0.084205502 -0.084205502 -0.080180052) to (3.1442055 3.1442055 3.1401801)
  orthogonal box = (-0.084205502 -0.084205502 -0.084205502) to (3.1442055 3.1442055 3.1442055)

run 1
WARNING: No fixes with time integration, atoms won't move (src/verlet.cpp:60)
WARNING: Proc sub-domain size < neighbor skin, could lead to lost atoms (src/domain.cpp:966)
Per MPI rank memory allocation (min/avg/max) = 8.573 | 8.573 | 8.575 Mbytes
   Step         PotEng         TotEng           Lx             Ly             Lz           Volume         Press           Pxx            Pyy            Pzz      
        72  -10.135512     -10.135512      3.228411       3.228411       3.228411       33.648558     -151409.4      -151409.4      -151409.4      -151409.4     
        73  -10.135512     -10.135512      3.228411       3.228411       3.228411       33.648558     -151409.4      -151409.4      -151409.4      -151409.4     
Loop time of 0.000231875 on 8 procs for 1 steps with 2 atoms

Performance: 372.615 ns/day, 0.064 hours/ns, 4312.668 timesteps/s, 8.625 katom-step/s
0.0% CPU use with 8 MPI tasks x 1 OpenMP threads

MPI task timing breakdown:
Section |  min time  |  avg time  |  max time  |%varavg| %total
---------------------------------------------------------------
Pair    | 0.000136   | 0.0001525  | 0.000181   |   0.0 | 65.77
Neigh   | 0          | 0          | 0          |   0.0 |  0.00
Comm    | 2.3e-05    | 4.4875e-05 | 7.1e-05    |   0.0 | 19.35
Output  | 1.5e-05    | 2.675e-05  | 5.3e-05    |   0.0 | 11.54
Modify  | 0          | 2.5e-07    | 1e-06      |   0.0 |  0.11
Other   |            | 7.5e-06    |            |       |  3.23

Nlocal:           0.25 ave           1 max           0 min
Histogram: 6 0 0 0 0 0 0 0 0 2
Nghost:         249.75 ave         250 max         249 min
Histogram: 2 0 0 0 0 0 0 0 0 6
Neighs:              8 ave          32 max           0 min
Histogram: 6 0 0 0 0 0 0 0 0 2
FullNghs:           16 ave          64 max           0 min
Histogram: 6 0 0 0 0 0 0 0 0 2

Total # of neighbors = 128
Ave neighs/atom = 64
Neighbor list builds = 0
Dangerous builds = 0
variable  natoms equal "count(all)"
variable xlength equal "lx"
variable  volume equal "vol"
variable  etotal equal "etotal"
variable    ecoh equal "pe/v_natoms"
print "${xlength}, ${volume}, ${etotal}, ${ecoh}" append lattice_cohesive_energy.txt screen no

next i
jump SELF loop

change_box all x scale 1.0025 y scale 1.0025 z scale 1.0025 remap
Changing box ...
  orthogonal box = (-0.088241016 -0.084205502 -0.084205502) to (3.148241 3.1442055 3.1442055)
  orthogonal box = (-0.088241016 -0.088241016 -0.084205502) to (3.148241 3.148241 3.1442055)
  orthogonal box = (-0.088241016 -0.088241016 -0.088241016) to (3.148241 3.148241 3.148241)

run 1
WARNING: No fixes with time integration, atoms won't move (src/verlet.cpp:60)
WARNING: Proc sub-domain size < neighbor skin, could lead to lost atoms (src/domain.cpp:966)
Per MPI rank memory allocation (min/avg/max) = 8.573 | 8.573 | 8.575 Mbytes
   Step         PotEng         TotEng           Lx             Ly             Lz           Volume         Press           Pxx            Pyy            Pzz      
        73  -10.111253     -10.111253      3.236482       3.236482       3.236482       33.901554     -155803.28     -155803.28     -155803.28     -155803.28    
        74  -10.111253     -10.111253      3.236482       3.236482       3.236482       33.901554     -155803.28     -155803.28     -155803.28     -155803.28    
Loop time of 0.000239125 on 8 procs for 1 steps with 2 atoms

Performance: 361.317 ns/day, 0.066 hours/ns, 4181.913 timesteps/s, 8.364 katom-step/s
0.0% CPU use with 8 MPI tasks x 1 OpenMP threads

MPI task timing breakdown:
Section |  min time  |  avg time  |  max time  |%varavg| %total
---------------------------------------------------------------
Pair    | 0.00014    | 0.00015475 | 0.000193   |   0.0 | 64.72
Neigh   | 0          | 0          | 0          |   0.0 |  0.00
Comm    | 2e-05      | 4.8e-05    | 7.5e-05    |   0.0 | 20.07
Output  | 1.2e-05    | 2.7875e-05 | 6.9e-05    |   0.0 | 11.66
Modify  | 0          | 5e-07      | 1e-06      |   0.0 |  0.21
Other   |            | 8e-06      |            |       |  3.35

Nlocal:           0.25 ave           1 max           0 min
Histogram: 6 0 0 0 0 0 0 0 0 2
Nghost:         249.75 ave         250 max         249 min
Histogram: 2 0 0 0 0 0 0 0 0 6
Neighs:              8 ave          32 max           0 min
Histogram: 6 0 0 0 0 0 0 0 0 2
FullNghs:           16 ave          64 max           0 min
Histogram: 6 0 0 0 0 0 0 0 0 2

Total # of neighbors = 128
Ave neighs/atom = 64
Neighbor list builds = 0
Dangerous builds = 0
variable  natoms equal "count(all)"
variable xlength equal "lx"
variable  volume equal "vol"
variable  etotal equal "etotal"
variable    ecoh equal "pe/v_natoms"
print "${xlength}, ${volume}, ${etotal}, ${ecoh}" append lattice_cohesive_energy.txt screen no

next i
jump SELF loop

change_box all x scale 1.0025 y scale 1.0025 z scale 1.0025 remap
Changing box ...
  orthogonal box = (-0.092286619 -0.088241016 -0.088241016) to (3.1522866 3.148241 3.148241)
  orthogonal box = (-0.092286619 -0.092286619 -0.088241016) to (3.1522866 3.1522866 3.148241)
  orthogonal box = (-0.092286619 -0.092286619 -0.092286619) to (3.1522866 3.1522866 3.1522866)

run 1
Per MPI rank memory allocation (min/avg/max) = 8.573 | 8.573 | 8.575 Mbytes
   Step         PotEng         TotEng           Lx             Ly             Lz           Volume         Press           Pxx            Pyy            Pzz      
WARNING: Too many warnings: 102 vs 100. All future warnings will be suppressed (src/thermo.cpp:466)
        74  -10.086127     -10.086127      3.2445732      3.2445732      3.2445732      34.156451     -160022.7      -160022.7      -160022.7      -160022.7     
        75  -10.086127     -10.086127      3.2445732      3.2445732      3.2445732      34.156451     -160022.7      -160022.7      -160022.7      -160022.7     
Loop time of 0.000131625 on 8 procs for 1 steps with 2 atoms

Performance: 656.410 ns/day, 0.037 hours/ns, 7597.341 timesteps/s, 15.195 katom-step/s
0.0% CPU use with 8 MPI tasks x 1 OpenMP threads

MPI task timing breakdown:
Section |  min time  |  avg time  |  max time  |%varavg| %total
---------------------------------------------------------------
Pair    | 9.2e-05    | 9.525e-05  | 9.8e-05    |   0.0 | 72.36
Neigh   | 0          | 0          | 0          |   0.0 |  0.00
Comm    | 1.7e-05    | 1.95e-05   | 2.2e-05    |   0.0 | 14.81
Output  | 1.1e-05    | 1.2875e-05 | 1.5e-05    |   0.0 |  9.78
Modify  | 0          | 0          | 0          |   0.0 |  0.00
Other   |            | 4e-06      |            |       |  3.04

Nlocal:           0.25 ave           1 max           0 min
Histogram: 6 0 0 0 0 0 0 0 0 2
Nghost:         249.75 ave         250 max         249 min
Histogram: 2 0 0 0 0 0 0 0 0 6
Neighs:              8 ave          32 max           0 min
Histogram: 6 0 0 0 0 0 0 0 0 2
FullNghs:           16 ave          64 max           0 min
Histogram: 6 0 0 0 0 0 0 0 0 2

Total # of neighbors = 128
Ave neighs/atom = 64
Neighbor list builds = 0
Dangerous builds = 0
variable  natoms equal "count(all)"
variable xlength equal "lx"
variable  volume equal "vol"
variable  etotal equal "etotal"
variable    ecoh equal "pe/v_natoms"
print "${xlength}, ${volume}, ${etotal}, ${ecoh}" append lattice_cohesive_energy.txt screen no

next i
jump SELF loop

print "-------------------------------------------------------------"
-------------------------------------------------------------
print "Show results of 1st step (Running Minimization)"
Show results of 1st step (Running Minimization)
print "The number of atoms = ${natoms};"
The number of atoms = 2;
print "The lattice constant, x (Angstoms) = ${x0};"
The lattice constant, x (Angstoms) = 3.24457323712975;
print "The lattice constant, y (Angstoms) = ${y0};"
The lattice constant, y (Angstoms) = 3.24457323712975;
print "The lattice constant, z (Angstoms) = ${z0};"
The lattice constant, z (Angstoms) = 3.24457323712975;
print "The volume (Angstoms^3) = ${v0};"
The volume (Angstoms^3) = 34.1564514268458;
print "The total energy (eV) = ${etot0};"
The total energy (eV) = -10.0861274626007;
print "The cohesive energy (eV/atom) = ${ecoh0};"
The cohesive energy (eV/atom) = -5.04306373130034;
print "-------------------------------------------------------------"
-------------------------------------------------------------
print "Simulations completed !"
Simulations completed !
Total wall time: 0:00:00
