LAMMPS (22 Dec 2022)
  using 1 OpenMP thread(s) per MPI task
Loaded 1 plugins from C:\Program Files\LAMMPS 64-bit 23Jun2022\plugins
Loaded 0 plugins from C:\Program Files\LAMMPS 64-bit 23Jun2022-MPI\plugins
Loaded 1 plugins from C:\Program Files\LAMMPS 64-bit 22Dec2022-MSMPI\plugins
Loaded 1 plugins from C:\Program Files\LAMMPS 64-bit 28Mar2023-MPI\plugins
#------------------------------------------------------------------------------------------
# LAMMPS 64-bit 22Dec2022-MSMPI
#------------------------------------------------------------------------------------------
clear
  using 1 OpenMP thread(s) per MPI task
Loaded 1 plugins from C:\Program Files\LAMMPS 64-bit 23Jun2022\plugins
Loaded 0 plugins from C:\Program Files\LAMMPS 64-bit 23Jun2022-MPI\plugins
Loaded 1 plugins from C:\Program Files\LAMMPS 64-bit 22Dec2022-MSMPI\plugins
Loaded 1 plugins from C:\Program Files\LAMMPS 64-bit 28Mar2023-MPI\plugins
#echo both
# ---------- Initializing Simulation ---------------------------------
units metal
dimension 3
boundary p p p
atom_style atomic
atom_modify map array

read_data ./../../TiV.data
Reading data file ...
  orthogonal box = (0 0 0) to (3.02 3.02 3.02)
  2 by 2 by 2 MPI processor grid
  reading atoms ...
  2 atoms
  read_data CPU = 0.001 seconds

replicate 1 1 1
Replication is creating a 1x1x1 = 1 times larger system...
  orthogonal box = (0 0 0) to (3.02 3.02 3.02)
  2 by 2 by 2 MPI processor grid
  2 atoms
  replicate CPU = 0.000 seconds

# ---------- Defining the Interatomic Potential ---------------------
pair_style meam
pair_coeff * * ./../../library.meam Ti V N ./../../TiVN.meam Ti V

# ---------- Running Minimization -------------------------------------
fix 1 all box/relax iso 0.0 vmax 0.001

thermo 10
thermo_style custom step pe etotal lx ly lz vol press pxx pyy pzz

min_style cg
minimize 1e-25 1e-25 5000 10000
Neighbor list info ...
  update: every = 1 steps, delay = 0 steps, check = yes
  max neighbors/atom: 2000, page size: 100000
  master list distance cutoff = 7
  ghost atom cutoff = 7
  binsize = 3.5, bins = 1 1 1
  2 neighbor lists, perpetual/occasional/extra = 2 0 0
  (1) pair meam, perpetual
      attributes: full, newton on
      pair build: full/bin/atomonly
      stencil: full/bin/3d
      bin: standard
  (2) pair meam, perpetual, half/full from (1)
      attributes: half, newton on
      pair build: halffull/newton
      stencil: none
      bin: none
WARNING: Proc sub-domain size < neighbor skin, could lead to lost atoms (src/domain.cpp:966)
Per MPI rank memory allocation (min/avg/max) = 9.67 | 9.67 | 9.67 Mbytes
   Step         PotEng         TotEng           Lx             Ly             Lz           Volume         Press           Pxx            Pyy            Pzz      
         0  -10.402821     -10.402821      3.02           3.02           3.02           27.543608      45901.352      45901.352      45901.352      45901.352    
        10  -10.415826     -10.415826      3.0502         3.0502         3.0502         28.378207      5018.6906      5018.6906      5018.6906      5018.6906    
        18  -10.416        -10.416         3.0541829      3.0541829      3.0541829      28.48952      -2.6015023e-12  1.2487211e-11  6.2436055e-12 -2.6535323e-11
Loop time of 0.00419613 on 8 procs for 18 steps with 2 atoms

46.5% CPU use with 8 MPI tasks x 1 OpenMP threads

Minimization stats:
  Stopping criterion = quadratic factors are zero
  Energy initial, next-to-last, final = 
     -10.4028205922358  -10.4160000000285  -10.4160000000285
  Force two-norm initial, final = 2.3673213 2.3294446e-15
  Force max component initial, final = 2.3673213 1.2073675e-15
  Final line search alpha, max atom move = 1 1.2073675e-15
  Iterations, force evaluations = 18 25

MPI task timing breakdown:
Section |  min time  |  avg time  |  max time  |%varavg| %total
---------------------------------------------------------------
Pair    | 0.002505   | 0.0025491  | 0.002643   |   0.1 | 60.75
Neigh   | 0          | 0          | 0          |   0.0 |  0.00
Comm    | 0.00047    | 0.00055012 | 0.000639   |   0.0 | 13.11
Output  | 1.2e-05    | 1.225e-05  | 1.3e-05    |   0.0 |  0.29
Modify  | 0          | 0          | 0          |   0.0 |  0.00
Other   |            | 0.001085   |            |       | 25.85

Nlocal:           0.25 ave           1 max           0 min
Histogram: 6 0 0 0 0 0 0 0 0 2
Nghost:         249.75 ave         250 max         249 min
Histogram: 2 0 0 0 0 0 0 0 0 6
Neighs:             14 ave          56 max           0 min
Histogram: 6 0 0 0 0 0 0 0 0 2
FullNghs:           28 ave         112 max           0 min
Histogram: 6 0 0 0 0 0 0 0 0 2

Total # of neighbors = 224
Ave neighs/atom = 112
Neighbor list builds = 0
Dangerous builds = 0

variable  natoms equal "count(all)"
variable      x0 equal "lx"
variable      y0 equal "ly"
variable      z0 equal "lz"
variable      v0 equal "vol"
variable   etot0 equal "etotal"
variable   ecoh0 equal "pe/v_natoms"

unfix 1
write_data ./../step2_elastic/data.in
System init for write_data ...
WARNING: Proc sub-domain size < neighbor skin, could lead to lost atoms (src/domain.cpp:966)

# ---------- For Equation of States -------------------------------------
change_box all x scale 0.94 y scale 0.94 z scale 0.94 remap
Changing box ...
  orthogonal box = (0.074534026 -0.017091462 -0.017091462) to (2.945466 3.0370915 3.0370915)
  orthogonal box = (0.074534026 0.074534026 -0.017091462) to (2.945466 2.945466 3.0370915)
  orthogonal box = (0.074534026 0.074534026 0.074534026) to (2.945466 2.945466 2.945466)
run 1
WARNING: No fixes with time integration, atoms won't move (src/verlet.cpp:60)
WARNING: Proc sub-domain size < neighbor skin, could lead to lost atoms (src/domain.cpp:966)
Per MPI rank memory allocation (min/avg/max) = 8.573 | 8.573 | 8.575 Mbytes
   Step         PotEng         TotEng           Lx             Ly             Lz           Volume         Press           Pxx            Pyy            Pzz      
        18  -9.9778187     -9.9778187      2.8709319      2.8709319      2.8709319      23.66294       337864.43      337864.43      337864.43      337864.43    
        19  -9.9778187     -9.9778187      2.8709319      2.8709319      2.8709319      23.66294       337864.43      337864.43      337864.43      337864.43    
Loop time of 0.000204375 on 8 procs for 1 steps with 2 atoms

Performance: 422.752 ns/day, 0.057 hours/ns, 4892.966 timesteps/s, 9.786 katom-step/s
0.0% CPU use with 8 MPI tasks x 1 OpenMP threads

MPI task timing breakdown:
Section |  min time  |  avg time  |  max time  |%varavg| %total
---------------------------------------------------------------
Pair    | 0.000128   | 0.00013538 | 0.000154   |   0.0 | 66.24
Neigh   | 0          | 0          | 0          |   0.0 |  0.00
Comm    | 1.3e-05    | 2.475e-05  | 4.9e-05    |   0.0 | 12.11
Output  | 1.7e-05    | 3.5e-05    | 5.2e-05    |   0.0 | 17.13
Modify  | 0          | 5e-07      | 1e-06      |   0.0 |  0.24
Other   |            | 8.75e-06   |            |       |  4.28

Nlocal:           0.25 ave           2 max           0 min
Histogram: 7 0 0 0 0 0 0 0 0 1
Nghost:         249.75 ave         250 max         248 min
Histogram: 1 0 0 0 0 0 0 0 0 7
Neighs:             14 ave         112 max           0 min
Histogram: 7 0 0 0 0 0 0 0 0 1
FullNghs:           28 ave         224 max           0 min
Histogram: 7 0 0 0 0 0 0 0 0 1

Total # of neighbors = 224
Ave neighs/atom = 112
Neighbor list builds = 0
Dangerous builds = 0
print "# Lattice constant (Angstroms), Volume (Angstrom), Total energy (eV), Cohesive energy (eV/atom)" file lattice_cohesive_energy.txt screen no


# Loop over lattice constants
variable i loop 49 # Number of steps
label loop

change_box all x scale 1.0025 y scale 1.0025 z scale 1.0025 remap
Changing box ...
  orthogonal box = (0.070945361 0.074534026 0.074534026) to (2.9490546 2.945466 2.945466)
  orthogonal box = (0.070945361 0.070945361 0.074534026) to (2.9490546 2.9490546 2.945466)
  orthogonal box = (0.070945361 0.070945361 0.070945361) to (2.9490546 2.9490546 2.9490546)

run 1
WARNING: No fixes with time integration, atoms won't move (src/verlet.cpp:60)
WARNING: Proc sub-domain size < neighbor skin, could lead to lost atoms (src/domain.cpp:966)
Per MPI rank memory allocation (min/avg/max) = 8.573 | 8.573 | 8.575 Mbytes
   Step         PotEng         TotEng           Lx             Ly             Lz           Volume         Press           Pxx            Pyy            Pzz      
        19  -10.014322     -10.014322      2.8781093      2.8781093      2.8781093      23.840856      319675.78      319675.78      319675.78      319675.78    
        20  -10.014322     -10.014322      2.8781093      2.8781093      2.8781093      23.840856      319675.78      319675.78      319675.78      319675.78    
Loop time of 0.000201125 on 8 procs for 1 steps with 2 atoms

Performance: 429.584 ns/day, 0.056 hours/ns, 4972.032 timesteps/s, 9.944 katom-step/s
0.0% CPU use with 8 MPI tasks x 1 OpenMP threads

MPI task timing breakdown:
Section |  min time  |  avg time  |  max time  |%varavg| %total
---------------------------------------------------------------
Pair    | 0.000126   | 0.000134   | 0.000154   |   0.0 | 66.63
Neigh   | 0          | 0          | 0          |   0.0 |  0.00
Comm    | 1.3e-05    | 2.45e-05   | 5e-05      |   0.0 | 12.18
Output  | 1.5e-05    | 3.375e-05  | 5.2e-05    |   0.0 | 16.78
Modify  | 0          | 2.5e-07    | 1e-06      |   0.0 |  0.12
Other   |            | 8.625e-06  |            |       |  4.29

Nlocal:           0.25 ave           2 max           0 min
Histogram: 7 0 0 0 0 0 0 0 0 1
Nghost:         249.75 ave         250 max         248 min
Histogram: 1 0 0 0 0 0 0 0 0 7
Neighs:             14 ave         112 max           0 min
Histogram: 7 0 0 0 0 0 0 0 0 1
FullNghs:           28 ave         224 max           0 min
Histogram: 7 0 0 0 0 0 0 0 0 1

Total # of neighbors = 224
Ave neighs/atom = 112
Neighbor list builds = 0
Dangerous builds = 0
variable  natoms equal "count(all)"
variable xlength equal "lx"
variable  volume equal "vol"
variable  etotal equal "etotal"
variable    ecoh equal "pe/v_natoms"
print "${xlength}, ${volume}, ${etotal}, ${ecoh}" append lattice_cohesive_energy.txt screen no

next i
jump SELF loop

change_box all x scale 1.0025 y scale 1.0025 z scale 1.0025 remap
Changing box ...
  orthogonal box = (0.067347725 0.070945361 0.070945361) to (2.9526523 2.9490546 2.9490546)
  orthogonal box = (0.067347725 0.067347725 0.070945361) to (2.9526523 2.9526523 2.9490546)
  orthogonal box = (0.067347725 0.067347725 0.067347725) to (2.9526523 2.9526523 2.9526523)

run 1
WARNING: No fixes with time integration, atoms won't move (src/verlet.cpp:60)
WARNING: Proc sub-domain size < neighbor skin, could lead to lost atoms (src/domain.cpp:966)
Per MPI rank memory allocation (min/avg/max) = 8.573 | 8.573 | 8.575 Mbytes
   Step         PotEng         TotEng           Lx             Ly             Lz           Volume         Press           Pxx            Pyy            Pzz      
        20  -10.04909      -10.04909       2.8853046      2.8853046      2.8853046      24.020109      301923.79      301923.79      301923.79      301923.79    
        21  -10.04909      -10.04909       2.8853046      2.8853046      2.8853046      24.020109      301923.79      301923.79      301923.79      301923.79    
Loop time of 0.00027 on 8 procs for 1 steps with 2 atoms

Performance: 320.000 ns/day, 0.075 hours/ns, 3703.704 timesteps/s, 7.407 katom-step/s
0.0% CPU use with 8 MPI tasks x 1 OpenMP threads

MPI task timing breakdown:
Section |  min time  |  avg time  |  max time  |%varavg| %total
---------------------------------------------------------------
Pair    | 0.000126   | 0.0001505  | 0.000219   |   0.0 | 55.74
Neigh   | 0          | 0          | 0          |   0.0 |  0.00
Comm    | 1.3e-05    | 4.1e-05    | 0.000118   |   0.0 | 15.19
Output  | 1.6e-05    | 6.875e-05  | 0.000121   |   0.0 | 25.46
Modify  | 0          | 2.5e-07    | 1e-06      |   0.0 |  0.09
Other   |            | 9.5e-06    |            |       |  3.52

Nlocal:           0.25 ave           2 max           0 min
Histogram: 7 0 0 0 0 0 0 0 0 1
Nghost:         249.75 ave         250 max         248 min
Histogram: 1 0 0 0 0 0 0 0 0 7
Neighs:             14 ave         112 max           0 min
Histogram: 7 0 0 0 0 0 0 0 0 1
FullNghs:           28 ave         224 max           0 min
Histogram: 7 0 0 0 0 0 0 0 0 1

Total # of neighbors = 224
Ave neighs/atom = 112
Neighbor list builds = 0
Dangerous builds = 0
variable  natoms equal "count(all)"
variable xlength equal "lx"
variable  volume equal "vol"
variable  etotal equal "etotal"
variable    ecoh equal "pe/v_natoms"
print "${xlength}, ${volume}, ${etotal}, ${ecoh}" append lattice_cohesive_energy.txt screen no

next i
jump SELF loop

change_box all x scale 1.0025 y scale 1.0025 z scale 1.0025 remap
Changing box ...
  orthogonal box = (0.063741094 0.067347725 0.067347725) to (2.9562589 2.9526523 2.9526523)
  orthogonal box = (0.063741094 0.063741094 0.067347725) to (2.9562589 2.9562589 2.9526523)
  orthogonal box = (0.063741094 0.063741094 0.063741094) to (2.9562589 2.9562589 2.9562589)

run 1
WARNING: No fixes with time integration, atoms won't move (src/verlet.cpp:60)
WARNING: Proc sub-domain size < neighbor skin, could lead to lost atoms (src/domain.cpp:966)
Per MPI rank memory allocation (min/avg/max) = 8.573 | 8.573 | 8.575 Mbytes
   Step         PotEng         TotEng           Lx             Ly             Lz           Volume         Press           Pxx            Pyy            Pzz      
        21  -10.082142     -10.082142      2.8925178      2.8925178      2.8925178      24.200711      284600.86      284600.86      284600.86      284600.86    
        22  -10.082142     -10.082142      2.8925178      2.8925178      2.8925178      24.200711      284600.86      284600.86      284600.86      284600.86    
Loop time of 0.000199 on 8 procs for 1 steps with 2 atoms

Performance: 434.171 ns/day, 0.055 hours/ns, 5025.126 timesteps/s, 10.050 katom-step/s
0.0% CPU use with 8 MPI tasks x 1 OpenMP threads

MPI task timing breakdown:
Section |  min time  |  avg time  |  max time  |%varavg| %total
---------------------------------------------------------------
Pair    | 0.000123   | 0.00013137 | 0.000152   |   0.0 | 66.02
Neigh   | 0          | 0          | 0          |   0.0 |  0.00
Comm    | 1.3e-05    | 2.45e-05   | 5.1e-05    |   0.0 | 12.31
Output  | 1.5e-05    | 3.4e-05    | 5.2e-05    |   0.0 | 17.09
Modify  | 0          | 2.5e-07    | 1e-06      |   0.0 |  0.13
Other   |            | 8.875e-06  |            |       |  4.46

Nlocal:           0.25 ave           2 max           0 min
Histogram: 7 0 0 0 0 0 0 0 0 1
Nghost:         249.75 ave         250 max         248 min
Histogram: 1 0 0 0 0 0 0 0 0 7
Neighs:             14 ave         112 max           0 min
Histogram: 7 0 0 0 0 0 0 0 0 1
FullNghs:           28 ave         224 max           0 min
Histogram: 7 0 0 0 0 0 0 0 0 1

Total # of neighbors = 224
Ave neighs/atom = 112
Neighbor list builds = 0
Dangerous builds = 0
variable  natoms equal "count(all)"
variable xlength equal "lx"
variable  volume equal "vol"
variable  etotal equal "etotal"
variable    ecoh equal "pe/v_natoms"
print "${xlength}, ${volume}, ${etotal}, ${ecoh}" append lattice_cohesive_energy.txt screen no

next i
jump SELF loop

change_box all x scale 1.0025 y scale 1.0025 z scale 1.0025 remap
Changing box ...
  orthogonal box = (0.060125447 0.063741094 0.063741094) to (2.9598746 2.9562589 2.9562589)
  orthogonal box = (0.060125447 0.060125447 0.063741094) to (2.9598746 2.9598746 2.9562589)
  orthogonal box = (0.060125447 0.060125447 0.060125447) to (2.9598746 2.9598746 2.9598746)

run 1
WARNING: No fixes with time integration, atoms won't move (src/verlet.cpp:60)
WARNING: Proc sub-domain size < neighbor skin, could lead to lost atoms (src/domain.cpp:966)
Per MPI rank memory allocation (min/avg/max) = 8.573 | 8.573 | 8.575 Mbytes
   Step         PotEng         TotEng           Lx             Ly             Lz           Volume         Press           Pxx            Pyy            Pzz      
        22  -10.113499     -10.113499      2.8997491      2.8997491      2.8997491      24.382671      267699.52      267699.52      267699.52      267699.52    
        23  -10.113499     -10.113499      2.8997491      2.8997491      2.8997491      24.382671      267699.52      267699.52      267699.52      267699.52    
Loop time of 0.00019825 on 8 procs for 1 steps with 2 atoms

Performance: 435.813 ns/day, 0.055 hours/ns, 5044.136 timesteps/s, 10.088 katom-step/s
0.0% CPU use with 8 MPI tasks x 1 OpenMP threads

MPI task timing breakdown:
Section |  min time  |  avg time  |  max time  |%varavg| %total
---------------------------------------------------------------
Pair    | 0.000124   | 0.00013175 | 0.000151   |   0.0 | 66.46
Neigh   | 0          | 0          | 0          |   0.0 |  0.00
Comm    | 1.2e-05    | 2.375e-05  | 5e-05      |   0.0 | 11.98
Output  | 1.5e-05    | 3.3625e-05 | 5.2e-05    |   0.0 | 16.96
Modify  | 0          | 1.25e-07   | 1e-06      |   0.0 |  0.06
Other   |            | 9e-06      |            |       |  4.54

Nlocal:           0.25 ave           2 max           0 min
Histogram: 7 0 0 0 0 0 0 0 0 1
Nghost:         249.75 ave         250 max         248 min
Histogram: 1 0 0 0 0 0 0 0 0 7
Neighs:             14 ave         112 max           0 min
Histogram: 7 0 0 0 0 0 0 0 0 1
FullNghs:           28 ave         224 max           0 min
Histogram: 7 0 0 0 0 0 0 0 0 1

Total # of neighbors = 224
Ave neighs/atom = 112
Neighbor list builds = 0
Dangerous builds = 0
variable  natoms equal "count(all)"
variable xlength equal "lx"
variable  volume equal "vol"
variable  etotal equal "etotal"
variable    ecoh equal "pe/v_natoms"
print "${xlength}, ${volume}, ${etotal}, ${ecoh}" append lattice_cohesive_energy.txt screen no

next i
jump SELF loop

change_box all x scale 1.0025 y scale 1.0025 z scale 1.0025 remap
Changing box ...
  orthogonal box = (0.05650076 0.060125447 0.060125447) to (2.9634992 2.9598746 2.9598746)
  orthogonal box = (0.05650076 0.05650076 0.060125447) to (2.9634992 2.9634992 2.9598746)
  orthogonal box = (0.05650076 0.05650076 0.05650076) to (2.9634992 2.9634992 2.9634992)

run 1
WARNING: No fixes with time integration, atoms won't move (src/verlet.cpp:60)
WARNING: Proc sub-domain size < neighbor skin, could lead to lost atoms (src/domain.cpp:966)
Per MPI rank memory allocation (min/avg/max) = 8.573 | 8.573 | 8.575 Mbytes
   Step         PotEng         TotEng           Lx             Ly             Lz           Volume         Press           Pxx            Pyy            Pzz      
        23  -10.143182     -10.143182      2.9069985      2.9069985      2.9069985      24.565998      251212.36      251212.36      251212.36      251212.36    
        24  -10.143182     -10.143182      2.9069985      2.9069985      2.9069985      24.565998      251212.36      251212.36      251212.36      251212.36    
Loop time of 0.000195375 on 8 procs for 1 steps with 2 atoms

Performance: 442.226 ns/day, 0.054 hours/ns, 5118.362 timesteps/s, 10.237 katom-step/s
0.0% CPU use with 8 MPI tasks x 1 OpenMP threads

MPI task timing breakdown:
Section |  min time  |  avg time  |  max time  |%varavg| %total
---------------------------------------------------------------
Pair    | 0.000123   | 0.0001305  | 0.000149   |   0.0 | 66.79
Neigh   | 0          | 0          | 0          |   0.0 |  0.00
Comm    | 1.3e-05    | 2.3375e-05 | 4.8e-05    |   0.0 | 11.96
Output  | 1.5e-05    | 3.25e-05   | 4.9e-05    |   0.0 | 16.63
Modify  | 0          | 3.75e-07   | 1e-06      |   0.0 |  0.19
Other   |            | 8.625e-06  |            |       |  4.41

Nlocal:           0.25 ave           2 max           0 min
Histogram: 7 0 0 0 0 0 0 0 0 1
Nghost:         249.75 ave         250 max         248 min
Histogram: 1 0 0 0 0 0 0 0 0 7
Neighs:             14 ave         112 max           0 min
Histogram: 7 0 0 0 0 0 0 0 0 1
FullNghs:           28 ave         224 max           0 min
Histogram: 7 0 0 0 0 0 0 0 0 1

Total # of neighbors = 224
Ave neighs/atom = 112
Neighbor list builds = 0
Dangerous builds = 0
variable  natoms equal "count(all)"
variable xlength equal "lx"
variable  volume equal "vol"
variable  etotal equal "etotal"
variable    ecoh equal "pe/v_natoms"
print "${xlength}, ${volume}, ${etotal}, ${ecoh}" append lattice_cohesive_energy.txt screen no

next i
jump SELF loop

change_box all x scale 1.0025 y scale 1.0025 z scale 1.0025 remap
Changing box ...
  orthogonal box = (0.052867012 0.05650076 0.05650076) to (2.967133 2.9634992 2.9634992)
  orthogonal box = (0.052867012 0.052867012 0.05650076) to (2.967133 2.967133 2.9634992)
  orthogonal box = (0.052867012 0.052867012 0.052867012) to (2.967133 2.967133 2.967133)

run 1
WARNING: No fixes with time integration, atoms won't move (src/verlet.cpp:60)
WARNING: Proc sub-domain size < neighbor skin, could lead to lost atoms (src/domain.cpp:966)
Per MPI rank memory allocation (min/avg/max) = 8.573 | 8.573 | 8.575 Mbytes
   Step         PotEng         TotEng           Lx             Ly             Lz           Volume         Press           Pxx            Pyy            Pzz      
        24  -10.171211     -10.171211      2.914266       2.914266       2.914266       24.750704      235132.1       235132.1       235132.1       235132.1     
        25  -10.171211     -10.171211      2.914266       2.914266       2.914266       24.750704      235132.1       235132.1       235132.1       235132.1     
Loop time of 0.00019475 on 8 procs for 1 steps with 2 atoms

Performance: 443.646 ns/day, 0.054 hours/ns, 5134.788 timesteps/s, 10.270 katom-step/s
0.0% CPU use with 8 MPI tasks x 1 OpenMP threads

MPI task timing breakdown:
Section |  min time  |  avg time  |  max time  |%varavg| %total
---------------------------------------------------------------
Pair    | 0.000121   | 0.00012912 | 0.000149   |   0.0 | 66.30
Neigh   | 0          | 0          | 0          |   0.0 |  0.00
Comm    | 1.3e-05    | 2.3375e-05 | 4.7e-05    |   0.0 | 12.00
Output  | 1.5e-05    | 3.3e-05    | 5e-05      |   0.0 | 16.94
Modify  | 0          | 5e-07      | 2e-06      |   0.0 |  0.26
Other   |            | 8.75e-06   |            |       |  4.49

Nlocal:           0.25 ave           2 max           0 min
Histogram: 7 0 0 0 0 0 0 0 0 1
Nghost:         249.75 ave         250 max         248 min
Histogram: 1 0 0 0 0 0 0 0 0 7
Neighs:             14 ave         112 max           0 min
Histogram: 7 0 0 0 0 0 0 0 0 1
FullNghs:           28 ave         224 max           0 min
Histogram: 7 0 0 0 0 0 0 0 0 1

Total # of neighbors = 224
Ave neighs/atom = 112
Neighbor list builds = 0
Dangerous builds = 0
variable  natoms equal "count(all)"
variable xlength equal "lx"
variable  volume equal "vol"
variable  etotal equal "etotal"
variable    ecoh equal "pe/v_natoms"
print "${xlength}, ${volume}, ${etotal}, ${ecoh}" append lattice_cohesive_energy.txt screen no

next i
jump SELF loop

change_box all x scale 1.0025 y scale 1.0025 z scale 1.0025 remap
Changing box ...
  orthogonal box = (0.04922418 0.052867012 0.052867012) to (2.9707758 2.967133 2.967133)
  orthogonal box = (0.04922418 0.04922418 0.052867012) to (2.9707758 2.9707758 2.967133)
  orthogonal box = (0.04922418 0.04922418 0.04922418) to (2.9707758 2.9707758 2.9707758)

run 1
WARNING: No fixes with time integration, atoms won't move (src/verlet.cpp:60)
WARNING: Proc sub-domain size < neighbor skin, could lead to lost atoms (src/domain.cpp:966)
Per MPI rank memory allocation (min/avg/max) = 8.573 | 8.573 | 8.575 Mbytes
   Step         PotEng         TotEng           Lx             Ly             Lz           Volume         Press           Pxx            Pyy            Pzz      
        25  -10.197606     -10.197606      2.9215516      2.9215516      2.9215516      24.936799      219451.56      219451.56      219451.56      219451.56    
        26  -10.197606     -10.197606      2.9215516      2.9215516      2.9215516      24.936799      219451.56      219451.56      219451.56      219451.56    
Loop time of 0.000195375 on 8 procs for 1 steps with 2 atoms

Performance: 442.226 ns/day, 0.054 hours/ns, 5118.362 timesteps/s, 10.237 katom-step/s
0.0% CPU use with 8 MPI tasks x 1 OpenMP threads

MPI task timing breakdown:
Section |  min time  |  avg time  |  max time  |%varavg| %total
---------------------------------------------------------------
Pair    | 0.000123   | 0.00013025 | 0.00015    |   0.0 | 66.67
Neigh   | 0          | 0          | 0          |   0.0 |  0.00
Comm    | 1.3e-05    | 2.4e-05    | 4.7e-05    |   0.0 | 12.28
Output  | 1.5e-05    | 3.275e-05  | 5e-05      |   0.0 | 16.76
Modify  | 0          | 1.25e-07   | 1e-06      |   0.0 |  0.06
Other   |            | 8.25e-06   |            |       |  4.22

Nlocal:           0.25 ave           2 max           0 min
Histogram: 7 0 0 0 0 0 0 0 0 1
Nghost:         249.75 ave         250 max         248 min
Histogram: 1 0 0 0 0 0 0 0 0 7
Neighs:             14 ave         112 max           0 min
Histogram: 7 0 0 0 0 0 0 0 0 1
FullNghs:           28 ave         224 max           0 min
Histogram: 7 0 0 0 0 0 0 0 0 1

Total # of neighbors = 224
Ave neighs/atom = 112
Neighbor list builds = 0
Dangerous builds = 0
variable  natoms equal "count(all)"
variable xlength equal "lx"
variable  volume equal "vol"
variable  etotal equal "etotal"
variable    ecoh equal "pe/v_natoms"
print "${xlength}, ${volume}, ${etotal}, ${ecoh}" append lattice_cohesive_energy.txt screen no

next i
jump SELF loop

change_box all x scale 1.0025 y scale 1.0025 z scale 1.0025 remap
Changing box ...
  orthogonal box = (0.04557224 0.04922418 0.04922418) to (2.9744278 2.9707758 2.9707758)
  orthogonal box = (0.04557224 0.04557224 0.04922418) to (2.9744278 2.9744278 2.9707758)
  orthogonal box = (0.04557224 0.04557224 0.04557224) to (2.9744278 2.9744278 2.9744278)

run 1
WARNING: No fixes with time integration, atoms won't move (src/verlet.cpp:60)
WARNING: Proc sub-domain size < neighbor skin, could lead to lost atoms (src/domain.cpp:966)
Per MPI rank memory allocation (min/avg/max) = 8.573 | 8.573 | 8.575 Mbytes
   Step         PotEng         TotEng           Lx             Ly             Lz           Volume         Press           Pxx            Pyy            Pzz      
        26  -10.222388     -10.222388      2.9288555      2.9288555      2.9288555      25.124293      204163.64      204163.64      204163.64      204163.64    
        27  -10.222388     -10.222388      2.9288555      2.9288555      2.9288555      25.124293      204163.64      204163.64      204163.64      204163.64    
Loop time of 0.000193875 on 8 procs for 1 steps with 2 atoms

Performance: 445.648 ns/day, 0.054 hours/ns, 5157.963 timesteps/s, 10.316 katom-step/s
0.0% CPU use with 8 MPI tasks x 1 OpenMP threads

MPI task timing breakdown:
Section |  min time  |  avg time  |  max time  |%varavg| %total
---------------------------------------------------------------
Pair    | 0.000123   | 0.00013012 | 0.000149   |   0.0 | 67.12
Neigh   | 0          | 0          | 0          |   0.0 |  0.00
Comm    | 1.2e-05    | 2.3e-05    | 4.7e-05    |   0.0 | 11.86
Output  | 1.5e-05    | 3.225e-05  | 4.8e-05    |   0.0 | 16.63
Modify  | 0          | 0          | 0          |   0.0 |  0.00
Other   |            | 8.5e-06    |            |       |  4.38

Nlocal:           0.25 ave           2 max           0 min
Histogram: 7 0 0 0 0 0 0 0 0 1
Nghost:         249.75 ave         250 max         248 min
Histogram: 1 0 0 0 0 0 0 0 0 7
Neighs:             14 ave         112 max           0 min
Histogram: 7 0 0 0 0 0 0 0 0 1
FullNghs:           28 ave         224 max           0 min
Histogram: 7 0 0 0 0 0 0 0 0 1

Total # of neighbors = 224
Ave neighs/atom = 112
Neighbor list builds = 0
Dangerous builds = 0
variable  natoms equal "count(all)"
variable xlength equal "lx"
variable  volume equal "vol"
variable  etotal equal "etotal"
variable    ecoh equal "pe/v_natoms"
print "${xlength}, ${volume}, ${etotal}, ${ecoh}" append lattice_cohesive_energy.txt screen no

next i
jump SELF loop

change_box all x scale 1.0025 y scale 1.0025 z scale 1.0025 remap
Changing box ...
  orthogonal box = (0.041911171 0.04557224 0.04557224) to (2.9780888 2.9744278 2.9744278)
  orthogonal box = (0.041911171 0.041911171 0.04557224) to (2.9780888 2.9780888 2.9744278)
  orthogonal box = (0.041911171 0.041911171 0.041911171) to (2.9780888 2.9780888 2.9780888)

run 1
WARNING: No fixes with time integration, atoms won't move (src/verlet.cpp:60)
WARNING: Proc sub-domain size < neighbor skin, could lead to lost atoms (src/domain.cpp:966)
Per MPI rank memory allocation (min/avg/max) = 8.573 | 8.573 | 8.575 Mbytes
   Step         PotEng         TotEng           Lx             Ly             Lz           Volume         Press           Pxx            Pyy            Pzz      
        27  -10.245576     -10.245576      2.9361777      2.9361777      2.9361777      25.313196      189261.34      189261.34      189261.34      189261.34    
        28  -10.245576     -10.245576      2.9361777      2.9361777      2.9361777      25.313196      189261.34      189261.34      189261.34      189261.34    
Loop time of 0.00022 on 8 procs for 1 steps with 2 atoms

Performance: 392.727 ns/day, 0.061 hours/ns, 4545.455 timesteps/s, 9.091 katom-step/s
0.0% CPU use with 8 MPI tasks x 1 OpenMP threads

MPI task timing breakdown:
Section |  min time  |  avg time  |  max time  |%varavg| %total
---------------------------------------------------------------
Pair    | 0.000164   | 0.00016663 | 0.000171   |   0.0 | 75.74
Neigh   | 0          | 0          | 0          |   0.0 |  0.00
Comm    | 1.9e-05    | 2.4125e-05 | 3e-05      |   0.0 | 10.97
Output  | 1.4e-05    | 1.9625e-05 | 2.4e-05    |   0.0 |  8.92
Modify  | 0          | 1.25e-07   | 1e-06      |   0.0 |  0.06
Other   |            | 9.5e-06    |            |       |  4.32

Nlocal:           0.25 ave           2 max           0 min
Histogram: 7 0 0 0 0 0 0 0 0 1
Nghost:         249.75 ave         250 max         248 min
Histogram: 1 0 0 0 0 0 0 0 0 7
Neighs:             14 ave         112 max           0 min
Histogram: 7 0 0 0 0 0 0 0 0 1
FullNghs:           28 ave         224 max           0 min
Histogram: 7 0 0 0 0 0 0 0 0 1

Total # of neighbors = 224
Ave neighs/atom = 112
Neighbor list builds = 0
Dangerous builds = 0
variable  natoms equal "count(all)"
variable xlength equal "lx"
variable  volume equal "vol"
variable  etotal equal "etotal"
variable    ecoh equal "pe/v_natoms"
print "${xlength}, ${volume}, ${etotal}, ${ecoh}" append lattice_cohesive_energy.txt screen no

next i
jump SELF loop

change_box all x scale 1.0025 y scale 1.0025 z scale 1.0025 remap
Changing box ...
  orthogonal box = (0.038240949 0.041911171 0.041911171) to (2.9817591 2.9780888 2.9780888)
  orthogonal box = (0.038240949 0.038240949 0.041911171) to (2.9817591 2.9817591 2.9780888)
  orthogonal box = (0.038240949 0.038240949 0.038240949) to (2.9817591 2.9817591 2.9817591)

run 1
WARNING: No fixes with time integration, atoms won't move (src/verlet.cpp:60)
WARNING: Proc sub-domain size < neighbor skin, could lead to lost atoms (src/domain.cpp:966)
Per MPI rank memory allocation (min/avg/max) = 8.573 | 8.573 | 8.575 Mbytes
   Step         PotEng         TotEng           Lx             Ly             Lz           Volume         Press           Pxx            Pyy            Pzz      
        28  -10.267191     -10.267191      2.9435181      2.9435181      2.9435181      25.50352       174737.76      174737.76      174737.76      174737.76    
        29  -10.267191     -10.267191      2.9435181      2.9435181      2.9435181      25.50352       174737.76      174737.76      174737.76      174737.76    
Loop time of 0.000151875 on 8 procs for 1 steps with 2 atoms

Performance: 568.889 ns/day, 0.042 hours/ns, 6584.362 timesteps/s, 13.169 katom-step/s
0.0% CPU use with 8 MPI tasks x 1 OpenMP threads

MPI task timing breakdown:
Section |  min time  |  avg time  |  max time  |%varavg| %total
---------------------------------------------------------------
Pair    | 0.000113   | 0.00011425 | 0.000117   |   0.0 | 75.23
Neigh   | 0          | 0          | 0          |   0.0 |  0.00
Comm    | 1.4e-05    | 1.7625e-05 | 2.3e-05    |   0.0 | 11.60
Output  | 1.1e-05    | 1.5875e-05 | 2e-05      |   0.0 | 10.45
Modify  | 0          | 1.25e-07   | 1e-06      |   0.0 |  0.08
Other   |            | 4e-06      |            |       |  2.63

Nlocal:           0.25 ave           2 max           0 min
Histogram: 7 0 0 0 0 0 0 0 0 1
Nghost:         249.75 ave         250 max         248 min
Histogram: 1 0 0 0 0 0 0 0 0 7
Neighs:             14 ave         112 max           0 min
Histogram: 7 0 0 0 0 0 0 0 0 1
FullNghs:           28 ave         224 max           0 min
Histogram: 7 0 0 0 0 0 0 0 0 1

Total # of neighbors = 224
Ave neighs/atom = 112
Neighbor list builds = 0
Dangerous builds = 0
variable  natoms equal "count(all)"
variable xlength equal "lx"
variable  volume equal "vol"
variable  etotal equal "etotal"
variable    ecoh equal "pe/v_natoms"
print "${xlength}, ${volume}, ${etotal}, ${ecoh}" append lattice_cohesive_energy.txt screen no

next i
jump SELF loop

change_box all x scale 1.0025 y scale 1.0025 z scale 1.0025 remap
Changing box ...
  orthogonal box = (0.034561551 0.038240949 0.038240949) to (2.9854384 2.9817591 2.9817591)
  orthogonal box = (0.034561551 0.034561551 0.038240949) to (2.9854384 2.9854384 2.9817591)
  orthogonal box = (0.034561551 0.034561551 0.034561551) to (2.9854384 2.9854384 2.9854384)

run 1
WARNING: No fixes with time integration, atoms won't move (src/verlet.cpp:60)
WARNING: Proc sub-domain size < neighbor skin, could lead to lost atoms (src/domain.cpp:966)
Per MPI rank memory allocation (min/avg/max) = 8.573 | 8.573 | 8.575 Mbytes
   Step         PotEng         TotEng           Lx             Ly             Lz           Volume         Press           Pxx            Pyy            Pzz      
        29  -10.287253     -10.287253      2.9508769      2.9508769      2.9508769      25.695275      160586.1       160586.1       160586.1       160586.1     
        30  -10.287253     -10.287253      2.9508769      2.9508769      2.9508769      25.695275      160586.1       160586.1       160586.1       160586.1     
Loop time of 0.000153875 on 8 procs for 1 steps with 2 atoms

Performance: 561.495 ns/day, 0.043 hours/ns, 6498.781 timesteps/s, 12.998 katom-step/s
0.0% CPU use with 8 MPI tasks x 1 OpenMP threads

MPI task timing breakdown:
Section |  min time  |  avg time  |  max time  |%varavg| %total
---------------------------------------------------------------
Pair    | 0.000113   | 0.000115   | 0.000117   |   0.0 | 74.74
Neigh   | 0          | 0          | 0          |   0.0 |  0.00
Comm    | 1.4e-05    | 1.75e-05   | 2.2e-05    |   0.0 | 11.37
Output  | 1.2e-05    | 1.7e-05    | 2.1e-05    |   0.0 | 11.05
Modify  | 0          | 0          | 0          |   0.0 |  0.00
Other   |            | 4.375e-06  |            |       |  2.84

Nlocal:           0.25 ave           2 max           0 min
Histogram: 7 0 0 0 0 0 0 0 0 1
Nghost:         249.75 ave         250 max         248 min
Histogram: 1 0 0 0 0 0 0 0 0 7
Neighs:             14 ave         112 max           0 min
Histogram: 7 0 0 0 0 0 0 0 0 1
FullNghs:           28 ave         224 max           0 min
Histogram: 7 0 0 0 0 0 0 0 0 1

Total # of neighbors = 224
Ave neighs/atom = 112
Neighbor list builds = 0
Dangerous builds = 0
variable  natoms equal "count(all)"
variable xlength equal "lx"
variable  volume equal "vol"
variable  etotal equal "etotal"
variable    ecoh equal "pe/v_natoms"
print "${xlength}, ${volume}, ${etotal}, ${ecoh}" append lattice_cohesive_energy.txt screen no

next i
jump SELF loop

change_box all x scale 1.0025 y scale 1.0025 z scale 1.0025 remap
Changing box ...
  orthogonal box = (0.030872955 0.034561551 0.034561551) to (2.989127 2.9854384 2.9854384)
  orthogonal box = (0.030872955 0.030872955 0.034561551) to (2.989127 2.989127 2.9854384)
  orthogonal box = (0.030872955 0.030872955 0.030872955) to (2.989127 2.989127 2.989127)

run 1
WARNING: No fixes with time integration, atoms won't move (src/verlet.cpp:60)
WARNING: Proc sub-domain size < neighbor skin, could lead to lost atoms (src/domain.cpp:966)
Per MPI rank memory allocation (min/avg/max) = 8.573 | 8.573 | 8.575 Mbytes
   Step         PotEng         TotEng           Lx             Ly             Lz           Volume         Press           Pxx            Pyy            Pzz      
        30  -10.305781     -10.305781      2.9582541      2.9582541      2.9582541      25.888472      146799.64      146799.64      146799.64      146799.64    
        31  -10.305781     -10.305781      2.9582541      2.9582541      2.9582541      25.888472      146799.64      146799.64      146799.64      146799.64    
Loop time of 0.000159875 on 8 procs for 1 steps with 2 atoms

Performance: 540.422 ns/day, 0.044 hours/ns, 6254.887 timesteps/s, 12.510 katom-step/s
0.0% CPU use with 8 MPI tasks x 1 OpenMP threads

MPI task timing breakdown:
Section |  min time  |  avg time  |  max time  |%varavg| %total
---------------------------------------------------------------
Pair    | 0.000117   | 0.000119   | 0.000123   |   0.0 | 74.43
Neigh   | 0          | 0          | 0          |   0.0 |  0.00
Comm    | 1.3e-05    | 1.85e-05   | 2.4e-05    |   0.0 | 11.57
Output  | 1.2e-05    | 1.7375e-05 | 2.2e-05    |   0.0 | 10.87
Modify  | 0          | 3.75e-07   | 1e-06      |   0.0 |  0.23
Other   |            | 4.625e-06  |            |       |  2.89

Nlocal:           0.25 ave           2 max           0 min
Histogram: 7 0 0 0 0 0 0 0 0 1
Nghost:         249.75 ave         250 max         248 min
Histogram: 1 0 0 0 0 0 0 0 0 7
Neighs:             14 ave         112 max           0 min
Histogram: 7 0 0 0 0 0 0 0 0 1
FullNghs:           28 ave         224 max           0 min
Histogram: 7 0 0 0 0 0 0 0 0 1

Total # of neighbors = 224
Ave neighs/atom = 112
Neighbor list builds = 0
Dangerous builds = 0
variable  natoms equal "count(all)"
variable xlength equal "lx"
variable  volume equal "vol"
variable  etotal equal "etotal"
variable    ecoh equal "pe/v_natoms"
print "${xlength}, ${volume}, ${etotal}, ${ecoh}" append lattice_cohesive_energy.txt screen no

next i
jump SELF loop

change_box all x scale 1.0025 y scale 1.0025 z scale 1.0025 remap
Changing box ...
  orthogonal box = (0.027175137 0.030872955 0.030872955) to (2.9928249 2.989127 2.989127)
  orthogonal box = (0.027175137 0.027175137 0.030872955) to (2.9928249 2.9928249 2.989127)
  orthogonal box = (0.027175137 0.027175137 0.027175137) to (2.9928249 2.9928249 2.9928249)

run 1
WARNING: No fixes with time integration, atoms won't move (src/verlet.cpp:60)
WARNING: Proc sub-domain size < neighbor skin, could lead to lost atoms (src/domain.cpp:966)
Per MPI rank memory allocation (min/avg/max) = 8.573 | 8.573 | 8.575 Mbytes
   Step         PotEng         TotEng           Lx             Ly             Lz           Volume         Press           Pxx            Pyy            Pzz      
        31  -10.322796     -10.322796      2.9656497      2.9656497      2.9656497      26.083122      133371.79      133371.79      133371.79      133371.79    
        32  -10.322796     -10.322796      2.9656497      2.9656497      2.9656497      26.083122      133371.79      133371.79      133371.79      133371.79    
Loop time of 0.00017875 on 8 procs for 1 steps with 2 atoms

Performance: 483.357 ns/day, 0.050 hours/ns, 5594.406 timesteps/s, 11.189 katom-step/s
0.0% CPU use with 8 MPI tasks x 1 OpenMP threads

MPI task timing breakdown:
Section |  min time  |  avg time  |  max time  |%varavg| %total
---------------------------------------------------------------
Pair    | 0.000125   | 0.00012875 | 0.000135   |   0.0 | 72.03
Neigh   | 0          | 0          | 0          |   0.0 |  0.00
Comm    | 1.5e-05    | 2.275e-05  | 3.1e-05    |   0.0 | 12.73
Output  | 1.3e-05    | 2.1e-05    | 3.1e-05    |   0.0 | 11.75
Modify  | 0          | 2.5e-07    | 1e-06      |   0.0 |  0.14
Other   |            | 6e-06      |            |       |  3.36

Nlocal:           0.25 ave           2 max           0 min
Histogram: 7 0 0 0 0 0 0 0 0 1
Nghost:         249.75 ave         250 max         248 min
Histogram: 1 0 0 0 0 0 0 0 0 7
Neighs:             14 ave         112 max           0 min
Histogram: 7 0 0 0 0 0 0 0 0 1
FullNghs:           28 ave         224 max           0 min
Histogram: 7 0 0 0 0 0 0 0 0 1

Total # of neighbors = 224
Ave neighs/atom = 112
Neighbor list builds = 0
Dangerous builds = 0
variable  natoms equal "count(all)"
variable xlength equal "lx"
variable  volume equal "vol"
variable  etotal equal "etotal"
variable    ecoh equal "pe/v_natoms"
print "${xlength}, ${volume}, ${etotal}, ${ecoh}" append lattice_cohesive_energy.txt screen no

next i
jump SELF loop

change_box all x scale 1.0025 y scale 1.0025 z scale 1.0025 remap
Changing box ...
  orthogonal box = (0.023468075 0.027175137 0.027175137) to (2.9965319 2.9928249 2.9928249)
  orthogonal box = (0.023468075 0.023468075 0.027175137) to (2.9965319 2.9965319 2.9928249)
  orthogonal box = (0.023468075 0.023468075 0.023468075) to (2.9965319 2.9965319 2.9965319)

run 1
WARNING: No fixes with time integration, atoms won't move (src/verlet.cpp:60)
WARNING: Proc sub-domain size < neighbor skin, could lead to lost atoms (src/domain.cpp:966)
Per MPI rank memory allocation (min/avg/max) = 8.573 | 8.573 | 8.575 Mbytes
   Step         PotEng         TotEng           Lx             Ly             Lz           Volume         Press           Pxx            Pyy            Pzz      
        32  -10.338316     -10.338316      2.9730638      2.9730638      2.9730638      26.279234      120295.99      120295.99      120295.99      120295.99    
        33  -10.338316     -10.338316      2.9730638      2.9730638      2.9730638      26.279234      120295.99      120295.99      120295.99      120295.99    
Loop time of 0.000169 on 8 procs for 1 steps with 2 atoms

Performance: 511.243 ns/day, 0.047 hours/ns, 5917.160 timesteps/s, 11.834 katom-step/s
0.0% CPU use with 8 MPI tasks x 1 OpenMP threads

MPI task timing breakdown:
Section |  min time  |  avg time  |  max time  |%varavg| %total
---------------------------------------------------------------
Pair    | 0.000119   | 0.00012212 | 0.000128   |   0.0 | 72.26
Neigh   | 0          | 0          | 0          |   0.0 |  0.00
Comm    | 1.5e-05    | 2.0125e-05 | 2.7e-05    |   0.0 | 11.91
Output  | 1.4e-05    | 2.1375e-05 | 2.9e-05    |   0.0 | 12.65
Modify  | 0          | 0          | 0          |   0.0 |  0.00
Other   |            | 5.375e-06  |            |       |  3.18

Nlocal:           0.25 ave           2 max           0 min
Histogram: 7 0 0 0 0 0 0 0 0 1
Nghost:         249.75 ave         250 max         248 min
Histogram: 1 0 0 0 0 0 0 0 0 7
Neighs:             14 ave         112 max           0 min
Histogram: 7 0 0 0 0 0 0 0 0 1
FullNghs:           28 ave         224 max           0 min
Histogram: 7 0 0 0 0 0 0 0 0 1

Total # of neighbors = 224
Ave neighs/atom = 112
Neighbor list builds = 0
Dangerous builds = 0
variable  natoms equal "count(all)"
variable xlength equal "lx"
variable  volume equal "vol"
variable  etotal equal "etotal"
variable    ecoh equal "pe/v_natoms"
print "${xlength}, ${volume}, ${etotal}, ${ecoh}" append lattice_cohesive_energy.txt screen no

next i
jump SELF loop

change_box all x scale 1.0025 y scale 1.0025 z scale 1.0025 remap
Changing box ...
  orthogonal box = (0.019751745 0.023468075 0.023468075) to (3.0002483 2.9965319 2.9965319)
  orthogonal box = (0.019751745 0.019751745 0.023468075) to (3.0002483 3.0002483 2.9965319)
  orthogonal box = (0.019751745 0.019751745 0.019751745) to (3.0002483 3.0002483 3.0002483)

run 1
WARNING: No fixes with time integration, atoms won't move (src/verlet.cpp:60)
WARNING: Proc sub-domain size < neighbor skin, could lead to lost atoms (src/domain.cpp:966)
Per MPI rank memory allocation (min/avg/max) = 8.573 | 8.573 | 8.575 Mbytes
   Step         PotEng         TotEng           Lx             Ly             Lz           Volume         Press           Pxx            Pyy            Pzz      
        33  -10.352362     -10.352362      2.9804965      2.9804965      2.9804965      26.476822      107565.81      107565.81      107565.81      107565.81    
        34  -10.352362     -10.352362      2.9804965      2.9804965      2.9804965      26.476822      107565.81      107565.81      107565.81      107565.81    
Loop time of 0.000169625 on 8 procs for 1 steps with 2 atoms

Performance: 509.359 ns/day, 0.047 hours/ns, 5895.357 timesteps/s, 11.791 katom-step/s
0.0% CPU use with 8 MPI tasks x 1 OpenMP threads

MPI task timing breakdown:
Section |  min time  |  avg time  |  max time  |%varavg| %total
---------------------------------------------------------------
Pair    | 0.000118   | 0.00012212 | 0.000128   |   0.0 | 72.00
Neigh   | 0          | 0          | 0          |   0.0 |  0.00
Comm    | 1.5e-05    | 2.05e-05   | 2.8e-05    |   0.0 | 12.09
Output  | 1.3e-05    | 2.025e-05  | 2.8e-05    |   0.0 | 11.94
Modify  | 0          | 1.25e-07   | 1e-06      |   0.0 |  0.07
Other   |            | 6.625e-06  |            |       |  3.91

Nlocal:           0.25 ave           2 max           0 min
Histogram: 7 0 0 0 0 0 0 0 0 1
Nghost:         249.75 ave         250 max         248 min
Histogram: 1 0 0 0 0 0 0 0 0 7
Neighs:             14 ave         112 max           0 min
Histogram: 7 0 0 0 0 0 0 0 0 1
FullNghs:           28 ave         224 max           0 min
Histogram: 7 0 0 0 0 0 0 0 0 1

Total # of neighbors = 224
Ave neighs/atom = 112
Neighbor list builds = 0
Dangerous builds = 0
variable  natoms equal "count(all)"
variable xlength equal "lx"
variable  volume equal "vol"
variable  etotal equal "etotal"
variable    ecoh equal "pe/v_natoms"
print "${xlength}, ${volume}, ${etotal}, ${ecoh}" append lattice_cohesive_energy.txt screen no

next i
jump SELF loop

change_box all x scale 1.0025 y scale 1.0025 z scale 1.0025 remap
Changing box ...
  orthogonal box = (0.016026125 0.019751745 0.019751745) to (3.0039739 3.0002483 3.0002483)
  orthogonal box = (0.016026125 0.016026125 0.019751745) to (3.0039739 3.0039739 3.0002483)
  orthogonal box = (0.016026125 0.016026125 0.016026125) to (3.0039739 3.0039739 3.0039739)

run 1
WARNING: No fixes with time integration, atoms won't move (src/verlet.cpp:60)
WARNING: Proc sub-domain size < neighbor skin, could lead to lost atoms (src/domain.cpp:966)
Per MPI rank memory allocation (min/avg/max) = 8.573 | 8.573 | 8.575 Mbytes
   Step         PotEng         TotEng           Lx             Ly             Lz           Volume         Press           Pxx            Pyy            Pzz      
        34  -10.364953     -10.364953      2.9879478      2.9879478      2.9879478      26.675895      95174.921      95174.921      95174.921      95174.921    
        35  -10.364953     -10.364953      2.9879478      2.9879478      2.9879478      26.675895      95174.921      95174.921      95174.921      95174.921    
Loop time of 0.000180625 on 8 procs for 1 steps with 2 atoms

Performance: 478.339 ns/day, 0.050 hours/ns, 5536.332 timesteps/s, 11.073 katom-step/s
0.0% CPU use with 8 MPI tasks x 1 OpenMP threads

MPI task timing breakdown:
Section |  min time  |  avg time  |  max time  |%varavg| %total
---------------------------------------------------------------
Pair    | 0.000128   | 0.00013137 | 0.000138   |   0.0 | 72.73
Neigh   | 0          | 0          | 0          |   0.0 |  0.00
Comm    | 1.4e-05    | 2.0875e-05 | 2.9e-05    |   0.0 | 11.56
Output  | 1.4e-05    | 2.15e-05   | 2.9e-05    |   0.0 | 11.90
Modify  | 0          | 0          | 0          |   0.0 |  0.00
Other   |            | 6.875e-06  |            |       |  3.81

Nlocal:           0.25 ave           2 max           0 min
Histogram: 7 0 0 0 0 0 0 0 0 1
Nghost:         249.75 ave         250 max         248 min
Histogram: 1 0 0 0 0 0 0 0 0 7
Neighs:             14 ave         112 max           0 min
Histogram: 7 0 0 0 0 0 0 0 0 1
FullNghs:           28 ave         224 max           0 min
Histogram: 7 0 0 0 0 0 0 0 0 1

Total # of neighbors = 224
Ave neighs/atom = 112
Neighbor list builds = 0
Dangerous builds = 0
variable  natoms equal "count(all)"
variable xlength equal "lx"
variable  volume equal "vol"
variable  etotal equal "etotal"
variable    ecoh equal "pe/v_natoms"
print "${xlength}, ${volume}, ${etotal}, ${ecoh}" append lattice_cohesive_energy.txt screen no

next i
jump SELF loop

change_box all x scale 1.0025 y scale 1.0025 z scale 1.0025 remap
Changing box ...
  orthogonal box = (0.01229119 0.016026125 0.016026125) to (3.0077088 3.0039739 3.0039739)
  orthogonal box = (0.01229119 0.01229119 0.016026125) to (3.0077088 3.0077088 3.0039739)
  orthogonal box = (0.01229119 0.01229119 0.01229119) to (3.0077088 3.0077088 3.0077088)

run 1
WARNING: No fixes with time integration, atoms won't move (src/verlet.cpp:60)
WARNING: Proc sub-domain size < neighbor skin, could lead to lost atoms (src/domain.cpp:966)
Per MPI rank memory allocation (min/avg/max) = 8.573 | 8.573 | 8.575 Mbytes
   Step         PotEng         TotEng           Lx             Ly             Lz           Volume         Press           Pxx            Pyy            Pzz      
        35  -10.376109     -10.376109      2.9954176      2.9954176      2.9954176      26.876465      83117.048      83117.048      83117.048      83117.048    
        36  -10.376109     -10.376109      2.9954176      2.9954176      2.9954176      26.876465      83117.048      83117.048      83117.048      83117.048    
Loop time of 0.00017175 on 8 procs for 1 steps with 2 atoms

Performance: 503.057 ns/day, 0.048 hours/ns, 5822.416 timesteps/s, 11.645 katom-step/s
0.0% CPU use with 8 MPI tasks x 1 OpenMP threads

MPI task timing breakdown:
Section |  min time  |  avg time  |  max time  |%varavg| %total
---------------------------------------------------------------
Pair    | 0.000119   | 0.0001225  | 0.000128   |   0.0 | 71.32
Neigh   | 0          | 0          | 0          |   0.0 |  0.00
Comm    | 1.4e-05    | 2.0375e-05 | 2.8e-05    |   0.0 | 11.86
Output  | 1.3e-05    | 2.125e-05  | 3e-05      |   0.0 | 12.37
Modify  | 0          | 2.5e-07    | 1e-06      |   0.0 |  0.15
Other   |            | 7.375e-06  |            |       |  4.29

Nlocal:           0.25 ave           2 max           0 min
Histogram: 7 0 0 0 0 0 0 0 0 1
Nghost:         249.75 ave         250 max         248 min
Histogram: 1 0 0 0 0 0 0 0 0 7
Neighs:             14 ave         112 max           0 min
Histogram: 7 0 0 0 0 0 0 0 0 1
FullNghs:           28 ave         224 max           0 min
Histogram: 7 0 0 0 0 0 0 0 0 1

Total # of neighbors = 224
Ave neighs/atom = 112
Neighbor list builds = 0
Dangerous builds = 0
variable  natoms equal "count(all)"
variable xlength equal "lx"
variable  volume equal "vol"
variable  etotal equal "etotal"
variable    ecoh equal "pe/v_natoms"
print "${xlength}, ${volume}, ${etotal}, ${ecoh}" append lattice_cohesive_energy.txt screen no

next i
jump SELF loop

change_box all x scale 1.0025 y scale 1.0025 z scale 1.0025 remap
Changing box ...
  orthogonal box = (0.0085469179 0.01229119 0.01229119) to (3.0114531 3.0077088 3.0077088)
  orthogonal box = (0.0085469179 0.0085469179 0.01229119) to (3.0114531 3.0114531 3.0077088)
  orthogonal box = (0.0085469179 0.0085469179 0.0085469179) to (3.0114531 3.0114531 3.0114531)

run 1
WARNING: No fixes with time integration, atoms won't move (src/verlet.cpp:60)
WARNING: Proc sub-domain size < neighbor skin, could lead to lost atoms (src/domain.cpp:966)
Per MPI rank memory allocation (min/avg/max) = 8.573 | 8.573 | 8.575 Mbytes
   Step         PotEng         TotEng           Lx             Ly             Lz           Volume         Press           Pxx            Pyy            Pzz      
        36  -10.385848     -10.385848      3.0029062      3.0029062      3.0029062      27.078542      71386.033      71386.033      71386.033      71386.033    
        37  -10.385848     -10.385848      3.0029062      3.0029062      3.0029062      27.078542      71386.033      71386.033      71386.033      71386.033    
Loop time of 0.000169875 on 8 procs for 1 steps with 2 atoms

Performance: 508.609 ns/day, 0.047 hours/ns, 5886.681 timesteps/s, 11.773 katom-step/s
0.0% CPU use with 8 MPI tasks x 1 OpenMP threads

MPI task timing breakdown:
Section |  min time  |  avg time  |  max time  |%varavg| %total
---------------------------------------------------------------
Pair    | 0.00012    | 0.00012338 | 0.000129   |   0.0 | 72.63
Neigh   | 0          | 0          | 0          |   0.0 |  0.00
Comm    | 1.4e-05    | 2.075e-05  | 2.8e-05    |   0.0 | 12.21
Output  | 1.3e-05    | 2.025e-05  | 2.9e-05    |   0.0 | 11.92
Modify  | 0          | 1.25e-07   | 1e-06      |   0.0 |  0.07
Other   |            | 5.375e-06  |            |       |  3.16

Nlocal:           0.25 ave           2 max           0 min
Histogram: 7 0 0 0 0 0 0 0 0 1
Nghost:         249.75 ave         250 max         248 min
Histogram: 1 0 0 0 0 0 0 0 0 7
Neighs:             14 ave         112 max           0 min
Histogram: 7 0 0 0 0 0 0 0 0 1
FullNghs:           28 ave         224 max           0 min
Histogram: 7 0 0 0 0 0 0 0 0 1

Total # of neighbors = 224
Ave neighs/atom = 112
Neighbor list builds = 0
Dangerous builds = 0
variable  natoms equal "count(all)"
variable xlength equal "lx"
variable  volume equal "vol"
variable  etotal equal "etotal"
variable    ecoh equal "pe/v_natoms"
print "${xlength}, ${volume}, ${etotal}, ${ecoh}" append lattice_cohesive_energy.txt screen no

next i
jump SELF loop

change_box all x scale 1.0025 y scale 1.0025 z scale 1.0025 remap
Changing box ...
  orthogonal box = (0.0047932852 0.0085469179 0.0085469179) to (3.0152067 3.0114531 3.0114531)
  orthogonal box = (0.0047932852 0.0047932852 0.0085469179) to (3.0152067 3.0152067 3.0114531)
  orthogonal box = (0.0047932852 0.0047932852 0.0047932852) to (3.0152067 3.0152067 3.0152067)

run 1
WARNING: No fixes with time integration, atoms won't move (src/verlet.cpp:60)
WARNING: Proc sub-domain size < neighbor skin, could lead to lost atoms (src/domain.cpp:966)
Per MPI rank memory allocation (min/avg/max) = 8.573 | 8.573 | 8.575 Mbytes
   Step         PotEng         TotEng           Lx             Ly             Lz           Volume         Press           Pxx            Pyy            Pzz      
        37  -10.39419      -10.39419       3.0104134      3.0104134      3.0104134      27.28214       59975.795      59975.795      59975.795      59975.795    
        38  -10.39419      -10.39419       3.0104134      3.0104134      3.0104134      27.28214       59975.795      59975.795      59975.795      59975.795    
Loop time of 0.000165625 on 8 procs for 1 steps with 2 atoms

Performance: 521.660 ns/day, 0.046 hours/ns, 6037.736 timesteps/s, 12.075 katom-step/s
0.0% CPU use with 8 MPI tasks x 1 OpenMP threads

MPI task timing breakdown:
Section |  min time  |  avg time  |  max time  |%varavg| %total
---------------------------------------------------------------
Pair    | 0.000116   | 0.000119   | 0.000125   |   0.0 | 71.85
Neigh   | 0          | 0          | 0          |   0.0 |  0.00
Comm    | 1.4e-05    | 1.975e-05  | 2.7e-05    |   0.0 | 11.92
Output  | 1.4e-05    | 2.025e-05  | 2.7e-05    |   0.0 | 12.23
Modify  | 0          | 1.25e-07   | 1e-06      |   0.0 |  0.08
Other   |            | 6.5e-06    |            |       |  3.92

Nlocal:           0.25 ave           2 max           0 min
Histogram: 7 0 0 0 0 0 0 0 0 1
Nghost:         249.75 ave         250 max         248 min
Histogram: 1 0 0 0 0 0 0 0 0 7
Neighs:             14 ave         112 max           0 min
Histogram: 7 0 0 0 0 0 0 0 0 1
FullNghs:           28 ave         224 max           0 min
Histogram: 7 0 0 0 0 0 0 0 0 1

Total # of neighbors = 224
Ave neighs/atom = 112
Neighbor list builds = 0
Dangerous builds = 0
variable  natoms equal "count(all)"
variable xlength equal "lx"
variable  volume equal "vol"
variable  etotal equal "etotal"
variable    ecoh equal "pe/v_natoms"
print "${xlength}, ${volume}, ${etotal}, ${ecoh}" append lattice_cohesive_energy.txt screen no

next i
jump SELF loop

change_box all x scale 1.0025 y scale 1.0025 z scale 1.0025 remap
Changing box ...
  orthogonal box = (0.0010302684 0.0047932852 0.0047932852) to (3.0189697 3.0152067 3.0152067)
  orthogonal box = (0.0010302684 0.0010302684 0.0047932852) to (3.0189697 3.0189697 3.0152067)
  orthogonal box = (0.0010302684 0.0010302684 0.0010302684) to (3.0189697 3.0189697 3.0189697)

run 1
WARNING: No fixes with time integration, atoms won't move (src/verlet.cpp:60)
WARNING: Proc sub-domain size < neighbor skin, could lead to lost atoms (src/domain.cpp:966)
Per MPI rank memory allocation (min/avg/max) = 8.573 | 8.573 | 8.575 Mbytes
   Step         PotEng         TotEng           Lx             Ly             Lz           Volume         Press           Pxx            Pyy            Pzz      
        38  -10.401154     -10.401154      3.0179395      3.0179395      3.0179395      27.487268      48880.331      48880.331      48880.331      48880.331    
        39  -10.401154     -10.401154      3.0179395      3.0179395      3.0179395      27.487268      48880.331      48880.331      48880.331      48880.331    
Loop time of 0.000163875 on 8 procs for 1 steps with 2 atoms

Performance: 527.231 ns/day, 0.046 hours/ns, 6102.212 timesteps/s, 12.204 katom-step/s
0.0% CPU use with 8 MPI tasks x 1 OpenMP threads

MPI task timing breakdown:
Section |  min time  |  avg time  |  max time  |%varavg| %total
---------------------------------------------------------------
Pair    | 0.000114   | 0.00011712 | 0.000123   |   0.0 | 71.47
Neigh   | 0          | 0          | 0          |   0.0 |  0.00
Comm    | 1.4e-05    | 2.0375e-05 | 2.7e-05    |   0.0 | 12.43
Output  | 1.3e-05    | 2.025e-05  | 2.8e-05    |   0.0 | 12.36
Modify  | 0          | 1.25e-07   | 1e-06      |   0.0 |  0.08
Other   |            | 6e-06      |            |       |  3.66

Nlocal:           0.25 ave           2 max           0 min
Histogram: 7 0 0 0 0 0 0 0 0 1
Nghost:         249.75 ave         250 max         248 min
Histogram: 1 0 0 0 0 0 0 0 0 7
Neighs:             14 ave         112 max           0 min
Histogram: 7 0 0 0 0 0 0 0 0 1
FullNghs:           28 ave         224 max           0 min
Histogram: 7 0 0 0 0 0 0 0 0 1

Total # of neighbors = 224
Ave neighs/atom = 112
Neighbor list builds = 0
Dangerous builds = 0
variable  natoms equal "count(all)"
variable xlength equal "lx"
variable  volume equal "vol"
variable  etotal equal "etotal"
variable    ecoh equal "pe/v_natoms"
print "${xlength}, ${volume}, ${etotal}, ${ecoh}" append lattice_cohesive_energy.txt screen no

next i
jump SELF loop

change_box all x scale 1.0025 y scale 1.0025 z scale 1.0025 remap
Changing box ...
  orthogonal box = (-0.0027421559 0.0010302684 0.0010302684) to (3.0227422 3.0189697 3.0189697)
  orthogonal box = (-0.0027421559 -0.0027421559 0.0010302684) to (3.0227422 3.0227422 3.0189697)
  orthogonal box = (-0.0027421559 -0.0027421559 -0.0027421559) to (3.0227422 3.0227422 3.0227422)

run 1
WARNING: No fixes with time integration, atoms won't move (src/verlet.cpp:60)
WARNING: Proc sub-domain size < neighbor skin, could lead to lost atoms (src/domain.cpp:966)
Per MPI rank memory allocation (min/avg/max) = 8.573 | 8.573 | 8.575 Mbytes
   Step         PotEng         TotEng           Lx             Ly             Lz           Volume         Press           Pxx            Pyy            Pzz      
        39  -10.40676      -10.40676       3.0254843      3.0254843      3.0254843      27.693938      38093.734      38093.734      38093.734      38093.734    
        40  -10.40676      -10.40676       3.0254843      3.0254843      3.0254843      27.693938      38093.734      38093.734      38093.734      38093.734    
Loop time of 0.00016475 on 8 procs for 1 steps with 2 atoms

Performance: 524.431 ns/day, 0.046 hours/ns, 6069.803 timesteps/s, 12.140 katom-step/s
0.0% CPU use with 8 MPI tasks x 1 OpenMP threads

MPI task timing breakdown:
Section |  min time  |  avg time  |  max time  |%varavg| %total
---------------------------------------------------------------
Pair    | 0.000115   | 0.00011787 | 0.000123   |   0.0 | 71.55
Neigh   | 0          | 0          | 0          |   0.0 |  0.00
Comm    | 1.4e-05    | 2.0875e-05 | 2.7e-05    |   0.0 | 12.67
Output  | 1.3e-05    | 1.9875e-05 | 2.9e-05    |   0.0 | 12.06
Modify  | 0          | 1.25e-07   | 1e-06      |   0.0 |  0.08
Other   |            | 6e-06      |            |       |  3.64

Nlocal:           0.25 ave           2 max           0 min
Histogram: 7 0 0 0 0 0 0 0 0 1
Nghost:         249.75 ave         250 max         248 min
Histogram: 1 0 0 0 0 0 0 0 0 7
Neighs:             14 ave         112 max           0 min
Histogram: 7 0 0 0 0 0 0 0 0 1
FullNghs:           28 ave         224 max           0 min
Histogram: 7 0 0 0 0 0 0 0 0 1

Total # of neighbors = 224
Ave neighs/atom = 112
Neighbor list builds = 0
Dangerous builds = 0
variable  natoms equal "count(all)"
variable xlength equal "lx"
variable  volume equal "vol"
variable  etotal equal "etotal"
variable    ecoh equal "pe/v_natoms"
print "${xlength}, ${volume}, ${etotal}, ${ecoh}" append lattice_cohesive_energy.txt screen no

next i
jump SELF loop

change_box all x scale 1.0025 y scale 1.0025 z scale 1.0025 remap
Changing box ...
  orthogonal box = (-0.0065240113 -0.0027421559 -0.0027421559) to (3.026524 3.0227422 3.0227422)
  orthogonal box = (-0.0065240113 -0.0065240113 -0.0027421559) to (3.026524 3.026524 3.0227422)
  orthogonal box = (-0.0065240113 -0.0065240113 -0.0065240113) to (3.026524 3.026524 3.026524)

run 1
WARNING: No fixes with time integration, atoms won't move (src/verlet.cpp:60)
WARNING: Proc sub-domain size < neighbor skin, could lead to lost atoms (src/domain.cpp:966)
Per MPI rank memory allocation (min/avg/max) = 8.573 | 8.573 | 8.575 Mbytes
   Step         PotEng         TotEng           Lx             Ly             Lz           Volume         Press           Pxx            Pyy            Pzz      
        40  -10.411025     -10.411025      3.033048       3.033048       3.033048       27.902162      27610.174      27610.174      27610.174      27610.174    
        41  -10.411025     -10.411025      3.033048       3.033048       3.033048       27.902162      27610.174      27610.174      27610.174      27610.174    
Loop time of 0.000171 on 8 procs for 1 steps with 2 atoms

Performance: 505.263 ns/day, 0.048 hours/ns, 5847.953 timesteps/s, 11.696 katom-step/s
0.0% CPU use with 8 MPI tasks x 1 OpenMP threads

MPI task timing breakdown:
Section |  min time  |  avg time  |  max time  |%varavg| %total
---------------------------------------------------------------
Pair    | 0.000121   | 0.00012337 | 0.00013    |   0.0 | 72.15
Neigh   | 0          | 0          | 0          |   0.0 |  0.00
Comm    | 1.5e-05    | 2.125e-05  | 2.8e-05    |   0.0 | 12.43
Output  | 1.3e-05    | 2.0875e-05 | 2.9e-05    |   0.0 | 12.21
Modify  | 0          | 1.25e-07   | 1e-06      |   0.0 |  0.07
Other   |            | 5.375e-06  |            |       |  3.14

Nlocal:           0.25 ave           2 max           0 min
Histogram: 7 0 0 0 0 0 0 0 0 1
Nghost:         249.75 ave         250 max         248 min
Histogram: 1 0 0 0 0 0 0 0 0 7
Neighs:             14 ave         112 max           0 min
Histogram: 7 0 0 0 0 0 0 0 0 1
FullNghs:           28 ave         224 max           0 min
Histogram: 7 0 0 0 0 0 0 0 0 1

Total # of neighbors = 224
Ave neighs/atom = 112
Neighbor list builds = 0
Dangerous builds = 0
variable  natoms equal "count(all)"
variable xlength equal "lx"
variable  volume equal "vol"
variable  etotal equal "etotal"
variable    ecoh equal "pe/v_natoms"
print "${xlength}, ${volume}, ${etotal}, ${ecoh}" append lattice_cohesive_energy.txt screen no

next i
jump SELF loop

change_box all x scale 1.0025 y scale 1.0025 z scale 1.0025 remap
Changing box ...
  orthogonal box = (-0.010315321 -0.0065240113 -0.0065240113) to (3.0303153 3.026524 3.026524)
  orthogonal box = (-0.010315321 -0.010315321 -0.0065240113) to (3.0303153 3.0303153 3.026524)
  orthogonal box = (-0.010315321 -0.010315321 -0.010315321) to (3.0303153 3.0303153 3.0303153)

run 1
WARNING: No fixes with time integration, atoms won't move (src/verlet.cpp:60)
WARNING: Proc sub-domain size < neighbor skin, could lead to lost atoms (src/domain.cpp:966)
Per MPI rank memory allocation (min/avg/max) = 8.573 | 8.573 | 8.575 Mbytes
   Step         PotEng         TotEng           Lx             Ly             Lz           Volume         Press           Pxx            Pyy            Pzz      
        41  -10.413969     -10.413969      3.0406306      3.0406306      3.0406306      28.111952      17423.912      17423.912      17423.912      17423.912    
        42  -10.413969     -10.413969      3.0406306      3.0406306      3.0406306      28.111952      17423.912      17423.912      17423.912      17423.912    
Loop time of 0.0002235 on 8 procs for 1 steps with 2 atoms

Performance: 386.577 ns/day, 0.062 hours/ns, 4474.273 timesteps/s, 8.949 katom-step/s
0.0% CPU use with 8 MPI tasks x 1 OpenMP threads

MPI task timing breakdown:
Section |  min time  |  avg time  |  max time  |%varavg| %total
---------------------------------------------------------------
Pair    | 0.000118   | 0.00013712 | 0.000178   |   0.0 | 61.35
Neigh   | 0          | 0          | 0          |   0.0 |  0.00
Comm    | 1.5e-05    | 3.3375e-05 | 8e-05      |   0.0 | 14.93
Output  | 1.6e-05    | 4.725e-05  | 8.3e-05    |   0.0 | 21.14
Modify  | 0          | 0          | 0          |   0.0 |  0.00
Other   |            | 5.75e-06   |            |       |  2.57

Nlocal:           0.25 ave           2 max           0 min
Histogram: 7 0 0 0 0 0 0 0 0 1
Nghost:         249.75 ave         250 max         248 min
Histogram: 1 0 0 0 0 0 0 0 0 7
Neighs:             14 ave         112 max           0 min
Histogram: 7 0 0 0 0 0 0 0 0 1
FullNghs:           28 ave         224 max           0 min
Histogram: 7 0 0 0 0 0 0 0 0 1

Total # of neighbors = 224
Ave neighs/atom = 112
Neighbor list builds = 0
Dangerous builds = 0
variable  natoms equal "count(all)"
variable xlength equal "lx"
variable  volume equal "vol"
variable  etotal equal "etotal"
variable    ecoh equal "pe/v_natoms"
print "${xlength}, ${volume}, ${etotal}, ${ecoh}" append lattice_cohesive_energy.txt screen no

next i
jump SELF loop

change_box all x scale 1.0025 y scale 1.0025 z scale 1.0025 remap
Changing box ...
  orthogonal box = (-0.01411611 -0.010315321 -0.010315321) to (3.0341161 3.0303153 3.0303153)
  orthogonal box = (-0.01411611 -0.01411611 -0.010315321) to (3.0341161 3.0341161 3.0303153)
  orthogonal box = (-0.01411611 -0.01411611 -0.01411611) to (3.0341161 3.0341161 3.0341161)

run 1
WARNING: No fixes with time integration, atoms won't move (src/verlet.cpp:60)
WARNING: Proc sub-domain size < neighbor skin, could lead to lost atoms (src/domain.cpp:966)
Per MPI rank memory allocation (min/avg/max) = 8.573 | 8.573 | 8.575 Mbytes
   Step         PotEng         TotEng           Lx             Ly             Lz           Volume         Press           Pxx            Pyy            Pzz      
        42  -10.415611     -10.415611      3.0482322      3.0482322      3.0482322      28.323319      7529.2939      7529.2939      7529.2939      7529.2939    
        43  -10.415611     -10.415611      3.0482322      3.0482322      3.0482322      28.323319      7529.2939      7529.2939      7529.2939      7529.2939    
Loop time of 0.000163625 on 8 procs for 1 steps with 2 atoms

Performance: 528.037 ns/day, 0.045 hours/ns, 6111.536 timesteps/s, 12.223 katom-step/s
0.0% CPU use with 8 MPI tasks x 1 OpenMP threads

MPI task timing breakdown:
Section |  min time  |  avg time  |  max time  |%varavg| %total
---------------------------------------------------------------
Pair    | 0.000114   | 0.00011688 | 0.000123   |   0.0 | 71.43
Neigh   | 0          | 0          | 0          |   0.0 |  0.00
Comm    | 1.5e-05    | 2.1e-05    | 2.8e-05    |   0.0 | 12.83
Output  | 1.3e-05    | 2.0375e-05 | 2.9e-05    |   0.0 | 12.45
Modify  | 0          | 1.25e-07   | 1e-06      |   0.0 |  0.08
Other   |            | 5.25e-06   |            |       |  3.21

Nlocal:           0.25 ave           2 max           0 min
Histogram: 7 0 0 0 0 0 0 0 0 1
Nghost:         249.75 ave         250 max         248 min
Histogram: 1 0 0 0 0 0 0 0 0 7
Neighs:             14 ave         112 max           0 min
Histogram: 7 0 0 0 0 0 0 0 0 1
FullNghs:           28 ave         224 max           0 min
Histogram: 7 0 0 0 0 0 0 0 0 1

Total # of neighbors = 224
Ave neighs/atom = 112
Neighbor list builds = 0
Dangerous builds = 0
variable  natoms equal "count(all)"
variable xlength equal "lx"
variable  volume equal "vol"
variable  etotal equal "etotal"
variable    ecoh equal "pe/v_natoms"
print "${xlength}, ${volume}, ${etotal}, ${ecoh}" append lattice_cohesive_energy.txt screen no

next i
jump SELF loop

change_box all x scale 1.0025 y scale 1.0025 z scale 1.0025 remap
Changing box ...
  orthogonal box = (-0.0179264 -0.01411611 -0.01411611) to (3.0379264 3.0341161 3.0341161)
  orthogonal box = (-0.0179264 -0.0179264 -0.01411611) to (3.0379264 3.0379264 3.0341161)
  orthogonal box = (-0.0179264 -0.0179264 -0.0179264) to (3.0379264 3.0379264 3.0379264)

run 1
WARNING: No fixes with time integration, atoms won't move (src/verlet.cpp:60)
WARNING: Proc sub-domain size < neighbor skin, could lead to lost atoms (src/domain.cpp:966)
Per MPI rank memory allocation (min/avg/max) = 8.573 | 8.573 | 8.575 Mbytes
   Step         PotEng         TotEng           Lx             Ly             Lz           Volume         Press           Pxx            Pyy            Pzz      
        43  -10.41597      -10.41597       3.0558528      3.0558528      3.0558528      28.536276     -2079.2667     -2079.2667     -2079.2667     -2079.2667    
        44  -10.41597      -10.41597       3.0558528      3.0558528      3.0558528      28.536276     -2079.2667     -2079.2667     -2079.2667     -2079.2667    
Loop time of 0.000163 on 8 procs for 1 steps with 2 atoms

Performance: 530.061 ns/day, 0.045 hours/ns, 6134.969 timesteps/s, 12.270 katom-step/s
0.0% CPU use with 8 MPI tasks x 1 OpenMP threads

MPI task timing breakdown:
Section |  min time  |  avg time  |  max time  |%varavg| %total
---------------------------------------------------------------
Pair    | 0.000115   | 0.0001175  | 0.000123   |   0.0 | 72.09
Neigh   | 0          | 0          | 0          |   0.0 |  0.00
Comm    | 1.4e-05    | 2e-05      | 2.6e-05    |   0.0 | 12.27
Output  | 1.3e-05    | 1.975e-05  | 2.7e-05    |   0.0 | 12.12
Modify  | 0          | 1.25e-07   | 1e-06      |   0.0 |  0.08
Other   |            | 5.625e-06  |            |       |  3.45

Nlocal:           0.25 ave           2 max           0 min
Histogram: 7 0 0 0 0 0 0 0 0 1
Nghost:         249.75 ave         250 max         248 min
Histogram: 1 0 0 0 0 0 0 0 0 7
Neighs:             14 ave         112 max           0 min
Histogram: 7 0 0 0 0 0 0 0 0 1
FullNghs:           28 ave         224 max           0 min
Histogram: 7 0 0 0 0 0 0 0 0 1

Total # of neighbors = 224
Ave neighs/atom = 112
Neighbor list builds = 0
Dangerous builds = 0
variable  natoms equal "count(all)"
variable xlength equal "lx"
variable  volume equal "vol"
variable  etotal equal "etotal"
variable    ecoh equal "pe/v_natoms"
print "${xlength}, ${volume}, ${etotal}, ${ecoh}" append lattice_cohesive_energy.txt screen no

next i
jump SELF loop

change_box all x scale 1.0025 y scale 1.0025 z scale 1.0025 remap
Changing box ...
  orthogonal box = (-0.021746216 -0.0179264 -0.0179264) to (3.0417462 3.0379264 3.0379264)
  orthogonal box = (-0.021746216 -0.021746216 -0.0179264) to (3.0417462 3.0417462 3.0379264)
  orthogonal box = (-0.021746216 -0.021746216 -0.021746216) to (3.0417462 3.0417462 3.0417462)

run 1
WARNING: No fixes with time integration, atoms won't move (src/verlet.cpp:60)
WARNING: Proc sub-domain size < neighbor skin, could lead to lost atoms (src/domain.cpp:966)
Per MPI rank memory allocation (min/avg/max) = 8.573 | 8.573 | 8.575 Mbytes
   Step         PotEng         TotEng           Lx             Ly             Lz           Volume         Press           Pxx            Pyy            Pzz      
        44  -10.415063     -10.415063      3.0634924      3.0634924      3.0634924      28.750833     -11407.268     -11407.268     -11407.268     -11407.268    
        45  -10.415063     -10.415063      3.0634924      3.0634924      3.0634924      28.750833     -11407.268     -11407.268     -11407.268     -11407.268    
Loop time of 0.000162125 on 8 procs for 1 steps with 2 atoms

Performance: 532.922 ns/day, 0.045 hours/ns, 6168.080 timesteps/s, 12.336 katom-step/s
0.0% CPU use with 8 MPI tasks x 1 OpenMP threads

MPI task timing breakdown:
Section |  min time  |  avg time  |  max time  |%varavg| %total
---------------------------------------------------------------
Pair    | 0.000113   | 0.00011575 | 0.000122   |   0.0 | 71.40
Neigh   | 0          | 0          | 0          |   0.0 |  0.00
Comm    | 1.4e-05    | 2.0375e-05 | 2.7e-05    |   0.0 | 12.57
Output  | 1.4e-05    | 2.0625e-05 | 2.8e-05    |   0.0 | 12.72
Modify  | 0          | 1.25e-07   | 1e-06      |   0.0 |  0.08
Other   |            | 5.25e-06   |            |       |  3.24

Nlocal:           0.25 ave           2 max           0 min
Histogram: 7 0 0 0 0 0 0 0 0 1
Nghost:         249.75 ave         250 max         248 min
Histogram: 1 0 0 0 0 0 0 0 0 7
Neighs:             14 ave         112 max           0 min
Histogram: 7 0 0 0 0 0 0 0 0 1
FullNghs:           28 ave         224 max           0 min
Histogram: 7 0 0 0 0 0 0 0 0 1

Total # of neighbors = 224
Ave neighs/atom = 112
Neighbor list builds = 0
Dangerous builds = 0
variable  natoms equal "count(all)"
variable xlength equal "lx"
variable  volume equal "vol"
variable  etotal equal "etotal"
variable    ecoh equal "pe/v_natoms"
print "${xlength}, ${volume}, ${etotal}, ${ecoh}" append lattice_cohesive_energy.txt screen no

next i
jump SELF loop

change_box all x scale 1.0025 y scale 1.0025 z scale 1.0025 remap
Changing box ...
  orthogonal box = (-0.025575581 -0.021746216 -0.021746216) to (3.0455756 3.0417462 3.0417462)
  orthogonal box = (-0.025575581 -0.025575581 -0.021746216) to (3.0455756 3.0455756 3.0417462)
  orthogonal box = (-0.025575581 -0.025575581 -0.025575581) to (3.0455756 3.0455756 3.0455756)

run 1
WARNING: No fixes with time integration, atoms won't move (src/verlet.cpp:60)
WARNING: Proc sub-domain size < neighbor skin, could lead to lost atoms (src/domain.cpp:966)
Per MPI rank memory allocation (min/avg/max) = 8.573 | 8.573 | 8.575 Mbytes
   Step         PotEng         TotEng           Lx             Ly             Lz           Volume         Press           Pxx            Pyy            Pzz      
        45  -10.412909     -10.412909      3.0711512      3.0711512      3.0711512      28.967004     -20460.126     -20460.126     -20460.126     -20460.126    
        46  -10.412909     -10.412909      3.0711512      3.0711512      3.0711512      28.967004     -20460.126     -20460.126     -20460.126     -20460.126    
Loop time of 0.000164375 on 8 procs for 1 steps with 2 atoms

Performance: 525.627 ns/day, 0.046 hours/ns, 6083.650 timesteps/s, 12.167 katom-step/s
0.0% CPU use with 8 MPI tasks x 1 OpenMP threads

MPI task timing breakdown:
Section |  min time  |  avg time  |  max time  |%varavg| %total
---------------------------------------------------------------
Pair    | 0.000113   | 0.0001175  | 0.000123   |   0.0 | 71.48
Neigh   | 0          | 0          | 0          |   0.0 |  0.00
Comm    | 1.5e-05    | 2.05e-05   | 2.8e-05    |   0.0 | 12.47
Output  | 1.3e-05    | 2e-05      | 2.9e-05    |   0.0 | 12.17
Modify  | 0          | 0          | 0          |   0.0 |  0.00
Other   |            | 6.375e-06  |            |       |  3.88

Nlocal:           0.25 ave           2 max           0 min
Histogram: 7 0 0 0 0 0 0 0 0 1
Nghost:         249.75 ave         250 max         248 min
Histogram: 1 0 0 0 0 0 0 0 0 7
Neighs:             14 ave         112 max           0 min
Histogram: 7 0 0 0 0 0 0 0 0 1
FullNghs:           28 ave         224 max           0 min
Histogram: 7 0 0 0 0 0 0 0 0 1

Total # of neighbors = 224
Ave neighs/atom = 112
Neighbor list builds = 0
Dangerous builds = 0
variable  natoms equal "count(all)"
variable xlength equal "lx"
variable  volume equal "vol"
variable  etotal equal "etotal"
variable    ecoh equal "pe/v_natoms"
print "${xlength}, ${volume}, ${etotal}, ${ecoh}" append lattice_cohesive_energy.txt screen no

next i
jump SELF loop

change_box all x scale 1.0025 y scale 1.0025 z scale 1.0025 remap
Changing box ...
  orthogonal box = (-0.02941452 -0.025575581 -0.025575581) to (3.0494145 3.0455756 3.0455756)
  orthogonal box = (-0.02941452 -0.02941452 -0.025575581) to (3.0494145 3.0494145 3.0455756)
  orthogonal box = (-0.02941452 -0.02941452 -0.02941452) to (3.0494145 3.0494145 3.0494145)

run 1
WARNING: No fixes with time integration, atoms won't move (src/verlet.cpp:60)
WARNING: Proc sub-domain size < neighbor skin, could lead to lost atoms (src/domain.cpp:966)
Per MPI rank memory allocation (min/avg/max) = 8.573 | 8.573 | 8.575 Mbytes
   Step         PotEng         TotEng           Lx             Ly             Lz           Volume         Press           Pxx            Pyy            Pzz      
        46  -10.409527     -10.409527      3.078829       3.078829       3.078829       29.1848       -29243.18      -29243.18      -29243.18      -29243.18     
        47  -10.409527     -10.409527      3.078829       3.078829       3.078829       29.1848       -29243.18      -29243.18      -29243.18      -29243.18     
Loop time of 0.000165 on 8 procs for 1 steps with 2 atoms

Performance: 523.636 ns/day, 0.046 hours/ns, 6060.606 timesteps/s, 12.121 katom-step/s
0.0% CPU use with 8 MPI tasks x 1 OpenMP threads

MPI task timing breakdown:
[...]
Histogram: 1 0 0 0 0 0 0 0 0 7
Neighs:             11 ave          88 max           0 min
Histogram: 7 0 0 0 0 0 0 0 0 1
FullNghs:           22 ave         176 max           0 min
Histogram: 7 0 0 0 0 0 0 0 0 1

Total # of neighbors = 176
Ave neighs/atom = 88
Neighbor list builds = 0
Dangerous builds = 0
variable  natoms equal "count(all)"
variable xlength equal "lx"
variable  volume equal "vol"
variable  etotal equal "etotal"
variable    ecoh equal "pe/v_natoms"
print "${xlength}, ${volume}, ${etotal}, ${ecoh}" append lattice_cohesive_energy.txt screen no

next i
jump SELF loop

change_box all x scale 1.0025 y scale 1.0025 z scale 1.0025 remap
Changing box ...
  orthogonal box = (-0.088163833 -0.084178387 -0.084178387) to (3.1081638 3.1041784 3.1041784)
  orthogonal box = (-0.088163833 -0.088163833 -0.084178387) to (3.1081638 3.1081638 3.1041784)
  orthogonal box = (-0.088163833 -0.088163833 -0.088163833) to (3.1081638 3.1081638 3.1081638)

run 1
WARNING: No fixes with time integration, atoms won't move (src/verlet.cpp:60)
WARNING: Proc sub-domain size < neighbor skin, could lead to lost atoms (src/domain.cpp:966)
Per MPI rank memory allocation (min/avg/max) = 8.573 | 8.573 | 8.575 Mbytes
   Step         PotEng         TotEng           Lx             Ly             Lz           Volume         Press           Pxx            Pyy            Pzz      
        61  -10.223546     -10.223546      3.1963277      3.1963277      3.1963277      32.655315     -132010.89     -132010.89     -132010.89     -132010.89    
        62  -10.223546     -10.223546      3.1963277      3.1963277      3.1963277      32.655315     -132010.89     -132010.89     -132010.89     -132010.89    
Loop time of 0.0001965 on 8 procs for 1 steps with 2 atoms

Performance: 439.695 ns/day, 0.055 hours/ns, 5089.059 timesteps/s, 10.178 katom-step/s
0.0% CPU use with 8 MPI tasks x 1 OpenMP threads

MPI task timing breakdown:
Section |  min time  |  avg time  |  max time  |%varavg| %total
---------------------------------------------------------------
Pair    | 0.000124   | 0.00013162 | 0.00015    |   0.0 | 66.98
Neigh   | 0          | 0          | 0          |   0.0 |  0.00
Comm    | 1.4e-05    | 2.4625e-05 | 4.8e-05    |   0.0 | 12.53
Output  | 1.5e-05    | 3.2375e-05 | 4.7e-05    |   0.0 | 16.48
Modify  | 0          | 0          | 0          |   0.0 |  0.00
Other   |            | 7.875e-06  |            |       |  4.01

Nlocal:           0.25 ave           2 max           0 min
Histogram: 7 0 0 0 0 0 0 0 0 1
Nghost:         249.75 ave         250 max         248 min
Histogram: 1 0 0 0 0 0 0 0 0 7
Neighs:             11 ave          88 max           0 min
Histogram: 7 0 0 0 0 0 0 0 0 1
FullNghs:           22 ave         176 max           0 min
Histogram: 7 0 0 0 0 0 0 0 0 1

Total # of neighbors = 176
Ave neighs/atom = 88
Neighbor list builds = 0
Dangerous builds = 0
variable  natoms equal "count(all)"
variable xlength equal "lx"
variable  volume equal "vol"
variable  etotal equal "etotal"
variable    ecoh equal "pe/v_natoms"
print "${xlength}, ${volume}, ${etotal}, ${ecoh}" append lattice_cohesive_energy.txt screen no

next i
jump SELF loop

change_box all x scale 1.0025 y scale 1.0025 z scale 1.0025 remap
Changing box ...
  orthogonal box = (-0.092159242 -0.088163833 -0.088163833) to (3.1121592 3.1081638 3.1081638)
  orthogonal box = (-0.092159242 -0.092159242 -0.088163833) to (3.1121592 3.1121592 3.1081638)
  orthogonal box = (-0.092159242 -0.092159242 -0.092159242) to (3.1121592 3.1121592 3.1121592)

run 1
WARNING: No fixes with time integration, atoms won't move (src/verlet.cpp:60)
WARNING: Proc sub-domain size < neighbor skin, could lead to lost atoms (src/domain.cpp:966)
Per MPI rank memory allocation (min/avg/max) = 8.573 | 8.573 | 8.575 Mbytes
   Step         PotEng         TotEng           Lx             Ly             Lz           Volume         Press           Pxx            Pyy            Pzz      
        62  -10.20292      -10.20292       3.2043185      3.2043185      3.2043185      32.900843     -137141.95     -137141.95     -137141.95     -137141.95    
        63  -10.20292      -10.20292       3.2043185      3.2043185      3.2043185      32.900843     -137141.95     -137141.95     -137141.95     -137141.95    
Loop time of 0.000197125 on 8 procs for 1 steps with 2 atoms

Performance: 438.301 ns/day, 0.055 hours/ns, 5072.923 timesteps/s, 10.146 katom-step/s
0.0% CPU use with 8 MPI tasks x 1 OpenMP threads

MPI task timing breakdown:
Section |  min time  |  avg time  |  max time  |%varavg| %total
---------------------------------------------------------------
Pair    | 0.000124   | 0.000133   | 0.000151   |   0.0 | 67.47
Neigh   | 0          | 0          | 0          |   0.0 |  0.00
Comm    | 1.4e-05    | 2.4e-05    | 4.5e-05    |   0.0 | 12.18
Output  | 1.6e-05    | 3.2125e-05 | 4.6e-05    |   0.0 | 16.30
Modify  | 0          | 0          | 0          |   0.0 |  0.00
Other   |            | 8e-06      |            |       |  4.06

Nlocal:           0.25 ave           2 max           0 min
Histogram: 7 0 0 0 0 0 0 0 0 1
Nghost:         249.75 ave         250 max         248 min
Histogram: 1 0 0 0 0 0 0 0 0 7
Neighs:             11 ave          88 max           0 min
Histogram: 7 0 0 0 0 0 0 0 0 1
FullNghs:           22 ave         176 max           0 min
Histogram: 7 0 0 0 0 0 0 0 0 1

Total # of neighbors = 176
Ave neighs/atom = 88
Neighbor list builds = 0
Dangerous builds = 0
variable  natoms equal "count(all)"
variable xlength equal "lx"
variable  volume equal "vol"
variable  etotal equal "etotal"
variable    ecoh equal "pe/v_natoms"
print "${xlength}, ${volume}, ${etotal}, ${ecoh}" append lattice_cohesive_energy.txt screen no

next i
jump SELF loop

change_box all x scale 1.0025 y scale 1.0025 z scale 1.0025 remap
Changing box ...
  orthogonal box = (-0.09616464 -0.092159242 -0.092159242) to (3.1161646 3.1121592 3.1121592)
  orthogonal box = (-0.09616464 -0.09616464 -0.092159242) to (3.1161646 3.1161646 3.1121592)
  orthogonal box = (-0.09616464 -0.09616464 -0.09616464) to (3.1161646 3.1161646 3.1161646)

run 1
WARNING: No fixes with time integration, atoms won't move (src/verlet.cpp:60)
WARNING: Proc sub-domain size < neighbor skin, could lead to lost atoms (src/domain.cpp:966)
Per MPI rank memory allocation (min/avg/max) = 8.573 | 8.573 | 8.575 Mbytes
   Step         PotEng         TotEng           Lx             Ly             Lz           Volume         Press           Pxx            Pyy            Pzz      
        63  -10.181361     -10.181361      3.2123293      3.2123293      3.2123293      33.148217     -142082.7      -142082.7      -142082.7      -142082.7     
        64  -10.181361     -10.181361      3.2123293      3.2123293      3.2123293      33.148217     -142082.7      -142082.7      -142082.7      -142082.7     
Loop time of 0.0002625 on 8 procs for 1 steps with 2 atoms

Performance: 329.143 ns/day, 0.073 hours/ns, 3809.524 timesteps/s, 7.619 katom-step/s
0.0% CPU use with 8 MPI tasks x 1 OpenMP threads

MPI task timing breakdown:
Section |  min time  |  avg time  |  max time  |%varavg| %total
---------------------------------------------------------------
Pair    | 0.000139   | 0.00016787 | 0.000214   |   0.0 | 63.95
Neigh   | 0          | 0          | 0          |   0.0 |  0.00
Comm    | 1.5e-05    | 3.7875e-05 | 9.6e-05    |   0.0 | 14.43
Output  | 1.7e-05    | 4.925e-05  | 9.8e-05    |   0.0 | 18.76
Modify  | 0          | 1.25e-07   | 1e-06      |   0.0 |  0.05
Other   |            | 7.375e-06  |            |       |  2.81

Nlocal:           0.25 ave           2 max           0 min
Histogram: 7 0 0 0 0 0 0 0 0 1
Nghost:         249.75 ave         250 max         248 min
Histogram: 1 0 0 0 0 0 0 0 0 7
Neighs:              8 ave          64 max           0 min
Histogram: 7 0 0 0 0 0 0 0 0 1
FullNghs:           16 ave         128 max           0 min
Histogram: 7 0 0 0 0 0 0 0 0 1

Total # of neighbors = 128
Ave neighs/atom = 64
Neighbor list builds = 0
Dangerous builds = 0
variable  natoms equal "count(all)"
variable xlength equal "lx"
variable  volume equal "vol"
variable  etotal equal "etotal"
variable    ecoh equal "pe/v_natoms"
print "${xlength}, ${volume}, ${etotal}, ${ecoh}" append lattice_cohesive_energy.txt screen no

next i
jump SELF loop

change_box all x scale 1.0025 y scale 1.0025 z scale 1.0025 remap
Changing box ...
  orthogonal box = (-0.10018005 -0.09616464 -0.09616464) to (3.1201801 3.1161646 3.1161646)
  orthogonal box = (-0.10018005 -0.10018005 -0.09616464) to (3.1201801 3.1201801 3.1161646)
  orthogonal box = (-0.10018005 -0.10018005 -0.10018005) to (3.1201801 3.1201801 3.1201801)

run 1
WARNING: No fixes with time integration, atoms won't move (src/verlet.cpp:60)
WARNING: Proc sub-domain size < neighbor skin, could lead to lost atoms (src/domain.cpp:966)
Per MPI rank memory allocation (min/avg/max) = 8.573 | 8.573 | 8.575 Mbytes
   Step         PotEng         TotEng           Lx             Ly             Lz           Volume         Press           Pxx            Pyy            Pzz      
        64  -10.158886     -10.158886      3.2203601      3.2203601      3.2203601      33.39745      -146837.18     -146837.18     -146837.18     -146837.18    
        65  -10.158886     -10.158886      3.2203601      3.2203601      3.2203601      33.39745      -146837.18     -146837.18     -146837.18     -146837.18    
Loop time of 0.00019675 on 8 procs for 1 steps with 2 atoms

Performance: 439.136 ns/day, 0.055 hours/ns, 5082.592 timesteps/s, 10.165 katom-step/s
0.0% CPU use with 8 MPI tasks x 1 OpenMP threads

MPI task timing breakdown:
Section |  min time  |  avg time  |  max time  |%varavg| %total
---------------------------------------------------------------
Pair    | 0.000124   | 0.00013325 | 0.00015    |   0.0 | 67.73
Neigh   | 0          | 0          | 0          |   0.0 |  0.00
Comm    | 1.5e-05    | 2.4125e-05 | 4.4e-05    |   0.0 | 12.26
Output  | 1.5e-05    | 3.1e-05    | 4.6e-05    |   0.0 | 15.76
Modify  | 0          | 0          | 0          |   0.0 |  0.00
Other   |            | 8.375e-06  |            |       |  4.26

Nlocal:           0.25 ave           2 max           0 min
Histogram: 7 0 0 0 0 0 0 0 0 1
Nghost:         249.75 ave         250 max         248 min
Histogram: 1 0 0 0 0 0 0 0 0 7
Neighs:              8 ave          64 max           0 min
Histogram: 7 0 0 0 0 0 0 0 0 1
FullNghs:           16 ave         128 max           0 min
Histogram: 7 0 0 0 0 0 0 0 0 1

Total # of neighbors = 128
Ave neighs/atom = 64
Neighbor list builds = 0
Dangerous builds = 0
variable  natoms equal "count(all)"
variable xlength equal "lx"
variable  volume equal "vol"
variable  etotal equal "etotal"
variable    ecoh equal "pe/v_natoms"
print "${xlength}, ${volume}, ${etotal}, ${ecoh}" append lattice_cohesive_energy.txt screen no

next i
jump SELF loop

change_box all x scale 1.0025 y scale 1.0025 z scale 1.0025 remap
Changing box ...
  orthogonal box = (-0.1042055 -0.10018005 -0.10018005) to (3.1242055 3.1201801 3.1201801)
  orthogonal box = (-0.1042055 -0.1042055 -0.10018005) to (3.1242055 3.1242055 3.1201801)
  orthogonal box = (-0.1042055 -0.1042055 -0.1042055) to (3.1242055 3.1242055 3.1242055)

run 1
WARNING: No fixes with time integration, atoms won't move (src/verlet.cpp:60)
WARNING: Proc sub-domain size < neighbor skin, could lead to lost atoms (src/domain.cpp:966)
Per MPI rank memory allocation (min/avg/max) = 8.573 | 8.573 | 8.575 Mbytes
   Step         PotEng         TotEng           Lx             Ly             Lz           Volume         Press           Pxx            Pyy            Pzz      
        65  -10.135512     -10.135512      3.228411       3.228411       3.228411       33.648558     -151409.39     -151409.39     -151409.39     -151409.39    
        66  -10.135512     -10.135512      3.228411       3.228411       3.228411       33.648558     -151409.39     -151409.39     -151409.39     -151409.39    
Loop time of 0.000194625 on 8 procs for 1 steps with 2 atoms

Performance: 443.931 ns/day, 0.054 hours/ns, 5138.086 timesteps/s, 10.276 katom-step/s
0.0% CPU use with 8 MPI tasks x 1 OpenMP threads

MPI task timing breakdown:
Section |  min time  |  avg time  |  max time  |%varavg| %total
---------------------------------------------------------------
Pair    | 0.000123   | 0.00013175 | 0.000149   |   0.0 | 67.69
Neigh   | 0          | 0          | 0          |   0.0 |  0.00
Comm    | 1.4e-05    | 2.375e-05  | 4.6e-05    |   0.0 | 12.20
Output  | 1.4e-05    | 3.0875e-05 | 4.6e-05    |   0.0 | 15.86
Modify  | 0          | 3.75e-07   | 1e-06      |   0.0 |  0.19
Other   |            | 7.875e-06  |            |       |  4.05

Nlocal:           0.25 ave           2 max           0 min
Histogram: 7 0 0 0 0 0 0 0 0 1
Nghost:         249.75 ave         250 max         248 min
Histogram: 1 0 0 0 0 0 0 0 0 7
Neighs:              8 ave          64 max           0 min
Histogram: 7 0 0 0 0 0 0 0 0 1
FullNghs:           16 ave         128 max           0 min
Histogram: 7 0 0 0 0 0 0 0 0 1

Total # of neighbors = 128
Ave neighs/atom = 64
Neighbor list builds = 0
Dangerous builds = 0
variable  natoms equal "count(all)"
variable xlength equal "lx"
variable  volume equal "vol"
variable  etotal equal "etotal"
variable    ecoh equal "pe/v_natoms"
print "${xlength}, ${volume}, ${etotal}, ${ecoh}" append lattice_cohesive_energy.txt screen no

next i
jump SELF loop

change_box all x scale 1.0025 y scale 1.0025 z scale 1.0025 remap
Changing box ...
  orthogonal box = (-0.10824102 -0.1042055 -0.1042055) to (3.128241 3.1242055 3.1242055)
  orthogonal box = (-0.10824102 -0.10824102 -0.1042055) to (3.128241 3.128241 3.1242055)
  orthogonal box = (-0.10824102 -0.10824102 -0.10824102) to (3.128241 3.128241 3.128241)

run 1
WARNING: No fixes with time integration, atoms won't move (src/verlet.cpp:60)
WARNING: Proc sub-domain size < neighbor skin, could lead to lost atoms (src/domain.cpp:966)
Per MPI rank memory allocation (min/avg/max) = 8.573 | 8.573 | 8.575 Mbytes
   Step         PotEng         TotEng           Lx             Ly             Lz           Volume         Press           Pxx            Pyy            Pzz      
        66  -10.111253     -10.111253      3.236482       3.236482       3.236482       33.901554     -155803.28     -155803.28     -155803.28     -155803.28    
        67  -10.111253     -10.111253      3.236482       3.236482       3.236482       33.901554     -155803.28     -155803.28     -155803.28     -155803.28    
Loop time of 0.000195375 on 8 procs for 1 steps with 2 atoms

Performance: 442.226 ns/day, 0.054 hours/ns, 5118.362 timesteps/s, 10.237 katom-step/s
0.0% CPU use with 8 MPI tasks x 1 OpenMP threads

MPI task timing breakdown:
Section |  min time  |  avg time  |  max time  |%varavg| %total
---------------------------------------------------------------
Pair    | 0.000124   | 0.0001315  | 0.00015    |   0.0 | 67.31
Neigh   | 0          | 0          | 0          |   0.0 |  0.00
Comm    | 1.5e-05    | 2.4e-05    | 4.7e-05    |   0.0 | 12.28
Output  | 1.4e-05    | 3.1875e-05 | 4.7e-05    |   0.0 | 16.31
Modify  | 0          | 1.25e-07   | 1e-06      |   0.0 |  0.06
Other   |            | 7.875e-06  |            |       |  4.03

Nlocal:           0.25 ave           2 max           0 min
Histogram: 7 0 0 0 0 0 0 0 0 1
Nghost:         249.75 ave         250 max         248 min
Histogram: 1 0 0 0 0 0 0 0 0 7
Neighs:              8 ave          64 max           0 min
Histogram: 7 0 0 0 0 0 0 0 0 1
FullNghs:           16 ave         128 max           0 min
Histogram: 7 0 0 0 0 0 0 0 0 1

Total # of neighbors = 128
Ave neighs/atom = 64
Neighbor list builds = 0
Dangerous builds = 0
variable  natoms equal "count(all)"
variable xlength equal "lx"
variable  volume equal "vol"
variable  etotal equal "etotal"
variable    ecoh equal "pe/v_natoms"
print "${xlength}, ${volume}, ${etotal}, ${ecoh}" append lattice_cohesive_energy.txt screen no

next i
jump SELF loop

change_box all x scale 1.0025 y scale 1.0025 z scale 1.0025 remap
Changing box ...
  orthogonal box = (-0.11228662 -0.10824102 -0.10824102) to (3.1322866 3.128241 3.128241)
  orthogonal box = (-0.11228662 -0.11228662 -0.10824102) to (3.1322866 3.1322866 3.128241)
  orthogonal box = (-0.11228662 -0.11228662 -0.11228662) to (3.1322866 3.1322866 3.1322866)

run 1
Per MPI rank memory allocation (min/avg/max) = 8.573 | 8.573 | 8.575 Mbytes
   Step         PotEng         TotEng           Lx             Ly             Lz           Volume         Press           Pxx            Pyy            Pzz      
WARNING: Too many warnings: 102 vs 100. All future warnings will be suppressed (src/thermo.cpp:466)
        67  -10.086127     -10.086127      3.2445732      3.2445732      3.2445732      34.156451     -160022.7      -160022.7      -160022.7      -160022.7     
        68  -10.086127     -10.086127      3.2445732      3.2445732      3.2445732      34.156451     -160022.7      -160022.7      -160022.7      -160022.7     
Loop time of 0.0001955 on 8 procs for 1 steps with 2 atoms

Performance: 441.944 ns/day, 0.054 hours/ns, 5115.090 timesteps/s, 10.230 katom-step/s
0.0% CPU use with 8 MPI tasks x 1 OpenMP threads

MPI task timing breakdown:
Section |  min time  |  avg time  |  max time  |%varavg| %total
---------------------------------------------------------------
Pair    | 0.000123   | 0.00013238 | 0.000149   |   0.0 | 67.71
Neigh   | 0          | 0          | 0          |   0.0 |  0.00
Comm    | 1.4e-05    | 2.4e-05    | 4.6e-05    |   0.0 | 12.28
Output  | 1.5e-05    | 3.125e-05  | 4.7e-05    |   0.0 | 15.98
Modify  | 0          | 0          | 0          |   0.0 |  0.00
Other   |            | 7.875e-06  |            |       |  4.03

Nlocal:           0.25 ave           2 max           0 min
Histogram: 7 0 0 0 0 0 0 0 0 1
Nghost:         249.75 ave         250 max         248 min
Histogram: 1 0 0 0 0 0 0 0 0 7
Neighs:              8 ave          64 max           0 min
Histogram: 7 0 0 0 0 0 0 0 0 1
FullNghs:           16 ave         128 max           0 min
Histogram: 7 0 0 0 0 0 0 0 0 1

Total # of neighbors = 128
Ave neighs/atom = 64
Neighbor list builds = 0
Dangerous builds = 0
variable  natoms equal "count(all)"
variable xlength equal "lx"
variable  volume equal "vol"
variable  etotal equal "etotal"
variable    ecoh equal "pe/v_natoms"
print "${xlength}, ${volume}, ${etotal}, ${ecoh}" append lattice_cohesive_energy.txt screen no

next i
jump SELF loop

print "-------------------------------------------------------------"
-------------------------------------------------------------
print "Show results of 1st step (Running Minimization)"
Show results of 1st step (Running Minimization)
print "The number of atoms = ${natoms};"
The number of atoms = 2;
print "The lattice constant, x (Angstoms) = ${x0};"
The lattice constant, x (Angstoms) = 3.24457323646615;
print "The lattice constant, y (Angstoms) = ${y0};"
The lattice constant, y (Angstoms) = 3.24457323646615;
print "The lattice constant, z (Angstoms) = ${z0};"
The lattice constant, z (Angstoms) = 3.24457323646615;
print "The volume (Angstoms^3) = ${v0};"
The volume (Angstoms^3) = 34.1564514058881;
print "The total energy (eV) = ${etot0};"
The total energy (eV) = -10.086127464693;
print "The cohesive energy (eV/atom) = ${ecoh0};"
The cohesive energy (eV/atom) = -5.04306373234651;
print "-------------------------------------------------------------"
-------------------------------------------------------------
print "Simulations completed !"
Simulations completed !
Total wall time: 0:00:00
