LAMMPS (22 Dec 2022)
  using 1 OpenMP thread(s) per MPI task
Loaded 1 plugins from C:\Program Files\LAMMPS 64-bit 23Jun2022\plugins
Loaded 0 plugins from C:\Program Files\LAMMPS 64-bit 23Jun2022-MPI\plugins
Loaded 1 plugins from C:\Program Files\LAMMPS 64-bit 22Dec2022-MSMPI\plugins
Loaded 1 plugins from C:\Program Files\LAMMPS 64-bit 28Mar2023-MPI\plugins
#------------------------------------------------------------------------------------------
# LAMMPS 64-bit 22Dec2022-MSMPI
#------------------------------------------------------------------------------------------
clear
  using 1 OpenMP thread(s) per MPI task
Loaded 1 plugins from C:\Program Files\LAMMPS 64-bit 23Jun2022\plugins
Loaded 0 plugins from C:\Program Files\LAMMPS 64-bit 23Jun2022-MPI\plugins
Loaded 1 plugins from C:\Program Files\LAMMPS 64-bit 22Dec2022-MSMPI\plugins
Loaded 1 plugins from C:\Program Files\LAMMPS 64-bit 28Mar2023-MPI\plugins
#echo both
# ---------- Initializing Simulation ---------------------------------
units metal
dimension 3
boundary p p p
atom_style atomic
atom_modify map array

read_data ./../../TiV.data
Reading data file ...
  orthogonal box = (0 0 0) to (3.06 3.06 3.06)
  2 by 2 by 2 MPI processor grid
  reading atoms ...
  2 atoms
  read_data CPU = 0.001 seconds

replicate 1 1 1
Replication is creating a 1x1x1 = 1 times larger system...
  orthogonal box = (0 0 0) to (3.06 3.06 3.06)
  2 by 2 by 2 MPI processor grid
  2 atoms
  replicate CPU = 0.000 seconds

# ---------- Defining the Interatomic Potential ---------------------
pair_style meam
pair_coeff * * ./../../library.meam Ti V N ./../../TiVN.meam Ti V

# ---------- Running Minimization -------------------------------------
fix 1 all box/relax iso 0.0 vmax 0.001

thermo 10
thermo_style custom step pe etotal lx ly lz vol press pxx pyy pzz

min_style cg
minimize 1e-25 1e-25 5000 10000
Neighbor list info ...
  update: every = 1 steps, delay = 0 steps, check = yes
  max neighbors/atom: 2000, page size: 100000
  master list distance cutoff = 7
  ghost atom cutoff = 7
  binsize = 3.5, bins = 1 1 1
  2 neighbor lists, perpetual/occasional/extra = 2 0 0
  (1) pair meam, perpetual
      attributes: full, newton on
      pair build: full/bin/atomonly
      stencil: full/bin/3d
      bin: standard
  (2) pair meam, perpetual, half/full from (1)
      attributes: half, newton on
      pair build: halffull/newton
      stencil: none
      bin: none
WARNING: Proc sub-domain size < neighbor skin, could lead to lost atoms (src/domain.cpp:966)
Per MPI rank memory allocation (min/avg/max) = 9.698 | 9.698 | 9.7 Mbytes
   Step         PotEng         TotEng           Lx             Ly             Lz           Volume         Press           Pxx            Pyy            Pzz      
         0  -10.409918     -10.409918      3.06           3.06           3.06           28.652616     -8256.7747     -8256.7747     -8256.7747     -8256.7747    
        10  -10.416        -10.416         3.0541829      3.0541829      3.0541829      28.489521     -0.022831632   -0.022831632   -0.022831632   -0.022831632  
        13  -10.416        -10.416         3.0541829      3.0541829      3.0541829      28.48952      -4.4979312e-10 -1.3247793e-11 -3.465201e-10  -9.8961147e-10
Loop time of 0.003975 on 8 procs for 13 steps with 2 atoms

0.0% CPU use with 8 MPI tasks x 1 OpenMP threads

Minimization stats:
  Stopping criterion = energy tolerance
  Energy initial, next-to-last, final = 
     -10.4099177588178  -10.4160000000445  -10.4160000000445
  Force two-norm initial, final = 0.52323064 3.7054135e-13
  Force max component initial, final = 0.44298152 1.5273893e-13
  Final line search alpha, max atom move = 1 1.5273893e-13
  Iterations, force evaluations = 13 20

MPI task timing breakdown:
Section |  min time  |  avg time  |  max time  |%varavg| %total
---------------------------------------------------------------
Pair    | 0.002391   | 0.0024365  | 0.002532   |   0.1 | 61.30
Neigh   | 0          | 0          | 0          |   0.0 |  0.00
Comm    | 0.000312   | 0.000426   | 0.000536   |   0.0 | 10.72
Output  | 1.4e-05    | 1.55e-05   | 1.8e-05    |   0.0 |  0.39
Modify  | 0          | 0          | 0          |   0.0 |  0.00
Other   |            | 0.001097   |            |       | 27.60

Nlocal:           0.25 ave           2 max           0 min
Histogram: 7 0 0 0 0 0 0 0 0 1
Nghost:         249.75 ave         250 max         248 min
Histogram: 1 0 0 0 0 0 0 0 0 7
Neighs:             14 ave         112 max           0 min
Histogram: 7 0 0 0 0 0 0 0 0 1
FullNghs:           28 ave         224 max           0 min
Histogram: 7 0 0 0 0 0 0 0 0 1

Total # of neighbors = 224
Ave neighs/atom = 112
Neighbor list builds = 0
Dangerous builds = 0

variable  natoms equal "count(all)"
variable      x0 equal "lx"
variable      y0 equal "ly"
variable      z0 equal "lz"
variable      v0 equal "vol"
variable   etot0 equal "etotal"
variable   ecoh0 equal "pe/v_natoms"

unfix 1
write_data ./../step2_elastic/data.in
System init for write_data ...
WARNING: Proc sub-domain size < neighbor skin, could lead to lost atoms (src/domain.cpp:966)

# ---------- For Equation of States -------------------------------------
change_box all x scale 0.94 y scale 0.94 z scale 0.94 remap
Changing box ...
  orthogonal box = (0.094534026 0.002908538 0.002908538) to (2.965466 3.0570915 3.0570915)
  orthogonal box = (0.094534026 0.094534026 0.002908538) to (2.965466 2.965466 3.0570915)
  orthogonal box = (0.094534026 0.094534026 0.094534026) to (2.965466 2.965466 2.965466)
run 1
WARNING: No fixes with time integration, atoms won't move (src/verlet.cpp:60)
WARNING: Proc sub-domain size < neighbor skin, could lead to lost atoms (src/domain.cpp:966)
Per MPI rank memory allocation (min/avg/max) = 8.573 | 8.573 | 8.575 Mbytes
   Step         PotEng         TotEng           Lx             Ly             Lz           Volume         Press           Pxx            Pyy            Pzz      
        13  -9.9778187     -9.9778187      2.8709319      2.8709319      2.8709319      23.66294       337864.43      337864.43      337864.43      337864.43    
        14  -9.9778187     -9.9778187      2.8709319      2.8709319      2.8709319      23.66294       337864.43      337864.43      337864.43      337864.43    
Loop time of 0.000161625 on 8 procs for 1 steps with 2 atoms

Performance: 534.571 ns/day, 0.045 hours/ns, 6187.162 timesteps/s, 12.374 katom-step/s
0.0% CPU use with 8 MPI tasks x 1 OpenMP threads

MPI task timing breakdown:
Section |  min time  |  avg time  |  max time  |%varavg| %total
---------------------------------------------------------------
Pair    | 0.000109   | 0.00011363 | 0.000119   |   0.0 | 70.30
Neigh   | 0          | 0          | 0          |   0.0 |  0.00
Comm    | 2e-05      | 2.675e-05  | 3.3e-05    |   0.0 | 16.55
Output  | 1.3e-05    | 1.55e-05   | 1.8e-05    |   0.0 |  9.59
Modify  | 0          | 1.25e-07   | 1e-06      |   0.0 |  0.08
Other   |            | 5.625e-06  |            |       |  3.48

Nlocal:           0.25 ave           1 max           0 min
Histogram: 6 0 0 0 0 0 0 0 0 2
Nghost:         249.75 ave         250 max         249 min
Histogram: 2 0 0 0 0 0 0 0 0 6
Neighs:             14 ave          56 max           0 min
Histogram: 6 0 0 0 0 0 0 0 0 2
FullNghs:           28 ave         112 max           0 min
Histogram: 6 0 0 0 0 0 0 0 0 2

Total # of neighbors = 224
Ave neighs/atom = 112
Neighbor list builds = 0
Dangerous builds = 0
print "# Lattice constant (Angstroms), Volume (Angstrom), Total energy (eV), Cohesive energy (eV/atom)" file lattice_cohesive_energy.txt screen no


# Loop over lattice constants
variable i loop 49 # Number of steps
label loop

change_box all x scale 1.0025 y scale 1.0025 z scale 1.0025 remap
Changing box ...
  orthogonal box = (0.090945361 0.094534026 0.094534026) to (2.9690546 2.965466 2.965466)
  orthogonal box = (0.090945361 0.090945361 0.094534026) to (2.9690546 2.9690546 2.965466)
  orthogonal box = (0.090945361 0.090945361 0.090945361) to (2.9690546 2.9690546 2.9690546)

run 1
WARNING: No fixes with time integration, atoms won't move (src/verlet.cpp:60)
WARNING: Proc sub-domain size < neighbor skin, could lead to lost atoms (src/domain.cpp:966)
Per MPI rank memory allocation (min/avg/max) = 8.573 | 8.573 | 8.575 Mbytes
   Step         PotEng         TotEng           Lx             Ly             Lz           Volume         Press           Pxx            Pyy            Pzz      
        14  -10.014322     -10.014322      2.8781093      2.8781093      2.8781093      23.840856      319675.78      319675.78      319675.78      319675.78    
        15  -10.014322     -10.014322      2.8781093      2.8781093      2.8781093      23.840856      319675.78      319675.78      319675.78      319675.78    
Loop time of 0.000165125 on 8 procs for 1 steps with 2 atoms

Performance: 523.240 ns/day, 0.046 hours/ns, 6056.018 timesteps/s, 12.112 katom-step/s
0.0% CPU use with 8 MPI tasks x 1 OpenMP threads

MPI task timing breakdown:
Section |  min time  |  avg time  |  max time  |%varavg| %total
---------------------------------------------------------------
Pair    | 0.000106   | 0.00011175 | 0.000119   |   0.0 | 67.68
Neigh   | 0          | 0          | 0          |   0.0 |  0.00
Comm    | 2.1e-05    | 2.775e-05  | 3.6e-05    |   0.0 | 16.81
Output  | 1.4e-05    | 1.825e-05  | 2.5e-05    |   0.0 | 11.05
Modify  | 0          | 2.5e-07    | 1e-06      |   0.0 |  0.15
Other   |            | 7.125e-06  |            |       |  4.31

Nlocal:           0.25 ave           1 max           0 min
Histogram: 6 0 0 0 0 0 0 0 0 2
Nghost:         249.75 ave         250 max         249 min
Histogram: 2 0 0 0 0 0 0 0 0 6
Neighs:             14 ave          56 max           0 min
Histogram: 6 0 0 0 0 0 0 0 0 2
FullNghs:           28 ave         112 max           0 min
Histogram: 6 0 0 0 0 0 0 0 0 2

Total # of neighbors = 224
Ave neighs/atom = 112
Neighbor list builds = 0
Dangerous builds = 0
variable  natoms equal "count(all)"
variable xlength equal "lx"
variable  volume equal "vol"
variable  etotal equal "etotal"
variable    ecoh equal "pe/v_natoms"
print "${xlength}, ${volume}, ${etotal}, ${ecoh}" append lattice_cohesive_energy.txt screen no

next i
jump SELF loop

change_box all x scale 1.0025 y scale 1.0025 z scale 1.0025 remap
Changing box ...
  orthogonal box = (0.087347724 0.090945361 0.090945361) to (2.9726523 2.9690546 2.9690546)
  orthogonal box = (0.087347724 0.087347724 0.090945361) to (2.9726523 2.9726523 2.9690546)
  orthogonal box = (0.087347724 0.087347724 0.087347724) to (2.9726523 2.9726523 2.9726523)

run 1
WARNING: No fixes with time integration, atoms won't move (src/verlet.cpp:60)
WARNING: Proc sub-domain size < neighbor skin, could lead to lost atoms (src/domain.cpp:966)
Per MPI rank memory allocation (min/avg/max) = 8.573 | 8.573 | 8.575 Mbytes
   Step         PotEng         TotEng           Lx             Ly             Lz           Volume         Press           Pxx            Pyy            Pzz      
        15  -10.04909      -10.04909       2.8853046      2.8853046      2.8853046      24.020109      301923.79      301923.79      301923.79      301923.79    
        16  -10.04909      -10.04909       2.8853046      2.8853046      2.8853046      24.020109      301923.79      301923.79      301923.79      301923.79    
Loop time of 0.000157 on 8 procs for 1 steps with 2 atoms

Performance: 550.318 ns/day, 0.044 hours/ns, 6369.427 timesteps/s, 12.739 katom-step/s
0.0% CPU use with 8 MPI tasks x 1 OpenMP threads

MPI task timing breakdown:
Section |  min time  |  avg time  |  max time  |%varavg| %total
---------------------------------------------------------------
Pair    | 0.000102   | 0.00010712 | 0.000114   |   0.0 | 68.23
Neigh   | 0          | 0          | 0          |   0.0 |  0.00
Comm    | 2e-05      | 2.7e-05    | 3.5e-05    |   0.0 | 17.20
Output  | 1.2e-05    | 1.6625e-05 | 2.2e-05    |   0.0 | 10.59
Modify  | 0          | 0          | 0          |   0.0 |  0.00
Other   |            | 6.25e-06   |            |       |  3.98

Nlocal:           0.25 ave           1 max           0 min
Histogram: 6 0 0 0 0 0 0 0 0 2
Nghost:         249.75 ave         250 max         249 min
Histogram: 2 0 0 0 0 0 0 0 0 6
Neighs:             14 ave          56 max           0 min
Histogram: 6 0 0 0 0 0 0 0 0 2
FullNghs:           28 ave         112 max           0 min
Histogram: 6 0 0 0 0 0 0 0 0 2

Total # of neighbors = 224
Ave neighs/atom = 112
Neighbor list builds = 0
Dangerous builds = 0
variable  natoms equal "count(all)"
variable xlength equal "lx"
variable  volume equal "vol"
variable  etotal equal "etotal"
variable    ecoh equal "pe/v_natoms"
print "${xlength}, ${volume}, ${etotal}, ${ecoh}" append lattice_cohesive_energy.txt screen no

next i
jump SELF loop

change_box all x scale 1.0025 y scale 1.0025 z scale 1.0025 remap
Changing box ...
  orthogonal box = (0.083741094 0.087347724 0.087347724) to (2.9762589 2.9726523 2.9726523)
  orthogonal box = (0.083741094 0.083741094 0.087347724) to (2.9762589 2.9762589 2.9726523)
  orthogonal box = (0.083741094 0.083741094 0.083741094) to (2.9762589 2.9762589 2.9762589)

run 1
WARNING: No fixes with time integration, atoms won't move (src/verlet.cpp:60)
WARNING: Proc sub-domain size < neighbor skin, could lead to lost atoms (src/domain.cpp:966)
Per MPI rank memory allocation (min/avg/max) = 8.573 | 8.573 | 8.575 Mbytes
   Step         PotEng         TotEng           Lx             Ly             Lz           Volume         Press           Pxx            Pyy            Pzz      
        16  -10.082142     -10.082142      2.8925178      2.8925178      2.8925178      24.200711      284600.86      284600.86      284600.86      284600.86    
        17  -10.082142     -10.082142      2.8925178      2.8925178      2.8925178      24.200711      284600.86      284600.86      284600.86      284600.86    
Loop time of 0.000154 on 8 procs for 1 steps with 2 atoms

Performance: 561.039 ns/day, 0.043 hours/ns, 6493.506 timesteps/s, 12.987 katom-step/s
0.0% CPU use with 8 MPI tasks x 1 OpenMP threads

MPI task timing breakdown:
Section |  min time  |  avg time  |  max time  |%varavg| %total
---------------------------------------------------------------
Pair    | 9.9e-05    | 0.00010575 | 0.000111   |   0.0 | 68.67
Neigh   | 0          | 0          | 0          |   0.0 |  0.00
Comm    | 2e-05      | 2.6375e-05 | 3.5e-05    |   0.0 | 17.13
Output  | 1.3e-05    | 1.55e-05   | 1.8e-05    |   0.0 | 10.06
Modify  | 0          | 1.25e-07   | 1e-06      |   0.0 |  0.08
Other   |            | 6.25e-06   |            |       |  4.06

Nlocal:           0.25 ave           1 max           0 min
Histogram: 6 0 0 0 0 0 0 0 0 2
Nghost:         249.75 ave         250 max         249 min
Histogram: 2 0 0 0 0 0 0 0 0 6
Neighs:             14 ave          56 max           0 min
Histogram: 6 0 0 0 0 0 0 0 0 2
FullNghs:           28 ave         112 max           0 min
Histogram: 6 0 0 0 0 0 0 0 0 2

Total # of neighbors = 224
Ave neighs/atom = 112
Neighbor list builds = 0
Dangerous builds = 0
variable  natoms equal "count(all)"
variable xlength equal "lx"
variable  volume equal "vol"
variable  etotal equal "etotal"
variable    ecoh equal "pe/v_natoms"
print "${xlength}, ${volume}, ${etotal}, ${ecoh}" append lattice_cohesive_energy.txt screen no

next i
jump SELF loop

change_box all x scale 1.0025 y scale 1.0025 z scale 1.0025 remap
Changing box ...
  orthogonal box = (0.080125446 0.083741094 0.083741094) to (2.9798746 2.9762589 2.9762589)
  orthogonal box = (0.080125446 0.080125446 0.083741094) to (2.9798746 2.9798746 2.9762589)
  orthogonal box = (0.080125446 0.080125446 0.080125446) to (2.9798746 2.9798746 2.9798746)

run 1
WARNING: No fixes with time integration, atoms won't move (src/verlet.cpp:60)
WARNING: Proc sub-domain size < neighbor skin, could lead to lost atoms (src/domain.cpp:966)
Per MPI rank memory allocation (min/avg/max) = 8.573 | 8.573 | 8.575 Mbytes
   Step         PotEng         TotEng           Lx             Ly             Lz           Volume         Press           Pxx            Pyy            Pzz      
        17  -10.113499     -10.113499      2.8997491      2.8997491      2.8997491      24.382671      267699.52      267699.52      267699.52      267699.52    
        18  -10.113499     -10.113499      2.8997491      2.8997491      2.8997491      24.382671      267699.52      267699.52      267699.52      267699.52    
Loop time of 0.000164375 on 8 procs for 1 steps with 2 atoms

Performance: 525.627 ns/day, 0.046 hours/ns, 6083.650 timesteps/s, 12.167 katom-step/s
0.0% CPU use with 8 MPI tasks x 1 OpenMP threads

MPI task timing breakdown:
Section |  min time  |  avg time  |  max time  |%varavg| %total
---------------------------------------------------------------
Pair    | 0.000102   | 0.00011    | 0.00012    |   0.0 | 66.92
Neigh   | 0          | 0          | 0          |   0.0 |  0.00
Comm    | 2.3e-05    | 3.0125e-05 | 4.1e-05    |   0.0 | 18.33
Output  | 1.4e-05    | 1.7875e-05 | 2.3e-05    |   0.0 | 10.87
Modify  | 0          | 0          | 0          |   0.0 |  0.00
Other   |            | 6.375e-06  |            |       |  3.88

Nlocal:           0.25 ave           1 max           0 min
Histogram: 6 0 0 0 0 0 0 0 0 2
Nghost:         249.75 ave         250 max         249 min
Histogram: 2 0 0 0 0 0 0 0 0 6
Neighs:             14 ave          56 max           0 min
Histogram: 6 0 0 0 0 0 0 0 0 2
FullNghs:           28 ave         112 max           0 min
Histogram: 6 0 0 0 0 0 0 0 0 2

Total # of neighbors = 224
Ave neighs/atom = 112
Neighbor list builds = 0
Dangerous builds = 0
variable  natoms equal "count(all)"
variable xlength equal "lx"
variable  volume equal "vol"
variable  etotal equal "etotal"
variable    ecoh equal "pe/v_natoms"
print "${xlength}, ${volume}, ${etotal}, ${ecoh}" append lattice_cohesive_energy.txt screen no

next i
jump SELF loop

change_box all x scale 1.0025 y scale 1.0025 z scale 1.0025 remap
Changing box ...
  orthogonal box = (0.07650076 0.080125446 0.080125446) to (2.9834992 2.9798746 2.9798746)
  orthogonal box = (0.07650076 0.07650076 0.080125446) to (2.9834992 2.9834992 2.9798746)
  orthogonal box = (0.07650076 0.07650076 0.07650076) to (2.9834992 2.9834992 2.9834992)

run 1
WARNING: No fixes with time integration, atoms won't move (src/verlet.cpp:60)
WARNING: Proc sub-domain size < neighbor skin, could lead to lost atoms (src/domain.cpp:966)
Per MPI rank memory allocation (min/avg/max) = 8.573 | 8.573 | 8.575 Mbytes
   Step         PotEng         TotEng           Lx             Ly             Lz           Volume         Press           Pxx            Pyy            Pzz      
        18  -10.143182     -10.143182      2.9069985      2.9069985      2.9069985      24.565998      251212.36      251212.36      251212.36      251212.36    
        19  -10.143182     -10.143182      2.9069985      2.9069985      2.9069985      24.565998      251212.36      251212.36      251212.36      251212.36    
Loop time of 0.000164375 on 8 procs for 1 steps with 2 atoms

Performance: 525.627 ns/day, 0.046 hours/ns, 6083.650 timesteps/s, 12.167 katom-step/s
0.0% CPU use with 8 MPI tasks x 1 OpenMP threads

MPI task timing breakdown:
Section |  min time  |  avg time  |  max time  |%varavg| %total
---------------------------------------------------------------
Pair    | 0.000106   | 0.00011188 | 0.000122   |   0.0 | 68.06
Neigh   | 0          | 0          | 0          |   0.0 |  0.00
Comm    | 2.2e-05    | 2.925e-05  | 3.8e-05    |   0.0 | 17.79
Output  | 1.2e-05    | 1.65e-05   | 2.2e-05    |   0.0 | 10.04
Modify  | 0          | 1.25e-07   | 1e-06      |   0.0 |  0.08
Other   |            | 6.625e-06  |            |       |  4.03

Nlocal:           0.25 ave           1 max           0 min
Histogram: 6 0 0 0 0 0 0 0 0 2
Nghost:         249.75 ave         250 max         249 min
Histogram: 2 0 0 0 0 0 0 0 0 6
Neighs:             14 ave          56 max           0 min
Histogram: 6 0 0 0 0 0 0 0 0 2
FullNghs:           28 ave         112 max           0 min
Histogram: 6 0 0 0 0 0 0 0 0 2

Total # of neighbors = 224
Ave neighs/atom = 112
Neighbor list builds = 0
Dangerous builds = 0
variable  natoms equal "count(all)"
variable xlength equal "lx"
variable  volume equal "vol"
variable  etotal equal "etotal"
variable    ecoh equal "pe/v_natoms"
print "${xlength}, ${volume}, ${etotal}, ${ecoh}" append lattice_cohesive_energy.txt screen no

next i
jump SELF loop

change_box all x scale 1.0025 y scale 1.0025 z scale 1.0025 remap
Changing box ...
  orthogonal box = (0.072867012 0.07650076 0.07650076) to (2.987133 2.9834992 2.9834992)
  orthogonal box = (0.072867012 0.072867012 0.07650076) to (2.987133 2.987133 2.9834992)
  orthogonal box = (0.072867012 0.072867012 0.072867012) to (2.987133 2.987133 2.987133)

run 1
WARNING: No fixes with time integration, atoms won't move (src/verlet.cpp:60)
WARNING: Proc sub-domain size < neighbor skin, could lead to lost atoms (src/domain.cpp:966)
Per MPI rank memory allocation (min/avg/max) = 8.573 | 8.573 | 8.575 Mbytes
   Step         PotEng         TotEng           Lx             Ly             Lz           Volume         Press           Pxx            Pyy            Pzz      
        19  -10.171211     -10.171211      2.914266       2.914266       2.914266       24.750704      235132.1       235132.1       235132.1       235132.1     
        20  -10.171211     -10.171211      2.914266       2.914266       2.914266       24.750704      235132.1       235132.1       235132.1       235132.1     
Loop time of 0.0001595 on 8 procs for 1 steps with 2 atoms

Performance: 541.693 ns/day, 0.044 hours/ns, 6269.592 timesteps/s, 12.539 katom-step/s
0.0% CPU use with 8 MPI tasks x 1 OpenMP threads

MPI task timing breakdown:
Section |  min time  |  avg time  |  max time  |%varavg| %total
---------------------------------------------------------------
Pair    | 0.000104   | 0.000109   | 0.000118   |   0.0 | 68.34
Neigh   | 0          | 0          | 0          |   0.0 |  0.00
Comm    | 2.1e-05    | 2.775e-05  | 3.6e-05    |   0.0 | 17.40
Output  | 1.3e-05    | 1.725e-05  | 2.3e-05    |   0.0 | 10.82
Modify  | 0          | 0          | 0          |   0.0 |  0.00
Other   |            | 5.5e-06    |            |       |  3.45

Nlocal:           0.25 ave           1 max           0 min
Histogram: 6 0 0 0 0 0 0 0 0 2
Nghost:         249.75 ave         250 max         249 min
Histogram: 2 0 0 0 0 0 0 0 0 6
Neighs:             14 ave          56 max           0 min
Histogram: 6 0 0 0 0 0 0 0 0 2
FullNghs:           28 ave         112 max           0 min
Histogram: 6 0 0 0 0 0 0 0 0 2

Total # of neighbors = 224
Ave neighs/atom = 112
Neighbor list builds = 0
Dangerous builds = 0
variable  natoms equal "count(all)"
variable xlength equal "lx"
variable  volume equal "vol"
variable  etotal equal "etotal"
variable    ecoh equal "pe/v_natoms"
print "${xlength}, ${volume}, ${etotal}, ${ecoh}" append lattice_cohesive_energy.txt screen no

next i
jump SELF loop

change_box all x scale 1.0025 y scale 1.0025 z scale 1.0025 remap
Changing box ...
  orthogonal box = (0.069224179 0.072867012 0.072867012) to (2.9907758 2.987133 2.987133)
  orthogonal box = (0.069224179 0.069224179 0.072867012) to (2.9907758 2.9907758 2.987133)
  orthogonal box = (0.069224179 0.069224179 0.069224179) to (2.9907758 2.9907758 2.9907758)

run 1
WARNING: No fixes with time integration, atoms won't move (src/verlet.cpp:60)
WARNING: Proc sub-domain size < neighbor skin, could lead to lost atoms (src/domain.cpp:966)
Per MPI rank memory allocation (min/avg/max) = 8.573 | 8.573 | 8.575 Mbytes
   Step         PotEng         TotEng           Lx             Ly             Lz           Volume         Press           Pxx            Pyy            Pzz      
        20  -10.197606     -10.197606      2.9215516      2.9215516      2.9215516      24.936799      219451.56      219451.56      219451.56      219451.56    
        21  -10.197606     -10.197606      2.9215516      2.9215516      2.9215516      24.936799      219451.56      219451.56      219451.56      219451.56    
Loop time of 0.00016075 on 8 procs for 1 steps with 2 atoms

Performance: 537.481 ns/day, 0.045 hours/ns, 6220.840 timesteps/s, 12.442 katom-step/s
0.0% CPU use with 8 MPI tasks x 1 OpenMP threads

MPI task timing breakdown:
Section |  min time  |  avg time  |  max time  |%varavg| %total
---------------------------------------------------------------
Pair    | 0.000103   | 0.0001085  | 0.000117   |   0.0 | 67.50
Neigh   | 0          | 0          | 0          |   0.0 |  0.00
Comm    | 2.2e-05    | 2.875e-05  | 3.8e-05    |   0.0 | 17.88
Output  | 1.3e-05    | 1.75e-05   | 2.3e-05    |   0.0 | 10.89
Modify  | 0          | 1.25e-07   | 1e-06      |   0.0 |  0.08
Other   |            | 5.875e-06  |            |       |  3.65

Nlocal:           0.25 ave           1 max           0 min
Histogram: 6 0 0 0 0 0 0 0 0 2
Nghost:         249.75 ave         250 max         249 min
Histogram: 2 0 0 0 0 0 0 0 0 6
Neighs:             14 ave          56 max           0 min
Histogram: 6 0 0 0 0 0 0 0 0 2
FullNghs:           28 ave         112 max           0 min
Histogram: 6 0 0 0 0 0 0 0 0 2

Total # of neighbors = 224
Ave neighs/atom = 112
Neighbor list builds = 0
Dangerous builds = 0
variable  natoms equal "count(all)"
variable xlength equal "lx"
variable  volume equal "vol"
variable  etotal equal "etotal"
variable    ecoh equal "pe/v_natoms"
print "${xlength}, ${volume}, ${etotal}, ${ecoh}" append lattice_cohesive_energy.txt screen no

next i
jump SELF loop

change_box all x scale 1.0025 y scale 1.0025 z scale 1.0025 remap
Changing box ...
  orthogonal box = (0.06557224 0.069224179 0.069224179) to (2.9944278 2.9907758 2.9907758)
  orthogonal box = (0.06557224 0.06557224 0.069224179) to (2.9944278 2.9944278 2.9907758)
  orthogonal box = (0.06557224 0.06557224 0.06557224) to (2.9944278 2.9944278 2.9944278)

run 1
WARNING: No fixes with time integration, atoms won't move (src/verlet.cpp:60)
WARNING: Proc sub-domain size < neighbor skin, could lead to lost atoms (src/domain.cpp:966)
Per MPI rank memory allocation (min/avg/max) = 8.573 | 8.573 | 8.575 Mbytes
   Step         PotEng         TotEng           Lx             Ly             Lz           Volume         Press           Pxx            Pyy            Pzz      
        21  -10.222388     -10.222388      2.9288555      2.9288555      2.9288555      25.124293      204163.64      204163.64      204163.64      204163.64    
        22  -10.222388     -10.222388      2.9288555      2.9288555      2.9288555      25.124293      204163.64      204163.64      204163.64      204163.64    
Loop time of 0.000161 on 8 procs for 1 steps with 2 atoms

Performance: 536.646 ns/day, 0.045 hours/ns, 6211.180 timesteps/s, 12.422 katom-step/s
0.0% CPU use with 8 MPI tasks x 1 OpenMP threads

MPI task timing breakdown:
Section |  min time  |  avg time  |  max time  |%varavg| %total
---------------------------------------------------------------
Pair    | 0.000105   | 0.00011037 | 0.000119   |   0.0 | 68.56
Neigh   | 0          | 0          | 0          |   0.0 |  0.00
Comm    | 2.2e-05    | 2.8625e-05 | 3.6e-05    |   0.0 | 17.78
Output  | 1.3e-05    | 1.6625e-05 | 2.2e-05    |   0.0 | 10.33
Modify  | 0          | 0          | 0          |   0.0 |  0.00
Other   |            | 5.375e-06  |            |       |  3.34

Nlocal:           0.25 ave           1 max           0 min
Histogram: 6 0 0 0 0 0 0 0 0 2
Nghost:         249.75 ave         250 max         249 min
Histogram: 2 0 0 0 0 0 0 0 0 6
Neighs:             14 ave          56 max           0 min
Histogram: 6 0 0 0 0 0 0 0 0 2
FullNghs:           28 ave         112 max           0 min
Histogram: 6 0 0 0 0 0 0 0 0 2

Total # of neighbors = 224
Ave neighs/atom = 112
Neighbor list builds = 0
Dangerous builds = 0
variable  natoms equal "count(all)"
variable xlength equal "lx"
variable  volume equal "vol"
variable  etotal equal "etotal"
variable    ecoh equal "pe/v_natoms"
print "${xlength}, ${volume}, ${etotal}, ${ecoh}" append lattice_cohesive_energy.txt screen no

next i
jump SELF loop

change_box all x scale 1.0025 y scale 1.0025 z scale 1.0025 remap
Changing box ...
  orthogonal box = (0.06191117 0.06557224 0.06557224) to (2.9980888 2.9944278 2.9944278)
  orthogonal box = (0.06191117 0.06191117 0.06557224) to (2.9980888 2.9980888 2.9944278)
  orthogonal box = (0.06191117 0.06191117 0.06191117) to (2.9980888 2.9980888 2.9980888)

run 1
WARNING: No fixes with time integration, atoms won't move (src/verlet.cpp:60)
WARNING: Proc sub-domain size < neighbor skin, could lead to lost atoms (src/domain.cpp:966)
Per MPI rank memory allocation (min/avg/max) = 8.573 | 8.573 | 8.575 Mbytes
   Step         PotEng         TotEng           Lx             Ly             Lz           Volume         Press           Pxx            Pyy            Pzz      
        22  -10.245576     -10.245576      2.9361777      2.9361777      2.9361777      25.313196      189261.33      189261.33      189261.33      189261.33    
        23  -10.245576     -10.245576      2.9361777      2.9361777      2.9361777      25.313196      189261.33      189261.33      189261.33      189261.33    
Loop time of 0.000157 on 8 procs for 1 steps with 2 atoms

Performance: 550.318 ns/day, 0.044 hours/ns, 6369.427 timesteps/s, 12.739 katom-step/s
0.0% CPU use with 8 MPI tasks x 1 OpenMP threads

MPI task timing breakdown:
Section |  min time  |  avg time  |  max time  |%varavg| %total
---------------------------------------------------------------
Pair    | 0.000101   | 0.00010675 | 0.000114   |   0.0 | 67.99
Neigh   | 0          | 0          | 0          |   0.0 |  0.00
Comm    | 2.1e-05    | 2.7375e-05 | 3.6e-05    |   0.0 | 17.44
Output  | 1.4e-05    | 1.7125e-05 | 2.2e-05    |   0.0 | 10.91
Modify  | 0          | 2.5e-07    | 1e-06      |   0.0 |  0.16
Other   |            | 5.5e-06    |            |       |  3.50

Nlocal:           0.25 ave           1 max           0 min
Histogram: 6 0 0 0 0 0 0 0 0 2
Nghost:         249.75 ave         250 max         249 min
Histogram: 2 0 0 0 0 0 0 0 0 6
Neighs:             14 ave          56 max           0 min
Histogram: 6 0 0 0 0 0 0 0 0 2
FullNghs:           28 ave         112 max           0 min
Histogram: 6 0 0 0 0 0 0 0 0 2

Total # of neighbors = 224
Ave neighs/atom = 112
Neighbor list builds = 0
Dangerous builds = 0
variable  natoms equal "count(all)"
variable xlength equal "lx"
variable  volume equal "vol"
variable  etotal equal "etotal"
variable    ecoh equal "pe/v_natoms"
print "${xlength}, ${volume}, ${etotal}, ${ecoh}" append lattice_cohesive_energy.txt screen no

next i
jump SELF loop

change_box all x scale 1.0025 y scale 1.0025 z scale 1.0025 remap
Changing box ...
  orthogonal box = (0.058240948 0.06191117 0.06191117) to (3.0017591 2.9980888 2.9980888)
  orthogonal box = (0.058240948 0.058240948 0.06191117) to (3.0017591 3.0017591 2.9980888)
  orthogonal box = (0.058240948 0.058240948 0.058240948) to (3.0017591 3.0017591 3.0017591)

run 1
WARNING: No fixes with time integration, atoms won't move (src/verlet.cpp:60)
WARNING: Proc sub-domain size < neighbor skin, could lead to lost atoms (src/domain.cpp:966)
Per MPI rank memory allocation (min/avg/max) = 8.573 | 8.573 | 8.575 Mbytes
   Step         PotEng         TotEng           Lx             Ly             Lz           Volume         Press           Pxx            Pyy            Pzz      
        23  -10.267191     -10.267191      2.9435181      2.9435181      2.9435181      25.50352       174737.76      174737.76      174737.76      174737.76    
        24  -10.267191     -10.267191      2.9435181      2.9435181      2.9435181      25.50352       174737.76      174737.76      174737.76      174737.76    
Loop time of 0.000157 on 8 procs for 1 steps with 2 atoms

Performance: 550.318 ns/day, 0.044 hours/ns, 6369.427 timesteps/s, 12.739 katom-step/s
0.0% CPU use with 8 MPI tasks x 1 OpenMP threads

MPI task timing breakdown:
Section |  min time  |  avg time  |  max time  |%varavg| %total
---------------------------------------------------------------
Pair    | 0.000102   | 0.00010775 | 0.000115   |   0.0 | 68.63
Neigh   | 0          | 0          | 0          |   0.0 |  0.00
Comm    | 2.1e-05    | 2.6625e-05 | 3.5e-05    |   0.0 | 16.96
Output  | 1.4e-05    | 1.6875e-05 | 2.1e-05    |   0.0 | 10.75
Modify  | 0          | 0          | 0          |   0.0 |  0.00
Other   |            | 5.75e-06   |            |       |  3.66

Nlocal:           0.25 ave           1 max           0 min
Histogram: 6 0 0 0 0 0 0 0 0 2
Nghost:         249.75 ave         250 max         249 min
Histogram: 2 0 0 0 0 0 0 0 0 6
Neighs:             14 ave          56 max           0 min
Histogram: 6 0 0 0 0 0 0 0 0 2
FullNghs:           28 ave         112 max           0 min
Histogram: 6 0 0 0 0 0 0 0 0 2

Total # of neighbors = 224
Ave neighs/atom = 112
Neighbor list builds = 0
Dangerous builds = 0
variable  natoms equal "count(all)"
variable xlength equal "lx"
variable  volume equal "vol"
variable  etotal equal "etotal"
variable    ecoh equal "pe/v_natoms"
print "${xlength}, ${volume}, ${etotal}, ${ecoh}" append lattice_cohesive_energy.txt screen no

next i
jump SELF loop

change_box all x scale 1.0025 y scale 1.0025 z scale 1.0025 remap
Changing box ...
  orthogonal box = (0.054561551 0.058240948 0.058240948) to (3.0054384 3.0017591 3.0017591)
  orthogonal box = (0.054561551 0.054561551 0.058240948) to (3.0054384 3.0054384 3.0017591)
  orthogonal box = (0.054561551 0.054561551 0.054561551) to (3.0054384 3.0054384 3.0054384)

run 1
WARNING: No fixes with time integration, atoms won't move (src/verlet.cpp:60)
WARNING: Proc sub-domain size < neighbor skin, could lead to lost atoms (src/domain.cpp:966)
Per MPI rank memory allocation (min/avg/max) = 8.573 | 8.573 | 8.575 Mbytes
   Step         PotEng         TotEng           Lx             Ly             Lz           Volume         Press           Pxx            Pyy            Pzz      
        24  -10.287253     -10.287253      2.9508769      2.9508769      2.9508769      25.695275      160586.1       160586.1       160586.1       160586.1     
        25  -10.287253     -10.287253      2.9508769      2.9508769      2.9508769      25.695275      160586.1       160586.1       160586.1       160586.1     
Loop time of 0.0001615 on 8 procs for 1 steps with 2 atoms

Performance: 534.985 ns/day, 0.045 hours/ns, 6191.950 timesteps/s, 12.384 katom-step/s
0.0% CPU use with 8 MPI tasks x 1 OpenMP threads

MPI task timing breakdown:
Section |  min time  |  avg time  |  max time  |%varavg| %total
---------------------------------------------------------------
Pair    | 0.000106   | 0.00011287 | 0.00012    |   0.0 | 69.89
Neigh   | 0          | 0          | 0          |   0.0 |  0.00
Comm    | 2.1e-05    | 2.775e-05  | 3.7e-05    |   0.0 | 17.18
Output  | 1.3e-05    | 1.525e-05  | 1.8e-05    |   0.0 |  9.44
Modify  | 0          | 1.25e-07   | 1e-06      |   0.0 |  0.08
Other   |            | 5.5e-06    |            |       |  3.41

Nlocal:           0.25 ave           1 max           0 min
Histogram: 6 0 0 0 0 0 0 0 0 2
Nghost:         249.75 ave         250 max         249 min
Histogram: 2 0 0 0 0 0 0 0 0 6
Neighs:             14 ave          56 max           0 min
Histogram: 6 0 0 0 0 0 0 0 0 2
FullNghs:           28 ave         112 max           0 min
Histogram: 6 0 0 0 0 0 0 0 0 2

Total # of neighbors = 224
Ave neighs/atom = 112
Neighbor list builds = 0
Dangerous builds = 0
variable  natoms equal "count(all)"
variable xlength equal "lx"
variable  volume equal "vol"
variable  etotal equal "etotal"
variable    ecoh equal "pe/v_natoms"
print "${xlength}, ${volume}, ${etotal}, ${ecoh}" append lattice_cohesive_energy.txt screen no

next i
jump SELF loop

change_box all x scale 1.0025 y scale 1.0025 z scale 1.0025 remap
Changing box ...
  orthogonal box = (0.050872955 0.054561551 0.054561551) to (3.009127 3.0054384 3.0054384)
  orthogonal box = (0.050872955 0.050872955 0.054561551) to (3.009127 3.009127 3.0054384)
  orthogonal box = (0.050872955 0.050872955 0.050872955) to (3.009127 3.009127 3.009127)

run 1
WARNING: No fixes with time integration, atoms won't move (src/verlet.cpp:60)
WARNING: Proc sub-domain size < neighbor skin, could lead to lost atoms (src/domain.cpp:966)
Per MPI rank memory allocation (min/avg/max) = 8.573 | 8.573 | 8.575 Mbytes
   Step         PotEng         TotEng           Lx             Ly             Lz           Volume         Press           Pxx            Pyy            Pzz      
        25  -10.305781     -10.305781      2.9582541      2.9582541      2.9582541      25.888472      146799.64      146799.64      146799.64      146799.64    
        26  -10.305781     -10.305781      2.9582541      2.9582541      2.9582541      25.888472      146799.64      146799.64      146799.64      146799.64    
Loop time of 0.000169875 on 8 procs for 1 steps with 2 atoms

Performance: 508.609 ns/day, 0.047 hours/ns, 5886.681 timesteps/s, 11.773 katom-step/s
1149.7% CPU use with 8 MPI tasks x 1 OpenMP threads

MPI task timing breakdown:
Section |  min time  |  avg time  |  max time  |%varavg| %total
---------------------------------------------------------------
Pair    | 0.000113   | 0.00012075 | 0.000128   |   0.0 | 71.08
Neigh   | 0          | 0          | 0          |   0.0 |  0.00
Comm    | 2.1e-05    | 2.775e-05  | 3.5e-05    |   0.0 | 16.34
Output  | 1.3e-05    | 1.5375e-05 | 1.8e-05    |   0.0 |  9.05
Modify  | 0          | 1.25e-07   | 1e-06      |   0.0 |  0.07
Other   |            | 5.875e-06  |            |       |  3.46

Nlocal:           0.25 ave           1 max           0 min
Histogram: 6 0 0 0 0 0 0 0 0 2
Nghost:         249.75 ave         250 max         249 min
Histogram: 2 0 0 0 0 0 0 0 0 6
Neighs:             14 ave          56 max           0 min
Histogram: 6 0 0 0 0 0 0 0 0 2
FullNghs:           28 ave         112 max           0 min
Histogram: 6 0 0 0 0 0 0 0 0 2

Total # of neighbors = 224
Ave neighs/atom = 112
Neighbor list builds = 0
Dangerous builds = 0
variable  natoms equal "count(all)"
variable xlength equal "lx"
variable  volume equal "vol"
variable  etotal equal "etotal"
variable    ecoh equal "pe/v_natoms"
print "${xlength}, ${volume}, ${etotal}, ${ecoh}" append lattice_cohesive_energy.txt screen no

next i
jump SELF loop

change_box all x scale 1.0025 y scale 1.0025 z scale 1.0025 remap
Changing box ...
  orthogonal box = (0.047175137 0.050872955 0.050872955) to (3.0128249 3.009127 3.009127)
  orthogonal box = (0.047175137 0.047175137 0.050872955) to (3.0128249 3.0128249 3.009127)
  orthogonal box = (0.047175137 0.047175137 0.047175137) to (3.0128249 3.0128249 3.0128249)

run 1
WARNING: No fixes with time integration, atoms won't move (src/verlet.cpp:60)
WARNING: Proc sub-domain size < neighbor skin, could lead to lost atoms (src/domain.cpp:966)
Per MPI rank memory allocation (min/avg/max) = 8.573 | 8.573 | 8.575 Mbytes
   Step         PotEng         TotEng           Lx             Ly             Lz           Volume         Press           Pxx            Pyy            Pzz      
        26  -10.322796     -10.322796      2.9656497      2.9656497      2.9656497      26.083122      133371.79      133371.79      133371.79      133371.79    
        27  -10.322796     -10.322796      2.9656497      2.9656497      2.9656497      26.083122      133371.79      133371.79      133371.79      133371.79    
Loop time of 0.00016 on 8 procs for 1 steps with 2 atoms

Performance: 540.000 ns/day, 0.044 hours/ns, 6250.000 timesteps/s, 12.500 katom-step/s
0.0% CPU use with 8 MPI tasks x 1 OpenMP threads

MPI task timing breakdown:
Section |  min time  |  avg time  |  max time  |%varavg| %total
---------------------------------------------------------------
Pair    | 0.000101   | 0.00010812 | 0.000117   |   0.0 | 67.58
Neigh   | 0          | 0          | 0          |   0.0 |  0.00
Comm    | 2e-05      | 2.9125e-05 | 3.9e-05    |   0.0 | 18.20
Output  | 1.3e-05    | 1.6625e-05 | 2.1e-05    |   0.0 | 10.39
Modify  | 0          | 2.5e-07    | 1e-06      |   0.0 |  0.16
Other   |            | 5.875e-06  |            |       |  3.67

Nlocal:           0.25 ave           1 max           0 min
Histogram: 6 0 0 0 0 0 0 0 0 2
Nghost:         249.75 ave         250 max         249 min
Histogram: 2 0 0 0 0 0 0 0 0 6
Neighs:             14 ave          56 max           0 min
Histogram: 6 0 0 0 0 0 0 0 0 2
FullNghs:           28 ave         112 max           0 min
Histogram: 6 0 0 0 0 0 0 0 0 2

Total # of neighbors = 224
Ave neighs/atom = 112
Neighbor list builds = 0
Dangerous builds = 0
variable  natoms equal "count(all)"
variable xlength equal "lx"
variable  volume equal "vol"
variable  etotal equal "etotal"
variable    ecoh equal "pe/v_natoms"
print "${xlength}, ${volume}, ${etotal}, ${ecoh}" append lattice_cohesive_energy.txt screen no

next i
jump SELF loop

change_box all x scale 1.0025 y scale 1.0025 z scale 1.0025 remap
Changing box ...
  orthogonal box = (0.043468075 0.047175137 0.047175137) to (3.0165319 3.0128249 3.0128249)
  orthogonal box = (0.043468075 0.043468075 0.047175137) to (3.0165319 3.0165319 3.0128249)
  orthogonal box = (0.043468075 0.043468075 0.043468075) to (3.0165319 3.0165319 3.0165319)

run 1
WARNING: No fixes with time integration, atoms won't move (src/verlet.cpp:60)
WARNING: Proc sub-domain size < neighbor skin, could lead to lost atoms (src/domain.cpp:966)
Per MPI rank memory allocation (min/avg/max) = 8.573 | 8.573 | 8.575 Mbytes
   Step         PotEng         TotEng           Lx             Ly             Lz           Volume         Press           Pxx            Pyy            Pzz      
        27  -10.338316     -10.338316      2.9730639      2.9730639      2.9730639      26.279234      120295.99      120295.99      120295.99      120295.99    
        28  -10.338316     -10.338316      2.9730639      2.9730639      2.9730639      26.279234      120295.99      120295.99      120295.99      120295.99    
Loop time of 0.00015775 on 8 procs for 1 steps with 2 atoms

Performance: 547.702 ns/day, 0.044 hours/ns, 6339.144 timesteps/s, 12.678 katom-step/s
0.0% CPU use with 8 MPI tasks x 1 OpenMP threads

MPI task timing breakdown:
Section |  min time  |  avg time  |  max time  |%varavg| %total
---------------------------------------------------------------
Pair    | 0.000104   | 0.00010938 | 0.000115   |   0.0 | 69.33
Neigh   | 0          | 0          | 0          |   0.0 |  0.00
Comm    | 2.1e-05    | 2.625e-05  | 3.5e-05    |   0.0 | 16.64
Output  | 1.2e-05    | 1.55e-05   | 1.8e-05    |   0.0 |  9.83
Modify  | 0          | 0          | 0          |   0.0 |  0.00
Other   |            | 6.625e-06  |            |       |  4.20

Nlocal:           0.25 ave           1 max           0 min
Histogram: 6 0 0 0 0 0 0 0 0 2
Nghost:         249.75 ave         250 max         249 min
Histogram: 2 0 0 0 0 0 0 0 0 6
Neighs:             14 ave          56 max           0 min
Histogram: 6 0 0 0 0 0 0 0 0 2
FullNghs:           28 ave         112 max           0 min
Histogram: 6 0 0 0 0 0 0 0 0 2

Total # of neighbors = 224
Ave neighs/atom = 112
Neighbor list builds = 0
Dangerous builds = 0
variable  natoms equal "count(all)"
variable xlength equal "lx"
variable  volume equal "vol"
variable  etotal equal "etotal"
variable    ecoh equal "pe/v_natoms"
print "${xlength}, ${volume}, ${etotal}, ${ecoh}" append lattice_cohesive_energy.txt screen no

next i
jump SELF loop

change_box all x scale 1.0025 y scale 1.0025 z scale 1.0025 remap
Changing box ...
  orthogonal box = (0.039751745 0.043468075 0.043468075) to (3.0202483 3.0165319 3.0165319)
  orthogonal box = (0.039751745 0.039751745 0.043468075) to (3.0202483 3.0202483 3.0165319)
  orthogonal box = (0.039751745 0.039751745 0.039751745) to (3.0202483 3.0202483 3.0202483)

run 1
WARNING: No fixes with time integration, atoms won't move (src/verlet.cpp:60)
WARNING: Proc sub-domain size < neighbor skin, could lead to lost atoms (src/domain.cpp:966)
Per MPI rank memory allocation (min/avg/max) = 8.573 | 8.573 | 8.575 Mbytes
   Step         PotEng         TotEng           Lx             Ly             Lz           Volume         Press           Pxx            Pyy            Pzz      
        28  -10.352362     -10.352362      2.9804965      2.9804965      2.9804965      26.476822      107565.81      107565.81      107565.81      107565.81    
        29  -10.352362     -10.352362      2.9804965      2.9804965      2.9804965      26.476822      107565.81      107565.81      107565.81      107565.81    
Loop time of 0.000155375 on 8 procs for 1 steps with 2 atoms

Performance: 556.074 ns/day, 0.043 hours/ns, 6436.042 timesteps/s, 12.872 katom-step/s
0.0% CPU use with 8 MPI tasks x 1 OpenMP threads

MPI task timing breakdown:
Section |  min time  |  avg time  |  max time  |%varavg| %total
---------------------------------------------------------------
Pair    | 0.0001     | 0.00010538 | 0.000112   |   0.0 | 67.82
Neigh   | 0          | 0          | 0          |   0.0 |  0.00
Comm    | 2e-05      | 2.7375e-05 | 3.5e-05    |   0.0 | 17.62
Output  | 1.2e-05    | 1.6125e-05 | 2e-05      |   0.0 | 10.38
Modify  | 0          | 0          | 0          |   0.0 |  0.00
Other   |            | 6.5e-06    |            |       |  4.18

Nlocal:           0.25 ave           1 max           0 min
Histogram: 6 0 0 0 0 0 0 0 0 2
Nghost:         249.75 ave         250 max         249 min
Histogram: 2 0 0 0 0 0 0 0 0 6
Neighs:             14 ave          56 max           0 min
Histogram: 6 0 0 0 0 0 0 0 0 2
FullNghs:           28 ave         112 max           0 min
Histogram: 6 0 0 0 0 0 0 0 0 2

Total # of neighbors = 224
Ave neighs/atom = 112
Neighbor list builds = 0
Dangerous builds = 0
variable  natoms equal "count(all)"
variable xlength equal "lx"
variable  volume equal "vol"
variable  etotal equal "etotal"
variable    ecoh equal "pe/v_natoms"
print "${xlength}, ${volume}, ${etotal}, ${ecoh}" append lattice_cohesive_energy.txt screen no

next i
jump SELF loop

change_box all x scale 1.0025 y scale 1.0025 z scale 1.0025 remap
Changing box ...
  orthogonal box = (0.036026124 0.039751745 0.039751745) to (3.0239739 3.0202483 3.0202483)
  orthogonal box = (0.036026124 0.036026124 0.039751745) to (3.0239739 3.0239739 3.0202483)
  orthogonal box = (0.036026124 0.036026124 0.036026124) to (3.0239739 3.0239739 3.0239739)

run 1
WARNING: No fixes with time integration, atoms won't move (src/verlet.cpp:60)
WARNING: Proc sub-domain size < neighbor skin, could lead to lost atoms (src/domain.cpp:966)
Per MPI rank memory allocation (min/avg/max) = 8.573 | 8.573 | 8.575 Mbytes
   Step         PotEng         TotEng           Lx             Ly             Lz           Volume         Press           Pxx            Pyy            Pzz      
        29  -10.364953     -10.364953      2.9879478      2.9879478      2.9879478      26.675895      95174.92       95174.92       95174.92       95174.92     
        30  -10.364953     -10.364953      2.9879478      2.9879478      2.9879478      26.675895      95174.92       95174.92       95174.92       95174.92     
Loop time of 0.000160625 on 8 procs for 1 steps with 2 atoms

Performance: 537.899 ns/day, 0.045 hours/ns, 6225.681 timesteps/s, 12.451 katom-step/s
0.0% CPU use with 8 MPI tasks x 1 OpenMP threads

MPI task timing breakdown:
Section |  min time  |  avg time  |  max time  |%varavg| %total
---------------------------------------------------------------
Pair    | 0.000105   | 0.00011112 | 0.00012    |   0.0 | 69.18
Neigh   | 0          | 0          | 0          |   0.0 |  0.00
Comm    | 2.1e-05    | 2.725e-05  | 3.6e-05    |   0.0 | 16.96
Output  | 1.2e-05    | 1.625e-05  | 2.1e-05    |   0.0 | 10.12
Modify  | 0          | 1.25e-07   | 1e-06      |   0.0 |  0.08
Other   |            | 5.875e-06  |            |       |  3.66

Nlocal:           0.25 ave           1 max           0 min
Histogram: 6 0 0 0 0 0 0 0 0 2
Nghost:         249.75 ave         250 max         249 min
Histogram: 2 0 0 0 0 0 0 0 0 6
Neighs:             14 ave          56 max           0 min
Histogram: 6 0 0 0 0 0 0 0 0 2
FullNghs:           28 ave         112 max           0 min
Histogram: 6 0 0 0 0 0 0 0 0 2

Total # of neighbors = 224
Ave neighs/atom = 112
Neighbor list builds = 0
Dangerous builds = 0
variable  natoms equal "count(all)"
variable xlength equal "lx"
variable  volume equal "vol"
variable  etotal equal "etotal"
variable    ecoh equal "pe/v_natoms"
print "${xlength}, ${volume}, ${etotal}, ${ecoh}" append lattice_cohesive_energy.txt screen no

next i
jump SELF loop

change_box all x scale 1.0025 y scale 1.0025 z scale 1.0025 remap
Changing box ...
  orthogonal box = (0.03229119 0.036026124 0.036026124) to (3.0277088 3.0239739 3.0239739)
  orthogonal box = (0.03229119 0.03229119 0.036026124) to (3.0277088 3.0277088 3.0239739)
  orthogonal box = (0.03229119 0.03229119 0.03229119) to (3.0277088 3.0277088 3.0277088)

run 1
WARNING: No fixes with time integration, atoms won't move (src/verlet.cpp:60)
WARNING: Proc sub-domain size < neighbor skin, could lead to lost atoms (src/domain.cpp:966)
Per MPI rank memory allocation (min/avg/max) = 8.573 | 8.573 | 8.575 Mbytes
   Step         PotEng         TotEng           Lx             Ly             Lz           Volume         Press           Pxx            Pyy            Pzz      
        30  -10.376109     -10.376109      2.9954176      2.9954176      2.9954176      26.876465      83117.046      83117.046      83117.046      83117.046    
        31  -10.376109     -10.376109      2.9954176      2.9954176      2.9954176      26.876465      83117.046      83117.046      83117.046      83117.046    
Loop time of 0.00016225 on 8 procs for 1 steps with 2 atoms

Performance: 532.512 ns/day, 0.045 hours/ns, 6163.328 timesteps/s, 12.327 katom-step/s
0.0% CPU use with 8 MPI tasks x 1 OpenMP threads

MPI task timing breakdown:
Section |  min time  |  avg time  |  max time  |%varavg| %total
---------------------------------------------------------------
Pair    | 0.000102   | 0.0001085  | 0.000119   |   0.0 | 66.87
Neigh   | 0          | 0          | 0          |   0.0 |  0.00
Comm    | 2.1e-05    | 2.95e-05   | 3.9e-05    |   0.0 | 18.18
Output  | 1.3e-05    | 1.7375e-05 | 2.4e-05    |   0.0 | 10.71
Modify  | 0          | 2.5e-07    | 1e-06      |   0.0 |  0.15
Other   |            | 6.625e-06  |            |       |  4.08

Nlocal:           0.25 ave           1 max           0 min
Histogram: 6 0 0 0 0 0 0 0 0 2
Nghost:         249.75 ave         250 max         249 min
Histogram: 2 0 0 0 0 0 0 0 0 6
Neighs:             14 ave          56 max           0 min
Histogram: 6 0 0 0 0 0 0 0 0 2
FullNghs:           28 ave         112 max           0 min
Histogram: 6 0 0 0 0 0 0 0 0 2

Total # of neighbors = 224
Ave neighs/atom = 112
Neighbor list builds = 0
Dangerous builds = 0
variable  natoms equal "count(all)"
variable xlength equal "lx"
variable  volume equal "vol"
variable  etotal equal "etotal"
variable    ecoh equal "pe/v_natoms"
print "${xlength}, ${volume}, ${etotal}, ${ecoh}" append lattice_cohesive_energy.txt screen no

next i
jump SELF loop

change_box all x scale 1.0025 y scale 1.0025 z scale 1.0025 remap
Changing box ...
  orthogonal box = (0.028546918 0.03229119 0.03229119) to (3.0314531 3.0277088 3.0277088)
  orthogonal box = (0.028546918 0.028546918 0.03229119) to (3.0314531 3.0314531 3.0277088)
  orthogonal box = (0.028546918 0.028546918 0.028546918) to (3.0314531 3.0314531 3.0314531)

run 1
WARNING: No fixes with time integration, atoms won't move (src/verlet.cpp:60)
WARNING: Proc sub-domain size < neighbor skin, could lead to lost atoms (src/domain.cpp:966)
Per MPI rank memory allocation (min/avg/max) = 8.573 | 8.573 | 8.575 Mbytes
   Step         PotEng         TotEng           Lx             Ly             Lz           Volume         Press           Pxx            Pyy            Pzz      
        31  -10.385848     -10.385848      3.0029062      3.0029062      3.0029062      27.078542      71386.032      71386.032      71386.032      71386.032    
        32  -10.385848     -10.385848      3.0029062      3.0029062      3.0029062      27.078542      71386.032      71386.032      71386.032      71386.032    
Loop time of 0.00016175 on 8 procs for 1 steps with 2 atoms

Performance: 534.158 ns/day, 0.045 hours/ns, 6182.380 timesteps/s, 12.365 katom-step/s
0.0% CPU use with 8 MPI tasks x 1 OpenMP threads

MPI task timing breakdown:
Section |  min time  |  avg time  |  max time  |%varavg| %total
---------------------------------------------------------------
Pair    | 0.000104   | 0.00011025 | 0.00012    |   0.0 | 68.16
Neigh   | 0          | 0          | 0          |   0.0 |  0.00
Comm    | 2.2e-05    | 2.925e-05  | 3.9e-05    |   0.0 | 18.08
Output  | 1.3e-05    | 1.675e-05  | 2.3e-05    |   0.0 | 10.36
Modify  | 0          | 1.25e-07   | 1e-06      |   0.0 |  0.08
Other   |            | 5.375e-06  |            |       |  3.32

Nlocal:           0.25 ave           1 max           0 min
Histogram: 6 0 0 0 0 0 0 0 0 2
Nghost:         249.75 ave         250 max         249 min
Histogram: 2 0 0 0 0 0 0 0 0 6
Neighs:             14 ave          56 max           0 min
Histogram: 6 0 0 0 0 0 0 0 0 2
FullNghs:           28 ave         112 max           0 min
Histogram: 6 0 0 0 0 0 0 0 0 2

Total # of neighbors = 224
Ave neighs/atom = 112
Neighbor list builds = 0
Dangerous builds = 0
variable  natoms equal "count(all)"
variable xlength equal "lx"
variable  volume equal "vol"
variable  etotal equal "etotal"
variable    ecoh equal "pe/v_natoms"
print "${xlength}, ${volume}, ${etotal}, ${ecoh}" append lattice_cohesive_energy.txt screen no

next i
jump SELF loop

change_box all x scale 1.0025 y scale 1.0025 z scale 1.0025 remap
Changing box ...
  orthogonal box = (0.024793285 0.028546918 0.028546918) to (3.0352067 3.0314531 3.0314531)
  orthogonal box = (0.024793285 0.024793285 0.028546918) to (3.0352067 3.0352067 3.0314531)
  orthogonal box = (0.024793285 0.024793285 0.024793285) to (3.0352067 3.0352067 3.0352067)

run 1
WARNING: No fixes with time integration, atoms won't move (src/verlet.cpp:60)
WARNING: Proc sub-domain size < neighbor skin, could lead to lost atoms (src/domain.cpp:966)
Per MPI rank memory allocation (min/avg/max) = 8.573 | 8.573 | 8.575 Mbytes
   Step         PotEng         TotEng           Lx             Ly             Lz           Volume         Press           Pxx            Pyy            Pzz      
        32  -10.39419      -10.39419       3.0104134      3.0104134      3.0104134      27.28214       59975.795      59975.795      59975.795      59975.795    
        33  -10.39419      -10.39419       3.0104134      3.0104134      3.0104134      27.28214       59975.795      59975.795      59975.795      59975.795    
Loop time of 0.000159125 on 8 procs for 1 steps with 2 atoms

Performance: 542.969 ns/day, 0.044 hours/ns, 6284.368 timesteps/s, 12.569 katom-step/s
0.0% CPU use with 8 MPI tasks x 1 OpenMP threads

MPI task timing breakdown:
Section |  min time  |  avg time  |  max time  |%varavg| %total
---------------------------------------------------------------
Pair    | 0.000101   | 0.00010812 | 0.000117   |   0.0 | 67.95
Neigh   | 0          | 0          | 0          |   0.0 |  0.00
Comm    | 2.1e-05    | 2.875e-05  | 4e-05      |   0.0 | 18.07
Output  | 1.3e-05    | 1.675e-05  | 2.2e-05    |   0.0 | 10.53
Modify  | 0          | 2.5e-07    | 1e-06      |   0.0 |  0.16
Other   |            | 5.25e-06   |            |       |  3.30

Nlocal:           0.25 ave           1 max           0 min
Histogram: 6 0 0 0 0 0 0 0 0 2
Nghost:         249.75 ave         250 max         249 min
Histogram: 2 0 0 0 0 0 0 0 0 6
Neighs:             14 ave          56 max           0 min
Histogram: 6 0 0 0 0 0 0 0 0 2
FullNghs:           28 ave         112 max           0 min
Histogram: 6 0 0 0 0 0 0 0 0 2

Total # of neighbors = 224
Ave neighs/atom = 112
Neighbor list builds = 0
Dangerous builds = 0
variable  natoms equal "count(all)"
variable xlength equal "lx"
variable  volume equal "vol"
variable  etotal equal "etotal"
variable    ecoh equal "pe/v_natoms"
print "${xlength}, ${volume}, ${etotal}, ${ecoh}" append lattice_cohesive_energy.txt screen no

next i
jump SELF loop

change_box all x scale 1.0025 y scale 1.0025 z scale 1.0025 remap
Changing box ...
  orthogonal box = (0.021030268 0.024793285 0.024793285) to (3.0389697 3.0352067 3.0352067)
  orthogonal box = (0.021030268 0.021030268 0.024793285) to (3.0389697 3.0389697 3.0352067)
  orthogonal box = (0.021030268 0.021030268 0.021030268) to (3.0389697 3.0389697 3.0389697)

run 1
WARNING: No fixes with time integration, atoms won't move (src/verlet.cpp:60)
WARNING: Proc sub-domain size < neighbor skin, could lead to lost atoms (src/domain.cpp:966)
Per MPI rank memory allocation (min/avg/max) = 8.573 | 8.573 | 8.575 Mbytes
   Step         PotEng         TotEng           Lx             Ly             Lz           Volume         Press           Pxx            Pyy            Pzz      
        33  -10.401154     -10.401154      3.0179395      3.0179395      3.0179395      27.487268      48880.329      48880.329      48880.329      48880.329    
        34  -10.401154     -10.401154      3.0179395      3.0179395      3.0179395      27.487268      48880.329      48880.329      48880.329      48880.329    
Loop time of 0.00019775 on 8 procs for 1 steps with 2 atoms

Performance: 436.915 ns/day, 0.055 hours/ns, 5056.890 timesteps/s, 10.114 katom-step/s
0.0% CPU use with 8 MPI tasks x 1 OpenMP threads

MPI task timing breakdown:
Section |  min time  |  avg time  |  max time  |%varavg| %total
---------------------------------------------------------------
Pair    | 0.000111   | 0.0001245  | 0.000156   |   0.0 | 62.96
Neigh   | 0          | 0          | 0          |   0.0 |  0.00
Comm    | 1.8e-05    | 4.3e-05    | 6.5e-05    |   0.0 | 21.74
Output  | 1.3e-05    | 2.425e-05  | 5e-05      |   0.0 | 12.26
Modify  | 0          | 0          | 0          |   0.0 |  0.00
Other   |            | 6e-06      |            |       |  3.03

Nlocal:           0.25 ave           1 max           0 min
Histogram: 6 0 0 0 0 0 0 0 0 2
Nghost:         249.75 ave         250 max         249 min
Histogram: 2 0 0 0 0 0 0 0 0 6
Neighs:             14 ave          56 max           0 min
Histogram: 6 0 0 0 0 0 0 0 0 2
FullNghs:           28 ave         112 max           0 min
Histogram: 6 0 0 0 0 0 0 0 0 2

Total # of neighbors = 224
Ave neighs/atom = 112
Neighbor list builds = 0
Dangerous builds = 0
variable  natoms equal "count(all)"
variable xlength equal "lx"
variable  volume equal "vol"
variable  etotal equal "etotal"
variable    ecoh equal "pe/v_natoms"
print "${xlength}, ${volume}, ${etotal}, ${ecoh}" append lattice_cohesive_energy.txt screen no

next i
jump SELF loop

change_box all x scale 1.0025 y scale 1.0025 z scale 1.0025 remap
Changing box ...
  orthogonal box = (0.017257844 0.021030268 0.021030268) to (3.0427422 3.0389697 3.0389697)
  orthogonal box = (0.017257844 0.017257844 0.021030268) to (3.0427422 3.0427422 3.0389697)
  orthogonal box = (0.017257844 0.017257844 0.017257844) to (3.0427422 3.0427422 3.0427422)

run 1
WARNING: No fixes with time integration, atoms won't move (src/verlet.cpp:60)
WARNING: Proc sub-domain size < neighbor skin, could lead to lost atoms (src/domain.cpp:966)
Per MPI rank memory allocation (min/avg/max) = 8.573 | 8.573 | 8.575 Mbytes
   Step         PotEng         TotEng           Lx             Ly             Lz           Volume         Press           Pxx            Pyy            Pzz      
        34  -10.40676      -10.40676       3.0254843      3.0254843      3.0254843      27.693938      38093.733      38093.733      38093.733      38093.733    
        35  -10.40676      -10.40676       3.0254843      3.0254843      3.0254843      27.693938      38093.733      38093.733      38093.733      38093.733    
Loop time of 0.00015475 on 8 procs for 1 steps with 2 atoms

Performance: 558.320 ns/day, 0.043 hours/ns, 6462.036 timesteps/s, 12.924 katom-step/s
0.0% CPU use with 8 MPI tasks x 1 OpenMP threads

MPI task timing breakdown:
Section |  min time  |  avg time  |  max time  |%varavg| %total
---------------------------------------------------------------
Pair    | 9.6e-05    | 0.000104   | 0.000111   |   0.0 | 67.21
Neigh   | 0          | 0          | 0          |   0.0 |  0.00
Comm    | 2.1e-05    | 2.8e-05    | 3.7e-05    |   0.0 | 18.09
Output  | 1.4e-05    | 1.6375e-05 | 1.9e-05    |   0.0 | 10.58
Modify  | 0          | 2.5e-07    | 2e-06      |   0.0 |  0.16
Other   |            | 6.125e-06  |            |       |  3.96

Nlocal:           0.25 ave           1 max           0 min
Histogram: 6 0 0 0 0 0 0 0 0 2
Nghost:         249.75 ave         250 max         249 min
Histogram: 2 0 0 0 0 0 0 0 0 6
Neighs:             14 ave          56 max           0 min
Histogram: 6 0 0 0 0 0 0 0 0 2
FullNghs:           28 ave         112 max           0 min
Histogram: 6 0 0 0 0 0 0 0 0 2

Total # of neighbors = 224
Ave neighs/atom = 112
Neighbor list builds = 0
Dangerous builds = 0
variable  natoms equal "count(all)"
variable xlength equal "lx"
variable  volume equal "vol"
variable  etotal equal "etotal"
variable    ecoh equal "pe/v_natoms"
print "${xlength}, ${volume}, ${etotal}, ${ecoh}" append lattice_cohesive_energy.txt screen no

next i
jump SELF loop

change_box all x scale 1.0025 y scale 1.0025 z scale 1.0025 remap
Changing box ...
  orthogonal box = (0.013475988 0.017257844 0.017257844) to (3.046524 3.0427422 3.0427422)
  orthogonal box = (0.013475988 0.013475988 0.017257844) to (3.046524 3.046524 3.0427422)
  orthogonal box = (0.013475988 0.013475988 0.013475988) to (3.046524 3.046524 3.046524)

run 1
WARNING: No fixes with time integration, atoms won't move (src/verlet.cpp:60)
WARNING: Proc sub-domain size < neighbor skin, could lead to lost atoms (src/domain.cpp:966)
Per MPI rank memory allocation (min/avg/max) = 8.573 | 8.573 | 8.575 Mbytes
   Step         PotEng         TotEng           Lx             Ly             Lz           Volume         Press           Pxx            Pyy            Pzz      
        35  -10.411025     -10.411025      3.033048       3.033048       3.033048       27.902162      27610.173      27610.173      27610.173      27610.173    
        36  -10.411025     -10.411025      3.033048       3.033048       3.033048       27.902162      27610.173      27610.173      27610.173      27610.173    
Loop time of 0.000152875 on 8 procs for 1 steps with 2 atoms

Performance: 565.168 ns/day, 0.042 hours/ns, 6541.292 timesteps/s, 13.083 katom-step/s
0.0% CPU use with 8 MPI tasks x 1 OpenMP threads

MPI task timing breakdown:
Section |  min time  |  avg time  |  max time  |%varavg| %total
---------------------------------------------------------------
Pair    | 9.6e-05    | 0.000102   | 0.000111   |   0.0 | 66.72
Neigh   | 0          | 0          | 0          |   0.0 |  0.00
Comm    | 2e-05      | 2.8375e-05 | 3.8e-05    |   0.0 | 18.56
Output  | 1.3e-05    | 1.7e-05    | 2.4e-05    |   0.0 | 11.12
Modify  | 0          | 1.25e-07   | 1e-06      |   0.0 |  0.08
Other   |            | 5.375e-06  |            |       |  3.52

Nlocal:           0.25 ave           1 max           0 min
Histogram: 6 0 0 0 0 0 0 0 0 2
Nghost:         249.75 ave         250 max         249 min
Histogram: 2 0 0 0 0 0 0 0 0 6
Neighs:             14 ave          56 max           0 min
Histogram: 6 0 0 0 0 0 0 0 0 2
FullNghs:           28 ave         112 max           0 min
Histogram: 6 0 0 0 0 0 0 0 0 2

Total # of neighbors = 224
Ave neighs/atom = 112
Neighbor list builds = 0
Dangerous builds = 0
variable  natoms equal "count(all)"
variable xlength equal "lx"
variable  volume equal "vol"
variable  etotal equal "etotal"
variable    ecoh equal "pe/v_natoms"
print "${xlength}, ${volume}, ${etotal}, ${ecoh}" append lattice_cohesive_energy.txt screen no

next i
jump SELF loop

change_box all x scale 1.0025 y scale 1.0025 z scale 1.0025 remap
Changing box ...
  orthogonal box = (0.0096846783 0.013475988 0.013475988) to (3.0503153 3.046524 3.046524)
  orthogonal box = (0.0096846783 0.0096846783 0.013475988) to (3.0503153 3.0503153 3.046524)
  orthogonal box = (0.0096846783 0.0096846783 0.0096846783) to (3.0503153 3.0503153 3.0503153)

run 1
WARNING: No fixes with time integration, atoms won't move (src/verlet.cpp:60)
WARNING: Proc sub-domain size < neighbor skin, could lead to lost atoms (src/domain.cpp:966)
Per MPI rank memory allocation (min/avg/max) = 8.573 | 8.573 | 8.575 Mbytes
   Step         PotEng         TotEng           Lx             Ly             Lz           Volume         Press           Pxx            Pyy            Pzz      
        36  -10.413969     -10.413969      3.0406306      3.0406306      3.0406306      28.111952      17423.91       17423.91       17423.91       17423.91     
        37  -10.413969     -10.413969      3.0406306      3.0406306      3.0406306      28.111952      17423.91       17423.91       17423.91       17423.91     
Loop time of 0.00015625 on 8 procs for 1 steps with 2 atoms

Performance: 552.960 ns/day, 0.043 hours/ns, 6400.000 timesteps/s, 12.800 katom-step/s
0.0% CPU use with 8 MPI tasks x 1 OpenMP threads

MPI task timing breakdown:
Section |  min time  |  avg time  |  max time  |%varavg| %total
---------------------------------------------------------------
Pair    | 9.9e-05    | 0.00010687 | 0.000114   |   0.0 | 68.40
Neigh   | 0          | 0          | 0          |   0.0 |  0.00
Comm    | 2e-05      | 2.75e-05   | 3.7e-05    |   0.0 | 17.60
Output  | 1.2e-05    | 1.5625e-05 | 1.8e-05    |   0.0 | 10.00
Modify  | 0          | 0          | 0          |   0.0 |  0.00
Other   |            | 6.25e-06   |            |       |  4.00

Nlocal:           0.25 ave           1 max           0 min
Histogram: 6 0 0 0 0 0 0 0 0 2
Nghost:         249.75 ave         250 max         249 min
Histogram: 2 0 0 0 0 0 0 0 0 6
Neighs:             14 ave          56 max           0 min
Histogram: 6 0 0 0 0 0 0 0 0 2
FullNghs:           28 ave         112 max           0 min
Histogram: 6 0 0 0 0 0 0 0 0 2

Total # of neighbors = 224
Ave neighs/atom = 112
Neighbor list builds = 0
Dangerous builds = 0
variable  natoms equal "count(all)"
variable xlength equal "lx"
variable  volume equal "vol"
variable  etotal equal "etotal"
variable    ecoh equal "pe/v_natoms"
print "${xlength}, ${volume}, ${etotal}, ${ecoh}" append lattice_cohesive_energy.txt screen no

next i
jump SELF loop

change_box all x scale 1.0025 y scale 1.0025 z scale 1.0025 remap
Changing box ...
  orthogonal box = (0.00588389 0.0096846783 0.0096846783) to (3.0541161 3.0503153 3.0503153)
  orthogonal box = (0.00588389 0.00588389 0.0096846783) to (3.0541161 3.0541161 3.0503153)
  orthogonal box = (0.00588389 0.00588389 0.00588389) to (3.0541161 3.0541161 3.0541161)

run 1
WARNING: No fixes with time integration, atoms won't move (src/verlet.cpp:60)
WARNING: Proc sub-domain size < neighbor skin, could lead to lost atoms (src/domain.cpp:966)
Per MPI rank memory allocation (min/avg/max) = 8.573 | 8.573 | 8.575 Mbytes
   Step         PotEng         TotEng           Lx             Ly             Lz           Volume         Press           Pxx            Pyy            Pzz      
        37  -10.415611     -10.415611      3.0482322      3.0482322      3.0482322      28.323319      7529.2939      7529.2939      7529.2939      7529.2939    
        38  -10.415611     -10.415611      3.0482322      3.0482322      3.0482322      28.323319      7529.2939      7529.2939      7529.2939      7529.2939    
Loop time of 0.00015525 on 8 procs for 1 steps with 2 atoms

Performance: 556.522 ns/day, 0.043 hours/ns, 6441.224 timesteps/s, 12.882 katom-step/s
0.0% CPU use with 8 MPI tasks x 1 OpenMP threads

MPI task timing breakdown:
Section |  min time  |  avg time  |  max time  |%varavg| %total
---------------------------------------------------------------
Pair    | 9.7e-05    | 0.0001045  | 0.000115   |   0.0 | 67.31
Neigh   | 0          | 0          | 0          |   0.0 |  0.00
Comm    | 2e-05      | 2.8125e-05 | 3.9e-05    |   0.0 | 18.12
Output  | 1.3e-05    | 1.6375e-05 | 2.2e-05    |   0.0 | 10.55
Modify  | 0          | 1.25e-07   | 1e-06      |   0.0 |  0.08
Other   |            | 6.125e-06  |            |       |  3.95

Nlocal:           0.25 ave           1 max           0 min
Histogram: 6 0 0 0 0 0 0 0 0 2
Nghost:         249.75 ave         250 max         249 min
Histogram: 2 0 0 0 0 0 0 0 0 6
Neighs:             14 ave          56 max           0 min
Histogram: 6 0 0 0 0 0 0 0 0 2
FullNghs:           28 ave         112 max           0 min
Histogram: 6 0 0 0 0 0 0 0 0 2

Total # of neighbors = 224
Ave neighs/atom = 112
Neighbor list builds = 0
Dangerous builds = 0
variable  natoms equal "count(all)"
variable xlength equal "lx"
variable  volume equal "vol"
variable  etotal equal "etotal"
variable    ecoh equal "pe/v_natoms"
print "${xlength}, ${volume}, ${etotal}, ${ecoh}" append lattice_cohesive_energy.txt screen no

next i
jump SELF loop

change_box all x scale 1.0025 y scale 1.0025 z scale 1.0025 remap
Changing box ...
  orthogonal box = (0.0020735997 0.00588389 0.00588389) to (3.0579264 3.0541161 3.0541161)
  orthogonal box = (0.0020735997 0.0020735997 0.00588389) to (3.0579264 3.0579264 3.0541161)
  orthogonal box = (0.0020735997 0.0020735997 0.0020735997) to (3.0579264 3.0579264 3.0579264)

run 1
WARNING: No fixes with time integration, atoms won't move (src/verlet.cpp:60)
WARNING: Proc sub-domain size < neighbor skin, could lead to lost atoms (src/domain.cpp:966)
Per MPI rank memory allocation (min/avg/max) = 8.573 | 8.573 | 8.575 Mbytes
   Step         PotEng         TotEng           Lx             Ly             Lz           Volume         Press           Pxx            Pyy            Pzz      
        38  -10.41597      -10.41597       3.0558528      3.0558528      3.0558528      28.536276     -2079.2682     -2079.2682     -2079.2682     -2079.2682    
        39  -10.41597      -10.41597       3.0558528      3.0558528      3.0558528      28.536276     -2079.2682     -2079.2682     -2079.2682     -2079.2682    
Loop time of 0.000152875 on 8 procs for 1 steps with 2 atoms

Performance: 565.168 ns/day, 0.042 hours/ns, 6541.292 timesteps/s, 13.083 katom-step/s
0.0% CPU use with 8 MPI tasks x 1 OpenMP threads

MPI task timing breakdown:
Section |  min time  |  avg time  |  max time  |%varavg| %total
---------------------------------------------------------------
Pair    | 0.0001     | 0.0001045  | 0.00011    |   0.0 | 68.36
Neigh   | 0          | 0          | 0          |   0.0 |  0.00
Comm    | 2.1e-05    | 2.6125e-05 | 3.4e-05    |   0.0 | 17.09
Output  | 1.2e-05    | 1.625e-05  | 2.1e-05    |   0.0 | 10.63
Modify  | 0          | 2.5e-07    | 1e-06      |   0.0 |  0.16
Other   |            | 5.75e-06   |            |       |  3.76

Nlocal:           0.25 ave           1 max           0 min
Histogram: 6 0 0 0 0 0 0 0 0 2
Nghost:         249.75 ave         250 max         249 min
Histogram: 2 0 0 0 0 0 0 0 0 6
Neighs:             14 ave          56 max           0 min
Histogram: 6 0 0 0 0 0 0 0 0 2
FullNghs:           28 ave         112 max           0 min
Histogram: 6 0 0 0 0 0 0 0 0 2

Total # of neighbors = 224
Ave neighs/atom = 112
Neighbor list builds = 0
Dangerous builds = 0
variable  natoms equal "count(all)"
variable xlength equal "lx"
variable  volume equal "vol"
variable  etotal equal "etotal"
variable    ecoh equal "pe/v_natoms"
print "${xlength}, ${volume}, ${etotal}, ${ecoh}" append lattice_cohesive_energy.txt screen no

next i
jump SELF loop

change_box all x scale 1.0025 y scale 1.0025 z scale 1.0025 remap
Changing box ...
  orthogonal box = (-0.0017462163 0.0020735997 0.0020735997) to (3.0617462 3.0579264 3.0579264)
  orthogonal box = (-0.0017462163 -0.0017462163 0.0020735997) to (3.0617462 3.0617462 3.0579264)
  orthogonal box = (-0.0017462163 -0.0017462163 -0.0017462163) to (3.0617462 3.0617462 3.0617462)

run 1
WARNING: No fixes with time integration, atoms won't move (src/verlet.cpp:60)
WARNING: Proc sub-domain size < neighbor skin, could lead to lost atoms (src/domain.cpp:966)
Per MPI rank memory allocation (min/avg/max) = 8.573 | 8.573 | 8.575 Mbytes
   Step         PotEng         TotEng           Lx             Ly             Lz           Volume         Press           Pxx            Pyy            Pzz      
        39  -10.415063     -10.415063      3.0634924      3.0634924      3.0634924      28.750833     -11407.269     -11407.269     -11407.269     -11407.269    
        40  -10.415063     -10.415063      3.0634924      3.0634924      3.0634924      28.750833     -11407.269     -11407.269     -11407.269     -11407.269    
Loop time of 0.000172375 on 8 procs for 1 steps with 2 atoms

Performance: 501.233 ns/day, 0.048 hours/ns, 5801.305 timesteps/s, 11.603 katom-step/s
0.0% CPU use with 8 MPI tasks x 1 OpenMP threads

MPI task timing breakdown:
Section |  min time  |  avg time  |  max time  |%varavg| %total
---------------------------------------------------------------
Pair    | 9.7e-05    | 0.00010262 | 0.000111   |   0.0 | 59.54
Neigh   | 0          | 0          | 0          |   0.0 |  0.00
Comm    | 2.2e-05    | 2.825e-05  | 3.5e-05    |   0.0 | 16.39
Output  | 1.3e-05    | 1.7e-05    | 2.2e-05    |   0.0 |  9.86
Modify  | 0          | 2.5e-07    | 1e-06      |   0.0 |  0.15
Other   |            | 2.425e-05  |            |       | 14.07

Nlocal:           0.25 ave           1 max           0 min
Histogram: 6 0 0 0 0 0 0 0 0 2
Nghost:         249.75 ave         250 max         249 min
Histogram: 2 0 0 0 0 0 0 0 0 6
Neighs:             14 ave          56 max           0 min
Histogram: 6 0 0 0 0 0 0 0 0 2
FullNghs:           28 ave         112 max           0 min
Histogram: 6 0 0 0 0 0 0 0 0 2

Total # of neighbors = 224
Ave neighs/atom = 112
Neighbor list builds = 0
Dangerous builds = 0
variable  natoms equal "count(all)"
variable xlength equal "lx"
variable  volume equal "vol"
variable  etotal equal "etotal"
variable    ecoh equal "pe/v_natoms"
print "${xlength}, ${volume}, ${etotal}, ${ecoh}" append lattice_cohesive_energy.txt screen no

next i
jump SELF loop

change_box all x scale 1.0025 y scale 1.0025 z scale 1.0025 remap
Changing box ...
  orthogonal box = (-0.0055755818 -0.0017462163 -0.0017462163) to (3.0655756 3.0617462 3.0617462)
  orthogonal box = (-0.0055755818 -0.0055755818 -0.0017462163) to (3.0655756 3.0655756 3.0617462)
  orthogonal box = (-0.0055755818 -0.0055755818 -0.0055755818) to (3.0655756 3.0655756 3.0655756)

run 1
WARNING: No fixes with time integration, atoms won't move (src/verlet.cpp:60)
WARNING: Proc sub-domain size < neighbor skin, could lead to lost atoms (src/domain.cpp:966)
Per MPI rank memory allocation (min/avg/max) = 8.573 | 8.573 | 8.575 Mbytes
   Step         PotEng         TotEng           Lx             Ly             Lz           Volume         Press           Pxx            Pyy            Pzz      
        40  -10.412909     -10.412909      3.0711512      3.0711512      3.0711512      28.967004     -20460.126     -20460.126     -20460.126     -20460.126    
        41  -10.412909     -10.412909      3.0711512      3.0711512      3.0711512      28.967004     -20460.126     -20460.126     -20460.126     -20460.126    
Loop time of 0.000221875 on 8 procs for 1 steps with 2 atoms

Performance: 389.408 ns/day, 0.062 hours/ns, 4507.042 timesteps/s, 9.014 katom-step/s
0.0% CPU use with 8 MPI tasks x 1 OpenMP threads

MPI task timing breakdown:
Section |  min time  |  avg time  |  max time  |%varavg| %total
---------------------------------------------------------------
Pair    | 0.000132   | 0.00014325 | 0.00017    |   0.0 | 64.56
Neigh   | 0          | 0          | 0          |   0.0 |  0.00
Comm    | 1.9e-05    | 4.0375e-05 | 6e-05      |   0.0 | 18.20
Output  | 1.5e-05    | 2.825e-05  | 5.7e-05    |   0.0 | 12.73
Modify  | 0          | 3.75e-07   | 1e-06      |   0.0 |  0.17
Other   |            | 9.625e-06  |            |       |  4.34

Nlocal:           0.25 ave           1 max           0 min
Histogram: 6 0 0 0 0 0 0 0 0 2
Nghost:         249.75 ave         250 max         249 min
Histogram: 2 0 0 0 0 0 0 0 0 6
Neighs:             14 ave          56 max           0 min
Histogram: 6 0 0 0 0 0 0 0 0 2
FullNghs:           28 ave         112 max           0 min
Histogram: 6 0 0 0 0 0 0 0 0 2

Total # of neighbors = 224
Ave neighs/atom = 112
Neighbor list builds = 0
Dangerous builds = 0
variable  natoms equal "count(all)"
variable xlength equal "lx"
variable  volume equal "vol"
variable  etotal equal "etotal"
variable    ecoh equal "pe/v_natoms"
print "${xlength}, ${volume}, ${etotal}, ${ecoh}" append lattice_cohesive_energy.txt screen no

next i
jump SELF loop

change_box all x scale 1.0025 y scale 1.0025 z scale 1.0025 remap
Changing box ...
  orthogonal box = (-0.0094145208 -0.0055755818 -0.0055755818) to (3.0694145 3.0655756 3.0655756)
  orthogonal box = (-0.0094145208 -0.0094145208 -0.0055755818) to (3.0694145 3.0694145 3.0655756)
  orthogonal box = (-0.0094145208 -0.0094145208 -0.0094145208) to (3.0694145 3.0694145 3.0694145)

run 1
WARNING: No fixes with time integration, atoms won't move (src/verlet.cpp:60)
WARNING: Proc sub-domain size < neighbor skin, could lead to lost atoms (src/domain.cpp:966)
Per MPI rank memory allocation (min/avg/max) = 8.573 | 8.573 | 8.575 Mbytes
   Step         PotEng         TotEng           Lx             Ly             Lz           Volume         Press           Pxx            Pyy            Pzz      
        41  -10.409527     -10.409527      3.078829       3.078829       3.078829       29.1848       -29243.181     -29243.181     -29243.181     -29243.181    
        42  -10.409527     -10.409527      3.078829       3.078829       3.078829       29.1848       -29243.181     -29243.181     -29243.181     -29243.181    
Loop time of 0.00022625 on 8 procs for 1 steps with 2 atoms

Performance: 381.878 ns/day, 0.063 hours/ns, 4419.890 timesteps/s, 8.840 katom-step/s
0.0% CPU use with 8 MPI tasks x 1 OpenMP threads

MPI task timing breakdown:
Section |  min time  |  avg time  |  max time  |%varavg| %total
[...]
Histogram: 6 0 0 0 0 0 0 0 0 2
FullNghs:           22 ave          88 max           0 min
Histogram: 6 0 0 0 0 0 0 0 0 2

Total # of neighbors = 176
Ave neighs/atom = 88
Neighbor list builds = 0
Dangerous builds = 0
variable  natoms equal "count(all)"
variable xlength equal "lx"
variable  volume equal "vol"
variable  etotal equal "etotal"
variable    ecoh equal "pe/v_natoms"
print "${xlength}, ${volume}, ${etotal}, ${ecoh}" append lattice_cohesive_energy.txt screen no

next i
jump SELF loop

change_box all x scale 1.0025 y scale 1.0025 z scale 1.0025 remap
Changing box ...
  orthogonal box = (-0.068163833 -0.064178387 -0.064178387) to (3.1281638 3.1241784 3.1241784)
  orthogonal box = (-0.068163833 -0.068163833 -0.064178387) to (3.1281638 3.1281638 3.1241784)
  orthogonal box = (-0.068163833 -0.068163833 -0.068163833) to (3.1281638 3.1281638 3.1281638)

run 1
WARNING: No fixes with time integration, atoms won't move (src/verlet.cpp:60)
WARNING: Proc sub-domain size < neighbor skin, could lead to lost atoms (src/domain.cpp:966)
Per MPI rank memory allocation (min/avg/max) = 8.573 | 8.573 | 8.575 Mbytes
   Step         PotEng         TotEng           Lx             Ly             Lz           Volume         Press           Pxx            Pyy            Pzz      
        56  -10.223546     -10.223546      3.1963277      3.1963277      3.1963277      32.655315     -132010.89     -132010.89     -132010.89     -132010.89    
        57  -10.223546     -10.223546      3.1963277      3.1963277      3.1963277      32.655315     -132010.89     -132010.89     -132010.89     -132010.89    
Loop time of 0.000223 on 8 procs for 1 steps with 2 atoms

Performance: 387.444 ns/day, 0.062 hours/ns, 4484.305 timesteps/s, 8.969 katom-step/s
0.0% CPU use with 8 MPI tasks x 1 OpenMP threads

MPI task timing breakdown:
Section |  min time  |  avg time  |  max time  |%varavg| %total
---------------------------------------------------------------
Pair    | 0.000133   | 0.00015225 | 0.000169   |   0.0 | 68.27
Neigh   | 0          | 0          | 0          |   0.0 |  0.00
Comm    | 2.3e-05    | 4.1e-05    | 6e-05      |   0.0 | 18.39
Output  | 1.5e-05    | 2.075e-05  | 2.9e-05    |   0.0 |  9.30
Modify  | 0          | 2.5e-07    | 1e-06      |   0.0 |  0.11
Other   |            | 8.75e-06   |            |       |  3.92

Nlocal:           0.25 ave           1 max           0 min
Histogram: 6 0 0 0 0 0 0 0 0 2
Nghost:         249.75 ave         250 max         249 min
Histogram: 2 0 0 0 0 0 0 0 0 6
Neighs:             11 ave          44 max           0 min
Histogram: 6 0 0 0 0 0 0 0 0 2
FullNghs:           22 ave          88 max           0 min
Histogram: 6 0 0 0 0 0 0 0 0 2

Total # of neighbors = 176
Ave neighs/atom = 88
Neighbor list builds = 0
Dangerous builds = 0
variable  natoms equal "count(all)"
variable xlength equal "lx"
variable  volume equal "vol"
variable  etotal equal "etotal"
variable    ecoh equal "pe/v_natoms"
print "${xlength}, ${volume}, ${etotal}, ${ecoh}" append lattice_cohesive_energy.txt screen no

next i
jump SELF loop

change_box all x scale 1.0025 y scale 1.0025 z scale 1.0025 remap
Changing box ...
  orthogonal box = (-0.072159242 -0.068163833 -0.068163833) to (3.1321592 3.1281638 3.1281638)
  orthogonal box = (-0.072159242 -0.072159242 -0.068163833) to (3.1321592 3.1321592 3.1281638)
  orthogonal box = (-0.072159242 -0.072159242 -0.072159242) to (3.1321592 3.1321592 3.1321592)

run 1
WARNING: No fixes with time integration, atoms won't move (src/verlet.cpp:60)
WARNING: Proc sub-domain size < neighbor skin, could lead to lost atoms (src/domain.cpp:966)
Per MPI rank memory allocation (min/avg/max) = 8.573 | 8.573 | 8.575 Mbytes
   Step         PotEng         TotEng           Lx             Ly             Lz           Volume         Press           Pxx            Pyy            Pzz      
        57  -10.20292      -10.20292       3.2043185      3.2043185      3.2043185      32.900843     -137141.95     -137141.95     -137141.95     -137141.95    
        58  -10.20292      -10.20292       3.2043185      3.2043185      3.2043185      32.900843     -137141.95     -137141.95     -137141.95     -137141.95    
Loop time of 0.000216 on 8 procs for 1 steps with 2 atoms

Performance: 400.000 ns/day, 0.060 hours/ns, 4629.630 timesteps/s, 9.259 katom-step/s
0.0% CPU use with 8 MPI tasks x 1 OpenMP threads

MPI task timing breakdown:
Section |  min time  |  avg time  |  max time  |%varavg| %total
---------------------------------------------------------------
Pair    | 0.000127   | 0.00014675 | 0.000167   |   0.0 | 67.94
Neigh   | 0          | 0          | 0          |   0.0 |  0.00
Comm    | 2.2e-05    | 4.3375e-05 | 6.4e-05    |   0.0 | 20.08
Output  | 1.5e-05    | 1.7625e-05 | 2.2e-05    |   0.0 |  8.16
Modify  | 0          | 1.25e-07   | 1e-06      |   0.0 |  0.06
Other   |            | 8.125e-06  |            |       |  3.76

Nlocal:           0.25 ave           1 max           0 min
Histogram: 6 0 0 0 0 0 0 0 0 2
Nghost:         249.75 ave         250 max         249 min
Histogram: 2 0 0 0 0 0 0 0 0 6
Neighs:             11 ave          44 max           0 min
Histogram: 6 0 0 0 0 0 0 0 0 2
FullNghs:           22 ave          88 max           0 min
Histogram: 6 0 0 0 0 0 0 0 0 2

Total # of neighbors = 176
Ave neighs/atom = 88
Neighbor list builds = 0
Dangerous builds = 0
variable  natoms equal "count(all)"
variable xlength equal "lx"
variable  volume equal "vol"
variable  etotal equal "etotal"
variable    ecoh equal "pe/v_natoms"
print "${xlength}, ${volume}, ${etotal}, ${ecoh}" append lattice_cohesive_energy.txt screen no

next i
jump SELF loop

change_box all x scale 1.0025 y scale 1.0025 z scale 1.0025 remap
Changing box ...
  orthogonal box = (-0.076164641 -0.072159242 -0.072159242) to (3.1361646 3.1321592 3.1321592)
  orthogonal box = (-0.076164641 -0.076164641 -0.072159242) to (3.1361646 3.1361646 3.1321592)
  orthogonal box = (-0.076164641 -0.076164641 -0.076164641) to (3.1361646 3.1361646 3.1361646)

run 1
WARNING: No fixes with time integration, atoms won't move (src/verlet.cpp:60)
WARNING: Proc sub-domain size < neighbor skin, could lead to lost atoms (src/domain.cpp:966)
Per MPI rank memory allocation (min/avg/max) = 8.573 | 8.573 | 8.575 Mbytes
   Step         PotEng         TotEng           Lx             Ly             Lz           Volume         Press           Pxx            Pyy            Pzz      
        58  -10.181361     -10.181361      3.2123293      3.2123293      3.2123293      33.148217     -142082.7      -142082.7      -142082.7      -142082.7     
        59  -10.181361     -10.181361      3.2123293      3.2123293      3.2123293      33.148217     -142082.7      -142082.7      -142082.7      -142082.7     
Loop time of 0.000221875 on 8 procs for 1 steps with 2 atoms

Performance: 389.408 ns/day, 0.062 hours/ns, 4507.042 timesteps/s, 9.014 katom-step/s
0.0% CPU use with 8 MPI tasks x 1 OpenMP threads

MPI task timing breakdown:
Section |  min time  |  avg time  |  max time  |%varavg| %total
---------------------------------------------------------------
Pair    | 0.000137   | 0.00016263 | 0.000173   |   0.0 | 73.30
Neigh   | 0          | 0          | 0          |   0.0 |  0.00
Comm    | 2.3e-05    | 3.4375e-05 | 5.9e-05    |   0.0 | 15.49
Output  | 1.5e-05    | 1.725e-05  | 2e-05      |   0.0 |  7.77
Modify  | 0          | 1.25e-07   | 1e-06      |   0.0 |  0.06
Other   |            | 7.5e-06    |            |       |  3.38

Nlocal:           0.25 ave           1 max           0 min
Histogram: 6 0 0 0 0 0 0 0 0 2
Nghost:         249.75 ave         250 max         249 min
Histogram: 2 0 0 0 0 0 0 0 0 6
Neighs:              8 ave          32 max           0 min
Histogram: 6 0 0 0 0 0 0 0 0 2
FullNghs:           16 ave          64 max           0 min
Histogram: 6 0 0 0 0 0 0 0 0 2

Total # of neighbors = 128
Ave neighs/atom = 64
Neighbor list builds = 0
Dangerous builds = 0
variable  natoms equal "count(all)"
variable xlength equal "lx"
variable  volume equal "vol"
variable  etotal equal "etotal"
variable    ecoh equal "pe/v_natoms"
print "${xlength}, ${volume}, ${etotal}, ${ecoh}" append lattice_cohesive_energy.txt screen no

next i
jump SELF loop

change_box all x scale 1.0025 y scale 1.0025 z scale 1.0025 remap
Changing box ...
  orthogonal box = (-0.080180052 -0.076164641 -0.076164641) to (3.1401801 3.1361646 3.1361646)
  orthogonal box = (-0.080180052 -0.080180052 -0.076164641) to (3.1401801 3.1401801 3.1361646)
  orthogonal box = (-0.080180052 -0.080180052 -0.080180052) to (3.1401801 3.1401801 3.1401801)

run 1
WARNING: No fixes with time integration, atoms won't move (src/verlet.cpp:60)
WARNING: Proc sub-domain size < neighbor skin, could lead to lost atoms (src/domain.cpp:966)
Per MPI rank memory allocation (min/avg/max) = 8.573 | 8.573 | 8.575 Mbytes
   Step         PotEng         TotEng           Lx             Ly             Lz           Volume         Press           Pxx            Pyy            Pzz      
        59  -10.158886     -10.158886      3.2203601      3.2203601      3.2203601      33.39745      -146837.18     -146837.18     -146837.18     -146837.18    
        60  -10.158886     -10.158886      3.2203601      3.2203601      3.2203601      33.39745      -146837.18     -146837.18     -146837.18     -146837.18    
Loop time of 0.0002185 on 8 procs for 1 steps with 2 atoms

Performance: 395.423 ns/day, 0.061 hours/ns, 4576.659 timesteps/s, 9.153 katom-step/s
0.0% CPU use with 8 MPI tasks x 1 OpenMP threads

MPI task timing breakdown:
Section |  min time  |  avg time  |  max time  |%varavg| %total
---------------------------------------------------------------
Pair    | 0.000126   | 0.00014775 | 0.000169   |   0.0 | 67.62
Neigh   | 0          | 0          | 0          |   0.0 |  0.00
Comm    | 2.2e-05    | 4.425e-05  | 6.6e-05    |   0.0 | 20.25
Output  | 1.6e-05    | 1.8125e-05 | 2.1e-05    |   0.0 |  8.30
Modify  | 0          | 3.75e-07   | 2e-06      |   0.0 |  0.17
Other   |            | 8e-06      |            |       |  3.66

Nlocal:           0.25 ave           1 max           0 min
Histogram: 6 0 0 0 0 0 0 0 0 2
Nghost:         249.75 ave         250 max         249 min
Histogram: 2 0 0 0 0 0 0 0 0 6
Neighs:              8 ave          32 max           0 min
Histogram: 6 0 0 0 0 0 0 0 0 2
FullNghs:           16 ave          64 max           0 min
Histogram: 6 0 0 0 0 0 0 0 0 2

Total # of neighbors = 128
Ave neighs/atom = 64
Neighbor list builds = 0
Dangerous builds = 0
variable  natoms equal "count(all)"
variable xlength equal "lx"
variable  volume equal "vol"
variable  etotal equal "etotal"
variable    ecoh equal "pe/v_natoms"
print "${xlength}, ${volume}, ${etotal}, ${ecoh}" append lattice_cohesive_energy.txt screen no

next i
jump SELF loop

change_box all x scale 1.0025 y scale 1.0025 z scale 1.0025 remap
Changing box ...
  orthogonal box = (-0.084205502 -0.080180052 -0.080180052) to (3.1442055 3.1401801 3.1401801)
  orthogonal box = (-0.084205502 -0.084205502 -0.080180052) to (3.1442055 3.1442055 3.1401801)
  orthogonal box = (-0.084205502 -0.084205502 -0.084205502) to (3.1442055 3.1442055 3.1442055)

run 1
WARNING: No fixes with time integration, atoms won't move (src/verlet.cpp:60)
WARNING: Proc sub-domain size < neighbor skin, could lead to lost atoms (src/domain.cpp:966)
Per MPI rank memory allocation (min/avg/max) = 8.573 | 8.573 | 8.575 Mbytes
   Step         PotEng         TotEng           Lx             Ly             Lz           Volume         Press           Pxx            Pyy            Pzz      
        60  -10.135512     -10.135512      3.228411       3.228411       3.228411       33.648558     -151409.4      -151409.4      -151409.4      -151409.4     
        61  -10.135512     -10.135512      3.228411       3.228411       3.228411       33.648558     -151409.4      -151409.4      -151409.4      -151409.4     
Loop time of 0.00021375 on 8 procs for 1 steps with 2 atoms

Performance: 404.211 ns/day, 0.059 hours/ns, 4678.363 timesteps/s, 9.357 katom-step/s
0.0% CPU use with 8 MPI tasks x 1 OpenMP threads

MPI task timing breakdown:
Section |  min time  |  avg time  |  max time  |%varavg| %total
---------------------------------------------------------------
Pair    | 0.000124   | 0.00014662 | 0.000166   |   0.0 | 68.60
Neigh   | 0          | 0          | 0          |   0.0 |  0.00
Comm    | 2.2e-05    | 4.25e-05   | 6.5e-05    |   0.0 | 19.88
Output  | 1.4e-05    | 1.6625e-05 | 2e-05      |   0.0 |  7.78
Modify  | 0          | 3.75e-07   | 1e-06      |   0.0 |  0.18
Other   |            | 7.625e-06  |            |       |  3.57

Nlocal:           0.25 ave           1 max           0 min
Histogram: 6 0 0 0 0 0 0 0 0 2
Nghost:         249.75 ave         250 max         249 min
Histogram: 2 0 0 0 0 0 0 0 0 6
Neighs:              8 ave          32 max           0 min
Histogram: 6 0 0 0 0 0 0 0 0 2
FullNghs:           16 ave          64 max           0 min
Histogram: 6 0 0 0 0 0 0 0 0 2

Total # of neighbors = 128
Ave neighs/atom = 64
Neighbor list builds = 0
Dangerous builds = 0
variable  natoms equal "count(all)"
variable xlength equal "lx"
variable  volume equal "vol"
variable  etotal equal "etotal"
variable    ecoh equal "pe/v_natoms"
print "${xlength}, ${volume}, ${etotal}, ${ecoh}" append lattice_cohesive_energy.txt screen no

next i
jump SELF loop

change_box all x scale 1.0025 y scale 1.0025 z scale 1.0025 remap
Changing box ...
  orthogonal box = (-0.088241016 -0.084205502 -0.084205502) to (3.148241 3.1442055 3.1442055)
  orthogonal box = (-0.088241016 -0.088241016 -0.084205502) to (3.148241 3.148241 3.1442055)
  orthogonal box = (-0.088241016 -0.088241016 -0.088241016) to (3.148241 3.148241 3.148241)

run 1
WARNING: No fixes with time integration, atoms won't move (src/verlet.cpp:60)
WARNING: Proc sub-domain size < neighbor skin, could lead to lost atoms (src/domain.cpp:966)
Per MPI rank memory allocation (min/avg/max) = 8.573 | 8.573 | 8.575 Mbytes
   Step         PotEng         TotEng           Lx             Ly             Lz           Volume         Press           Pxx            Pyy            Pzz      
        61  -10.111253     -10.111253      3.236482       3.236482       3.236482       33.901554     -155803.28     -155803.28     -155803.28     -155803.28    
        62  -10.111253     -10.111253      3.236482       3.236482       3.236482       33.901554     -155803.28     -155803.28     -155803.28     -155803.28    
Loop time of 0.000213875 on 8 procs for 1 steps with 2 atoms

Performance: 403.974 ns/day, 0.059 hours/ns, 4675.628 timesteps/s, 9.351 katom-step/s
0.0% CPU use with 8 MPI tasks x 1 OpenMP threads

MPI task timing breakdown:
Section |  min time  |  avg time  |  max time  |%varavg| %total
---------------------------------------------------------------
Pair    | 0.000126   | 0.00014612 | 0.000165   |   0.0 | 68.32
Neigh   | 0          | 0          | 0          |   0.0 |  0.00
Comm    | 2.2e-05    | 4.1875e-05 | 6.2e-05    |   0.0 | 19.58
Output  | 1.4e-05    | 1.7125e-05 | 2.1e-05    |   0.0 |  8.01
Modify  | 0          | 3.75e-07   | 1e-06      |   0.0 |  0.18
Other   |            | 8.375e-06  |            |       |  3.92

Nlocal:           0.25 ave           1 max           0 min
Histogram: 6 0 0 0 0 0 0 0 0 2
Nghost:         249.75 ave         250 max         249 min
Histogram: 2 0 0 0 0 0 0 0 0 6
Neighs:              8 ave          32 max           0 min
Histogram: 6 0 0 0 0 0 0 0 0 2
FullNghs:           16 ave          64 max           0 min
Histogram: 6 0 0 0 0 0 0 0 0 2

Total # of neighbors = 128
Ave neighs/atom = 64
Neighbor list builds = 0
Dangerous builds = 0
variable  natoms equal "count(all)"
variable xlength equal "lx"
variable  volume equal "vol"
variable  etotal equal "etotal"
variable    ecoh equal "pe/v_natoms"
print "${xlength}, ${volume}, ${etotal}, ${ecoh}" append lattice_cohesive_energy.txt screen no

next i
jump SELF loop

change_box all x scale 1.0025 y scale 1.0025 z scale 1.0025 remap
Changing box ...
  orthogonal box = (-0.092286619 -0.088241016 -0.088241016) to (3.1522866 3.148241 3.148241)
  orthogonal box = (-0.092286619 -0.092286619 -0.088241016) to (3.1522866 3.1522866 3.148241)
  orthogonal box = (-0.092286619 -0.092286619 -0.092286619) to (3.1522866 3.1522866 3.1522866)

run 1
Per MPI rank memory allocation (min/avg/max) = 8.573 | 8.573 | 8.575 Mbytes
   Step         PotEng         TotEng           Lx             Ly             Lz           Volume         Press           Pxx            Pyy            Pzz      
WARNING: Too many warnings: 102 vs 100. All future warnings will be suppressed (src/thermo.cpp:466)
        62  -10.086127     -10.086127      3.2445732      3.2445732      3.2445732      34.156451     -160022.7      -160022.7      -160022.7      -160022.7     
        63  -10.086127     -10.086127      3.2445732      3.2445732      3.2445732      34.156451     -160022.7      -160022.7      -160022.7      -160022.7     
Loop time of 0.000212375 on 8 procs for 1 steps with 2 atoms

Performance: 406.828 ns/day, 0.059 hours/ns, 4708.652 timesteps/s, 9.417 katom-step/s
0.0% CPU use with 8 MPI tasks x 1 OpenMP threads

MPI task timing breakdown:
Section |  min time  |  avg time  |  max time  |%varavg| %total
---------------------------------------------------------------
Pair    | 0.000125   | 0.00014438 | 0.000164   |   0.0 | 67.98
Neigh   | 0          | 0          | 0          |   0.0 |  0.00
Comm    | 2.2e-05    | 4.3125e-05 | 6.3e-05    |   0.0 | 20.31
Output  | 1.4e-05    | 1.6875e-05 | 2.1e-05    |   0.0 |  7.95
Modify  | 0          | 1.25e-07   | 1e-06      |   0.0 |  0.06
Other   |            | 7.875e-06  |            |       |  3.71

Nlocal:           0.25 ave           1 max           0 min
Histogram: 6 0 0 0 0 0 0 0 0 2
Nghost:         249.75 ave         250 max         249 min
Histogram: 2 0 0 0 0 0 0 0 0 6
Neighs:              8 ave          32 max           0 min
Histogram: 6 0 0 0 0 0 0 0 0 2
FullNghs:           16 ave          64 max           0 min
Histogram: 6 0 0 0 0 0 0 0 0 2

Total # of neighbors = 128
Ave neighs/atom = 64
Neighbor list builds = 0
Dangerous builds = 0
variable  natoms equal "count(all)"
variable xlength equal "lx"
variable  volume equal "vol"
variable  etotal equal "etotal"
variable    ecoh equal "pe/v_natoms"
print "${xlength}, ${volume}, ${etotal}, ${ecoh}" append lattice_cohesive_energy.txt screen no

next i
jump SELF loop

print "-------------------------------------------------------------"
-------------------------------------------------------------
print "Show results of 1st step (Running Minimization)"
Show results of 1st step (Running Minimization)
print "The number of atoms = ${natoms};"
The number of atoms = 2;
print "The lattice constant, x (Angstoms) = ${x0};"
The lattice constant, x (Angstoms) = 3.24457323717111;
print "The lattice constant, y (Angstoms) = ${y0};"
The lattice constant, y (Angstoms) = 3.24457323717111;
print "The lattice constant, z (Angstoms) = ${z0};"
The lattice constant, z (Angstoms) = 3.24457323717111;
print "The volume (Angstoms^3) = ${v0};"
The volume (Angstoms^3) = 34.1564514281522;
print "The total energy (eV) = ${etot0};"
The total energy (eV) = -10.0861274624699;
print "The cohesive energy (eV/atom) = ${ecoh0};"
The cohesive energy (eV/atom) = -5.04306373123496;
print "-------------------------------------------------------------"
-------------------------------------------------------------
print "Simulations completed !"
Simulations completed !
Total wall time: 0:00:00
