LAMMPS (22 Dec 2022)
  using 1 OpenMP thread(s) per MPI task
Loaded 1 plugins from C:\Program Files\LAMMPS 64-bit 23Jun2022\plugins
Loaded 0 plugins from C:\Program Files\LAMMPS 64-bit 23Jun2022-MPI\plugins
Loaded 1 plugins from C:\Program Files\LAMMPS 64-bit 22Dec2022-MSMPI\plugins
Loaded 1 plugins from C:\Program Files\LAMMPS 64-bit 28Mar2023-MPI\plugins
#------------------------------------------------------------------------------------------
# LAMMPS 64-bit 22Dec2022-MSMPI
#------------------------------------------------------------------------------------------
clear
  using 1 OpenMP thread(s) per MPI task
Loaded 1 plugins from C:\Program Files\LAMMPS 64-bit 23Jun2022\plugins
Loaded 0 plugins from C:\Program Files\LAMMPS 64-bit 23Jun2022-MPI\plugins
Loaded 1 plugins from C:\Program Files\LAMMPS 64-bit 22Dec2022-MSMPI\plugins
Loaded 1 plugins from C:\Program Files\LAMMPS 64-bit 28Mar2023-MPI\plugins
#echo both
# ---------- Initializing Simulation ---------------------------------
units metal
dimension 3
boundary p p p
atom_style atomic
atom_modify map array

read_data ./../../TiV.data
Reading data file ...
  orthogonal box = (0 0 0) to (3.1 3.1 3.1)
  2 by 2 by 2 MPI processor grid
  reading atoms ...
  8 atoms
  read_data CPU = 0.001 seconds

replicate 1 1 1
Replication is creating a 1x1x1 = 1 times larger system...
  orthogonal box = (0 0 0) to (3.1 3.1 3.1)
  2 by 2 by 2 MPI processor grid
  8 atoms
  replicate CPU = 0.000 seconds

# ---------- Defining the Interatomic Potential ---------------------
pair_style meam
pair_coeff * * ./../../library.meam Ti V N ./../../TiVN.meam Ti V

# ---------- Running Minimization -------------------------------------
fix 1 all box/relax iso 0.0 vmax 0.001

thermo 10
thermo_style custom step pe etotal lx ly lz vol press pxx pyy pzz

min_style cg
minimize 1e-25 1e-25 5000 10000
Neighbor list info ...
  update: every = 1 steps, delay = 0 steps, check = yes
  max neighbors/atom: 2000, page size: 100000
  master list distance cutoff = 7
  ghost atom cutoff = 7
  binsize = 3.5, bins = 1 1 1
  2 neighbor lists, perpetual/occasional/extra = 2 0 0
  (1) pair meam, perpetual
      attributes: full, newton on
      pair build: full/bin/atomonly
      stencil: full/bin/3d
      bin: standard
  (2) pair meam, perpetual, half/full from (1)
      attributes: half, newton on
      pair build: halffull/newton
      stencil: none
      bin: none
WARNING: Proc sub-domain size < neighbor skin, could lead to lost atoms (src/domain.cpp:966)
Per MPI rank memory allocation (min/avg/max) = 9.751 | 9.751 | 9.751 Mbytes
   Step         PotEng         TotEng           Lx             Ly             Lz           Volume         Press           Pxx            Pyy            Pzz      
         0   69.558169      69.558169      3.1            3.1            3.1            29.791         9892517.4      9892517.4      9892517.4      9892517.4    
        10   64.150629      64.150629      3.131          3.131          3.131          30.693697      9310542.4      9310542.4      9310542.4      9310542.4    
        20   58.959742      58.959742      3.162          3.162          3.162          31.614448      8761699.7      8761699.7      8761699.7      8761699.7    
        30   53.978461      53.978461      3.193          3.193          3.193          32.55343       8244048.5      8244048.5      8244048.5      8244048.5    
        40   49.19994       49.19994       3.224          3.224          3.224          33.510823      7755769.3      7755769.3      7755769.3      7755769.3    
        50   44.617535      44.617535      3.255          3.255          3.255          34.486806      7295155.4      7295155.4      7295155.4      7295155.4    
        60   40.224791      40.224791      3.286          3.286          3.286          35.481558      6860605.2      6860605.2      6860605.2      6860605.2    
        70   36.015444      36.015444      3.317          3.317          3.317          36.495256      6450615.4      6450615.4      6450615.4      6450615.4    
        80   31.983411      31.983411      3.348          3.348          3.348          37.52808       6063774.5      6063774.5      6063774.5      6063774.5    
        90   28.122787      28.122787      3.379          3.379          3.379          38.580209      5698756.6      5698756.6      5698756.6      5698756.6    
       100   24.42784       24.42784       3.41           3.41           3.41           39.651821      5354315.7      5354315.7      5354315.7      5354315.7    
       110   20.893007      20.893007      3.441          3.441          3.441          40.743095      5029280.6      5029280.6      5029280.6      5029280.6    
       120   17.512888      17.512888      3.472          3.472          3.472          41.85421       4722550.2      4722550.2      4722550.2      4722550.2    
       130   14.282243      14.282243      3.503          3.503          3.503          42.985345      4433088.8      4433088.8      4433088.8      4433088.8    
       140   11.195987      11.195987      3.534          3.534          3.534          44.136677      4159921.9      4159921.9      4159921.9      4159921.9    
       150   8.249185       8.249185       3.565          3.565          3.565          45.308387      3902132.8      3902132.8      3902132.8      3902132.8    
       160   5.4370508      5.4370508      3.596          3.596          3.596          46.500653      3658858        3658858        3658858        3658858      
       170   2.7549398      2.7549398      3.627          3.627          3.627          47.713653      3429284.9      3429284.9      3429284.9      3429284.9    
       180   0.19834656     0.19834656     3.658          3.658          3.658          48.947566      3212647.8      3212647.8      3212647.8      3212647.8    
       190  -2.2370987     -2.2370987      3.689          3.689          3.689          50.202572      3008225.7      3008225.7      3008225.7      3008225.7    
       200  -4.5556343     -4.5556343      3.72           3.72           3.72           51.478848      2815338.9      2815338.9      2815338.9      2815338.9    
       210  -6.7613703     -6.7613703      3.751          3.751          3.751          52.776574      2633347        2633347        2633347        2633347      
       220  -8.8582926     -8.8582926      3.782          3.782          3.782          54.095928      2461646        2461646        2461646        2461646      
       230  -10.850265     -10.850265      3.813          3.813          3.813          55.437089      2299666.6      2299666.6      2299666.6      2299666.6    
       240  -12.741035     -12.741035      3.844          3.844          3.844          56.800236      2146871.8      2146871.8      2146871.8      2146871.8    
       250  -14.534235     -14.534235      3.875          3.875          3.875          58.185547      2002754.9      2002754.9      2002754.9      2002754.9    
       260  -16.233383     -16.233383      3.906          3.906          3.906          59.593201      1866837.9      1866837.9      1866837.9      1866837.9    
       270  -17.841893     -17.841893      3.937          3.937          3.937          61.023378      1738669.8      1738669.8      1738669.8      1738669.8    
       280  -19.363071     -19.363071      3.968          3.968          3.968          62.476255      1617824.7      1617824.7      1617824.7      1617824.7    
       290  -20.800122     -20.800122      3.999          3.999          3.999          63.952012      1503900.7      1503900.7      1503900.7      1503900.7    
       300  -22.156149     -22.156149      4.03           4.03           4.03           65.450827      1396518.2      1396518.2      1396518.2      1396518.2    
       310  -23.434159     -23.434159      4.061          4.061          4.061          66.972879      1295318.9      1295318.9      1295318.9      1295318.9    
       320  -24.637068     -24.637068      4.092          4.092          4.092          68.518347      1199964        1199964        1199964        1199964      
       330  -25.767695     -25.767695      4.123          4.123          4.123          70.087409      1110133.9      1110133.9      1110133.9      1110133.9    
       340  -26.828773     -26.828773      4.154          4.154          4.154          71.680244      1025526.3      1025526.3      1025526.3      1025526.3    
       350  -27.82295      -27.82295       4.185          4.185          4.185          73.297032      945855.73      945855.73      945855.73      945855.73    
       360  -28.752787     -28.752787      4.216          4.216          4.216          74.93795       870852.24      870852.24      870852.24      870852.24    
       370  -29.620764     -29.620764      4.247          4.247          4.247          76.603177      800260.8       800260.8       800260.8       800260.8     
       380  -30.429284     -30.429284      4.278          4.278          4.278          78.292893      733840.25      733840.25      733840.25      733840.25    
       390  -31.180668     -31.180668      4.309          4.309          4.309          80.007276      671362.63      671362.63      671362.63      671362.63    
       400  -31.877168     -31.877168      4.34           4.34           4.34           81.746504      612612.37      612612.37      612612.37      612612.37    
       410  -32.520959     -32.520959      4.371          4.371          4.371          83.510757      557385.61      557385.61      557385.61      557385.61    
       420  -33.114147     -33.114147      4.402          4.402          4.402          85.300213      505489.57      505489.57      505489.57      505489.57    
       430  -33.65877      -33.65877       4.433          4.433          4.433          87.115051      456741.88      456741.88      456741.88      456741.88    
       440  -34.156796     -34.156796      4.464          4.464          4.464          88.955449      410970.07      410970.07      410970.07      410970.07    
       450  -34.610133     -34.610133      4.495          4.495          4.495          90.821587      368010.93      368010.93      368010.93      368010.93    
       460  -35.020623     -35.020623      4.526          4.526          4.526          92.713644      327710.1       327710.1       327710.1       327710.1     
       470  -35.390047     -35.390047      4.557          4.557          4.557          94.631797      289921.48      289921.48      289921.48      289921.48    
       480  -35.720129     -35.720129      4.588          4.588          4.588          96.576225      254506.86      254506.86      254506.86      254506.86    
       490  -36.012533     -36.012533      4.619          4.619          4.619          98.547109      221335.42      221335.42      221335.42      221335.42    
       500  -36.268869     -36.268869      4.65           4.65           4.65           100.54462      190283.38      190283.38      190283.38      190283.38    
       510  -36.490692     -36.490692      4.681          4.681          4.681          102.56895      161233.6       161233.6       161233.6       161233.6     
       520  -36.679505     -36.679505      4.712          4.712          4.712          104.62027      134075.17      134075.17      134075.17      134075.17    
       530  -36.836758     -36.836758      4.743          4.743          4.743          106.69876      108703.15      108703.15      108703.15      108703.15    
       540  -36.963854     -36.963854      4.774          4.774          4.774          108.8046       85018.189      85018.189      85018.189      85018.189    
       550  -37.062148     -37.062148      4.805          4.805          4.805          110.93796      62926.249      62926.249      62926.249      62926.249    
       560  -37.132946     -37.132946      4.836          4.836          4.836          113.09903      42338.313      42338.313      42338.313      42338.313    
       570  -37.177511     -37.177511      4.867          4.867          4.867          115.28798      23170.108      23170.108      23170.108      23170.108    
       580  -37.197062     -37.197062      4.898          4.898          4.898          117.505        5341.8564      5341.8564      5341.8564      5341.8564    
       590  -37.198229     -37.198229      4.9077489      4.9077489      4.9077489      118.20804     -1.4770184e-11 -1.4770184e-11 -7.3850921e-12 -2.2155276e-11
Loop time of 0.178157 on 8 procs for 590 steps with 8 atoms

62.5% CPU use with 8 MPI tasks x 1 OpenMP threads

Minimization stats:
  Stopping criterion = energy tolerance
  Energy initial, next-to-last, final = 
      69.5581691991713  -37.1982286683358  -37.1982286683358
  Force two-norm initial, final = 551.82682 8.4318372e-15
  Force max component initial, final = 551.82682 3.1462385e-15
  Final line search alpha, max atom move = 1 3.1462385e-15
  Iterations, force evaluations = 590 597

MPI task timing breakdown:
Section |  min time  |  avg time  |  max time  |%varavg| %total
---------------------------------------------------------------
Pair    | 0.12655    | 0.12824    | 0.13029    |   0.4 | 71.98
Neigh   | 1.5e-05    | 2.5125e-05 | 8.3e-05    |   0.0 |  0.01
Comm    | 0.013137   | 0.016513   | 0.022267   |   2.2 |  9.27
Output  | 0.000764   | 0.00081363 | 0.000963   |   0.0 |  0.46
Modify  | 0          | 0          | 0          |   0.0 |  0.00
Other   |            | 0.03256    |            |       | 18.28

Nlocal:              1 ave           8 max           0 min
Histogram: 7 0 0 0 0 0 0 0 0 1
Nghost:            215 ave         216 max         208 min
Histogram: 1 0 0 0 0 0 0 0 0 7
Neighs:             46 ave         368 max           0 min
Histogram: 7 0 0 0 0 0 0 0 0 1
FullNghs:           92 ave         736 max           0 min
Histogram: 7 0 0 0 0 0 0 0 0 1

Total # of neighbors = 736
Ave neighs/atom = 92
Neighbor list builds = 3
Dangerous builds = 0

variable  natoms equal "count(all)"
variable      x0 equal "lx"
variable      y0 equal "ly"
variable      z0 equal "lz"
variable      v0 equal "vol"
variable   etot0 equal "etotal"
variable   ecoh0 equal "pe/v_natoms"

unfix 1
write_data ./../step2_elastic/data.in
System init for write_data ...

# ---------- For Equation of States -------------------------------------
change_box all x scale 0.94 y scale 0.94 z scale 0.94 remap
Changing box ...
  orthogonal box = (-0.756642 -0.90387446 -0.90387446) to (3.856642 4.0038745 4.0038745)
  orthogonal box = (-0.756642 -0.756642 -0.90387446) to (3.856642 3.856642 4.0038745)
  orthogonal box = (-0.756642 -0.756642 -0.756642) to (3.856642 3.856642 3.856642)
run 1
WARNING: No fixes with time integration, atoms won't move (src/verlet.cpp:60)
Per MPI rank memory allocation (min/avg/max) = 8.602 | 8.605 | 8.621 Mbytes
   Step         PotEng         TotEng           Lx             Ly             Lz           Volume         Press           Pxx            Pyy            Pzz      
       590  -35.961377     -35.961377      4.613284       4.613284       4.613284       98.181705      227288.86      227288.86      227288.86      227288.86    
       591  -35.961377     -35.961377      4.613284       4.613284       4.613284       98.181705      227288.86      227288.86      227288.86      227288.86    
Loop time of 0.000254625 on 8 procs for 1 steps with 8 atoms

Performance: 339.323 ns/day, 0.071 hours/ns, 3927.344 timesteps/s, 31.419 katom-step/s
0.0% CPU use with 8 MPI tasks x 1 OpenMP threads

MPI task timing breakdown:
Section |  min time  |  avg time  |  max time  |%varavg| %total
---------------------------------------------------------------
Pair    | 0.000163   | 0.00017175 | 0.000198   |   0.0 | 67.45
Neigh   | 0          | 0          | 0          |   0.0 |  0.00
Comm    | 3.1e-05    | 5.675e-05  | 6.7e-05    |   0.0 | 22.29
Output  | 1.6e-05    | 1.825e-05  | 2e-05      |   0.0 |  7.17
Modify  | 0          | 1.25e-07   | 1e-06      |   0.0 |  0.05
Other   |            | 7.75e-06   |            |       |  3.04

Nlocal:              1 ave           1 max           1 min
Histogram: 8 0 0 0 0 0 0 0 0 0
Nghost:            511 ave         511 max         511 min
Histogram: 8 0 0 0 0 0 0 0 0 0
Neighs:             61 ave          69 max          53 min
Histogram: 4 0 0 0 0 0 0 0 0 4
FullNghs:          122 ave         122 max         122 min
Histogram: 8 0 0 0 0 0 0 0 0 0

Total # of neighbors = 976
Ave neighs/atom = 122
Neighbor list builds = 0
Dangerous builds = 0
print "# Lattice constant (Angstroms), Volume (Angstrom), Total energy (eV), Cohesive energy (eV/atom)" file lattice_cohesive_energy.txt screen no


# Loop over lattice constants
variable i loop 49 # Number of steps
label loop

change_box all x scale 1.0025 y scale 1.0025 z scale 1.0025 remap
Changing box ...
  orthogonal box = (-0.7624086 -0.756642 -0.756642) to (3.8624086 3.856642 3.856642)
  orthogonal box = (-0.7624086 -0.7624086 -0.756642) to (3.8624086 3.8624086 3.856642)
  orthogonal box = (-0.7624086 -0.7624086 -0.7624086) to (3.8624086 3.8624086 3.8624086)

run 1
WARNING: No fixes with time integration, atoms won't move (src/verlet.cpp:60)
Per MPI rank memory allocation (min/avg/max) = 8.602 | 8.605 | 8.621 Mbytes
   Step         PotEng         TotEng           Lx             Ly             Lz           Volume         Press           Pxx            Pyy            Pzz      
       591  -36.063337     -36.063337      4.6248172      4.6248172      4.6248172      98.919911      215350.54      215350.54      215350.54      215350.54    
       592  -36.063337     -36.063337      4.6248172      4.6248172      4.6248172      98.919911      215350.54      215350.54      215350.54      215350.54    
Loop time of 0.000256 on 8 procs for 1 steps with 8 atoms

Performance: 337.500 ns/day, 0.071 hours/ns, 3906.250 timesteps/s, 31.250 katom-step/s
0.0% CPU use with 8 MPI tasks x 1 OpenMP threads

MPI task timing breakdown:
Section |  min time  |  avg time  |  max time  |%varavg| %total
---------------------------------------------------------------
Pair    | 0.000159   | 0.00016875 | 0.000195   |   0.0 | 65.92
Neigh   | 0          | 0          | 0          |   0.0 |  0.00
Comm    | 3.1e-05    | 5.5375e-05 | 6.5e-05    |   0.0 | 21.63
Output  | 1.5e-05    | 1.825e-05  | 2.5e-05    |   0.0 |  7.13
Modify  | 0          | 2.5e-07    | 1e-06      |   0.0 |  0.10
Other   |            | 1.338e-05  |            |       |  5.22

Nlocal:              1 ave           1 max           1 min
Histogram: 8 0 0 0 0 0 0 0 0 0
Nghost:            511 ave         511 max         511 min
Histogram: 8 0 0 0 0 0 0 0 0 0
Neighs:             61 ave          69 max          53 min
Histogram: 4 0 0 0 0 0 0 0 0 4
FullNghs:          122 ave         122 max         122 min
Histogram: 8 0 0 0 0 0 0 0 0 0

Total # of neighbors = 976
Ave neighs/atom = 122
Neighbor list builds = 0
Dangerous builds = 0
variable  natoms equal "count(all)"
variable xlength equal "lx"
variable  volume equal "vol"
variable  etotal equal "etotal"
variable    ecoh equal "pe/v_natoms"
print "${xlength}, ${volume}, ${etotal}, ${ecoh}" append lattice_cohesive_energy.txt screen no

next i
jump SELF loop

change_box all x scale 1.0025 y scale 1.0025 z scale 1.0025 remap
Changing box ...
  orthogonal box = (-0.76818962 -0.7624086 -0.7624086) to (3.8681896 3.8624086 3.8624086)
  orthogonal box = (-0.76818962 -0.76818962 -0.7624086) to (3.8681896 3.8681896 3.8624086)
  orthogonal box = (-0.76818962 -0.76818962 -0.76818962) to (3.8681896 3.8681896 3.8681896)

run 1
WARNING: No fixes with time integration, atoms won't move (src/verlet.cpp:60)
Per MPI rank memory allocation (min/avg/max) = 8.602 | 8.605 | 8.621 Mbytes
   Step         PotEng         TotEng           Lx             Ly             Lz           Volume         Press           Pxx            Pyy            Pzz      
       592  -36.160582     -36.160582      4.6363792      4.6363792      4.6363792      99.663666      203673.63      203673.63      203673.63      203673.63    
       593  -36.160582     -36.160582      4.6363792      4.6363792      4.6363792      99.663666      203673.63      203673.63      203673.63      203673.63    
Loop time of 0.000280875 on 8 procs for 1 steps with 8 atoms

Performance: 307.610 ns/day, 0.078 hours/ns, 3560.303 timesteps/s, 28.482 katom-step/s
0.0% CPU use with 8 MPI tasks x 1 OpenMP threads

MPI task timing breakdown:
Section |  min time  |  avg time  |  max time  |%varavg| %total
---------------------------------------------------------------
Pair    | 0.000181   | 0.00019975 | 0.000222   |   0.0 | 71.12
Neigh   | 0          | 0          | 0          |   0.0 |  0.00
Comm    | 3e-05      | 5.075e-05  | 7.1e-05    |   0.0 | 18.07
Output  | 1.6e-05    | 1.8625e-05 | 2.2e-05    |   0.0 |  6.63
Modify  | 0          | 2.5e-07    | 2e-06      |   0.0 |  0.09
Other   |            | 1.15e-05   |            |       |  4.09

Nlocal:              1 ave           1 max           1 min
Histogram: 8 0 0 0 0 0 0 0 0 0
Nghost:            511 ave         511 max         511 min
Histogram: 8 0 0 0 0 0 0 0 0 0
Neighs:             61 ave          69 max          53 min
Histogram: 4 0 0 0 0 0 0 0 0 4
FullNghs:          122 ave         122 max         122 min
Histogram: 8 0 0 0 0 0 0 0 0 0

Total # of neighbors = 976
Ave neighs/atom = 122
Neighbor list builds = 0
Dangerous builds = 0
variable  natoms equal "count(all)"
variable xlength equal "lx"
variable  volume equal "vol"
variable  etotal equal "etotal"
variable    ecoh equal "pe/v_natoms"
print "${xlength}, ${volume}, ${etotal}, ${ecoh}" append lattice_cohesive_energy.txt screen no

next i
jump SELF loop

change_box all x scale 1.0025 y scale 1.0025 z scale 1.0025 remap
Changing box ...
  orthogonal box = (-0.7739851 -0.76818962 -0.76818962) to (3.8739851 3.8681896 3.8681896)
  orthogonal box = (-0.7739851 -0.7739851 -0.76818962) to (3.8739851 3.8739851 3.8681896)
  orthogonal box = (-0.7739851 -0.7739851 -0.7739851) to (3.8739851 3.8739851 3.8739851)

run 1
WARNING: No fixes with time integration, atoms won't move (src/verlet.cpp:60)
Per MPI rank memory allocation (min/avg/max) = 8.602 | 8.605 | 8.621 Mbytes
   Step         PotEng         TotEng           Lx             Ly             Lz           Volume         Press           Pxx            Pyy            Pzz      
       593  -36.253158     -36.253158      4.6479702      4.6479702      4.6479702      100.41301      192254.1       192254.1       192254.1       192254.1     
       594  -36.253158     -36.253158      4.6479702      4.6479702      4.6479702      100.41301      192254.1       192254.1       192254.1       192254.1     
Loop time of 0.000256625 on 8 procs for 1 steps with 8 atoms

Performance: 336.678 ns/day, 0.071 hours/ns, 3896.736 timesteps/s, 31.174 katom-step/s
0.0% CPU use with 8 MPI tasks x 1 OpenMP threads

MPI task timing breakdown:
Section |  min time  |  avg time  |  max time  |%varavg| %total
---------------------------------------------------------------
Pair    | 0.000161   | 0.00018012 | 0.0002     |   0.0 | 70.19
Neigh   | 0          | 0          | 0          |   0.0 |  0.00
Comm    | 3.2e-05    | 5e-05      | 7e-05      |   0.0 | 19.48
Output  | 1.4e-05    | 1.625e-05  | 1.8e-05    |   0.0 |  6.33
Modify  | 0          | 5e-07      | 1e-06      |   0.0 |  0.19
Other   |            | 9.75e-06   |            |       |  3.80

Nlocal:              1 ave           1 max           1 min
Histogram: 8 0 0 0 0 0 0 0 0 0
Nghost:            511 ave         511 max         511 min
Histogram: 8 0 0 0 0 0 0 0 0 0
Neighs:             61 ave          69 max          53 min
Histogram: 4 0 0 0 0 0 0 0 0 4
FullNghs:          122 ave         122 max         122 min
Histogram: 8 0 0 0 0 0 0 0 0 0

Total # of neighbors = 976
Ave neighs/atom = 122
Neighbor list builds = 0
Dangerous builds = 0
variable  natoms equal "count(all)"
variable xlength equal "lx"
variable  volume equal "vol"
variable  etotal equal "etotal"
variable    ecoh equal "pe/v_natoms"
print "${xlength}, ${volume}, ${etotal}, ${ecoh}" append lattice_cohesive_energy.txt screen no

next i
jump SELF loop

change_box all x scale 1.0025 y scale 1.0025 z scale 1.0025 remap
Changing box ...
  orthogonal box = (-0.77979506 -0.7739851 -0.7739851) to (3.8797951 3.8739851 3.8739851)
  orthogonal box = (-0.77979506 -0.77979506 -0.7739851) to (3.8797951 3.8797951 3.8739851)
  orthogonal box = (-0.77979506 -0.77979506 -0.77979506) to (3.8797951 3.8797951 3.8797951)

run 1
WARNING: No fixes with time integration, atoms won't move (src/verlet.cpp:60)
Per MPI rank memory allocation (min/avg/max) = 8.602 | 8.605 | 8.621 Mbytes
   Step         PotEng         TotEng           Lx             Ly             Lz           Volume         Press           Pxx            Pyy            Pzz      
       594  -36.341108     -36.341108      4.6595901      4.6595901      4.6595901      101.168        181087.97      181087.97      181087.97      181087.97    
       595  -36.341108     -36.341108      4.6595901      4.6595901      4.6595901      101.168        181087.97      181087.97      181087.97      181087.97    
Loop time of 0.000250375 on 8 procs for 1 steps with 8 atoms

Performance: 345.082 ns/day, 0.070 hours/ns, 3994.009 timesteps/s, 31.952 katom-step/s
0.0% CPU use with 8 MPI tasks x 1 OpenMP threads

MPI task timing breakdown:
Section |  min time  |  avg time  |  max time  |%varavg| %total
---------------------------------------------------------------
Pair    | 0.000158   | 0.0001765  | 0.000196   |   0.0 | 70.49
Neigh   | 0          | 0          | 0          |   0.0 |  0.00
Comm    | 3.1e-05    | 4.975e-05  | 7e-05      |   0.0 | 19.87
Output  | 1.4e-05    | 1.625e-05  | 1.8e-05    |   0.0 |  6.49
Modify  | 0          | 1.25e-07   | 1e-06      |   0.0 |  0.05
Other   |            | 7.75e-06   |            |       |  3.10

Nlocal:              1 ave           1 max           1 min
Histogram: 8 0 0 0 0 0 0 0 0 0
Nghost:            511 ave         511 max         511 min
Histogram: 8 0 0 0 0 0 0 0 0 0
Neighs:             61 ave          69 max          53 min
Histogram: 4 0 0 0 0 0 0 0 0 4
FullNghs:          122 ave         122 max         122 min
Histogram: 8 0 0 0 0 0 0 0 0 0

Total # of neighbors = 976
Ave neighs/atom = 122
Neighbor list builds = 0
Dangerous builds = 0
variable  natoms equal "count(all)"
variable xlength equal "lx"
variable  volume equal "vol"
variable  etotal equal "etotal"
variable    ecoh equal "pe/v_natoms"
print "${xlength}, ${volume}, ${etotal}, ${ecoh}" append lattice_cohesive_energy.txt screen no

next i
jump SELF loop

change_box all x scale 1.0025 y scale 1.0025 z scale 1.0025 remap
Changing box ...
  orthogonal box = (-0.78561955 -0.77979506 -0.77979506) to (3.8856195 3.8797951 3.8797951)
  orthogonal box = (-0.78561955 -0.78561955 -0.77979506) to (3.8856195 3.8856195 3.8797951)
  orthogonal box = (-0.78561955 -0.78561955 -0.78561955) to (3.8856195 3.8856195 3.8856195)

run 1
WARNING: No fixes with time integration, atoms won't move (src/verlet.cpp:60)
Per MPI rank memory allocation (min/avg/max) = 8.579 | 8.581 | 8.597 Mbytes
   Step         PotEng         TotEng           Lx             Ly             Lz           Volume         Press           Pxx            Pyy            Pzz      
       595  -36.424478     -36.424478      4.6712391      4.6712391      4.6712391      101.92865      170171.31      170171.31      170171.31      170171.31    
       596  -36.424478     -36.424478      4.6712391      4.6712391      4.6712391      101.92865      170171.31      170171.31      170171.31      170171.31    
Loop time of 0.000164875 on 8 procs for 1 steps with 8 atoms

Performance: 524.033 ns/day, 0.046 hours/ns, 6065.201 timesteps/s, 48.522 katom-step/s
0.0% CPU use with 8 MPI tasks x 1 OpenMP threads

MPI task timing breakdown:
Section |  min time  |  avg time  |  max time  |%varavg| %total
---------------------------------------------------------------
Pair    | 9.9e-05    | 0.00010875 | 0.000119   |   0.0 | 65.96
Neigh   | 0          | 0          | 0          |   0.0 |  0.00
Comm    | 2.1e-05    | 3.15e-05   | 4.2e-05    |   0.0 | 19.11
Output  | 1.4e-05    | 1.6125e-05 | 1.8e-05    |   0.0 |  9.78
Modify  | 0          | 1.25e-07   | 1e-06      |   0.0 |  0.08
Other   |            | 8.375e-06  |            |       |  5.08

Nlocal:              1 ave           1 max           1 min
Histogram: 8 0 0 0 0 0 0 0 0 0
Nghost:            215 ave         215 max         215 min
Histogram: 8 0 0 0 0 0 0 0 0 0
Neighs:             46 ave          52 max          40 min
Histogram: 4 0 0 0 0 0 0 0 0 4
FullNghs:           92 ave          92 max          92 min
Histogram: 8 0 0 0 0 0 0 0 0 0

Total # of neighbors = 736
Ave neighs/atom = 92
Neighbor list builds = 0
Dangerous builds = 0
variable  natoms equal "count(all)"
variable xlength equal "lx"
variable  volume equal "vol"
variable  etotal equal "etotal"
variable    ecoh equal "pe/v_natoms"
print "${xlength}, ${volume}, ${etotal}, ${ecoh}" append lattice_cohesive_energy.txt screen no

next i
jump SELF loop

change_box all x scale 1.0025 y scale 1.0025 z scale 1.0025 remap
Changing box ...
  orthogonal box = (-0.7914586 -0.78561955 -0.78561955) to (3.8914586 3.8856195 3.8856195)
  orthogonal box = (-0.7914586 -0.7914586 -0.78561955) to (3.8914586 3.8914586 3.8856195)
  orthogonal box = (-0.7914586 -0.7914586 -0.7914586) to (3.8914586 3.8914586 3.8914586)

run 1
WARNING: No fixes with time integration, atoms won't move (src/verlet.cpp:60)
Per MPI rank memory allocation (min/avg/max) = 8.579 | 8.581 | 8.597 Mbytes
   Step         PotEng         TotEng           Lx             Ly             Lz           Volume         Press           Pxx            Pyy            Pzz      
       596  -36.503312     -36.503312      4.6829172      4.6829172      4.6829172      102.69503      159500.22      159500.22      159500.22      159500.22    
       597  -36.503312     -36.503312      4.6829172      4.6829172      4.6829172      102.69503      159500.22      159500.22      159500.22      159500.22    
Loop time of 0.0001615 on 8 procs for 1 steps with 8 atoms

Performance: 534.985 ns/day, 0.045 hours/ns, 6191.950 timesteps/s, 49.536 katom-step/s
0.0% CPU use with 8 MPI tasks x 1 OpenMP threads

MPI task timing breakdown:
Section |  min time  |  avg time  |  max time  |%varavg| %total
---------------------------------------------------------------
Pair    | 9.3e-05    | 0.0001015  | 0.000117   |   0.0 | 62.85
Neigh   | 0          | 0          | 0          |   0.0 |  0.00
Comm    | 2.1e-05    | 3.6125e-05 | 4.4e-05    |   0.0 | 22.37
Output  | 1.4e-05    | 1.625e-05  | 1.8e-05    |   0.0 | 10.06
Modify  | 0          | 2.5e-07    | 1e-06      |   0.0 |  0.15
Other   |            | 7.375e-06  |            |       |  4.57

Nlocal:              1 ave           1 max           1 min
Histogram: 8 0 0 0 0 0 0 0 0 0
Nghost:            215 ave         215 max         215 min
Histogram: 8 0 0 0 0 0 0 0 0 0
Neighs:             46 ave          52 max          40 min
Histogram: 4 0 0 0 0 0 0 0 0 4
FullNghs:           92 ave          92 max          92 min
Histogram: 8 0 0 0 0 0 0 0 0 0

Total # of neighbors = 736
Ave neighs/atom = 92
Neighbor list builds = 0
Dangerous builds = 0
variable  natoms equal "count(all)"
variable xlength equal "lx"
variable  volume equal "vol"
variable  etotal equal "etotal"
variable    ecoh equal "pe/v_natoms"
print "${xlength}, ${volume}, ${etotal}, ${ecoh}" append lattice_cohesive_energy.txt screen no

next i
jump SELF loop

change_box all x scale 1.0025 y scale 1.0025 z scale 1.0025 remap
Changing box ...
  orthogonal box = (-0.79731224 -0.7914586 -0.7914586) to (3.8973122 3.8914586 3.8914586)
  orthogonal box = (-0.79731224 -0.79731224 -0.7914586) to (3.8973122 3.8973122 3.8914586)
  orthogonal box = (-0.79731224 -0.79731224 -0.79731224) to (3.8973122 3.8973122 3.8973122)

run 1
WARNING: No fixes with time integration, atoms won't move (src/verlet.cpp:60)
Per MPI rank memory allocation (min/avg/max) = 8.579 | 8.581 | 8.597 Mbytes
   Step         PotEng         TotEng           Lx             Ly             Lz           Volume         Press           Pxx            Pyy            Pzz      
       597  -36.577654     -36.577654      4.6946245      4.6946245      4.6946245      103.46717      149070.86      149070.86      149070.86      149070.86    
       598  -36.577654     -36.577654      4.6946245      4.6946245      4.6946245      103.46717      149070.86      149070.86      149070.86      149070.86    
Loop time of 0.00015875 on 8 procs for 1 steps with 8 atoms

Performance: 544.252 ns/day, 0.044 hours/ns, 6299.213 timesteps/s, 50.394 katom-step/s
0.0% CPU use with 8 MPI tasks x 1 OpenMP threads

MPI task timing breakdown:
Section |  min time  |  avg time  |  max time  |%varavg| %total
---------------------------------------------------------------
Pair    | 9.1e-05    | 9.9625e-05 | 0.000116   |   0.0 | 62.76
Neigh   | 0          | 0          | 0          |   0.0 |  0.00
Comm    | 2e-05      | 3.6e-05    | 4.5e-05    |   0.0 | 22.68
Output  | 1.4e-05    | 1.6125e-05 | 1.8e-05    |   0.0 | 10.16
Modify  | 0          | 0          | 0          |   0.0 |  0.00
Other   |            | 7e-06      |            |       |  4.41

Nlocal:              1 ave           1 max           1 min
Histogram: 8 0 0 0 0 0 0 0 0 0
Nghost:            215 ave         215 max         215 min
Histogram: 8 0 0 0 0 0 0 0 0 0
Neighs:             46 ave          52 max          40 min
Histogram: 4 0 0 0 0 0 0 0 0 4
FullNghs:           92 ave          92 max          92 min
Histogram: 8 0 0 0 0 0 0 0 0 0

Total # of neighbors = 736
Ave neighs/atom = 92
Neighbor list builds = 0
Dangerous builds = 0
variable  natoms equal "count(all)"
variable xlength equal "lx"
variable  volume equal "vol"
variable  etotal equal "etotal"
variable    ecoh equal "pe/v_natoms"
print "${xlength}, ${volume}, ${etotal}, ${ecoh}" append lattice_cohesive_energy.txt screen no

next i
jump SELF loop

change_box all x scale 1.0025 y scale 1.0025 z scale 1.0025 remap
Changing box ...
  orthogonal box = (-0.80318052 -0.79731224 -0.79731224) to (3.9031805 3.8973122 3.8973122)
  orthogonal box = (-0.80318052 -0.80318052 -0.79731224) to (3.9031805 3.9031805 3.8973122)
  orthogonal box = (-0.80318052 -0.80318052 -0.80318052) to (3.9031805 3.9031805 3.9031805)

run 1
WARNING: No fixes with time integration, atoms won't move (src/verlet.cpp:60)
Per MPI rank memory allocation (min/avg/max) = 8.579 | 8.581 | 8.597 Mbytes
   Step         PotEng         TotEng           Lx             Ly             Lz           Volume         Press           Pxx            Pyy            Pzz      
       598  -36.647549     -36.647549      4.706361       4.706361       4.706361       104.24512      138879.41      138879.41      138879.41      138879.41    
       599  -36.647549     -36.647549      4.706361       4.706361       4.706361       104.24512      138879.41      138879.41      138879.41      138879.41    
Loop time of 0.00015975 on 8 procs for 1 steps with 8 atoms

Performance: 540.845 ns/day, 0.044 hours/ns, 6259.781 timesteps/s, 50.078 katom-step/s
0.0% CPU use with 8 MPI tasks x 1 OpenMP threads

MPI task timing breakdown:
Section |  min time  |  avg time  |  max time  |%varavg| %total
---------------------------------------------------------------
Pair    | 9.2e-05    | 9.975e-05  | 0.000114   |   0.0 | 62.44
Neigh   | 0          | 0          | 0          |   0.0 |  0.00
Comm    | 2.1e-05    | 3.5375e-05 | 4.3e-05    |   0.0 | 22.14
Output  | 1.6e-05    | 1.7125e-05 | 1.9e-05    |   0.0 | 10.72
Modify  | 0          | 1.25e-07   | 1e-06      |   0.0 |  0.08
Other   |            | 7.375e-06  |            |       |  4.62

Nlocal:              1 ave           1 max           1 min
Histogram: 8 0 0 0 0 0 0 0 0 0
Nghost:            215 ave         215 max         215 min
Histogram: 8 0 0 0 0 0 0 0 0 0
Neighs:             46 ave          52 max          40 min
Histogram: 4 0 0 0 0 0 0 0 0 4
FullNghs:           92 ave          92 max          92 min
Histogram: 8 0 0 0 0 0 0 0 0 0

Total # of neighbors = 736
Ave neighs/atom = 92
Neighbor list builds = 0
Dangerous builds = 0
variable  natoms equal "count(all)"
variable xlength equal "lx"
variable  volume equal "vol"
variable  etotal equal "etotal"
variable    ecoh equal "pe/v_natoms"
print "${xlength}, ${volume}, ${etotal}, ${ecoh}" append lattice_cohesive_energy.txt screen no

next i
jump SELF loop

change_box all x scale 1.0025 y scale 1.0025 z scale 1.0025 remap
Changing box ...
  orthogonal box = (-0.80906347 -0.80318052 -0.80318052) to (3.9090635 3.9031805 3.9031805)
  orthogonal box = (-0.80906347 -0.80906347 -0.80318052) to (3.9090635 3.9090635 3.9031805)
  orthogonal box = (-0.80906347 -0.80906347 -0.80906347) to (3.9090635 3.9090635 3.9090635)

run 1
WARNING: No fixes with time integration, atoms won't move (src/verlet.cpp:60)
Per MPI rank memory allocation (min/avg/max) = 8.579 | 8.581 | 8.597 Mbytes
   Step         PotEng         TotEng           Lx             Ly             Lz           Volume         Press           Pxx            Pyy            Pzz      
       599  -36.713042     -36.713042      4.7181269      4.7181269      4.7181269      105.02891      128922.13      128922.13      128922.13      128922.13    
       600  -36.713042     -36.713042      4.7181269      4.7181269      4.7181269      105.02891      128922.13      128922.13      128922.13      128922.13    
Loop time of 0.000164625 on 8 procs for 1 steps with 8 atoms

Performance: 524.829 ns/day, 0.046 hours/ns, 6074.412 timesteps/s, 48.595 katom-step/s
0.0% CPU use with 8 MPI tasks x 1 OpenMP threads

MPI task timing breakdown:
Section |  min time  |  avg time  |  max time  |%varavg| %total
---------------------------------------------------------------
Pair    | 9.8e-05    | 0.00010612 | 0.000119   |   0.0 | 64.46
Neigh   | 0          | 0          | 0          |   0.0 |  0.00
Comm    | 2.1e-05    | 3.3375e-05 | 4.2e-05    |   0.0 | 20.27
Output  | 1.5e-05    | 1.75e-05   | 1.9e-05    |   0.0 | 10.63
Modify  | 0          | 1.25e-07   | 1e-06      |   0.0 |  0.08
Other   |            | 7.5e-06    |            |       |  4.56

Nlocal:              1 ave           1 max           1 min
Histogram: 8 0 0 0 0 0 0 0 0 0
Nghost:            215 ave         215 max         215 min
Histogram: 8 0 0 0 0 0 0 0 0 0
Neighs:             46 ave          52 max          40 min
Histogram: 4 0 0 0 0 0 0 0 0 4
FullNghs:           92 ave          92 max          92 min
Histogram: 8 0 0 0 0 0 0 0 0 0

Total # of neighbors = 736
Ave neighs/atom = 92
Neighbor list builds = 0
Dangerous builds = 0
variable  natoms equal "count(all)"
variable xlength equal "lx"
variable  volume equal "vol"
variable  etotal equal "etotal"
variable    ecoh equal "pe/v_natoms"
print "${xlength}, ${volume}, ${etotal}, ${ecoh}" append lattice_cohesive_energy.txt screen no

next i
jump SELF loop

change_box all x scale 1.0025 y scale 1.0025 z scale 1.0025 remap
Changing box ...
  orthogonal box = (-0.81496113 -0.80906347 -0.80906347) to (3.9149611 3.9090635 3.9090635)
  orthogonal box = (-0.81496113 -0.81496113 -0.80906347) to (3.9149611 3.9149611 3.9090635)
  orthogonal box = (-0.81496113 -0.81496113 -0.81496113) to (3.9149611 3.9149611 3.9149611)

run 1
WARNING: No fixes with time integration, atoms won't move (src/verlet.cpp:60)
Per MPI rank memory allocation (min/avg/max) = 8.579 | 8.581 | 8.597 Mbytes
   Step         PotEng         TotEng           Lx             Ly             Lz           Volume         Press           Pxx            Pyy            Pzz      
       600  -36.774176     -36.774176      4.7299223      4.7299223      4.7299223      105.8186       119195.3       119195.3       119195.3       119195.3     
       601  -36.774176     -36.774176      4.7299223      4.7299223      4.7299223      105.8186       119195.3       119195.3       119195.3       119195.3     
Loop time of 0.000158875 on 8 procs for 1 steps with 8 atoms

Performance: 543.824 ns/day, 0.044 hours/ns, 6294.256 timesteps/s, 50.354 katom-step/s
0.0% CPU use with 8 MPI tasks x 1 OpenMP threads

MPI task timing breakdown:
Section |  min time  |  avg time  |  max time  |%varavg| %total
---------------------------------------------------------------
Pair    | 9.2e-05    | 0.00010063 | 0.000116   |   0.0 | 63.34
Neigh   | 0          | 0          | 0          |   0.0 |  0.00
Comm    | 2.1e-05    | 3.575e-05  | 4.5e-05    |   0.0 | 22.50
Output  | 1.4e-05    | 1.65e-05   | 1.8e-05    |   0.0 | 10.39
Modify  | 0          | 0          | 0          |   0.0 |  0.00
Other   |            | 6e-06      |            |       |  3.78

Nlocal:              1 ave           1 max           1 min
Histogram: 8 0 0 0 0 0 0 0 0 0
Nghost:            215 ave         215 max         215 min
Histogram: 8 0 0 0 0 0 0 0 0 0
Neighs:             46 ave          52 max          40 min
Histogram: 4 0 0 0 0 0 0 0 0 4
FullNghs:           92 ave          92 max          92 min
Histogram: 8 0 0 0 0 0 0 0 0 0

Total # of neighbors = 736
Ave neighs/atom = 92
Neighbor list builds = 0
Dangerous builds = 0
variable  natoms equal "count(all)"
variable xlength equal "lx"
variable  volume equal "vol"
variable  etotal equal "etotal"
variable    ecoh equal "pe/v_natoms"
print "${xlength}, ${volume}, ${etotal}, ${ecoh}" append lattice_cohesive_energy.txt screen no

next i
jump SELF loop

change_box all x scale 1.0025 y scale 1.0025 z scale 1.0025 remap
Changing box ...
  orthogonal box = (-0.82087354 -0.81496113 -0.81496113) to (3.9208735 3.9149611 3.9149611)
  orthogonal box = (-0.82087354 -0.82087354 -0.81496113) to (3.9208735 3.9208735 3.9149611)
  orthogonal box = (-0.82087354 -0.82087354 -0.82087354) to (3.9208735 3.9208735 3.9208735)

run 1
WARNING: No fixes with time integration, atoms won't move (src/verlet.cpp:60)
Per MPI rank memory allocation (min/avg/max) = 8.579 | 8.581 | 8.597 Mbytes
   Step         PotEng         TotEng           Lx             Ly             Lz           Volume         Press           Pxx            Pyy            Pzz      
       601  -36.830996     -36.830996      4.7417471      4.7417471      4.7417471      106.61422      109695.25      109695.25      109695.25      109695.25    
       602  -36.830996     -36.830996      4.7417471      4.7417471      4.7417471      106.61422      109695.25      109695.25      109695.25      109695.25    
Loop time of 0.000164125 on 8 procs for 1 steps with 8 atoms

Performance: 526.428 ns/day, 0.046 hours/ns, 6092.917 timesteps/s, 48.743 katom-step/s
0.0% CPU use with 8 MPI tasks x 1 OpenMP threads

MPI task timing breakdown:
Section |  min time  |  avg time  |  max time  |%varavg| %total
---------------------------------------------------------------
Pair    | 9.4e-05    | 0.00010113 | 0.000117   |   0.0 | 61.61
Neigh   | 0          | 0          | 0          |   0.0 |  0.00
Comm    | 2e-05      | 3.6125e-05 | 4.4e-05    |   0.0 | 22.01
Output  | 1.5e-05    | 1.675e-05  | 1.8e-05    |   0.0 | 10.21
Modify  | 0          | 3.75e-07   | 1e-06      |   0.0 |  0.23
Other   |            | 9.75e-06   |            |       |  5.94

Nlocal:              1 ave           1 max           1 min
Histogram: 8 0 0 0 0 0 0 0 0 0
Nghost:            215 ave         215 max         215 min
Histogram: 8 0 0 0 0 0 0 0 0 0
Neighs:             46 ave          52 max          40 min
Histogram: 4 0 0 0 0 0 0 0 0 4
FullNghs:           92 ave          92 max          92 min
Histogram: 8 0 0 0 0 0 0 0 0 0

Total # of neighbors = 736
Ave neighs/atom = 92
Neighbor list builds = 0
Dangerous builds = 0
variable  natoms equal "count(all)"
variable xlength equal "lx"
variable  volume equal "vol"
variable  etotal equal "etotal"
variable    ecoh equal "pe/v_natoms"
print "${xlength}, ${volume}, ${etotal}, ${ecoh}" append lattice_cohesive_energy.txt screen no

next i
jump SELF loop

change_box all x scale 1.0025 y scale 1.0025 z scale 1.0025 remap
Changing box ...
  orthogonal box = (-0.82680072 -0.82087354 -0.82087354) to (3.9268007 3.9208735 3.9208735)
  orthogonal box = (-0.82680072 -0.82680072 -0.82087354) to (3.9268007 3.9268007 3.9208735)
  orthogonal box = (-0.82680072 -0.82680072 -0.82680072) to (3.9268007 3.9268007 3.9268007)

run 1
WARNING: No fixes with time integration, atoms won't move (src/verlet.cpp:60)
Per MPI rank memory allocation (min/avg/max) = 8.579 | 8.581 | 8.597 Mbytes
   Step         PotEng         TotEng           Lx             Ly             Lz           Volume         Press           Pxx            Pyy            Pzz      
       602  -36.883547     -36.883547      4.7536014      4.7536014      4.7536014      107.41583      100418.34      100418.34      100418.34      100418.34    
       603  -36.883547     -36.883547      4.7536014      4.7536014      4.7536014      107.41583      100418.34      100418.34      100418.34      100418.34    
Loop time of 0.00015975 on 8 procs for 1 steps with 8 atoms

Performance: 540.845 ns/day, 0.044 hours/ns, 6259.781 timesteps/s, 50.078 katom-step/s
0.0% CPU use with 8 MPI tasks x 1 OpenMP threads

MPI task timing breakdown:
Section |  min time  |  avg time  |  max time  |%varavg| %total
---------------------------------------------------------------
Pair    | 9.2e-05    | 0.00010137 | 0.000116   |   0.0 | 63.46
Neigh   | 0          | 0          | 0          |   0.0 |  0.00
Comm    | 2.1e-05    | 3.5125e-05 | 4.5e-05    |   0.0 | 21.99
Output  | 1.5e-05    | 1.725e-05  | 1.9e-05    |   0.0 | 10.80
Modify  | 0          | 1.25e-07   | 1e-06      |   0.0 |  0.08
Other   |            | 5.875e-06  |            |       |  3.68

Nlocal:              1 ave           1 max           1 min
Histogram: 8 0 0 0 0 0 0 0 0 0
Nghost:            215 ave         215 max         215 min
Histogram: 8 0 0 0 0 0 0 0 0 0
Neighs:             46 ave          52 max          40 min
Histogram: 4 0 0 0 0 0 0 0 0 4
FullNghs:           92 ave          92 max          92 min
Histogram: 8 0 0 0 0 0 0 0 0 0

Total # of neighbors = 736
Ave neighs/atom = 92
Neighbor list builds = 0
Dangerous builds = 0
variable  natoms equal "count(all)"
variable xlength equal "lx"
variable  volume equal "vol"
variable  etotal equal "etotal"
variable    ecoh equal "pe/v_natoms"
print "${xlength}, ${volume}, ${etotal}, ${ecoh}" append lattice_cohesive_energy.txt screen no

next i
jump SELF loop

change_box all x scale 1.0025 y scale 1.0025 z scale 1.0025 remap
Changing box ...
  orthogonal box = (-0.83274272 -0.82680072 -0.82680072) to (3.9327427 3.9268007 3.9268007)
  orthogonal box = (-0.83274272 -0.83274272 -0.82680072) to (3.9327427 3.9327427 3.9268007)
  orthogonal box = (-0.83274272 -0.83274272 -0.83274272) to (3.9327427 3.9327427 3.9327427)

run 1
WARNING: No fixes with time integration, atoms won't move (src/verlet.cpp:60)
Per MPI rank memory allocation (min/avg/max) = 8.579 | 8.581 | 8.597 Mbytes
   Step         PotEng         TotEng           Lx             Ly             Lz           Volume         Press           Pxx            Pyy            Pzz      
       603  -36.931871     -36.931871      4.7654854      4.7654854      4.7654854      108.22347      91361.006      91361.006      91361.006      91361.006    
       604  -36.931871     -36.931871      4.7654854      4.7654854      4.7654854      108.22347      91361.006      91361.006      91361.006      91361.006    
Loop time of 0.0001585 on 8 procs for 1 steps with 8 atoms

Performance: 545.110 ns/day, 0.044 hours/ns, 6309.148 timesteps/s, 50.473 katom-step/s
0.0% CPU use with 8 MPI tasks x 1 OpenMP threads

MPI task timing breakdown:
Section |  min time  |  avg time  |  max time  |%varavg| %total
---------------------------------------------------------------
Pair    | 9.2e-05    | 9.9e-05    | 0.000114   |   0.0 | 62.46
Neigh   | 0          | 0          | 0          |   0.0 |  0.00
Comm    | 2.1e-05    | 3.6375e-05 | 4.4e-05    |   0.0 | 22.95
Output  | 1.4e-05    | 1.6625e-05 | 1.8e-05    |   0.0 | 10.49
Modify  | 0          | 0          | 0          |   0.0 |  0.00
Other   |            | 6.5e-06    |            |       |  4.10

Nlocal:              1 ave           1 max           1 min
Histogram: 8 0 0 0 0 0 0 0 0 0
Nghost:            215 ave         215 max         215 min
Histogram: 8 0 0 0 0 0 0 0 0 0
Neighs:             46 ave          52 max          40 min
Histogram: 4 0 0 0 0 0 0 0 0 4
FullNghs:           92 ave          92 max          92 min
Histogram: 8 0 0 0 0 0 0 0 0 0

Total # of neighbors = 736
Ave neighs/atom = 92
Neighbor list builds = 0
Dangerous builds = 0
variable  natoms equal "count(all)"
variable xlength equal "lx"
variable  volume equal "vol"
variable  etotal equal "etotal"
variable    ecoh equal "pe/v_natoms"
print "${xlength}, ${volume}, ${etotal}, ${ecoh}" append lattice_cohesive_energy.txt screen no

next i
jump SELF loop

change_box all x scale 1.0025 y scale 1.0025 z scale 1.0025 remap
Changing box ...
  orthogonal box = (-0.83869958 -0.83274272 -0.83274272) to (3.9386996 3.9327427 3.9327427)
  orthogonal box = (-0.83869958 -0.83869958 -0.83274272) to (3.9386996 3.9386996 3.9327427)
  orthogonal box = (-0.83869958 -0.83869958 -0.83869958) to (3.9386996 3.9386996 3.9386996)

run 1
WARNING: No fixes with time integration, atoms won't move (src/verlet.cpp:60)
Per MPI rank memory allocation (min/avg/max) = 8.579 | 8.581 | 8.597 Mbytes
   Step         PotEng         TotEng           Lx             Ly             Lz           Volume         Press           Pxx            Pyy            Pzz      
       604  -36.976014     -36.976014      4.7773992      4.7773992      4.7773992      109.03717      82519.693      82519.693      82519.693      82519.693    
       605  -36.976014     -36.976014      4.7773992      4.7773992      4.7773992      109.03717      82519.693      82519.693      82519.693      82519.693    
Loop time of 0.000161375 on 8 procs for 1 steps with 8 atoms

Performance: 535.399 ns/day, 0.045 hours/ns, 6196.747 timesteps/s, 49.574 katom-step/s
0.0% CPU use with 8 MPI tasks x 1 OpenMP threads

MPI task timing breakdown:
Section |  min time  |  avg time  |  max time  |%varavg| %total
---------------------------------------------------------------
Pair    | 9.2e-05    | 0.00010025 | 0.000117   |   0.0 | 62.12
Neigh   | 0          | 0          | 0          |   0.0 |  0.00
Comm    | 2e-05      | 3.6375e-05 | 4.5e-05    |   0.0 | 22.54
Output  | 1.5e-05    | 1.7125e-05 | 1.9e-05    |   0.0 | 10.61
Modify  | 0          | 0          | 0          |   0.0 |  0.00
Other   |            | 7.625e-06  |            |       |  4.73

Nlocal:              1 ave           1 max           1 min
Histogram: 8 0 0 0 0 0 0 0 0 0
Nghost:            215 ave         215 max         215 min
Histogram: 8 0 0 0 0 0 0 0 0 0
Neighs:             46 ave          52 max          40 min
Histogram: 4 0 0 0 0 0 0 0 0 4
FullNghs:           92 ave          92 max          92 min
Histogram: 8 0 0 0 0 0 0 0 0 0

Total # of neighbors = 736
Ave neighs/atom = 92
Neighbor list builds = 0
Dangerous builds = 0
variable  natoms equal "count(all)"
variable xlength equal "lx"
variable  volume equal "vol"
variable  etotal equal "etotal"
variable    ecoh equal "pe/v_natoms"
print "${xlength}, ${volume}, ${etotal}, ${ecoh}" append lattice_cohesive_energy.txt screen no

next i
jump SELF loop

change_box all x scale 1.0025 y scale 1.0025 z scale 1.0025 remap
Changing box ...
  orthogonal box = (-0.84467133 -0.83869958 -0.83869958) to (3.9446713 3.9386996 3.9386996)
  orthogonal box = (-0.84467133 -0.84467133 -0.83869958) to (3.9446713 3.9446713 3.9386996)
  orthogonal box = (-0.84467133 -0.84467133 -0.84467133) to (3.9446713 3.9446713 3.9446713)

run 1
WARNING: No fixes with time integration, atoms won't move (src/verlet.cpp:60)
Per MPI rank memory allocation (min/avg/max) = 8.579 | 8.581 | 8.597 Mbytes
   Step         PotEng         TotEng           Lx             Ly             Lz           Volume         Press           Pxx            Pyy            Pzz      
       605  -37.01602      -37.01602       4.7893427      4.7893427      4.7893427      109.857        73890.903      73890.903      73890.903      73890.903    
       606  -37.01602      -37.01602       4.7893427      4.7893427      4.7893427      109.857        73890.903      73890.903      73890.903      73890.903    
Loop time of 0.000164875 on 8 procs for 1 steps with 8 atoms

Performance: 524.033 ns/day, 0.046 hours/ns, 6065.201 timesteps/s, 48.522 katom-step/s
0.0% CPU use with 8 MPI tasks x 1 OpenMP threads

MPI task timing breakdown:
Section |  min time  |  avg time  |  max time  |%varavg| %total
---------------------------------------------------------------
Pair    | 9.2e-05    | 0.00010012 | 0.000115   |   0.0 | 60.73
Neigh   | 0          | 0          | 0          |   0.0 |  0.00
Comm    | 2.1e-05    | 3.55e-05   | 4.3e-05    |   0.0 | 21.53
Output  | 1.4e-05    | 1.6375e-05 | 1.8e-05    |   0.0 |  9.93
Modify  | 0          | 2.5e-07    | 1e-06      |   0.0 |  0.15
Other   |            | 1.263e-05  |            |       |  7.66

Nlocal:              1 ave           1 max           1 min
Histogram: 8 0 0 0 0 0 0 0 0 0
Nghost:            215 ave         215 max         215 min
Histogram: 8 0 0 0 0 0 0 0 0 0
Neighs:             46 ave          52 max          40 min
Histogram: 4 0 0 0 0 0 0 0 0 4
FullNghs:           92 ave          92 max          92 min
Histogram: 8 0 0 0 0 0 0 0 0 0

Total # of neighbors = 736
Ave neighs/atom = 92
Neighbor list builds = 0
Dangerous builds = 0
variable  natoms equal "count(all)"
variable xlength equal "lx"
variable  volume equal "vol"
variable  etotal equal "etotal"
variable    ecoh equal "pe/v_natoms"
print "${xlength}, ${volume}, ${etotal}, ${ecoh}" append lattice_cohesive_energy.txt screen no

next i
jump SELF loop

change_box all x scale 1.0025 y scale 1.0025 z scale 1.0025 remap
Changing box ...
  orthogonal box = (-0.85065801 -0.84467133 -0.84467133) to (3.950658 3.9446713 3.9446713)
  orthogonal box = (-0.85065801 -0.85065801 -0.84467133) to (3.950658 3.950658 3.9446713)
  orthogonal box = (-0.85065801 -0.85065801 -0.85065801) to (3.950658 3.950658 3.950658)

run 1
WARNING: No fixes with time integration, atoms won't move (src/verlet.cpp:60)
Per MPI rank memory allocation (min/avg/max) = 8.579 | 8.581 | 8.597 Mbytes
   Step         PotEng         TotEng           Lx             Ly             Lz           Volume         Press           Pxx            Pyy            Pzz      
       606  -37.051932     -37.051932      4.801316       4.801316       4.801316       110.68299      65471.18       65471.18       65471.18       65471.18     
       607  -37.051932     -37.051932      4.801316       4.801316       4.801316       110.68299      65471.18       65471.18       65471.18       65471.18     
Loop time of 0.000120875 on 8 procs for 1 steps with 8 atoms

Performance: 714.788 ns/day, 0.034 hours/ns, 8273.009 timesteps/s, 66.184 katom-step/s
0.0% CPU use with 8 MPI tasks x 1 OpenMP threads

MPI task timing breakdown:
Section |  min time  |  avg time  |  max time  |%varavg| %total
---------------------------------------------------------------
Pair    | 7.8e-05    | 7.9375e-05 | 8e-05      |   0.0 | 65.67
Neigh   | 0          | 0          | 0          |   0.0 |  0.00
Comm    | 1.8e-05    | 1.8625e-05 | 2e-05      |   0.0 | 15.41
Output  | 1.4e-05    | 1.5125e-05 | 1.6e-05    |   0.0 | 12.51
Modify  | 0          | 1.25e-07   | 1e-06      |   0.0 |  0.10
Other   |            | 7.625e-06  |            |       |  6.31

Nlocal:              1 ave           1 max           1 min
Histogram: 8 0 0 0 0 0 0 0 0 0
Nghost:            215 ave         215 max         215 min
Histogram: 8 0 0 0 0 0 0 0 0 0
Neighs:             46 ave          52 max          40 min
Histogram: 4 0 0 0 0 0 0 0 0 4
FullNghs:           92 ave          92 max          92 min
Histogram: 8 0 0 0 0 0 0 0 0 0

Total # of neighbors = 736
Ave neighs/atom = 92
Neighbor list builds = 0
Dangerous builds = 0
variable  natoms equal "count(all)"
variable xlength equal "lx"
variable  volume equal "vol"
variable  etotal equal "etotal"
variable    ecoh equal "pe/v_natoms"
print "${xlength}, ${volume}, ${etotal}, ${ecoh}" append lattice_cohesive_energy.txt screen no

next i
jump SELF loop

change_box all x scale 1.0025 y scale 1.0025 z scale 1.0025 remap
Changing box ...
  orthogonal box = (-0.85665965 -0.85065801 -0.85065801) to (3.9566597 3.950658 3.950658)
  orthogonal box = (-0.85665965 -0.85665965 -0.85065801) to (3.9566597 3.9566597 3.950658)
  orthogonal box = (-0.85665965 -0.85665965 -0.85665965) to (3.9566597 3.9566597 3.9566597)

run 1
WARNING: No fixes with time integration, atoms won't move (src/verlet.cpp:60)
Per MPI rank memory allocation (min/avg/max) = 8.579 | 8.581 | 8.597 Mbytes
   Step         PotEng         TotEng           Lx             Ly             Lz           Volume         Press           Pxx            Pyy            Pzz      
       607  -37.083794     -37.083794      4.8133193      4.8133193      4.8133193      111.51519      57257.107      57257.107      57257.107      57257.107    
       608  -37.083794     -37.083794      4.8133193      4.8133193      4.8133193      111.51519      57257.107      57257.107      57257.107      57257.107    
Loop time of 0.000121375 on 8 procs for 1 steps with 8 atoms

Performance: 711.843 ns/day, 0.034 hours/ns, 8238.929 timesteps/s, 65.911 katom-step/s
0.0% CPU use with 8 MPI tasks x 1 OpenMP threads

MPI task timing breakdown:
Section |  min time  |  avg time  |  max time  |%varavg| %total
---------------------------------------------------------------
Pair    | 7.9e-05    | 8.025e-05  | 8.2e-05    |   0.0 | 66.12
Neigh   | 0          | 0          | 0          |   0.0 |  0.00
Comm    | 1.8e-05    | 1.975e-05  | 2.1e-05    |   0.0 | 16.27
Output  | 1.4e-05    | 1.5125e-05 | 1.7e-05    |   0.0 | 12.46
Modify  | 0          | 2.5e-07    | 1e-06      |   0.0 |  0.21
Other   |            | 6e-06      |            |       |  4.94

Nlocal:              1 ave           1 max           1 min
Histogram: 8 0 0 0 0 0 0 0 0 0
Nghost:            215 ave         215 max         215 min
Histogram: 8 0 0 0 0 0 0 0 0 0
Neighs:             46 ave          52 max          40 min
Histogram: 4 0 0 0 0 0 0 0 0 4
FullNghs:           92 ave          92 max          92 min
Histogram: 8 0 0 0 0 0 0 0 0 0

Total # of neighbors = 736
Ave neighs/atom = 92
Neighbor list builds = 0
Dangerous builds = 0
variable  natoms equal "count(all)"
variable xlength equal "lx"
variable  volume equal "vol"
variable  etotal equal "etotal"
variable    ecoh equal "pe/v_natoms"
print "${xlength}, ${volume}, ${etotal}, ${ecoh}" append lattice_cohesive_energy.txt screen no

next i
jump SELF loop

change_box all x scale 1.0025 y scale 1.0025 z scale 1.0025 remap
Changing box ...
  orthogonal box = (-0.8626763 -0.85665965 -0.85665965) to (3.9626763 3.9566597 3.9566597)
  orthogonal box = (-0.8626763 -0.8626763 -0.85665965) to (3.9626763 3.9626763 3.9566597)
  orthogonal box = (-0.8626763 -0.8626763 -0.8626763) to (3.9626763 3.9626763 3.9626763)

run 1
WARNING: No fixes with time integration, atoms won't move (src/verlet.cpp:60)
Per MPI rank memory allocation (min/avg/max) = 8.579 | 8.581 | 8.597 Mbytes
   Step         PotEng         TotEng           Lx             Ly             Lz           Volume         Press           Pxx            Pyy            Pzz      
       608  -37.11165      -37.11165       4.8253526      4.8253526      4.8253526      112.35364      49245.308      49245.308      49245.308      49245.308    
       609  -37.11165      -37.11165       4.8253526      4.8253526      4.8253526      112.35364      49245.308      49245.308      49245.308      49245.308    
Loop time of 0.000118375 on 8 procs for 1 steps with 8 atoms

Performance: 729.884 ns/day, 0.033 hours/ns, 8447.730 timesteps/s, 67.582 katom-step/s
0.0% CPU use with 8 MPI tasks x 1 OpenMP threads

MPI task timing breakdown:
Section |  min time  |  avg time  |  max time  |%varavg| %total
---------------------------------------------------------------
Pair    | 7.5e-05    | 7.65e-05   | 7.9e-05    |   0.0 | 64.63
Neigh   | 0          | 0          | 0          |   0.0 |  0.00
Comm    | 1.8e-05    | 2.05e-05   | 2.2e-05    |   0.0 | 17.32
Output  | 1.3e-05    | 1.525e-05  | 1.7e-05    |   0.0 | 12.88
Modify  | 0          | 2.5e-07    | 1e-06      |   0.0 |  0.21
Other   |            | 5.875e-06  |            |       |  4.96

Nlocal:              1 ave           1 max           1 min
Histogram: 8 0 0 0 0 0 0 0 0 0
Nghost:            215 ave         215 max         215 min
Histogram: 8 0 0 0 0 0 0 0 0 0
Neighs:             46 ave          52 max          40 min
Histogram: 4 0 0 0 0 0 0 0 0 4
FullNghs:           92 ave          92 max          92 min
Histogram: 8 0 0 0 0 0 0 0 0 0

Total # of neighbors = 736
Ave neighs/atom = 92
Neighbor list builds = 0
Dangerous builds = 0
variable  natoms equal "count(all)"
variable xlength equal "lx"
variable  volume equal "vol"
variable  etotal equal "etotal"
variable    ecoh equal "pe/v_natoms"
print "${xlength}, ${volume}, ${etotal}, ${ecoh}" append lattice_cohesive_energy.txt screen no

next i
jump SELF loop

change_box all x scale 1.0025 y scale 1.0025 z scale 1.0025 remap
Changing box ...
  orthogonal box = (-0.86870799 -0.8626763 -0.8626763) to (3.968708 3.9626763 3.9626763)
  orthogonal box = (-0.86870799 -0.86870799 -0.8626763) to (3.968708 3.968708 3.9626763)
  orthogonal box = (-0.86870799 -0.86870799 -0.86870799) to (3.968708 3.968708 3.968708)

run 1
WARNING: No fixes with time integration, atoms won't move (src/verlet.cpp:60)
Per MPI rank memory allocation (min/avg/max) = 8.579 | 8.581 | 8.597 Mbytes
   Step         PotEng         TotEng           Lx             Ly             Lz           Volume         Press           Pxx            Pyy            Pzz      
       609  -37.135544     -37.135544      4.837416       4.837416       4.837416       113.1984       41432.449      41432.449      41432.449      41432.449    
       610  -37.135544     -37.135544      4.837416       4.837416       4.837416       113.1984       41432.449      41432.449      41432.449      41432.449    
Loop time of 0.0001185 on 8 procs for 1 steps with 8 atoms

Performance: 729.114 ns/day, 0.033 hours/ns, 8438.819 timesteps/s, 67.511 katom-step/s
0.0% CPU use with 8 MPI tasks x 1 OpenMP threads

MPI task timing breakdown:
Section |  min time  |  avg time  |  max time  |%varavg| %total
---------------------------------------------------------------
Pair    | 7.5e-05    | 7.7125e-05 | 8e-05      |   0.0 | 65.08
Neigh   | 0          | 0          | 0          |   0.0 |  0.00
Comm    | 1.6e-05    | 1.9625e-05 | 2.3e-05    |   0.0 | 16.56
Output  | 1.3e-05    | 1.5375e-05 | 1.7e-05    |   0.0 | 12.97
Modify  | 0          | 2.5e-07    | 1e-06      |   0.0 |  0.21
Other   |            | 6.125e-06  |            |       |  5.17

Nlocal:              1 ave           1 max           1 min
Histogram: 8 0 0 0 0 0 0 0 0 0
Nghost:            215 ave         215 max         215 min
Histogram: 8 0 0 0 0 0 0 0 0 0
Neighs:             46 ave          52 max          40 min
Histogram: 4 0 0 0 0 0 0 0 0 4
FullNghs:           92 ave          92 max          92 min
Histogram: 8 0 0 0 0 0 0 0 0 0

Total # of neighbors = 736
Ave neighs/atom = 92
Neighbor list builds = 0
Dangerous builds = 0
variable  natoms equal "count(all)"
variable xlength equal "lx"
variable  volume equal "vol"
variable  etotal equal "etotal"
variable    ecoh equal "pe/v_natoms"
print "${xlength}, ${volume}, ${etotal}, ${ecoh}" append lattice_cohesive_energy.txt screen no

next i
jump SELF loop

change_box all x scale 1.0025 y scale 1.0025 z scale 1.0025 remap
Changing box ...
  orthogonal box = (-0.87475476 -0.86870799 -0.86870799) to (3.9747548 3.968708 3.968708)
  orthogonal box = (-0.87475476 -0.87475476 -0.86870799) to (3.9747548 3.9747548 3.968708)
  orthogonal box = (-0.87475476 -0.87475476 -0.87475476) to (3.9747548 3.9747548 3.9747548)

run 1
WARNING: No fixes with time integration, atoms won't move (src/verlet.cpp:60)
Per MPI rank memory allocation (min/avg/max) = 8.579 | 8.581 | 8.597 Mbytes
   Step         PotEng         TotEng           Lx             Ly             Lz           Volume         Press           Pxx            Pyy            Pzz      
       610  -37.15552      -37.15552       4.8495095      4.8495095      4.8495095      114.04952      33815.236      33815.236      33815.236      33815.236    
       611  -37.15552      -37.15552       4.8495095      4.8495095      4.8495095      114.04952      33815.236      33815.236      33815.236      33815.236    
Loop time of 0.000120625 on 8 procs for 1 steps with 8 atoms

Performance: 716.269 ns/day, 0.034 hours/ns, 8290.155 timesteps/s, 66.321 katom-step/s
0.0% CPU use with 8 MPI tasks x 1 OpenMP threads

MPI task timing breakdown:
Section |  min time  |  avg time  |  max time  |%varavg| %total
---------------------------------------------------------------
Pair    | 7.5e-05    | 7.65e-05   | 7.9e-05    |   0.0 | 63.42
Neigh   | 0          | 0          | 0          |   0.0 |  0.00
Comm    | 2.1e-05    | 2.3375e-05 | 2.5e-05    |   0.0 | 19.38
Output  | 1.3e-05    | 1.4375e-05 | 1.6e-05    |   0.0 | 11.92
Modify  | 0          | 1.25e-07   | 1e-06      |   0.0 |  0.10
Other   |            | 6.25e-06   |            |       |  5.18

Nlocal:              1 ave           1 max           1 min
Histogram: 8 0 0 0 0 0 0 0 0 0
Nghost:            215 ave         215 max         215 min
Histogram: 8 0 0 0 0 0 0 0 0 0
Neighs:             46 ave          52 max          40 min
Histogram: 4 0 0 0 0 0 0 0 0 4
FullNghs:           92 ave          92 max          92 min
Histogram: 8 0 0 0 0 0 0 0 0 0

Total # of neighbors = 736
Ave neighs/atom = 92
Neighbor list builds = 0
Dangerous builds = 0
variable  natoms equal "count(all)"
variable xlength equal "lx"
variable  volume equal "vol"
variable  etotal equal "etotal"
variable    ecoh equal "pe/v_natoms"
print "${xlength}, ${volume}, ${etotal}, ${ecoh}" append lattice_cohesive_energy.txt screen no

next i
jump SELF loop

change_box all x scale 1.0025 y scale 1.0025 z scale 1.0025 remap
Changing box ...
  orthogonal box = (-0.88081665 -0.87475476 -0.87475476) to (3.9808166 3.9747548 3.9747548)
  orthogonal box = (-0.88081665 -0.88081665 -0.87475476) to (3.9808166 3.9808166 3.9747548)
  orthogonal box = (-0.88081665 -0.88081665 -0.88081665) to (3.9808166 3.9808166 3.9808166)

run 1
WARNING: No fixes with time integration, atoms won't move (src/verlet.cpp:60)
Per MPI rank memory allocation (min/avg/max) = 8.579 | 8.581 | 8.597 Mbytes
   Step         PotEng         TotEng           Lx             Ly             Lz           Volume         Press           Pxx            Pyy            Pzz      
       611  -37.17162      -37.17162       4.8616333      4.8616333      4.8616333      114.90703      26390.414      26390.414      26390.414      26390.414    
       612  -37.17162      -37.17162       4.8616333      4.8616333      4.8616333      114.90703      26390.414      26390.414      26390.414      26390.414    
Loop time of 0.000118375 on 8 procs for 1 steps with 8 atoms

Performance: 729.884 ns/day, 0.033 hours/ns, 8447.730 timesteps/s, 67.582 katom-step/s
0.0% CPU use with 8 MPI tasks x 1 OpenMP threads

MPI task timing breakdown:
Section |  min time  |  avg time  |  max time  |%varavg| %total
---------------------------------------------------------------
Pair    | 7.6e-05    | 7.7375e-05 | 7.8e-05    |   0.0 | 65.36
Neigh   | 0          | 0          | 0          |   0.0 |  0.00
Comm    | 1.8e-05    | 1.95e-05   | 2.1e-05    |   0.0 | 16.47
Output  | 1.4e-05    | 1.5375e-05 | 1.7e-05    |   0.0 | 12.99
Modify  | 0          | 0          | 0          |   0.0 |  0.00
Other   |            | 6.125e-06  |            |       |  5.17

Nlocal:              1 ave           1 max           1 min
Histogram: 8 0 0 0 0 0 0 0 0 0
Nghost:            215 ave         215 max         215 min
Histogram: 8 0 0 0 0 0 0 0 0 0
Neighs:             46 ave          52 max          40 min
Histogram: 4 0 0 0 0 0 0 0 0 4
FullNghs:           92 ave          92 max          92 min
Histogram: 8 0 0 0 0 0 0 0 0 0

Total # of neighbors = 736
Ave neighs/atom = 92
Neighbor list builds = 0
Dangerous builds = 0
variable  natoms equal "count(all)"
variable xlength equal "lx"
variable  volume equal "vol"
variable  etotal equal "etotal"
variable    ecoh equal "pe/v_natoms"
print "${xlength}, ${volume}, ${etotal}, ${ecoh}" append lattice_cohesive_energy.txt screen no

next i
jump SELF loop

change_box all x scale 1.0025 y scale 1.0025 z scale 1.0025 remap
Changing box ...
  orthogonal box = (-0.88689369 -0.88081665 -0.88081665) to (3.9868937 3.9808166 3.9808166)
  orthogonal box = (-0.88689369 -0.88689369 -0.88081665) to (3.9868937 3.9868937 3.9808166)
  orthogonal box = (-0.88689369 -0.88689369 -0.88689369) to (3.9868937 3.9868937 3.9868937)

run 1
WARNING: No fixes with time integration, atoms won't move (src/verlet.cpp:60)
Per MPI rank memory allocation (min/avg/max) = 8.579 | 8.581 | 8.597 Mbytes
   Step         PotEng         TotEng           Lx             Ly             Lz           Volume         Press           Pxx            Pyy            Pzz      
       612  -37.183889     -37.183889      4.8737874      4.8737874      4.8737874      115.77099      19154.77       19154.77       19154.77       19154.77     
       613  -37.183889     -37.183889      4.8737874      4.8737874      4.8737874      115.77099      19154.77       19154.77       19154.77       19154.77     
Loop time of 0.000119125 on 8 procs for 1 steps with 8 atoms

Performance: 725.289 ns/day, 0.033 hours/ns, 8394.544 timesteps/s, 67.156 katom-step/s
0.0% CPU use with 8 MPI tasks x 1 OpenMP threads

MPI task timing breakdown:
Section |  min time  |  avg time  |  max time  |%varavg| %total
---------------------------------------------------------------
Pair    | 7.4e-05    | 7.7125e-05 | 8e-05      |   0.0 | 64.74
Neigh   | 0          | 0          | 0          |   0.0 |  0.00
Comm    | 1.9e-05    | 2.125e-05  | 2.4e-05    |   0.0 | 17.84
Output  | 1.3e-05    | 1.475e-05  | 1.6e-05    |   0.0 | 12.38
Modify  | 0          | 2.5e-07    | 1e-06      |   0.0 |  0.21
Other   |            | 5.75e-06   |            |       |  4.83

Nlocal:              1 ave           1 max           1 min
Histogram: 8 0 0 0 0 0 0 0 0 0
Nghost:            215 ave         215 max         215 min
Histogram: 8 0 0 0 0 0 0 0 0 0
Neighs:             46 ave          52 max          40 min
Histogram: 4 0 0 0 0 0 0 0 0 4
FullNghs:           92 ave          92 max          92 min
Histogram: 8 0 0 0 0 0 0 0 0 0

Total # of neighbors = 736
Ave neighs/atom = 92
Neighbor list builds = 0
Dangerous builds = 0
variable  natoms equal "count(all)"
variable xlength equal "lx"
variable  volume equal "vol"
variable  etotal equal "etotal"
variable    ecoh equal "pe/v_natoms"
print "${xlength}, ${volume}, ${etotal}, ${ecoh}" append lattice_cohesive_energy.txt screen no

next i
jump SELF loop

change_box all x scale 1.0025 y scale 1.0025 z scale 1.0025 remap
Changing box ...
  orthogonal box = (-0.89298592 -0.88689369 -0.88689369) to (3.9929859 3.9868937 3.9868937)
  orthogonal box = (-0.89298592 -0.89298592 -0.88689369) to (3.9929859 3.9929859 3.9868937)
  orthogonal box = (-0.89298592 -0.89298592 -0.89298592) to (3.9929859 3.9929859 3.9929859)

run 1
WARNING: No fixes with time integration, atoms won't move (src/verlet.cpp:60)
Per MPI rank memory allocation (min/avg/max) = 8.579 | 8.581 | 8.597 Mbytes
   Step         PotEng         TotEng           Lx             Ly             Lz           Volume         Press           Pxx            Pyy            Pzz      
       613  -37.19237      -37.19237       4.8859718      4.8859718      4.8859718      116.64144      12105.126      12105.126      12105.126      12105.126    
       614  -37.19237      -37.19237       4.8859718      4.8859718      4.8859718      116.64144      12105.126      12105.126      12105.126      12105.126    
Loop time of 0.00012275 on 8 procs for 1 steps with 8 atoms

Performance: 703.870 ns/day, 0.034 hours/ns, 8146.640 timesteps/s, 65.173 katom-step/s
0.0% CPU use with 8 MPI tasks x 1 OpenMP threads

MPI task timing breakdown:
Section |  min time  |  avg time  |  max time  |%varavg| %total
---------------------------------------------------------------
Pair    | 7.6e-05    | 7.85e-05   | 8.1e-05    |   0.0 | 63.95
Neigh   | 0          | 0          | 0          |   0.0 |  0.00
Comm    | 1.9e-05    | 2.1375e-05 | 2.4e-05    |   0.0 | 17.41
Output  | 1.4e-05    | 1.575e-05  | 1.8e-05    |   0.0 | 12.83
Modify  | 0          | 0          | 0          |   0.0 |  0.00
Other   |            | 7.125e-06  |            |       |  5.80

Nlocal:              1 ave           1 max           1 min
Histogram: 8 0 0 0 0 0 0 0 0 0
Nghost:            215 ave         215 max         215 min
Histogram: 8 0 0 0 0 0 0 0 0 0
Neighs:             46 ave          52 max          40 min
Histogram: 4 0 0 0 0 0 0 0 0 4
FullNghs:           92 ave          92 max          92 min
Histogram: 8 0 0 0 0 0 0 0 0 0

Total # of neighbors = 736
Ave neighs/atom = 92
Neighbor list builds = 0
Dangerous builds = 0
variable  natoms equal "count(all)"
variable xlength equal "lx"
variable  volume equal "vol"
variable  etotal equal "etotal"
variable    ecoh equal "pe/v_natoms"
print "${xlength}, ${volume}, ${etotal}, ${ecoh}" append lattice_cohesive_energy.txt screen no

next i
jump SELF loop

change_box all x scale 1.0025 y scale 1.0025 z scale 1.0025 remap
Changing box ...
  orthogonal box = (-0.89909339 -0.89298592 -0.89298592) to (3.9990934 3.9929859 3.9929859)
  orthogonal box = (-0.89909339 -0.89909339 -0.89298592) to (3.9990934 3.9990934 3.9929859)
  orthogonal box = (-0.89909339 -0.89909339 -0.89909339) to (3.9990934 3.9990934 3.9990934)

run 1
WARNING: No fixes with time integration, atoms won't move (src/verlet.cpp:60)
Per MPI rank memory allocation (min/avg/max) = 8.579 | 8.581 | 8.597 Mbytes
   Step         PotEng         TotEng           Lx             Ly             Lz           Volume         Press           Pxx            Pyy            Pzz      
       614  -37.197106     -37.197106      4.8981868      4.8981868      4.8981868      117.51844      5238.3464      5238.3464      5238.3464      5238.3464    
       615  -37.197106     -37.197106      4.8981868      4.8981868      4.8981868      117.51844      5238.3464      5238.3464      5238.3464      5238.3464    
Loop time of 0.000126375 on 8 procs for 1 steps with 8 atoms

Performance: 683.680 ns/day, 0.035 hours/ns, 7912.957 timesteps/s, 63.304 katom-step/s
0.0% CPU use with 8 MPI tasks x 1 OpenMP threads

MPI task timing breakdown:
Section |  min time  |  avg time  |  max time  |%varavg| %total
---------------------------------------------------------------
Pair    | 7.9e-05    | 8.1375e-05 | 8.4e-05    |   0.0 | 64.39
Neigh   | 0          | 0          | 0          |   0.0 |  0.00
Comm    | 1.9e-05    | 2.1375e-05 | 2.4e-05    |   0.0 | 16.91
Output  | 1.4e-05    | 1.575e-05  | 1.9e-05    |   0.0 | 12.46
Modify  | 0          | 6.25e-07   | 2e-06      |   0.0 |  0.49
Other   |            | 7.25e-06   |            |       |  5.74

Nlocal:              1 ave           1 max           1 min
Histogram: 8 0 0 0 0 0 0 0 0 0
Nghost:            215 ave         215 max         215 min
Histogram: 8 0 0 0 0 0 0 0 0 0
Neighs:             46 ave          52 max          40 min
Histogram: 4 0 0 0 0 0 0 0 0 4
FullNghs:           92 ave          92 max          92 min
Histogram: 8 0 0 0 0 0 0 0 0 0

Total # of neighbors = 736
Ave neighs/atom = 92
Neighbor list builds = 0
Dangerous builds = 0
variable  natoms equal "count(all)"
variable xlength equal "lx"
variable  volume equal "vol"
variable  etotal equal "etotal"
variable    ecoh equal "pe/v_natoms"
print "${xlength}, ${volume}, ${etotal}, ${ecoh}" append lattice_cohesive_energy.txt screen no

next i
jump SELF loop

change_box all x scale 1.0025 y scale 1.0025 z scale 1.0025 remap
Changing box ...
  orthogonal box = (-0.90521612 -0.89909339 -0.89909339) to (4.0052161 3.9990934 3.9990934)
  orthogonal box = (-0.90521612 -0.90521612 -0.89909339) to (4.0052161 4.0052161 3.9990934)
  orthogonal box = (-0.90521612 -0.90521612 -0.90521612) to (4.0052161 4.0052161 4.0052161)

run 1
WARNING: No fixes with time integration, atoms won't move (src/verlet.cpp:60)
Per MPI rank memory allocation (min/avg/max) = 8.579 | 8.581 | 8.597 Mbytes
   Step         PotEng         TotEng           Lx             Ly             Lz           Volume         Press           Pxx            Pyy            Pzz      
       615  -37.198141     -37.198141      4.9104322      4.9104322      4.9104322      118.40204     -1448.6655     -1448.6655     -1448.6655     -1448.6655    
       616  -37.198141     -37.198141      4.9104322      4.9104322      4.9104322      118.40204     -1448.6655     -1448.6655     -1448.6655     -1448.6655    
Loop time of 0.000133625 on 8 procs for 1 steps with 8 atoms

Performance: 646.586 ns/day, 0.037 hours/ns, 7483.630 timesteps/s, 59.869 katom-step/s
0.0% CPU use with 8 MPI tasks x 1 OpenMP threads

MPI task timing breakdown:
Section |  min time  |  avg time  |  max time  |%varavg| %total
---------------------------------------------------------------
Pair    | 7.8e-05    | 8.0875e-05 | 8.3e-05    |   0.0 | 60.52
Neigh   | 0          | 0          | 0          |   0.0 |  0.00
Comm    | 1.8e-05    | 2.0625e-05 | 2.3e-05    |   0.0 | 15.43
Output  | 1.3e-05    | 1.6375e-05 | 2.8e-05    |   0.0 | 12.25
Modify  | 0          | 0          | 0          |   0.0 |  0.00
Other   |            | 1.575e-05  |            |       | 11.79

Nlocal:              1 ave           1 max           1 min
Histogram: 8 0 0 0 0 0 0 0 0 0
Nghost:            215 ave         215 max         215 min
Histogram: 8 0 0 0 0 0 0 0 0 0
Neighs:             46 ave          52 max          40 min
Histogram: 4 0 0 0 0 0 0 0 0 4
FullNghs:           92 ave          92 max          92 min
Histogram: 8 0 0 0 0 0 0 0 0 0

Total # of neighbors = 736
Ave neighs/atom = 92
Neighbor list builds = 0
Dangerous builds = 0
variable  natoms equal "count(all)"
variable xlength equal "lx"
variable  volume equal "vol"
variable  etotal equal "etotal"
variable    ecoh equal "pe/v_natoms"
print "${xlength}, ${volume}, ${etotal}, ${ecoh}" append lattice_cohesive_energy.txt screen no

next i
jump SELF loop
[...]
Section |  min time  |  avg time  |  max time  |%varavg| %total
---------------------------------------------------------------
Pair    | 7.7e-05    | 8.0625e-05 | 8.4e-05    |   0.0 | 64.18
Neigh   | 0          | 0          | 0          |   0.0 |  0.00
Comm    | 1.9e-05    | 2.2e-05    | 2.6e-05    |   0.0 | 17.51
Output  | 1.4e-05    | 1.575e-05  | 1.7e-05    |   0.0 | 12.54
Modify  | 0          | 3.75e-07   | 1e-06      |   0.0 |  0.30
Other   |            | 6.875e-06  |            |       |  5.47

Nlocal:              1 ave           1 max           1 min
Histogram: 8 0 0 0 0 0 0 0 0 0
Nghost:            215 ave         215 max         215 min
Histogram: 8 0 0 0 0 0 0 0 0 0
Neighs:             40 ave          46 max          34 min
Histogram: 2 0 0 0 1 3 0 0 0 2
FullNghs:           80 ave          80 max          80 min
Histogram: 8 0 0 0 0 0 0 0 0 0

Total # of neighbors = 640
Ave neighs/atom = 80
Neighbor list builds = 0
Dangerous builds = 0
variable  natoms equal "count(all)"
variable xlength equal "lx"
variable  volume equal "vol"
variable  etotal equal "etotal"
variable    ecoh equal "pe/v_natoms"
print "${xlength}, ${volume}, ${etotal}, ${ecoh}" append lattice_cohesive_energy.txt screen no

next i
jump SELF loop

change_box all x scale 1.0025 y scale 1.0025 z scale 1.0025 remap
Changing box ...
  orthogonal box = (-1.0180802 -1.0116761 -1.0116761) to (4.1180802 4.1116761 4.1116761)
  orthogonal box = (-1.0180802 -1.0180802 -1.0116761) to (4.1180802 4.1180802 4.1116761)
  orthogonal box = (-1.0180802 -1.0180802 -1.0180802) to (4.1180802 4.1180802 4.1180802)

run 1
WARNING: No fixes with time integration, atoms won't move (src/verlet.cpp:60)
Per MPI rank memory allocation (min/avg/max) = 8.579 | 8.581 | 8.597 Mbytes
   Step         PotEng         TotEng           Lx             Ly             Lz           Volume         Press           Pxx            Pyy            Pzz      
       633  -36.6324       -36.6324        5.1361605      5.1361605      5.1361605      135.49266     -94382.621     -94382.621     -94382.621     -94382.621    
       634  -36.6324       -36.6324        5.1361605      5.1361605      5.1361605      135.49266     -94382.621     -94382.621     -94382.621     -94382.621    
Loop time of 0.000124625 on 8 procs for 1 steps with 8 atoms

Performance: 693.280 ns/day, 0.035 hours/ns, 8024.072 timesteps/s, 64.193 katom-step/s
0.0% CPU use with 8 MPI tasks x 1 OpenMP threads

MPI task timing breakdown:
Section |  min time  |  avg time  |  max time  |%varavg| %total
---------------------------------------------------------------
Pair    | 8e-05      | 8.125e-05  | 8.3e-05    |   0.0 | 65.20
Neigh   | 0          | 0          | 0          |   0.0 |  0.00
Comm    | 1.9e-05    | 2.05e-05   | 2.3e-05    |   0.0 | 16.45
Output  | 1.4e-05    | 1.575e-05  | 1.7e-05    |   0.0 | 12.64
Modify  | 0          | 1.25e-07   | 1e-06      |   0.0 |  0.10
Other   |            | 7e-06      |            |       |  5.62

Nlocal:              1 ave           1 max           1 min
Histogram: 8 0 0 0 0 0 0 0 0 0
Nghost:            215 ave         215 max         215 min
Histogram: 8 0 0 0 0 0 0 0 0 0
Neighs:             40 ave          46 max          34 min
Histogram: 2 0 0 0 1 3 0 0 0 2
FullNghs:           80 ave          80 max          80 min
Histogram: 8 0 0 0 0 0 0 0 0 0

Total # of neighbors = 640
Ave neighs/atom = 80
Neighbor list builds = 0
Dangerous builds = 0
variable  natoms equal "count(all)"
variable xlength equal "lx"
variable  volume equal "vol"
variable  etotal equal "etotal"
variable    ecoh equal "pe/v_natoms"
print "${xlength}, ${volume}, ${etotal}, ${ecoh}" append lattice_cohesive_energy.txt screen no

next i
jump SELF loop

change_box all x scale 1.0025 y scale 1.0025 z scale 1.0025 remap
Changing box ...
  orthogonal box = (-1.0245004 -1.0180802 -1.0180802) to (4.1245004 4.1180802 4.1180802)
  orthogonal box = (-1.0245004 -1.0245004 -1.0180802) to (4.1245004 4.1245004 4.1180802)
  orthogonal box = (-1.0245004 -1.0245004 -1.0245004) to (4.1245004 4.1245004 4.1245004)

run 1
WARNING: No fixes with time integration, atoms won't move (src/verlet.cpp:60)
Per MPI rank memory allocation (min/avg/max) = 8.579 | 8.581 | 8.597 Mbytes
   Step         PotEng         TotEng           Lx             Ly             Lz           Volume         Press           Pxx            Pyy            Pzz      
       634  -36.571168     -36.571168      5.1490009      5.1490009      5.1490009      136.51139     -98193.476     -98193.476     -98193.476     -98193.476    
       635  -36.571168     -36.571168      5.1490009      5.1490009      5.1490009      136.51139     -98193.476     -98193.476     -98193.476     -98193.476    
Loop time of 0.000120875 on 8 procs for 1 steps with 8 atoms

Performance: 714.788 ns/day, 0.034 hours/ns, 8273.009 timesteps/s, 66.184 katom-step/s
0.0% CPU use with 8 MPI tasks x 1 OpenMP threads

MPI task timing breakdown:
Section |  min time  |  avg time  |  max time  |%varavg| %total
---------------------------------------------------------------
Pair    | 7.6e-05    | 7.825e-05  | 8.1e-05    |   0.0 | 64.74
Neigh   | 0          | 0          | 0          |   0.0 |  0.00
Comm    | 1.8e-05    | 2.05e-05   | 2.3e-05    |   0.0 | 16.96
Output  | 1.4e-05    | 1.5375e-05 | 1.7e-05    |   0.0 | 12.72
Modify  | 0          | 2.5e-07    | 1e-06      |   0.0 |  0.21
Other   |            | 6.5e-06    |            |       |  5.38

Nlocal:              1 ave           1 max           1 min
Histogram: 8 0 0 0 0 0 0 0 0 0
Nghost:            215 ave         215 max         215 min
Histogram: 8 0 0 0 0 0 0 0 0 0
Neighs:             40 ave          46 max          34 min
Histogram: 2 0 0 0 1 3 0 0 0 2
FullNghs:           80 ave          80 max          80 min
Histogram: 8 0 0 0 0 0 0 0 0 0

Total # of neighbors = 640
Ave neighs/atom = 80
Neighbor list builds = 0
Dangerous builds = 0
variable  natoms equal "count(all)"
variable xlength equal "lx"
variable  volume equal "vol"
variable  etotal equal "etotal"
variable    ecoh equal "pe/v_natoms"
print "${xlength}, ${volume}, ${etotal}, ${ecoh}" append lattice_cohesive_energy.txt screen no

next i
jump SELF loop

change_box all x scale 1.0025 y scale 1.0025 z scale 1.0025 remap
Changing box ...
  orthogonal box = (-1.0309367 -1.0245004 -1.0245004) to (4.1309367 4.1245004 4.1245004)
  orthogonal box = (-1.0309367 -1.0309367 -1.0245004) to (4.1309367 4.1309367 4.1245004)
  orthogonal box = (-1.0309367 -1.0309367 -1.0309367) to (4.1309367 4.1309367 4.1309367)

run 1
WARNING: No fixes with time integration, atoms won't move (src/verlet.cpp:60)
Per MPI rank memory allocation (min/avg/max) = 8.579 | 8.581 | 8.597 Mbytes
   Step         PotEng         TotEng           Lx             Ly             Lz           Volume         Press           Pxx            Pyy            Pzz      
       635  -36.507074     -36.507074      5.1618734      5.1618734      5.1618734      137.53779     -101878.89     -101878.89     -101878.89     -101878.89    
       636  -36.507074     -36.507074      5.1618734      5.1618734      5.1618734      137.53779     -101878.89     -101878.89     -101878.89     -101878.89    
Loop time of 0.000123 on 8 procs for 1 steps with 8 atoms

Performance: 702.439 ns/day, 0.034 hours/ns, 8130.081 timesteps/s, 65.041 katom-step/s
0.0% CPU use with 8 MPI tasks x 1 OpenMP threads

MPI task timing breakdown:
Section |  min time  |  avg time  |  max time  |%varavg| %total
---------------------------------------------------------------
Pair    | 7.8e-05    | 8e-05      | 8.2e-05    |   0.0 | 65.04
Neigh   | 0          | 0          | 0          |   0.0 |  0.00
Comm    | 1.9e-05    | 2.1e-05    | 2.4e-05    |   0.0 | 17.07
Output  | 1.4e-05    | 1.525e-05  | 1.7e-05    |   0.0 | 12.40
Modify  | 0          | 1.25e-07   | 1e-06      |   0.0 |  0.10
Other   |            | 6.625e-06  |            |       |  5.39

Nlocal:              1 ave           1 max           1 min
Histogram: 8 0 0 0 0 0 0 0 0 0
Nghost:            215 ave         215 max         215 min
Histogram: 8 0 0 0 0 0 0 0 0 0
Neighs:             40 ave          46 max          34 min
Histogram: 2 0 0 0 1 3 0 0 0 2
FullNghs:           80 ave          80 max          80 min
Histogram: 8 0 0 0 0 0 0 0 0 0

Total # of neighbors = 640
Ave neighs/atom = 80
Neighbor list builds = 0
Dangerous builds = 0
variable  natoms equal "count(all)"
variable xlength equal "lx"
variable  volume equal "vol"
variable  etotal equal "etotal"
variable    ecoh equal "pe/v_natoms"
print "${xlength}, ${volume}, ${etotal}, ${ecoh}" append lattice_cohesive_energy.txt screen no

next i
jump SELF loop

change_box all x scale 1.0025 y scale 1.0025 z scale 1.0025 remap
Changing box ...
  orthogonal box = (-1.037389 -1.0309367 -1.0309367) to (4.137389 4.1309367 4.1309367)
  orthogonal box = (-1.037389 -1.037389 -1.0309367) to (4.137389 4.137389 4.1309367)
  orthogonal box = (-1.037389 -1.037389 -1.037389) to (4.137389 4.137389 4.137389)

run 1
WARNING: No fixes with time integration, atoms won't move (src/verlet.cpp:60)
Per MPI rank memory allocation (min/avg/max) = 8.579 | 8.581 | 8.597 Mbytes
   Step         PotEng         TotEng           Lx             Ly             Lz           Volume         Press           Pxx            Pyy            Pzz      
       636  -36.440159     -36.440159      5.1747781      5.1747781      5.1747781      138.57191     -105441.22     -105441.22     -105441.22     -105441.22    
       637  -36.440159     -36.440159      5.1747781      5.1747781      5.1747781      138.57191     -105441.22     -105441.22     -105441.22     -105441.22    
Loop time of 0.0002635 on 8 procs for 1 steps with 8 atoms

Performance: 327.894 ns/day, 0.073 hours/ns, 3795.066 timesteps/s, 30.361 katom-step/s
0.0% CPU use with 8 MPI tasks x 1 OpenMP threads

MPI task timing breakdown:
Section |  min time  |  avg time  |  max time  |%varavg| %total
---------------------------------------------------------------
Pair    | 9.5e-05    | 0.00012825 | 0.000214   |   0.0 | 48.67
Neigh   | 0          | 0          | 0          |   0.0 |  0.00
Comm    | 2.2e-05    | 0.000107   | 0.00014    |   0.0 | 40.61
Output  | 1.7e-05    | 1.8875e-05 | 2.1e-05    |   0.0 |  7.16
Modify  | 0          | 2.5e-07    | 1e-06      |   0.0 |  0.09
Other   |            | 9.125e-06  |            |       |  3.46

Nlocal:              1 ave           1 max           1 min
Histogram: 8 0 0 0 0 0 0 0 0 0
Nghost:            215 ave         215 max         215 min
Histogram: 8 0 0 0 0 0 0 0 0 0
Neighs:             40 ave          46 max          34 min
Histogram: 2 0 0 0 1 3 0 0 0 2
FullNghs:           80 ave          80 max          80 min
Histogram: 8 0 0 0 0 0 0 0 0 0

Total # of neighbors = 640
Ave neighs/atom = 80
Neighbor list builds = 0
Dangerous builds = 0
variable  natoms equal "count(all)"
variable xlength equal "lx"
variable  volume equal "vol"
variable  etotal equal "etotal"
variable    ecoh equal "pe/v_natoms"
print "${xlength}, ${volume}, ${etotal}, ${ecoh}" append lattice_cohesive_energy.txt screen no

next i
jump SELF loop

change_box all x scale 1.0025 y scale 1.0025 z scale 1.0025 remap
Changing box ...
  orthogonal box = (-1.0438575 -1.037389 -1.037389) to (4.1438575 4.137389 4.137389)
  orthogonal box = (-1.0438575 -1.0438575 -1.037389) to (4.1438575 4.1438575 4.137389)
  orthogonal box = (-1.0438575 -1.0438575 -1.0438575) to (4.1438575 4.1438575 4.1438575)

run 1
WARNING: No fixes with time integration, atoms won't move (src/verlet.cpp:60)
Per MPI rank memory allocation (min/avg/max) = 8.579 | 8.581 | 8.597 Mbytes
   Step         PotEng         TotEng           Lx             Ly             Lz           Volume         Press           Pxx            Pyy            Pzz      
       637  -36.370464     -36.370464      5.187715       5.187715       5.187715       139.6138      -108882.8      -108882.8      -108882.8      -108882.8     
       638  -36.370464     -36.370464      5.187715       5.187715       5.187715       139.6138      -108882.8      -108882.8      -108882.8      -108882.8     
Loop time of 0.000145 on 8 procs for 1 steps with 8 atoms

Performance: 595.862 ns/day, 0.040 hours/ns, 6896.552 timesteps/s, 55.172 katom-step/s
0.0% CPU use with 8 MPI tasks x 1 OpenMP threads

MPI task timing breakdown:
Section |  min time  |  avg time  |  max time  |%varavg| %total
---------------------------------------------------------------
Pair    | 8.6e-05    | 9.075e-05  | 9.6e-05    |   0.0 | 62.59
Neigh   | 0          | 0          | 0          |   0.0 |  0.00
Comm    | 2.1e-05    | 2.65e-05   | 3.3e-05    |   0.0 | 18.28
Output  | 1.6e-05    | 1.85e-05   | 2.1e-05    |   0.0 | 12.76
Modify  | 0          | 1.25e-07   | 1e-06      |   0.0 |  0.09
Other   |            | 9.125e-06  |            |       |  6.29

Nlocal:              1 ave           1 max           1 min
Histogram: 8 0 0 0 0 0 0 0 0 0
Nghost:            215 ave         215 max         215 min
Histogram: 8 0 0 0 0 0 0 0 0 0
Neighs:             40 ave          46 max          34 min
Histogram: 2 0 0 0 1 3 0 0 0 2
FullNghs:           80 ave          80 max          80 min
Histogram: 8 0 0 0 0 0 0 0 0 0

Total # of neighbors = 640
Ave neighs/atom = 80
Neighbor list builds = 0
Dangerous builds = 0
variable  natoms equal "count(all)"
variable xlength equal "lx"
variable  volume equal "vol"
variable  etotal equal "etotal"
variable    ecoh equal "pe/v_natoms"
print "${xlength}, ${volume}, ${etotal}, ${ecoh}" append lattice_cohesive_energy.txt screen no

next i
jump SELF loop

change_box all x scale 1.0025 y scale 1.0025 z scale 1.0025 remap
Changing box ...
  orthogonal box = (-1.0503422 -1.0438575 -1.0438575) to (4.1503422 4.1438575 4.1438575)
  orthogonal box = (-1.0503422 -1.0503422 -1.0438575) to (4.1503422 4.1503422 4.1438575)
  orthogonal box = (-1.0503422 -1.0503422 -1.0503422) to (4.1503422 4.1503422 4.1503422)

run 1
WARNING: No fixes with time integration, atoms won't move (src/verlet.cpp:60)
Per MPI rank memory allocation (min/avg/max) = 8.579 | 8.581 | 8.597 Mbytes
   Step         PotEng         TotEng           Lx             Ly             Lz           Volume         Press           Pxx            Pyy            Pzz      
       638  -36.298029     -36.298029      5.2006843      5.2006843      5.2006843      140.66352     -112205.91     -112205.91     -112205.91     -112205.91    
       639  -36.298029     -36.298029      5.2006843      5.2006843      5.2006843      140.66352     -112205.91     -112205.91     -112205.91     -112205.91    
Loop time of 0.000125125 on 8 procs for 1 steps with 8 atoms

Performance: 690.509 ns/day, 0.035 hours/ns, 7992.008 timesteps/s, 63.936 katom-step/s
0.0% CPU use with 8 MPI tasks x 1 OpenMP threads

MPI task timing breakdown:
Section |  min time  |  avg time  |  max time  |%varavg| %total
---------------------------------------------------------------
Pair    | 7.9e-05    | 8.1125e-05 | 8.4e-05    |   0.0 | 64.84
Neigh   | 0          | 0          | 0          |   0.0 |  0.00
Comm    | 1.8e-05    | 2.075e-05  | 2.4e-05    |   0.0 | 16.58
Output  | 1.5e-05    | 1.5625e-05 | 1.8e-05    |   0.0 | 12.49
Modify  | 0          | 8.75e-07   | 2e-06      |   0.0 |  0.70
Other   |            | 6.75e-06   |            |       |  5.39

Nlocal:              1 ave           1 max           1 min
Histogram: 8 0 0 0 0 0 0 0 0 0
Nghost:            215 ave         215 max         215 min
Histogram: 8 0 0 0 0 0 0 0 0 0
Neighs:             40 ave          46 max          34 min
Histogram: 2 0 0 0 1 3 0 0 0 2
FullNghs:           80 ave          80 max          80 min
Histogram: 8 0 0 0 0 0 0 0 0 0

Total # of neighbors = 640
Ave neighs/atom = 80
Neighbor list builds = 0
Dangerous builds = 0
variable  natoms equal "count(all)"
variable xlength equal "lx"
variable  volume equal "vol"
variable  etotal equal "etotal"
variable    ecoh equal "pe/v_natoms"
print "${xlength}, ${volume}, ${etotal}, ${ecoh}" append lattice_cohesive_energy.txt screen no

next i
jump SELF loop

change_box all x scale 1.0025 y scale 1.0025 z scale 1.0025 remap
Changing box ...
  orthogonal box = (-1.056843 -1.0503422 -1.0503422) to (4.156843 4.1503422 4.1503422)
  orthogonal box = (-1.056843 -1.056843 -1.0503422) to (4.156843 4.156843 4.1503422)
  orthogonal box = (-1.056843 -1.056843 -1.056843) to (4.156843 4.156843 4.156843)

run 1
WARNING: No fixes with time integration, atoms won't move (src/verlet.cpp:60)
Per MPI rank memory allocation (min/avg/max) = 8.579 | 8.581 | 8.597 Mbytes
   Step         PotEng         TotEng           Lx             Ly             Lz           Volume         Press           Pxx            Pyy            Pzz      
       639  -36.222895     -36.222895      5.213686       5.213686       5.213686       141.72113     -115412.83     -115412.83     -115412.83     -115412.83    
       640  -36.222895     -36.222895      5.213686       5.213686       5.213686       141.72113     -115412.83     -115412.83     -115412.83     -115412.83    
Loop time of 0.000128625 on 8 procs for 1 steps with 8 atoms

Performance: 671.720 ns/day, 0.036 hours/ns, 7774.538 timesteps/s, 62.196 katom-step/s
0.0% CPU use with 8 MPI tasks x 1 OpenMP threads

MPI task timing breakdown:
Section |  min time  |  avg time  |  max time  |%varavg| %total
---------------------------------------------------------------
Pair    | 7.7e-05    | 8.175e-05  | 8.6e-05    |   0.0 | 63.56
Neigh   | 0          | 0          | 0          |   0.0 |  0.00
Comm    | 2e-05      | 2.325e-05  | 2.9e-05    |   0.0 | 18.08
Output  | 1.4e-05    | 1.65e-05   | 1.8e-05    |   0.0 | 12.83
Modify  | 0          | 1.25e-07   | 1e-06      |   0.0 |  0.10
Other   |            | 7e-06      |            |       |  5.44

Nlocal:              1 ave           1 max           1 min
Histogram: 8 0 0 0 0 0 0 0 0 0
Nghost:            215 ave         215 max         215 min
Histogram: 8 0 0 0 0 0 0 0 0 0
Neighs:             40 ave          46 max          34 min
Histogram: 2 0 0 0 1 3 0 0 0 2
FullNghs:           80 ave          80 max          80 min
Histogram: 8 0 0 0 0 0 0 0 0 0

Total # of neighbors = 640
Ave neighs/atom = 80
Neighbor list builds = 0
Dangerous builds = 0
variable  natoms equal "count(all)"
variable xlength equal "lx"
variable  volume equal "vol"
variable  etotal equal "etotal"
variable    ecoh equal "pe/v_natoms"
print "${xlength}, ${volume}, ${etotal}, ${ecoh}" append lattice_cohesive_energy.txt screen no

next i
jump SELF loop

print "-------------------------------------------------------------"
-------------------------------------------------------------
print "Show results of 1st step (Running Minimization)"
Show results of 1st step (Running Minimization)
print "The number of atoms = ${natoms};"
The number of atoms = 8;
print "The lattice constant, x (Angstoms) = ${x0};"
The lattice constant, x (Angstoms) = 5.21368602426317;
print "The lattice constant, y (Angstoms) = ${y0};"
The lattice constant, y (Angstoms) = 5.21368602426317;
print "The lattice constant, z (Angstoms) = ${z0};"
The lattice constant, z (Angstoms) = 5.21368602426317;
print "The volume (Angstoms^3) = ${v0};"
The volume (Angstoms^3) = 141.721134844978;
print "The total energy (eV) = ${etot0};"
The total energy (eV) = -36.222894690787;
print "The cohesive energy (eV/atom) = ${ecoh0};"
The cohesive energy (eV/atom) = -4.52786183634837;
print "-------------------------------------------------------------"
-------------------------------------------------------------
print "Simulations completed !"
Simulations completed !
Total wall time: 0:00:00
