ITEM: TIMESTEP
0
ITEM: NUMBER OF ATOMS
6000
ITEM: BOX BOUNDS pp pp pp
2.8722627384215826e-02 2.7312277372615171e+01
3.4035508304741668e-02 2.7306964491694810e+01
9.6982605279698930e-02 1.0926701739472097e+02
ITEM: ATOMS id type x y z c_peratom fx fy fz 
122 3 5.79392 5.51151 5.23895 -28.2455 0.380292 -0.971401 0.776175 
601 3 5.8715 2.74693 2.30548 -27.0227 -0.506521 -1.2304 0.0120732 
602 2 5.23403 2.99813 8.12993 -24.9337 1.89417 -2.30231 -0.963709 
1021 3 3.13751 5.72793 2.59449 -28.7939 -0.309423 -1.55185 1.26043 
1022 2 2.95972 5.35895 8.28267 -25.4943 -1.65711 0.495342 -1.27564 
1502 2 3.05449 2.4226 5.059 -25.7502 -0.00919417 2.46885 3.72924 
4502 1 1.78696 4.20844 4.28456 -6.83301 -1.3591 0.53114 -0.637866 
2601 1 4.16961 1.93728 3.30221 -7.96238 1.79969 0.566463 1.15928 
3481 1 4.47706 4.12466 1.37101 -8.05806 -0.0885578 -1.10088 1.54285 
4601 1 3.25249 3.38 7.24481 -6.79129 -0.542418 -0.0534394 -0.562726 
5541 1 4.3297 4.27615 4.73681 -5.87703 1.08636 -2.83416 -0.271583 
4440 1 1.99791 1.91703 1.60987 -7.53527 -1.85862 -1.0805 1.0937 
4921 1 1.32604 1.6284 3.99733 -7.64288 -0.00278087 -1.95282 0.557143 
4682 1 2.3122 6.42998 6.43417 -6.99965 1.85707 0.634168 -0.432131 
3501 1 1.85306 4.61857 1.43437 -7.80035 1.23401 -1.2774 1.28821 
2022 1 0.681585 4.9525 7.43788 -5.78537 0.466792 -1.29521 -0.0927499 
4402 1 1.52453 1.43294 6.89892 -7.50087 -2.29498 -0.446017 0.667883 
2102 1 5.74918 2.28056 6.25073 -7.34903 -0.11997 -0.832672 -3.09304 
2 2 0.459554 0.0790798 5.46924 -24.5387 1.12019 0.122825 0.15827 
501 3 0.127737 2.95597 2.80452 -28.9385 1.2779 0.382191 0.832721 
5101 1 4.45557 6.39604 3.87363 -7.37722 1.97468 3.3635 -1.06575 
5002 1 4.31578 6.76792 1.0725 -7.73253 0.723204 0.984708 0.180664 
4160 1 6.75258 6.12326 1.71517 -7.475 -2.29451 3.04374 2.63595 
4022 1 5.29839 5.32503 7.28694 -7.54107 0.470014 1.55537 -0.281156 
1001 3 3.2538 0.446826 2.34977 -28.0812 -2.21068 -0.531591 -0.00194797 
2801 1 3.7575 0.19741 6.00334 -6.73653 0.731976 1.50404 -0.729858 
3702 1 6.41446 0.716023 8.65193 -7.06649 -2.29898 1.25717 -0.0889747 
502 2 0.288617 2.92213 8.36789 -25.3213 3.15899 1.93758 1.5066 
3081 1 4.77121 1.20469 0.954826 -8.28831 0.459259 0.893885 -1.74559 
22 3 0.546698 5.8782 5.22834 -29.4505 -0.754679 -1.62811 1.32951 
3601 1 7.62582 1.47165 0.603784 -7.61389 0.905226 -0.0851042 1.81551 
3621 1 8.14317 4.70452 6.1168 -7.05375 -0.277897 1.82247 0.805995 
5601 1 10.4802 1.03906 1.65032 -8.27257 -3.54653 1.80514 0.32925 
2621 1 7.07205 3.98365 0.794647 -8.13632 0.721492 -2.96664 1.08183 
4101 1 7.08224 4.11282 3.98341 -8.92098 -0.748375 -0.698055 -3.45384 
2600 1 7.15306 1.1681 3.63543 -7.78087 -0.0849255 2.56814 -0.370217 
2121 1 9.89494 3.87777 1.18648 -7.89499 -2.35013 -1.99258 -0.839177 
5721 1 12.3098 4.19538 5.08839 -7.80651 1.68749 0.320576 -1.18458 
222 2 10.4405 5.21694 5.44401 -24.3516 -1.93449 0.38436 -2.63347 
701 3 11.1392 2.84617 2.59161 -28.0835 -0.749371 -2.04025 1.05849 
702 2 11.5074 2.9806 8.01287 -24.4218 -0.968174 -1.08924 0.162635 
1121 3 8.194 5.02303 2.38524 -26.945 2.9068 0.259752 -0.423567 
1122 2 8.72688 5.37815 8.62249 -24.1438 -0.528915 -1.2998 -3.88439 
1602 3 8.14502 2.77157 5.46689 -28.5745 0.29818 0.909855 -0.247233 
2701 1 13.0229 0.970632 1.34864 -7.02113 1.59622 1.93792 -1.67682 
2222 1 12.6125 1.22938 4.02971 -7.70789 0.0503586 2.38039 2.21668 
3122 1 9.82235 3.42397 3.87709 -7.88637 -3.21845 -0.101098 -0.440303 
2620 1 10.9789 5.64073 2.88583 -6.73952 -0.726074 2.67459 0.810268 
3101 1 10.1211 3.22741 6.36171 -6.95401 0.303371 -1.35461 1.14537 
5220 1 12.4835 3.84677 2.01539 -7.04541 4.22666 -1.08715 0.276788 
4201 1 12.3331 1.19634 6.9596 -8.37418 1.217 1.149 -1.16641 
3620 1 9.9612 1.51103 8.61627 -7.45352 -2.11153 -0.868263 2.36034 
2622 1 11.0665 5.41425 7.52504 -8.37125 -0.542552 1.30266 0.21664 
2101 1 9.03022 6.27522 0.892552 -7.75727 2.22109 2.41649 0.0217409 
5622 1 12.3668 6.64154 0.312212 -7.57152 -0.1513 -0.365441 0.969008 
2561 1 7.98878 1.2209 6.45456 -7.25131 0.675945 -3.03641 -0.308969 
5603 1 7.44941 3.38694 8.53116 -7.65041 -0.183104 0.756259 1.37272 
1222 3 13.6624 5.7732 8.35058 -28.0695 1.75346 -0.494826 -1.55699 
3102 1 10.0667 0.0893576 4.40999 -6.68796 0.298489 0.636035 -0.417749 
1101 3 8.79529 0.0583718 2.57792 -28.2208 -1.39156 -0.495281 2.21152 
2042 1 1.92767 7.1209 3.89618 -8.2142 -2.03999 -0.574207 -0.780517 
5020 1 2.00214 7.24508 1.32105 -8.51174 -4.17245 0.517179 0.137872 
5059 1 1.73612 10.0478 0.741351 -7.3282 -1.01211 -0.881228 0.211479 
5421 1 2.04146 8.77349 7.85061 -7.38052 0.386021 1.22388 1.0108 
2521 1 1.34209 12.6695 1.43945 -7.62093 -1.64432 -0.868966 1.33871 
2541 1 4.18754 12.2787 3.82633 -7.66673 1.44102 0.929009 -0.261873 
3022 1 3.9851 9.35329 3.90441 -6.57021 0.13665 -1.1768 -0.314687 
142 2 5.75415 10.7824 5.79065 -23.6837 -0.575471 -1.93785 -2.05774 
621 2 5.73547 7.91853 2.7843 -25.0182 -1.51652 1.66508 0.202931 
622 2 6.04637 8.11737 8.17611 -23.0398 -0.0805933 0.368195 -0.346584 
1041 3 2.95111 10.6811 2.6884 -29.224 -0.230878 1.55999 0.204636 
1042 3 2.38332 10.8829 8.06998 -27.6073 0.851212 0.843675 2.23862 
1522 2 2.71762 8.38987 5.5374 -25.2777 1.57696 -1.0023 -0.295584 
4060 1 4.10953 9.39164 1.41895 -7.88153 1.51185 -1.72832 -0.578017 
5922 1 1.2764 9.74377 3.6918 -8.24639 -0.369665 -0.882518 -0.766691 
5122 1 5.00576 8.64086 6.27804 -7.81638 -0.0373638 -0.603704 1.66417 
4461 1 2.82123 10.4791 5.94017 -8.08458 -1.37023 2.73613 2.4549 
3660 1 3.79435 11.9193 1.06458 -7.40883 1.68618 0.142206 1.44525 
3422 1 4.82639 12.4158 6.62259 -7.42406 -1.73124 1.44143 0.457915 
4622 1 6.63449 9.75149 3.86861 -8.13288 2.18897 2.52132 1.40359 
3742 1 6.68523 11.9947 1.32386 -8.37832 -1.94419 0.869446 -1.43713 
5021 1 0.446288 8.52647 6.00306 -7.90453 -1.75247 -0.305032 -0.309932 
1542 2 2.75276 13.4602 5.37778 -24.6865 2.4365 0.590415 -0.606167 
521 3 0.456253 8.28701 2.69322 -26.7732 -0.927615 -0.619793 0.0733895 
3442 1 1.41541 12.7419 6.94381 -8.52872 -1.48153 -2.29635 0.271224 
4543 1 3.42252 12.6113 9.09038 -7.9229 1.9376 -0.867063 -2.33721 
4603 1 4.1656 9.63844 8.97264 -7.96443 3.16016 1.65617 0.771075 
42 2 0.531647 10.8356 5.56106 -23.6059 -2.07057 -0.933991 -0.0940646 
3021 1 1.56658 12.1458 4.09444 -8.18809 -1.36078 1.60657 -0.316872 
141 2 5.28608 10.6299 0.119214 -23.8167 2.2459 2.29037 -1.61952 
1541 3 2.74539 13.4667 0.214956 -28.6062 -2.17091 0.140688 -2.8501 
1642 3 8.79906 13.5768 5.38767 -27.8826 -1.66082 0.63709 -1.81459 
4140 1 6.9489 7.20959 4.5439 -7.70006 -1.34522 -1.67976 -0.223605 
5140 1 9.46507 7.2776 4.35944 -7.02321 3.15234 -4.86554 -1.94162 
4623 1 8.85413 7.15126 7.04876 -7.14955 1.36432 -1.68859 1.53271 
2122 1 7.77057 12.1771 6.36195 -7.99071 -1.49362 -2.13512 0.256855 
5741 1 12.128 12.2558 1.54046 -8.42085 1.52251 -3.78281 -0.165941 
3722 1 12.8754 7.47583 3.28838 -8.34188 -0.865509 -1.27546 -0.0161251 
4161 1 7.67779 12.9858 3.64986 -6.79096 -4.00548 -0.500036 0.829504 
4122 1 12.9324 7.29063 6.36673 -7.55585 -1.80336 -1.2775 -0.180676 
2501 1 7.55329 9.29692 6.83272 -8.15123 -2.35129 3.3183 0.0858456 
5639 1 10.1755 8.99467 0.818471 -7.38972 -1.63489 -1.87983 4.09878 
4040 1 7.0354 9.07289 1.31302 -8.51969 -0.503924 0.442885 -0.0634792 
5640 1 9.52852 9.538 3.52431 -7.86325 -0.340472 3.08242 -1.84758 
5260 1 9.30737 11.6128 0.755691 -8.21904 0.193368 0.706699 -0.481376 
3641 1 10.3552 9.18128 5.95722 -7.68333 -1.66679 -1.28191 0.866389 
242 2 11.4116 10.8871 5.62048 -23.5611 2.10965 2.24303 1.18463 
721 3 10.8532 7.99655 2.60149 -27.6074 0.504651 -0.2491 -0.037044 
722 2 10.9968 7.90536 7.69841 -25.0346 0.757207 0.934093 1.6037 
1141 2 8.1279 11.1849 2.65344 -23.8897 2.14346 -2.32325 -0.16005 
1142 2 8.5978 11.0836 8.29372 -23.6847 0.322584 0.62835 -3.69151 
1622 3 8.43368 8.58666 5.23775 -28.424 -0.255914 -1.52242 -0.416617 
4721 1 12.8325 9.85288 4.2878 -8.30627 -0.350758 -0.88407 -0.555783 
3761 1 12.5486 12.4797 7.22486 -8.14735 0.112419 2.84057 -1.03978 
3043 1 9.97558 12.6538 3.69562 -7.75287 1.64031 -3.73176 3.02231 
5141 1 10.1997 12.0823 7.1558 -7.95657 -0.63415 -0.488637 -1.66005 
5221 1 12.4212 9.81822 7.31378 -6.50617 -1.43023 0.144969 1.35333 
741 3 11.2211 13.5241 2.64784 -27.5822 -1.97275 2.73829 -1.71268 
2740 1 12.5879 9.28916 1.32021 -7.5408 1.03618 2.71044 1.96343 
1742 2 13.6063 13.6264 5.63568 -24.0771 3.99644 1.9236 0.529 
5241 1 12.7024 12.2594 4.30229 -8.95371 -2.22008 1.38245 -0.549039 
1242 3 13.5761 11.2608 8.57505 -28.6784 -1.96345 -2.80968 1.4215 
5723 1 9.78721 9.52676 9.04648 -6.89835 2.31687 -2.21774 -0.00135008 
1241 3 13.6575 11.1487 2.8948 -27.3759 1.72833 -1.12216 -1.06256 
2502 1 4.43868 4.19365 9.58164 -7.96392 0.0818174 2.24194 3.78268 
503 3 0.391755 2.83323 13.8267 -28.1795 -2.36599 0.417143 1.1465 
4981 1 1.17901 1.37809 9.79894 -7.73431 1.982 2.77823 -1.67 
2504 1 4.24291 3.96036 17.9584 -8.17742 -0.165964 -0.253624 -1.95493 
4802 1 1.74058 1.13947 12.4249 -8.10496 0.0343838 1.30515 -1.81739 
2021 1 4.58265 4.44504 12.409 -7.61607 -1.7952 0.649944 1.09596 
4302 1 2.3877 1.78187 14.6848 -7.57988 -1.92127 3.0276 -1.95582 
4503 1 1.83473 4.18235 9.83065 -6.74325 0.760801 -0.55831 -1.16165 
123 2 5.50076 5.77986 10.8726 -23.6188 1.55384 -2.47941 2.23576 
124 3 5.59832 5.37883 16.3622 -28.738 0.291898 0.491322 0.652964 
603 2 5.53986 2.46152 13.8773 -24.2397 1.22292 -0.0710434 -2.45375 
1023 2 2.96507 5.38084 13.9528 -23.8226 4.61128 0.360809 -0.0148367 
1503 2 2.97583 2.72509 11.1474 -24.6693 -1.17557 0.85256 -1.82937 
1504 3 2.59604 2.72425 16.2512 -27.3436 1.86355 0.986283 2.84114 
23 2 0.514308 5.73431 11.4098 -24.8004 -3.74559 1.79349 -1.66202 
5523 1 4.41289 3.66476 15.1091 -8.64055 -1.52911 2.40985 1.50723 
4524 1 4.84498 1.97883 11.8051 -7.74544 1.39537 -2.31487 1.40067 
2503 1 1.69202 4.19172 15.3935 -8.03147 -0.106018 0.659326 -2.36521 
2583 1 1.59883 1.46597 17.488 -8.30856 -0.0949474 0.529734 1.39971 
3502 1 3.88234 1.45698 9.54439 -7.82521 -0.0836421 -1.73972 -1.29941 
4504 1 4.30731 1.32693 16.8557 -9.21851 -0.420765 1.43174 2.61394 
4404 1 3.57164 6.38026 16.389 -8.00783 0.206998 -3.00329 -0.659723 
4422 1 1.08696 6.14564 13.7628 -7.42856 -1.98777 2.1094 -1.07375 
5123 1 5.4562 6.43089 14.2784 -7.36365 0.768922 -3.27883 2.47863 
5503 1 1.4781 4.13299 12.1907 -8.37284 2.3593 -4.28206 5.14854 
5082 1 4.59361 0.428008 14.2462 -8.41052 0.751469 -1.99 -0.133063 
103 3 5.36423 0.186076 10.6925 -27.952 2.4559 1.84301 -1.78648 
4024 1 1.38516 4.1506 17.7985 -8.7538 1.04536 0.726864 1.22972 
3163 1 10.0022 1.67767 11.9085 -8.67778 0.275752 -0.854054 0.261024 
5623 1 7.59787 1.04178 10.8166 -7.8651 0.159484 -2.28563 0.21077 
1704 3 13.5632 2.89479 16.0444 -28.0709 3.30078 -1.16765 2.81896 
3104 1 7.14168 4.90102 17.7234 -6.42852 -2.11101 -2.06521 0.838606 
204 3 10.9772 0.273052 16.1159 -28.1116 1.83356 -1.09343 -0.00565381 
4224 1 12.6953 4.25566 17.7757 -7.1474 -2.52665 -1.62484 -3.04318 
2104 1 7.04059 1.79176 18.0627 -9.67874 -1.7271 0.143176 -0.966004 
3004 1 7.18689 4.32805 15.2489 -7.71789 0.449855 -1.19426 -2.0471 
2602 1 7.19468 6.56856 9.52396 -8.92854 -2.0201 2.40517 0.101205 
5083 1 7.0509 1.19162 14.8495 -8.02996 0.223564 -1.62227 4.15874 
2123 1 7.36694 4.4605 11.4673 -7.24864 -1.55547 1.84305 -0.527929 
4702 1 12.4217 1.44899 9.71479 -7.77628 0.685458 1.2691 0.729948 
4103 1 9.61524 4.0191 10.0569 -7.59225 3.19908 0.93943 -1.67806 
4562 1 7.5681 2.43954 12.9918 -6.89954 1.18165 2.10663 -0.819055 
2183 1 12.7905 4.01689 14.8054 -7.89764 -2.65153 -0.632757 -0.521352 
3624 1 12.9165 1.29862 16.8139 -6.60943 -2.41215 -0.640766 0.66969 
5282 1 9.89922 4.43463 12.6414 -7.48125 1.76344 -0.581578 1.18282 
1103 3 8.38766 0.571937 13.0284 -28.0638 -0.254573 0.276568 1.72102 
5102 1 12.3588 4.32063 9.47217 -8.51273 2.05327 0.00305523 1.91838 
4183 1 9.80352 1.41996 14.9474 -7.82106 -2.46408 1.17727 -0.323081 
2223 1 8.94106 6.59845 15.0676 -9.16259 -0.457889 -0.341718 -1.00654 
4683 1 10.1672 3.87387 15.204 -8.00987 -1.74769 1.58476 1.08051 
223 2 11.3289 5.62227 11.125 -24.0346 -2.86682 -3.29199 -1.67823 
224 3 10.2228 5.7571 16.334 -27.3942 1.12474 -1.22869 1.72709 
703 3 10.989 2.90206 13.7916 -27.8958 0.37625 -0.0453599 -2.66744 
1123 3 8.21221 5.01267 13.3245 -27.4907 -1.02477 -0.259482 0.198393 
1603 3 8.46936 2.61345 10.4086 -27.7694 -1.28707 1.1525 1.16056 
1604 2 8.67812 2.64893 16.6035 -23.4339 -2.79363 1.43519 -2.54658 
5104 1 12.5183 4.01791 12.2235 -8.33168 0.958534 0.612099 -0.383985 
4782 1 12.1709 1.3586 14.4321 -7.81057 1.96083 1.07118 -1.5479 
4604 1 10.2562 1.56906 17.6766 -8.20634 -0.773523 -2.33334 -3.89051 
3723 1 11.742 6.41483 14.7952 -8.40021 0.0762825 -0.637322 0.00266072 
4223 1 9.71283 4.24284 17.661 -7.99545 0.750464 0.135149 1.2808 
5203 1 9.86732 6.75142 9.82816 -7.93184 1.18804 1.45202 -0.393012 
3622 1 4.42302 7.06056 9.56052 -9.15616 -0.867356 0.845479 -0.43302 
43 3 0.0356251 10.7205 11.5441 -28.151 2.49201 0.178949 -0.189635 
5564 1 4.38209 12.5415 17.6245 -6.49642 -2.88887 -1.10938 1.56388 
2143 1 6.82932 12.7365 12.0347 -7.74821 -1.55361 -0.823844 0.0574837 
4023 1 4.39985 9.63984 17.5953 -8.14049 -1.40201 0.804284 -0.510603 
2684 1 6.14098 7.42032 17.1073 -7.33838 1.31663 -0.220348 -2.08653 
3923 1 0.799792 7.33691 16.2047 -7.86525 0.398789 0.216399 0.625572 
2103 1 6.67493 7.44981 12.2169 -8.4937 2.39326 -1.68552 -2.84839 
3023 1 3.60902 7.14508 12.4646 -7.38408 -0.0664169 -2.327 -2.28862 
4323 1 1.0744 10.0151 14.6759 -7.65442 -1.24771 -1.23634 1.80347 
4164 1 6.68666 12.3797 17.8714 -5.5219 3.72813 1.86468 -1.03229 
5542 1 1.45572 8.86791 12.5102 -7.24833 0.559691 0.0992875 -1.31392 
4041 1 1.19566 6.95026 9.80753 -7.62378 2.09271 2.1192 -0.0275021 
4480 1 1.15626 12.3141 9.90913 -7.72548 -2.23181 0.935629 1.27139 
5843 1 3.62881 8.61858 14.6716 -7.82057 -0.275631 1.34915 0.76932 
2942 1 1.57715 11.8622 12.8977 -7.72769 -1.46827 1.82904 -1.76042 
2522 1 1.98506 10.098 10.4142 -7.47541 -0.486715 -0.224423 -0.668731 
3563 1 0.717457 13.0073 15.6403 -5.84495 3.87434 -2.35868 2.82434 
4042 1 4.12854 12.3271 12.1108 -9.58987 1.40102 -2.68255 0.255206 
3623 1 3.51683 11.5826 15.463 -8.17759 0.005252 0.437397 -4.16262 
143 2 5.74216 11.0893 10.7884 -22.9821 0.948874 -0.903874 0.703062 
144 2 5.4949 11.0317 15.9972 -24.1312 1.94816 0.676811 5.3058 
623 3 5.37503 8.03839 13.3739 -26.9944 -2.63272 0.905234 2.77157 
1043 2 2.94122 10.3404 13.5153 -23.2401 -1.96219 -0.41446 0.323971 
1523 3 3.25613 8.72953 10.5741 -26.6218 -2.11249 -3.30815 -0.371784 
1524 3 2.55795 7.93848 16.6095 -27.561 2.09445 3.27692 0.654528 
4142 1 4.68868 9.34759 11.9096 -9.74222 -0.374292 3.96561 -0.0391129 
2523 1 1.54135 9.77009 17.5483 -7.82791 -1.48109 -0.41552 -1.02254 
1543 2 2.86258 13.5505 10.8156 -23.1151 -1.49205 0.138326 3.92286 
1544 2 2.61557 13.6327 16.5133 -26.3443 -0.266719 0.337525 0.351044 
2144 1 6.78273 12.4475 14.806 -7.93038 -4.13133 -0.175066 -0.509875 
3643 1 6.32599 9.24708 14.9744 -8.84964 1.45261 1.0211 -3.29461 
3642 1 6.08502 12.4401 9.22539 -7.75149 1.97341 -0.353255 0.0524672 
643 3 4.97522 13.4339 13.5843 -26.63 1.74238 3.42822 0.793305 
2623 1 8.73039 6.90639 18.059 -6.74664 0.935074 1.63396 -2.10072 
3224 1 11.7484 6.94531 17.5021 -8.61508 -1.68824 0.15632 0.438513 
4144 1 12.3822 12.5813 18.1605 -6.44833 1.03584 -0.638393 0.28316 
243 3 11.2708 11.1924 11.2456 -29.0886 -1.02507 -0.910809 -0.153021 
4724 1 12.0058 7.35136 12.1197 -8.58066 2.10901 -1.20962 -0.338276 
1723 3 13.6584 8.13147 11.183 -28.793 0.557556 1.65669 -0.864366 
5302 1 12.7121 10.1104 10.2536 -6.90222 -0.511819 -0.911775 -1.54449 
1143 3 8.45727 10.8298 13.8171 -27.2257 -0.287384 0.928861 -2.46084 
1744 3 13.6292 13.3965 16.7263 -28.5345 -1.02512 0.97759 -0.0601409 
2624 1 9.6737 9.38984 17.7301 -8.42762 0.657913 -0.227029 0.114863 
1724 3 13.1295 7.6209 16.3606 -27.5603 3.65903 0.660742 0.0913663 
5223 1 12.3463 9.85619 17.7065 -8.22571 -1.02817 -1.90174 -0.394781 
4624 1 7.33976 10.2267 17.1782 -7.20093 -0.864593 -3.67101 -0.171645 
1623 2 8.51616 8.27032 11.0318 -24.5503 -0.175712 1.17773 -2.95309 
4264 1 10.0955 12.3255 17.9444 -7.48743 -4.19407 -1.5627 -0.542687 
3103 1 7.27466 9.98035 9.3734 -7.96915 -5.053 -3.31826 1.78141 
5642 1 12.3278 12.5853 10.0382 -7.60193 -0.464206 0.921264 -3.11693 
3123 1 10.0309 9.50988 11.8952 -7.19803 0.431772 -0.419317 1.33267 
3204 1 12.6658 7.05263 9.4006 -8.05357 -2.21256 0.550087 0.845736 
723 3 10.7735 7.8256 13.5249 -27.7865 1.26026 3.82969 2.70042 
1624 2 8.02509 8.23425 16.1474 -23.6977 -1.16245 0.603532 3.18578 
5202 1 12.422 8.79544 15.0905 -6.3913 -1.41684 0.208001 1.36233 
3443 1 8.9741 11.7094 15.4145 -7.174 2.11873 1.30065 2.03121 
5142 1 7.54343 10.1224 11.9097 -7.67805 -1.93803 -0.432233 2.64774 
244 2 10.7673 10.8968 16.5181 -24.248 1.27185 -0.672069 -2.31804 
5243 1 9.58503 12.287 9.75366 -8.68646 0.0440583 1.20944 0.578944 
3743 1 11.775 12.2515 15.1021 -8.14039 1.67897 -0.31267 -0.298409 
4303 1 12.3513 9.99538 12.929 -6.60249 -4.35704 -2.80965 -3.8231 
4222 1 9.68626 12.0378 12.6948 -7.67568 1.52443 1.30389 0.3324 
4143 1 9.55322 9.22108 14.9719 -8.84287 0.187858 -0.212854 -2.08401 
5763 1 12.6792 12.7038 12.3953 -8.59168 -0.0106799 -0.420611 2.36307 
4123 1 9.45913 6.90129 12.4148 -8.10397 -1.54394 -0.974283 1.21351 
1243 2 13.6571 11.1951 13.6462 -23.9418 5.00839 2.85943 3.30995 
125 2 5.34035 5.39452 21.9366 -24.7269 -2.57912 0.732789 -3.41407 
605 2 5.43295 2.97681 24.811 -22.9507 -6.62614 2.73157 -3.95298 
1025 3 2.45418 5.65124 24.4009 -27.1512 3.31376 1.54547 0.880089 
1505 2 2.4175 3.02488 21.9698 -23.9802 1.29967 -0.524714 -1.49852 
3524 1 4.14365 4.32485 23.5231 -8.71374 -2.2785 0.621952 0.279077 
1004 3 3.17127 0.342715 18.3291 -26.9874 -3.88845 -3.25387 1.96122 
5005 1 2.24614 1.77998 23.8457 -7.70597 0.0381889 4.81145 -1.74654 
2025 1 1.66265 1.03717 26.1334 -6.38146 -1.31218 3.73315 2.08718 
5006 1 1.44146 3.97458 26.3201 -8.71703 0.737078 0.48701 -1.59797 
604 3 5.28509 2.53447 19.2985 -25.7594 2.16954 2.59074 -0.827273 
5586 1 4.19622 4.41044 26.288 -7.86432 -1.35192 -0.770911 -0.563552 
1024 3 2.93366 5.24513 19.0086 -28.5407 1.46643 1.41427 2.24195 
5026 1 3.37303 6.05734 21.344 -6.33122 -1.82026 -0.964198 -0.158523 
3065 1 4.26275 1.13412 26.108 -7.40981 1.00459 1.47402 -0.383261 
2105 1 5.00578 6.65072 19.3061 -6.1106 -0.132732 -1.74608 -0.736084 
5526 1 4.15519 3.52608 20.3217 -7.79305 -2.58614 1.93521 3.1419 
5925 1 1.3409 4.54354 20.4677 -8.15396 0.384735 -2.31843 0.369014 
4584 1 1.01492 4.80025 23.5406 -8.85274 -0.37661 -3.21308 -2.28868 
4506 1 1.21936 6.53787 25.6033 -7.42184 -3.85704 0.596989 2.44657 
504 2 0.2206 2.87964 19.12 -24.748 -1.6847 -0.261137 1.31491 
4005 1 6.64586 4.06144 26.1924 -7.81578 -1.8836 6.31842 -1.37493 
5604 1 4.61265 1.86445 22.5462 -7.23999 0.123085 4.15185 3.09573 
3124 1 6.80462 4.03828 20.5223 -8.09825 -2.52626 -2.3838 -0.320927 
3465 1 6.70567 1.72199 25.5946 -8.55483 4.63488 -6.96342 0.688098 
3106 1 6.6935 6.76292 25.6538 -8.65549 -0.868384 -0.639159 0.00296069 
505 2 0.462533 2.88623 24.677 -24.0572 -3.52878 -2.66161 -1.11409 
2505 1 0.0984631 0.2679 24.208 -6.83026 -0.33917 -1.32411 -0.88837 
4003 1 1.79811 1.67609 20.275 -7.32136 -0.688866 2.34698 -0.616641 
2083 1 4.2587 0.878782 19.93 -8.82483 2.29854 -0.234939 -2.76556 
105 3 5.12861 0.412032 21.771 -27.7099 0.272828 -4.65595 0.443392 
5504 1 6.85339 4.4347 23.0498 -8.55578 0.128103 -0.485551 3.40298 
1225 3 13.3706 5.54483 24.6136 -28.7197 0.338334 -0.163351 -0.46247 
3606 1 6.90275 1.43551 21.1253 -7.79226 -2.99431 1.12274 -1.06775 
5124 1 9.30279 4.2837 23.3025 -7.74251 -0.254711 -0.295935 0.926843 
4004 1 9.02097 1.0478 22.9315 -7.34874 -0.447443 0.662735 2.82237 
3285 1 11.9919 4.35012 20.2278 -8.2623 1.91629 -0.190567 2.3548 
4706 1 11.7526 4.05122 23.3314 -7.19714 1.82308 1.54005 -0.987721 
2125 1 9.32856 4.51116 25.8899 -8.34744 -0.963552 -1.17834 -1.24166 
225 3 10.8672 5.46753 21.8665 -28.8886 -0.518049 0.995559 -0.0142964 
704 2 10.7285 2.92624 19.105 -24.5552 2.28884 0.982227 4.42734 
705 3 10.5228 3.14601 24.8372 -27.6882 1.54929 1.06265 -2.62752 
1124 2 7.77564 5.65072 19.7056 -24.9661 2.16888 2.98265 -4.13239 
1125 3 7.99396 5.87636 24.3628 -26.7009 2.75511 -1.42081 1.16415 
1605 2 8.31016 2.86098 21.8865 -24.7351 1.34586 0.0153992 -0.577948 
5725 1 9.39245 4.50238 20.72 -7.75461 0.288842 -3.03229 -0.721649 
4786 1 9.37407 1.77045 25.6709 -8.58407 0.321887 0.733393 0.141258 
4806 1 12.2415 2.17873 25.1071 -7.79351 0.967955 -4.02161 -0.128117 
5605 1 9.09403 1.39428 20.0289 -6.88523 1.20423 1.73542 -0.450194 
4304 1 11.2416 2.11935 21.7975 -7.26052 -2.35266 -0.758527 0.16511 
226 3 10.5899 5.55283 27.0164 -28.4139 1.72575 2.08801 2.96094 
2683 1 12.6476 1.73858 19.6748 -7.37264 2.18407 -0.0417519 0.209825 
1606 2 7.99635 2.98426 27.1168 -23.7564 6.83795 -1.68933 2.87641 
2325 1 12.0597 6.68097 23.0862 -7.90356 2.49506 -0.180727 1.43136 
1105 3 8.00995 0.0533286 24.9262 -26.8276 1.26039 0.00980418 -2.85464 
1705 2 13.142 2.92747 21.751 -24.1839 2.38993 0.317141 1.41988 
206 3 10.8806 0.36044 26.9662 -27.6347 0.465072 -1.05859 0.103483 
3744 1 12.1142 4.49876 25.9043 -7.73334 -1.36906 0.820156 1.25882 
1104 3 7.47952 0.333771 19.3597 -26.7826 3.75642 -2.18418 1.80022 
4145 1 3.48656 7.11368 25.716 -7.90621 4.08557 -0.631095 -0.987048 
4125 1 6.79457 6.92922 21.2469 -7.70761 3.12182 -0.433286 0.899577 
2425 1 1.78042 7.40624 23.3092 -7.90093 0.361115 -0.25977 -0.214545 
4523 1 2.12408 7.06701 18.6495 -7.79328 -0.739703 -0.0366287 -1.37331 
4525 1 0.521158 7.17885 20.9887 -7.3911 1.05304 2.343 0.178629 
3425 1 1.81827 9.55994 20.1383 -7.21019 -2.45113 0.572987 1.73459 
2925 1 3.27885 11.9105 21.0529 -7.89694 0.303346 0.0457494 0.788582 
145 2 5.23151 10.9637 22.1388 -23.53 -2.90577 -3.01729 -4.05574 
624 2 5.80132 8.65628 18.8504 -24.0614 -4.68338 -3.85194 -0.936897 
625 2 5.27556 8.13748 24.7588 -23.4046 -3.24609 1.63229 3.94424 
1044 2 3.03343 11.0199 18.9639 -25.007 0.754024 -1.49283 -0.333115 
1045 3 2.83883 11.0735 24.6335 -28.4777 -2.70821 -2.0085 1.1446 
1525 3 2.56016 8.41807 21.8277 -29.4808 2.20763 -0.331253 -1.83211 
4045 1 3.97242 12.7727 26.5994 -7.9011 1.62896 -0.91283 1.09686 
5565 1 6.00664 12.2102 20.3836 -7.13136 -0.896668 -0.160558 2.80555 
5545 1 3.68837 9.6957 23.2955 -7.57758 3.48213 0.783815 0.184415 
3045 1 3.79877 12.6865 24.0047 -8.25767 2.49042 -2.69617 -0.111446 
4445 1 4.19388 9.28755 20.5449 -6.81717 2.52667 1.3642 -0.166493 
5045 1 1.32803 12.6155 23.225 -8.296 -3.56515 -0.607182 1.49351 
5945 1 4.10005 9.78093 26.0604 -8.71646 -0.257067 -0.64224 -2.20815 
2026 1 1.64459 11.7989 26.0886 -7.10745 -2.14137 2.17262 -0.491157 
1526 2 2.51202 8.23013 27.2329 -24.5541 -0.131448 0.721873 1.35129 
2406 1 4.87288 7.32298 22.9432 -6.76079 -0.899066 -2.18057 0.443289 
2524 1 6.66918 12.8889 26.1551 -7.933 -0.046025 -1.78141 0.483937 
4625 1 6.62388 9.22977 23.7526 -7.70526 4.0846 1.47978 -3.36192 
5025 1 1.31255 9.4006 25.8194 -7.3186 -0.793679 -2.21085 0.33918 
5544 1 1.66321 12.6195 18.4362 -7.34504 -0.620976 -1.8071 0.966362 
4044 1 6.53906 11.7579 23.4394 -7.68916 -0.526708 3.9755 2.667 
524 2 0.213049 8.32023 19.1293 -25.0202 0.079154 0.720162 -0.817478 
45 2 0.0742772 11.3772 21.886 -24.0892 -0.629132 -5.6981 1.47942 
4925 1 1.42339 10.239 23.2976 -6.34619 -0.960209 -1.14319 -0.821121 
525 3 0.284731 8.21587 24.2241 -28.5266 -2.35264 2.07435 1.14783 
545 2 0.16389 13.6501 24.7695 -24.1708 -1.5114 1.196 -1.08031 
1725 3 13.4727 8.06494 21.8745 -27.7635 -0.346679 0.617873 -0.781078 
1245 3 13.4477 11.1058 24.8719 -28.4833 1.68842 0.66368 -1.59243 
3605 1 9.54405 7.02429 25.8662 -7.80771 0.271482 1.52261 0.811845 
5624 1 9.52333 6.93616 20.4784 -7.46707 0.280788 3.0694 1.99087 
2604 1 9.44823 7.09917 23.3401 -7.97968 -2.221 -1.06447 -1.60452 
1746 3 13.5879 13.6002 27.268 -28.4776 0.592016 1.73041 0.565892 
5524 1 12.2056 6.93162 20.4859 -7.49478 1.03346 0.37581 -0.150404 
3226 1 12.5266 7.15002 25.9941 -7.75491 -2.89033 -1.35631 -0.585563 
3024 1 7.08916 9.413 20.1365 -8.21076 2.81589 2.1614 3.22445 
5245 1 6.99234 9.55983 26.3573 -8.38806 -0.975887 1.43108 0.250837 
3725 1 11.4652 11.9036 23.9551 -8.12907 1.27776 -0.385427 -1.98861 
4124 1 9.7892 10.0931 26.5191 -7.39323 -0.100975 -2.85499 -1.63139 
5726 1 12.3777 9.6446 25.7907 -8.31804 -0.150783 1.8419 1.57146 
5304 1 11.8785 9.28809 22.9005 -8.16094 2.86247 -0.0915877 0.113645 
3144 1 9.57444 9.91698 20.4799 -8.81369 4.36258 -2.00453 1.88811 
2225 1 8.76733 12.7156 20.0171 -7.77116 0.831475 1.71831 0.960716 
245 3 10.8083 10.8402 22.3686 -27.3512 -1.0907 1.29128 -1.72601 
724 2 10.9457 8.33813 19.1952 -24.2488 0.593146 -2.08078 0.917123 
725 2 10.8068 8.51163 24.7732 -24.2474 2.26469 -3.64487 2.07817 
1144 2 8.44647 10.8373 18.9846 -24.2375 -3.26141 3.07169 -2.0185 
1145 2 8.10924 10.9077 24.7935 -24.8997 -0.0795831 0.196744 0.0543853 
1625 2 8.35015 8.50774 21.8706 -23.7881 -0.358162 -0.0740424 0.150371 
3125 1 12.7674 9.4492 20.2954 -7.54902 -2.606 -1.04762 -0.218764 
5325 1 8.76917 11.6218 22.4379 -6.74717 1.44985 0.544104 0.118647 
5225 1 9.54358 9.58504 23.5874 -8.35574 -3.42002 1.69994 -0.637728 
3246 1 12.3605 12.4387 26.2409 -7.54788 -0.667447 -1.65551 -0.361129 
2245 1 9.28825 12.3936 25.7183 -6.72866 0.0449365 2.17784 -0.120676 
2124 1 11.877 12.0985 20.9312 -8.21195 -1.61622 -0.415325 2.08281 
744 3 10.7832 13.2433 19.5905 -28.4737 1.69389 2.35381 -1.48067 
1244 3 13.5929 10.7445 18.974 -28.9379 1.2186 1.8354 3.0695 
1645 2 7.88884 13.6089 21.8737 -24.7538 0.792295 -1.74275 0.328845 
1506 2 2.88868 2.88825 27.3992 -24.4287 1.56419 -3.45054 0.229762 
3507 1 0.968447 4.14557 36.2628 -6.89076 0.825853 0.0495259 0.490858 
5906 1 1.0199 1.03203 31.0587 -8.33641 0.167008 1.30434 1.26972 
3607 1 6.58098 1.67396 34.1295 -7.16666 0.631577 0.0570207 -1.40059 
126 2 5.51295 5.68637 27.6598 -24.0012 1.44145 -1.16019 -0.97111 
2006 1 3.93065 1.2249 28.7761 -7.60215 1.54549 0.542254 -2.38677 
127 2 5.49714 5.80614 32.5293 -24.3365 2.36508 -2.93303 2.60169 
606 2 5.63839 3.08339 30.1551 -24.6022 -0.929532 -1.99639 -0.0540874 
607 2 5.62466 2.85976 35.6105 -24.0102 -4.2875 1.73471 -0.759695 
1026 3 2.47814 5.44655 29.9142 -27.6746 0.688859 -0.673046 0.221995 
1027 3 2.62194 5.30985 35.5171 -28.9505 -0.625161 -1.1547 -0.109064 
1507 2 2.51172 2.2552 32.4654 -23.745 -1.66844 2.88049 0.601799 
5205 1 4.39898 4.59283 31.2898 -7.15997 -2.36055 -2.19589 0.183892 
3007 1 3.6647 3.73552 34.5664 -6.77641 0.108685 0.206267 -1.37811 
2028 1 1.73401 3.94826 31.2862 -7.91149 0.0871634 -0.364847 0.76186 
5105 1 0.585766 4.61368 28.9598 -6.56881 3.08144 0.966189 0.794064 
5185 1 3.86001 1.19381 33.7861 -8.05119 2.98338 0.769542 0.595258 
3086 1 3.9765 4.12641 28.9194 -8.34802 -0.107532 0.155692 -1.63908 
5186 1 3.96932 1.37185 31.1986 -8.13583 1.21098 1.04773 0.56912 
5406 1 1.50604 6.62283 31.3889 -8.86269 -0.350596 -0.580561 -0.271156 
3505 1 0.950745 3.71323 33.8831 -7.69265 0.283621 -0.944662 -2.4373 
2526 1 6.8069 3.72212 31.8889 -7.22617 -0.27726 2.6877 0.265264 
2107 1 6.27751 4.80122 34.99 -7.33275 -0.679298 0.675762 -1.08987 
5506 1 1.40784 2.16635 28.7331 -6.58645 -0.333813 -1.07144 0.410905 
2986 1 1.45263 0.818703 33.7771 -7.97743 -3.23048 0.660968 -0.101618 
4926 1 1.64154 6.63971 34.1266 -8.00113 -0.747535 -1.35777 0.159423 
27 3 0.442016 5.28953 32.7471 -27.8601 -2.30045 0.534801 -0.24714 
107 3 5.13462 0.210553 32.645 -28.2944 3.11256 -2.4095 -1.02942 
106 3 5.37482 0.106311 27.5141 -27.3662 -1.57327 1.97596 0.0420694 
1007 2 2.92197 0.28935 35.4248 -23.547 -3.97731 -4.4684 0.0228565 
4788 1 12.2208 1.10891 34.4502 -7.55495 1.4884 0.481285 -0.733466 
4184 1 6.85291 1.92032 28.4441 -7.84397 -4.54461 -2.06904 2.34529 
1226 2 13.6352 6.19149 30.1838 -23.3826 -0.485709 -1.17973 -2.073 
3105 1 6.87751 1.22253 31.4988 -7.39106 -1.26894 -0.133788 -1.94973 
2126 1 7.03823 4.53699 29.1797 -8.0284 -1.29996 0.898712 -1.03893 
2206 1 11.7803 2.05131 27.8269 -8.22575 0.360863 0.147342 0.23803 
5286 1 9.45977 0.984276 31.4496 -7.88467 -0.946563 4.09571 -1.48283 
2106 1 9.22605 1.36903 28.4118 -8.14959 1.68758 -1.24521 0.949744 
4206 1 11.648 2.1228 31.8663 -7.78452 2.39645 1.40015 -1.67175 
227 2 10.8418 5.76497 33.2141 -23.7659 -1.08402 -0.467054 -2.46494 
706 2 10.6258 2.45477 29.7998 -23.4105 -0.39707 0.836832 0.108543 
707 2 11.0758 2.52159 35.5804 -24.0183 0.992032 1.6279 1.88887 
1126 2 8.60248 5.87682 30.1532 -24.4393 1.7729 -2.21317 -1.9645 
1127 2 8.12585 5.66405 35.7737 -23.8958 0.298183 0.426205 -0.952679 
1607 2 8.35627 2.53934 32.7726 -24.5787 -0.564871 -0.839629 0.313758 
4106 1 9.76996 4.31949 31.1835 -7.52032 -0.13202 -2.19934 0.707365 
4707 1 12.6249 5.45517 31.919 -8.96573 1.12005 -0.648386 0.209094 
3186 1 9.59055 4.14821 28.3728 -7.55753 0.658933 -0.751415 0.666197 
2227 1 8.77944 4.2878 34.0259 -7.6755 2.0618 0.36788 1.15791 
3707 1 11.8333 4.22725 34.2397 -8.19852 -0.0822171 -1.09948 0.931164 
2607 1 9.69258 1.32301 34.3019 -8.52216 -2.15803 1.40257 -0.342805 
1707 3 13.596 3.5868 32.4697 -26.3927 -0.999707 -2.02272 1.07082 
3107 1 7.30551 6.82583 31.5167 -8.67837 0.298675 1.91149 -2.15593 
2226 1 12.0279 5.72557 28.732 -6.87445 0.806001 0.0859934 0.525084 
207 2 10.9854 0.113216 32.7317 -25.7874 0.680349 -2.01865 0.436751 
547 2 0.143968 13.2239 35.5657 -23.2304 1.06796 -0.0756474 0.773984 
47 3 0.177279 10.4016 32.4229 -28.6193 -1.46835 1.73587 0.251951 
527 3 0.139189 8.29698 35.2623 -28.021 -0.16105 -2.03713 -0.290098 
3005 1 4.09085 6.90399 28.6057 -7.95679 -2.82841 -0.264558 -0.165162 
5126 1 4.47796 7.10115 31.2432 -7.91967 -1.95638 2.66471 -0.832359 
2927 1 4.06115 6.87667 33.8694 -7.56026 -0.923171 -0.959883 0.710403 
2547 1 1.611 9.44819 36.3084 -8.49788 -1.28589 -1.48926 0.90448 
4605 1 6.78375 7.27675 28.6912 -8.3843 0.90962 0.517931 0.193824 
5008 1 1.45552 11.7734 34.029 -8.19338 -0.585798 -0.773941 2.02474 
4505 1 1.04431 12.3206 28.6189 -8.19369 -0.185041 2.68526 1.55177 
3026 1 3.92898 9.5904 34.2443 -8.20913 0.0227895 1.31011 -2.17331 
4426 1 0.966208 6.94332 28.445 -8.61391 1.15103 2.27414 -0.167722 