ITEM: TIMESTEP
0
ITEM: NUMBER OF ATOMS
8640
ITEM: BOX BOUNDS xy xz yz pp pp pp
-4.9738778262689465e-02 2.1640138778263307e+01 0.0000000000000000e+00
-3.6158781982734922e-02 2.1626558781982826e+01 0.0000000000000000e+00
-1.2831893343978606e+00 2.0736318933439443e+02 0.0000000000000000e+00
ITEM: ATOMS id type x y z c_peratom fx fy fz 
6 1 0.932243 0.756313 1.08684 -7.9166 -0.657925 0.0958951 -0.266869 
222 1 0.882545 0.787037 6.16763 -7.45735 -0.49568 -0.123331 0.991403 
438 1 0.787478 0.746587 11.3067 -8.08641 0.183496 0.455366 1.61141 
42 1 0.869361 4.49967 1.05098 -7.82429 0.486601 -0.541195 0.288864 
258 1 0.913021 4.53281 6.21674 -7.57832 0.0678986 -0.655277 -0.0763924 
474 1 0.781947 4.61376 11.3124 -7.40546 -0.314687 -1.28404 0.998625 
78 1 0.875712 7.97127 0.993107 -7.75204 0.112219 0.639968 0.28915 
294 1 0.850834 8.03179 6.22117 -7.62347 0.261419 -0.0366348 -0.44499 
510 1 0.994029 8.09813 11.2902 -7.42186 0.0424854 -0.372732 1.03548 
114 1 0.75535 11.733 1.04161 -7.52956 0.401372 -1.75643 -0.978804 
330 1 0.866088 11.808 6.29357 -8.45666 -0.634671 -0.131279 -0.768349 
546 1 0.965213 11.6367 11.4951 -8.2207 -0.524191 0.386282 -0.135554 
150 1 0.875998 15.3119 1.07558 -7.86733 -0.516156 0.646956 -0.38594 
366 1 0.84055 15.336 6.26807 -7.8026 0.278872 -0.950225 -0.469569 
582 1 0.89354 15.3957 11.4448 -7.80123 0.522172 -1.36277 -0.267849 
186 1 0.922141 18.8601 1.08919 -8.02097 -0.247817 0.551292 0.237567 
402 1 0.917383 18.9374 6.29936 -7.92334 -0.257709 0.0319873 1.45022 
618 1 0.800593 18.898 11.492 -7.78267 0.262088 -0.0603158 0.276986 
12 1 4.51959 0.983414 1.09187 -8.0978 0.0613249 -0.889442 -0.511067 
228 1 4.53769 0.952075 6.24116 -7.93768 0.671978 -0.619667 0.57779 
444 1 4.25126 0.98488 11.3352 -7.87097 0.900665 -0.663122 0.18165 
48 1 4.53174 4.51173 1.08763 -7.8475 0.135502 -0.444733 -0.497161 
264 1 4.3675 4.43758 6.23993 -8.02229 0.617083 1.11531 -0.542148 
480 1 4.49974 4.50368 11.5069 -8.00353 -0.0169789 -0.154443 -0.328 
84 1 4.60561 8.19117 1.12136 -8.24791 -0.525296 -1.27972 -0.485046 
300 1 4.4118 8.22141 6.33632 -8.22592 0.70041 -0.197178 -0.165414 
516 1 4.62972 8.20628 11.4925 -7.51659 0.00594971 -1.28336 0.014319 
120 1 4.4851 11.6923 1.16125 -7.86445 0.382768 -0.471018 -0.98961 
336 1 4.61196 11.6872 6.31754 -7.98819 -0.423756 -0.557117 -0.575649 
552 1 4.55019 11.693 11.5011 -8.04772 0.439144 0.65371 -0.771255 
156 1 4.39596 15.2146 1.11326 -8.01829 0.226786 -0.0185497 -0.0959792 
372 1 4.50863 15.2507 6.31169 -7.64272 0.433824 1.49041 -0.123592 
588 1 4.55817 15.3197 11.3243 -7.81594 -0.121252 -0.688966 1.06294 
192 1 4.49153 18.8645 1.02319 -7.92619 0.226009 1.1652 0.131319 
408 1 4.46206 18.8996 6.23741 -7.63882 -0.333754 -0.108696 0.396013 
624 1 4.63172 18.9429 11.537 -7.68881 -1.18843 1.02028 -0.580474 
18 1 8.17074 0.868631 1.08526 -8.1863 0.136851 0.231193 -0.0446517 
234 1 7.98629 0.881038 6.23585 -7.80907 -0.20442 0.212512 0.220313 
450 1 8.06094 0.953751 11.4453 -8.31637 -0.192214 0.179937 0.11774 
54 1 8.18313 4.56986 0.98151 -7.74686 -0.642471 -0.959141 0.29808 
270 1 8.2067 4.57412 6.3529 -8.01837 -0.77693 0.63005 -0.896768 
486 1 8.10632 4.49602 11.4873 -8.03931 -0.744592 -0.642105 0.55422 
90 1 8.18677 8.08528 1.08677 -7.98245 0.038896 0.682322 -0.876797 
306 1 8.08041 8.05899 6.24297 -7.72522 0.27189 -0.23778 -0.492261 
522 1 8.10857 7.96913 11.5142 -7.70623 -0.107955 1.09997 -1.10905 
126 1 8.20972 11.6818 0.969099 -7.84535 -0.287553 -0.386297 0.307758 
342 1 8.23555 11.7711 6.17395 -7.73898 -0.00851236 -1.25691 0.259659 
558 1 8.0599 11.7702 11.3633 -7.90793 0.563108 -0.28233 0.467532 
162 1 8.21525 15.2193 0.990392 -7.84056 -0.553497 0.436256 -0.207291 
378 1 8.08793 15.4222 6.2386 -7.90387 0.42724 0.452326 -0.0896511 
594 1 8.05781 15.2727 11.3348 -7.70747 -0.10071 -0.345493 0.995004 
198 1 7.93652 18.9245 1.01632 -7.86867 0.786656 -0.728375 -0.0319668 
414 1 8.15956 18.92 6.22584 -7.94246 0.343853 -0.643713 -0.520008 
630 1 8.06209 19.0285 11.5213 -7.98049 0.132878 0.456697 -0.99941 
5 1 0.890427 0.958475 3.66663 -7.64342 -0.633439 -0.094076 -0.955133 
221 1 0.916906 0.783281 8.81566 -7.9348 0.0796873 0.641906 -0.947654 
437 1 0.864839 0.824828 14.0274 -8.27156 1.19402 -0.382026 -0.932626 
41 1 0.88435 4.43137 3.69294 -8.41525 0.0630147 -0.195376 -0.343297 
257 1 0.947673 4.51675 8.83958 -7.6501 0.322207 -0.997207 -1.01659 
473 1 0.955798 4.35334 13.9211 -8.14385 -1.57253 0.765847 1.11058 
77 1 0.912087 8.07957 3.61629 -7.80985 0.289286 -0.27092 -0.23627 
293 1 0.852267 8.03798 8.77364 -7.44951 1.04963 0.0180575 -0.333521 
509 1 0.88943 8.08694 13.9441 -8.08164 0.277772 -0.156762 0.23924 
113 1 0.893051 11.7823 3.61514 -7.98298 -0.167605 -0.955238 0.854677 
329 1 0.862468 11.7881 8.85243 -8.14078 0.953312 -1.33548 0.0797424 
545 1 0.892976 11.5779 14.1068 -8.03483 -0.627753 0.546388 -0.584346 
149 1 0.856178 15.3203 3.63919 -7.51365 0.610437 -0.543846 0.245506 
365 1 0.803798 15.3771 8.81093 -8.06403 -1.20485 -0.636922 0.748589 
581 1 0.913195 15.4415 14.0562 -7.8097 0.544756 -0.727544 -0.188236 
185 1 0.969375 18.8255 3.77893 -7.52915 -0.264699 0.641272 -1.73156 
401 1 0.974092 18.9384 8.96089 -7.89556 -0.666886 -0.217758 -1.19532 
617 1 0.918427 18.7047 14.0256 -7.62572 -0.0858955 0.741032 -0.354773 
11 1 4.52832 0.833834 3.71991 -7.62646 0.675328 -0.199498 -0.8086 
227 1 4.66422 0.970718 8.77681 -8.03509 -0.966452 -0.324924 0.729487 
443 1 4.39062 0.726974 13.9966 -7.89916 1.05531 -0.106838 -0.224717 
47 1 4.50712 4.34104 3.60919 -7.6871 -0.227124 1.39197 0.677654 
263 1 4.52727 4.45003 8.78775 -7.91139 0.498502 0.0283409 0.616951 
479 1 4.60668 4.49986 14.2128 -8.12279 -0.496065 0.0838581 -0.367035 
83 1 4.44984 8.20982 3.71831 -8.05066 0.52111 -0.268717 -0.119829 
299 1 4.68567 8.01158 8.95059 -7.93182 0.230072 0.522955 -0.819992 
515 1 4.51368 7.85607 14.0646 -7.6914 0.0555599 0.950076 -0.0182263 
119 1 4.57867 11.5384 3.7006 -8.0175 -0.322941 0.985101 0.139198 
335 1 4.36113 11.6721 8.8354 -8.04931 0.201597 0.0161932 0.838074 
551 1 4.5729 11.6211 14.0458 -7.98354 -0.771312 0.913786 0.561304 
155 1 4.54127 15.3216 3.7138 -7.81754 0.116442 -0.190588 -0.17047 
371 1 4.58489 15.377 8.84308 -7.7852 -0.965972 0.0788492 -0.0569216 
587 1 4.5175 15.2618 13.9915 -7.92966 -0.733764 -0.975286 -0.311273 
191 1 4.48298 18.9954 3.63036 -7.71356 -0.370593 -0.00928531 -0.172047 
407 1 4.38421 18.7036 8.90907 -7.89323 1.20533 0.993087 -0.303803 
623 1 4.52631 18.9317 14.1411 -7.93348 0.473058 0.0390912 -0.237001 
17 1 8.10652 0.886002 3.74309 -8.22312 0.738193 0.512966 -1.09025 
233 1 8.03625 0.788306 8.80914 -8.19272 0.372245 -0.2161 1.01662 
449 1 8.15525 0.964344 14.0372 -8.36862 0.475878 -0.113113 -0.0914464 
53 1 8.00125 4.61441 3.70712 -8.28136 0.0974858 -0.819412 -0.310148 
269 1 8.40299 4.64738 8.93227 -7.66936 -1.21735 -0.0761897 0.108259 
485 1 8.12094 4.31716 14.0973 -7.97101 -0.808264 -0.823538 -0.613695 
89 1 8.27239 8.07374 3.63043 -7.55129 -0.905787 -0.0400405 0.349896 
305 1 8.08164 8.00331 8.79516 -8.01269 -1.12735 0.647447 1.0136 
521 1 8.25551 8.18085 14.0851 -7.96541 -0.400409 -0.136315 0.510946 
125 1 8.23745 11.6904 3.59585 -7.63961 -0.397689 0.221594 -0.283397 
341 1 8.12034 11.7866 8.73703 -7.87506 0.00206022 0.606939 0.526905 
557 1 8.1165 11.6275 14.142 -8.21563 0.552005 -0.487334 -0.941896 
161 1 8.07105 15.4114 3.56944 -7.76685 0.141314 0.243165 0.319412 
377 1 8.03086 15.2019 8.8389 -7.94782 0.245392 0.160955 -0.638528 
593 1 8.12348 15.3192 14.0141 -7.99267 -0.517636 0.117124 0.0957188 
197 1 8.25095 18.8506 3.56618 -7.8803 -1.47084 0.20879 0.50203 
413 1 8.18169 19.068 8.77187 -7.92461 0.55907 -0.768701 1.07237 
629 1 8.06229 18.8705 14.0872 -8.00415 0.0825773 0.634866 0.206888 
2 2 0.899533 2.64579 0.0613321 -29.4303 0.376747 -0.188777 -0.471307 
218 2 0.891408 2.68996 5.10007 -29.5168 -0.0558802 -0.829001 1.35933 
434 2 0.970539 2.60628 10.2905 -29.352 -0.358455 0.881682 0.93042 
650 2 0.93425 2.65067 15.5 -29.138 -0.354955 0.258111 0.348371 
38 2 0.906498 6.18151 -0.198887 -29.3741 0.837983 0.477718 1.80339 
254 2 0.911932 6.25701 5.19359 -29.3504 0.172149 0.451708 -0.109897 
470 2 0.943732 6.28656 10.3198 -29.9515 0.592347 0.61725 -0.309529 
686 2 0.927596 6.21056 15.6097 -28.9798 -0.585841 0.513079 0.187404 
74 2 0.92683 9.85813 -0.112383 -29.2266 -0.379547 -0.171985 0.813931 
290 2 0.908971 9.84149 5.2543 -29.2199 -0.613713 -0.0673323 -0.490817 
506 2 0.90106 9.90917 10.3712 -29.2171 1.00559 -0.78222 0.0307086 
722 2 0.857545 9.87176 15.5726 -29.4118 0.405782 0.00526215 0.530758 
110 2 0.92445 13.5522 0.0259698 -29.5547 0.200192 -1.12546 0.830801 
326 2 0.987159 13.485 5.11677 -28.9498 -0.614823 1.28937 -0.0489585 
542 2 0.813028 13.4636 10.4236 -29.0457 0.508453 0.593205 0.269454 
758 2 0.921417 13.5422 15.7119 -29.1387 -0.673397 -0.602438 -0.210897 
146 2 0.86486 17.0373 -0.04264 -29.1944 0.387655 0.608189 0.879644 
362 2 0.787832 17.1629 5.23418 -29.7528 1.46472 -0.544694 -0.632318 
578 2 0.814778 17.1194 10.3759 -29.35 0.358592 0.341343 0.686643 
794 2 0.980527 17.0515 15.5723 -29.7978 -1.35785 1.04122 0.271291 
182 2 0.849775 20.6769 0.0380009 -29.1741 0.0461683 -0.230321 -0.836057 
398 2 0.946219 20.6845 5.18418 -29.666 0.50584 0.0499614 0.500005 
614 2 0.924551 20.6814 10.383 -29.3174 0.0912146 -0.833496 -0.485605 
830 2 0.955947 20.7258 15.5512 -29.5883 -0.593167 -0.505464 1.66317 
8 2 4.47635 2.73138 -0.0875474 -29.4523 -0.325707 -0.2221 0.931643 
224 2 4.45342 2.68581 5.26949 -29.3988 -0.100717 -0.125025 -1.04866 
440 2 4.60061 2.73357 10.275 -29.2249 -0.100927 0.220599 1.01004 
656 2 4.54515 2.76326 15.7199 -29.3496 -0.492528 -0.329351 0.566368 
44 2 4.48468 6.30164 0.00568717 -29.1972 0.10315 -0.236743 0.33351 
260 2 4.5425 6.37639 5.19905 -28.8147 -1.00087 -0.268269 0.262238 
476 2 4.58576 6.3102 10.4745 -29.389 -0.818858 0.454005 0.0836557 
692 2 4.42746 6.3044 15.6361 -29.448 1.67923 -0.549895 -0.252057 
80 2 4.64866 9.84256 -0.0572979 -28.8691 -0.631699 0.881713 0.479931 
296 2 4.57071 9.96341 5.13663 -29.0823 -0.546763 -0.505218 0.514772 
512 2 4.48025 9.92597 10.3953 -29.2493 0.0352496 -0.488803 0.789076 
728 2 4.54927 9.88905 15.6701 -29.4332 -0.70079 -0.0730788 0.0174778 
116 2 4.51373 13.4488 -0.0046652 -29.1251 0.56807 -0.272837 0.556938 
332 2 4.51138 13.5191 5.25923 -29.3323 1.19824 -0.0816792 -0.0556863 
548 2 4.45711 13.4664 10.4035 -28.9463 -0.22877 0.350565 -0.0147692 
764 2 4.42847 13.4952 15.571 -29.213 0.980088 -0.0107665 0.61012 
152 2 4.52784 17.0856 0.0145236 -29.4168 -0.338062 -0.206817 -0.278035 
368 2 4.47994 17.0818 5.25777 -29.6942 -0.224731 0.233307 -0.283928 
584 2 4.50242 17.111 10.3752 -29.7857 0.0792536 0.445579 0.800664 
800 2 4.50104 17.1293 15.7065 -29.3795 -0.00669041 0.253645 -0.38712 
188 2 4.58131 20.7814 0.065115 -29.0485 -0.169783 -0.326431 -0.425912 
404 2 4.54463 20.6891 5.2777 -29.659 -0.878145 0.498614 -0.766076 
620 2 4.54196 20.7436 10.4798 -28.9317 -0.955976 0.0123541 0.120364 
836 2 4.57381 20.749 15.5566 -29.2941 -1.15724 -0.0368126 1.48064 
14 2 8.10687 2.70498 -0.0544712 -29.1992 0.0156977 -0.300415 0.664112 
230 2 8.12538 2.71557 5.23531 -29.1394 -0.355859 0.145629 0.98459 
446 2 8.20185 2.70202 10.5125 -28.7264 -0.161813 0.872312 -1.1172 
662 2 8.17624 2.60761 15.5189 -29.1505 -0.279142 0.444345 1.38591 
50 2 8.07241 6.35959 0.0538063 -29.3075 0.597914 -0.650531 -1.06047 
266 2 8.17641 6.24242 5.11724 -29.1176 -0.337679 1.53749 0.753915 
482 2 8.13843 6.25562 10.4271 -29.5115 1.32232 0.404465 0.148993 
698 2 8.15242 6.33229 15.7763 -29.2481 -0.370917 -1.21162 -0.35506 
86 2 8.14433 9.82902 -0.0581501 -28.9789 0.930458 0.493912 0.778649 
302 2 8.2008 9.89736 5.29157 -29.3611 -0.00147341 -0.124217 -1.04432 
518 2 8.01356 9.84731 10.4838 -29.0504 1.52785 0.0318033 0.97207 
734 2 8.14906 9.85127 15.5516 -28.8614 -0.217052 1.52912 -0.15444 
122 2 8.12106 13.4202 -0.058222 -29.4343 0.62793 0.739805 -0.0418275 
338 2 8.07984 13.5594 5.25906 -29.6586 0.53327 0.300012 -0.414845 
554 2 8.00642 13.5256 10.329 -29.1425 0.736776 -0.319337 0.0311111 
770 2 8.11002 13.4704 15.6344 -29.3079 -0.718118 0.0298882 0.509472 
158 2 8.15381 17.0996 0.0465616 -29.2332 -0.821298 -0.275536 -0.438532 
374 2 8.11718 17.1988 5.11289 -29.2675 -0.0674976 -0.793643 0.0142154 
590 2 8.1066 17.1244 10.5858 -29.2425 -0.302629 0.658395 -0.0466836 
806 2 7.9868 17.0472 15.5302 -29.3544 2.2138 0.408637 0.79667 
194 2 8.23385 20.6826 0.0463387 -29.2298 -1.25916 0.203758 -0.819153 
410 2 8.09855 20.7277 5.26381 -29.2243 0.662961 0.181417 -0.0707244 
626 2 8.13192 20.8428 10.3859 -29.1092 -0.246584 -1.15762 0.0715136 
842 2 8.10723 20.6471 15.6878 -28.7415 0.453949 0.919707 0.0123814 
1 2 2.704 0.94644 2.56425 -29.601 0.423408 -0.92507 1.05197 
217 2 2.74861 0.868081 7.82592 -29.235 -0.237491 -0.239698 -0.329325 
433 2 2.71804 0.837084 12.9482 -28.9512 -0.506797 1.10334 -0.323574 
37 2 2.69458 4.44679 2.56621 -29.3284 0.281101 0.4489 -0.167832 
253 2 2.75929 4.49222 7.77472 -29.5098 -0.963261 0.00725212 0.085175 
469 2 2.72687 4.49581 13.0386 -29.2773 0.699344 -0.521434 -1.06996 
73 2 2.73144 8.15622 2.5561 -29.2363 -0.503735 -1.4115 0.234989 
289 2 2.78169 8.06893 7.77218 -29.5107 -0.72482 0.260225 0.882651 
505 2 2.75386 8.05392 13.0631 -29.3415 0.0593917 0.466323 -1.31909 
109 2 2.69173 11.6211 2.62229 -29.364 0.298521 0.644391 -0.452241 
325 2 2.65758 11.737 7.6908 -28.8475 0.127085 -0.350791 0.83751 
541 2 2.69946 11.6625 13.0785 -29.0939 0.252843 -0.412245 -0.518579 
145 2 2.71245 15.266 2.6239 -29.7771 -0.606675 0.701915 0.208861 
361 2 2.63045 15.3928 7.92141 -29.3755 0.764144 -1.25397 -0.775279 
577 2 2.67177 15.283 12.9622 -29.1502 0.111953 1.13836 0.0546185 
181 2 2.73785 19.0072 2.44239 -29.3787 -0.404573 -2.05054 2.4542 
397 2 2.69271 18.9173 7.85209 -29.4072 -0.0122023 0.19832 -0.668884 
613 2 2.73278 18.9082 13.0536 -29.2757 -0.0926915 -0.758449 -0.054051 
7 2 6.31503 0.949041 2.65464 -29.0971 -0.327933 -0.143685 0.121069 
223 2 6.30595 0.930743 7.77045 -29.1669 0.760822 -0.213917 -0.86138 
439 2 6.35368 0.963793 13.0993 -28.7133 -1.10997 -0.357922 -0.0231514 
43 2 6.25318 4.55925 2.64762 -29.1817 0.0574061 -0.392331 -0.763853 
259 2 6.36962 4.59464 7.81176 -29.1636 0.828854 -0.0958842 0.568444 
475 2 6.31371 4.51488 13.0692 -29.0639 0.021295 0.120184 0.348757 
79 2 6.28368 8.16726 2.61086 -29.2533 1.14936 -0.62177 0.834768 
295 2 6.34557 8.19931 7.78762 -28.6774 -0.0728168 -1.10583 -0.395223 
511 2 6.44221 8.06926 13.0907 -29.7162 -1.05443 0.222446 0.134642 
115 2 6.40526 11.6729 2.64494 -29.2487 -0.0473812 0.369733 -0.17216 
331 2 6.2558 11.6871 7.90281 -29.0988 -0.0586555 0.99585 -1.34917 
547 2 6.35581 11.685 13.0343 -29.3323 -0.1039 0.179056 -0.150015 
151 2 6.25117 15.2929 2.60027 -29.2216 0.51563 -0.0894916 -0.0212923 
367 2 6.28202 15.3557 7.82964 -29.2691 0.140199 -0.355237 -0.984121 
583 2 6.2783 15.2746 12.9977 -29.3659 0.263054 1.28029 0.0159575 
187 2 6.30946 19.0133 2.64638 -29.3614 0.104268 -1.33936 -0.436436 
403 2 6.37069 18.8764 7.92018 -29.3382 -0.873966 0.618402 -0.31914 
619 2 6.27273 19.0735 13.0472 -29.3445 0.249486 -1.59007 -0.671128 
13 2 9.89833 0.873797 2.57316 -28.6354 -0.080995 0.41257 0.0347584 
229 2 9.85414 0.86464 7.86799 -29.2781 1.03552 -0.100036 -0.274851 
445 2 9.94962 0.851993 13.0694 -28.9229 1.10924 0.789515 -0.37341 
49 2 9.87941 4.58241 2.67421 -29.4215 0.613407 -1.02661 -0.692014 
265 2 10.0273 4.54944 7.81829 -29.5479 -0.978162 -0.0707866 -0.537735 
481 2 9.93697 4.53999 13.1165 -29.4246 0.57032 -0.312067 -0.213449 
85 2 9.97365 8.0947 2.4917 -29.3406 -0.392074 -0.226103 0.883105 
301 2 9.92746 8.2033 7.92461 -29.3019 0.394021 -2.2921 0.336752 
517 2 9.98414 8.08324 13.09 -29.5165 -0.105445 -0.577203 -0.981555 
121 2 10.0428 11.6396 2.54959 -29.294 -0.721104 0.985471 1.10409 
337 2 9.8643 11.7621 7.81372 -29.3099 1.20796 -0.392364 0.132005 
553 2 9.99625 11.7287 13.0945 -28.8592 -0.773472 -1.12085 -0.130595 
157 2 9.93113 15.2884 2.60724 -29.5916 0.00145759 -0.635608 0.731528 
373 2 9.86952 15.3437 7.85148 -29.0847 0.763263 -0.290924 0.402775 
589 2 9.91611 15.2749 13.0722 -29.3143 0.249095 0.823869 0.0665429 
193 2 10.0437 18.885 2.66434 -29.0371 -0.498645 0.111154 -0.309295 
409 2 9.98344 18.8964 7.74777 -29.0053 -0.270122 1.15831 0.352591 
625 2 9.85469 19.0151 13.013 -29.4273 0.475839 -1.38855 0.0219377 
3 1 2.65631 2.66169 -1.01577 -7.51759 -0.39843 -1.01043 -0.946584 
219 1 2.71337 2.6216 4.01323 -7.85708 -0.223475 0.739743 0.974979 
435 1 2.7973 2.66119 9.36411 -8.07178 -0.939396 -0.206579 -0.815811 
651 1 2.77711 2.70427 14.5601 -8.05855 0.0890026 -0.425502 0.467041 
39 1 2.79177 6.21035 -1.07992 -7.8997 -0.438276 0.498116 -0.305977 
255 1 2.75837 6.2651 4.07688 -7.96178 0.016237 -0.151903 0.924915 
471 1 2.80258 6.28771 9.32804 -7.60371 0.0910394 0.298253 0.0851792 
687 1 2.68999 6.21499 14.5195 -8.08616 -1.12897 -0.304869 -0.590742 
75 1 2.79094 9.65374 -1.0162 -8.05294 0.0439823 1.32555 -0.624444 
291 1 2.63792 9.90358 4.14602 -7.87222 -0.091388 0.772975 -0.147845 
507 1 2.81566 9.74317 9.27114 -7.93861 -1.66767 0.420596 -0.139161 
723 1 2.74949 9.85056 14.5724 -8.11086 0.0560353 -0.54421 -0.168555 
111 1 2.74837 13.3988 -0.886023 -7.7866 0.0457777 -0.343489 -1.52974 
327 1 2.81937 13.4904 4.16026 -8.08948 -0.537769 -0.369554 -0.392619 
543 1 2.64459 13.5951 9.37092 -8.12352 0.144538 0.230651 -0.189356 
759 1 2.60587 13.4514 14.6074 -8.40311 0.872006 0.138325 -0.761348 
147 1 2.65045 17.0283 -1.0171 -7.8061 0.643365 -0.0305503 0.433521 
363 1 2.69204 17.021 4.28197 -7.14067 0.486692 -0.138484 0.0546003 
579 1 2.60198 17.0385 9.41534 -7.59002 0.307876 -0.486225 0.427039 
795 1 2.77771 17.0604 14.6496 -7.75835 0.396165 -0.0188748 -0.0882829 
183 1 2.79937 20.674 -1.04884 -7.95006 -0.905305 -0.02987 0.823078 
399 1 2.62986 20.8041 4.17054 -7.32916 1.02788 -0.328676 -0.319283 
615 1 2.76551 20.7384 9.34348 -8.01804 0.953833 0.336165 0.0516631 
831 1 2.71062 20.61 14.6106 -8.01077 -0.723645 0.25843 -0.794265 
9 1 6.24323 2.60763 -1.01333 -7.92694 1.39486 0.160838 0.152 
225 1 6.2799 2.74682 4.31933 -7.79921 0.924784 -0.647213 -0.388856 
441 1 6.4652 2.7957 9.36777 -7.94899 0.26855 0.28544 1.59348 
657 1 6.19718 2.48535 14.6817 -8.08143 1.12909 0.400476 -0.333028 
45 1 6.23192 6.1032 -0.987352 -7.81527 0.925145 -0.197581 0.372179 
261 1 6.24568 6.42458 4.11003 -8.16275 -0.139545 -0.368526 0.369101 
477 1 6.36739 6.13624 9.4568 -8.09346 -0.236648 -0.1588 -0.206077 
693 1 6.45233 6.29224 14.6648 -7.70871 0.160318 0.0475775 1.07599 
81 1 6.5109 9.82732 -1.05863 -8.15787 -1.86584 0.553927 -0.684205 
297 1 6.40503 9.86901 4.16914 -8.02062 0.510605 -0.282122 0.0946528 
513 1 6.37453 10.0453 9.43417 -8.55398 -1.20519 -0.64711 -0.864866 
729 1 6.26255 9.76596 14.57 -7.96562 0.483047 -0.0571451 0.68539 
117 1 6.39486 13.3809 -1.15953 -7.9415 -1.20718 0.625371 0.982599 
333 1 6.38124 13.5078 4.10371 -7.9306 -0.817852 -0.484154 -0.37338 
549 1 6.18557 13.3968 9.26123 -8.24322 0.123022 0.13403 0.918176 
765 1 6.35333 13.448 14.5753 -7.83887 -0.63643 0.273138 0.181155 
153 1 6.31891 17.0358 -1.18522 -7.87416 -0.145068 0.505267 0.809372 
369 1 6.27451 17.1903 4.13899 -7.86938 0.127507 0.346095 0.152721 
585 1 6.39991 17.1716 9.41458 -8.03842 0.524092 0.148185 -0.266424 
801 1 6.29704 17.0399 14.6638 -7.7336 -1.11579 0.0803095 -1.11306 
189 1 6.34116 20.6642 -0.993479 -7.90361 -0.259667 0.388265 -0.26861 
405 1 6.36853 20.6567 4.19638 -8.10213 0.111696 -0.0465862 0.0482071 
621 1 6.19415 20.6204 9.45132 -8.05496 0.679096 -0.0796837 -0.13747 
837 1 6.35539 20.7321 14.62 -8.42385 0.400866 0.376106 0.0379802 
15 1 9.9726 2.53392 -1.04729 -8.03773 0.0549839 0.971511 0.427757 
231 1 9.89914 2.88832 4.23741 -7.96888 -1.67207 -0.709169 -0.0214826 
447 1 9.94512 2.62732 9.39773 -8.0036 0.270164 -0.956494 0.41266 
663 1 10.0917 2.69652 14.5838 -8.2032 -0.343929 -0.478764 0.0597054 
51 1 9.96597 6.21596 -1.1635 -7.89465 0.152258 0.0552839 1.04844 
267 1 9.94661 6.1847 4.07632 -7.86385 0.120624 0.221645 0.979011 
483 1 10.0685 6.58239 9.43782 -7.58589 -0.238406 -0.220434 0.0425623 
699 1 9.82547 6.17463 14.6445 -7.69778 0.463615 0.233748 -0.266298 
87 1 9.91723 9.61435 -0.943094 -7.90667 0.404186 0.475884 -0.189116 
303 1 10.0033 9.91408 4.19819 -7.73345 -0.0465506 -0.264326 0.604153 
519 1 9.7486 9.91446 9.4525 -7.9365 0.707244 -0.0987169 0.40035 
735 1 10.0631 9.9307 14.6568 -8.11622 0.316886 0.125631 0.211383 
123 1 9.95145 13.4942 -1.10582 -7.8704 0.998571 0.16395 0.191151 
339 1 9.89622 13.6754 4.27196 -7.6636 0.253474 -0.222583 -0.882224 
555 1 10.0173 13.6174 9.39281 -8.08629 -0.224964 -0.0718511 0.978656 
771 1 9.82565 13.5234 14.6793 -7.94486 1.53984 -0.228935 -0.897248 
159 1 9.95246 17.0498 -0.932663 -8.01212 -0.311485 0.226091 0.124714 
375 1 10.0204 17.1471 4.26056 -7.63229 -0.538584 0.0544542 0.308544 
591 1 9.89588 17.0247 9.514 -8.28541 -0.483532 0.589498 -1.06234 
807 1 9.93588 17.1775 14.6496 -7.45055 -0.559059 -0.346753 0.102303 
195 1 9.9085 20.5188 -1.12516 -7.79138 0.647936 1.23216 1.27763 
411 1 9.94457 20.6621 4.10319 -8.20653 0.421584 1.02984 -0.100311 
627 1 9.96435 20.7881 9.44534 -7.89202 0.289513 0.557318 -0.64239 
843 1 9.928 20.7326 14.5912 -8.40547 -0.38392 -0.22142 0.496407 
4 1 2.62279 2.62549 1.44744 -7.87983 0.0998774 1.30292 0.685342 
220 1 2.62401 2.60813 6.75427 -7.96918 -0.0684049 0.472836 -0.250417 
436 1 2.45879 2.71852 11.9292 -7.6379 0.0375842 -0.0442426 0.674718 
40 1 2.76889 6.23975 1.52713 -7.6991 0.147067 1.0335 -0.20774 
256 1 2.65009 6.29923 6.77921 -7.8267 0.936012 0.346431 -0.989448 
472 1 2.73878 6.25864 11.9079 -7.7996 0.227745 0.669286 0.673299 
76 1 2.68493 9.85984 1.5369 -8.00903 -0.877468 0.604043 -0.334431 
292 1 2.59007 9.92923 6.68533 -7.94208 -0.0182443 0.525681 0.430877 
508 1 2.81915 9.88707 11.899 -7.64723 -0.977156 0.14536 0.830084 
112 1 2.5505 13.4263 1.62091 -7.4506 0.64455 0.333443 0.499216 
328 1 2.81698 13.4543 6.68672 -7.92427 -1.4033 0.766454 0.792135 
544 1 2.69787 13.5295 11.981 -8.22993 0.166171 -0.50512 0.118688 
148 1 2.68763 17.1323 1.64119 -7.53912 0.406173 -0.680188 -0.385506 
364 1 2.69624 17.0786 6.87811 -7.65572 -0.0268069 0.456681 -0.476272 
580 1 2.80445 17.1444 11.9813 -7.76893 -0.300132 0.062981 0.356968 
184 1 2.70513 20.7051 1.61596 -8.09958 0.668617 1.17779 -1.43343 
400 1 2.75596 20.773 6.75473 -7.79027 0.229041 -0.492421 0.541546 
616 1 2.68351 20.6822 11.9437 -8.29924 -0.0912578 -0.333137 0.496269 
10 1 6.36522 2.72882 1.6478 -7.90619 0.712601 0.110046 -0.108275 
226 1 6.37776 2.82947 6.9043 -7.68409 -0.444718 -0.373406 -1.21642 
442 1 6.13166 2.70447 12.077 -8.17011 1.13371 -0.385819 -0.563786 
46 1 6.38406 6.34086 1.58282 -7.89344 -0.62772 0.0209898 -0.176609 
262 1 6.18772 6.37474 6.6974 -8.28789 -0.0739529 -0.991161 0.595566 
478 1 6.32597 6.31465 12.1582 -7.78534 -0.638392 -0.910115 -1.57963 
82 1 6.40789 9.86898 1.56926 -8.06912 -0.0577047 1.21078 -0.577841 
298 1 6.42874 9.94117 6.7666 -8.2473 -0.206838 0.033374 0.455239 
514 1 6.47337 9.88328 12.0532 -7.75028 0.00789356 0.347292 -0.395506 
118 1 6.32363 13.4616 1.50946 -8.03763 0.0195722 0.243179 -0.376041 
334 1 6.36117 13.5452 6.6401 -7.6811 0.149826 -0.326306 1.10496 
550 1 6.34224 13.5619 12.0218 -7.89207 -0.684132 -1.02296 -0.962695 
154 1 6.21407 17.0228 1.48408 -7.98688 0.751724 -0.164457 0.0446787 
370 1 6.31305 17.2171 6.78682 -7.88062 -0.294214 -1.02865 -0.0477157 
586 1 6.28005 17.2107 12.0145 -7.52481 0.922334 -1.51523 0.630172 
190 1 6.28394 20.7716 1.59948 -7.99872 -0.53664 0.681579 0.23679 
406 1 6.25359 20.6409 6.82352 -7.94937 -0.00601113 0.711068 0.0450783 
622 1 6.2383 20.878 12.0532 -8.17709 -0.209287 0.688953 -0.321848 
16 1 9.92402 2.77116 1.56532 -8.00327 0.00950941 -0.584676 0.328012 
232 1 9.80703 2.66146 6.90701 -7.69455 0.340049 -0.70857 -1.18961 
448 1 9.94478 2.72477 11.9604 -8.12674 -0.0837799 -0.215655 0.588264 
52 1 9.93154 6.287 1.52814 -7.82976 0.760575 0.151037 -0.734438 
268 1 10.0697 6.36622 6.73764 -7.74395 -0.595727 0.698834 0.304589 
484 1 9.89635 6.26411 12.044 -7.62091 0.717088 -0.536338 -0.157092 
88 1 10.0346 9.92882 1.61351 -8.00774 0.440327 -0.948834 -0.854803 
304 1 9.93269 9.77438 6.89969 -8.15352 -0.454827 1.99451 -1.36521 
520 1 9.89026 9.84429 12.1101 -7.72836 -0.817706 1.67533 -0.365466 
124 1 10.0471 13.4551 1.51798 -7.90708 -0.402604 -0.311865 0.906202 
340 1 9.88266 13.571 6.8475 -7.76795 0.324965 0.541288 0.0636654 
556 1 9.93002 13.4569 12.1276 -8.25663 0.393975 0.474992 -1.17087 
160 1 9.88826 17.0839 1.7337 -8.08705 0.151494 0.673359 -1.74912 
376 1 10.0937 17.0984 6.82773 -8.10742 -0.841728 -0.742739 0.827964 
592 1 9.67362 17.0492 12.1177 -7.55826 0.437432 0.777535 -0.233482 
196 1 9.91702 20.6626 1.47137 -8.34021 0.180701 0.297038 0.646113 
412 1 9.8085 20.7923 6.74778 -7.75451 0.116127 -0.720067 0.484852 
628 1 9.85488 20.8263 11.9957 -7.90378 -0.0459544 -0.590685 0.250216 
654 1 0.993277 0.973327 16.6392 -7.89458 0.525089 0.169413 0.358981 
870 1 0.872294 0.834793 21.922 -7.51894 -0.577737 0.541335 -0.0496885 
1086 1 0.919795 0.982376 27.1078 -7.96544 -0.805097 -0.636236 0.662801 
1302 1 0.750069 0.894925 32.2351 -7.72656 -0.0526543 0.112534 1.13084 
690 1 1.0192 4.4956 16.6683 -7.96377 0.109092 -1.0731 -0.719678 
906 1 0.803089 4.53448 21.8949 -8.21998 0.337039 -0.316179 0.335592 
1122 1 0.711621 4.47751 27.1358 -8.05616 -0.257811 0.374198 0.733649 
1338 1 0.825836 4.52014 32.3888 -7.91445 -0.745543 1.07953 -0.549372 
726 1 0.756621 8.02766 16.5435 -7.61634 0.694065 0.344456 -0.726861 
942 1 0.728218 8.02456 21.8751 -8.05354 0.432658 0.319244 -0.642557 
1158 1 0.707628 8.1222 27.1126 -7.78709 1.33841 0.493025 -0.634774 
1374 1 0.668275 8.08233 32.3124 -7.96834 -0.20342 -1.54692 -0.78694 
762 1 0.878637 11.7045 16.6595 -7.86459 0.356253 -0.336493 0.684088 
978 1 0.791027 11.6446 21.9246 -7.83264 -0.48175 0.111965 -0.320066 
1194 1 0.773263 11.7311 27.083 -7.70564 0.0167801 -0.500127 -0.172583 
1410 1 0.830943 11.755 32.3561 -7.81107 -0.247175 0.130737 -0.2798 
798 1 0.910728 15.2976 16.6792 -7.94232 0.0321037 0.7073 0.101846 
1014 1 0.822051 15.203 21.8565 -7.71346 0.203037 0.602324 -0.0375876 
1230 1 0.832256 15.2883 27.0597 -7.8842 0.265276 0.911629 -0.0883798 
1446 1 0.778871 15.2533 32.3201 -8.37823 -0.14028 -0.0107231 0.247704 
834 1 0.981393 18.848 16.6297 -7.22778 0.452485 0.272157 -0.28535 
1050 1 0.668161 19.0362 21.9083 -7.98756 0.958681 -0.214658 0.165582 
1266 1 0.769705 18.83 27.1227 -7.58386 -0.00503127 -0.360136 0.254472 
1482 1 0.817137 19.0114 32.429 -7.941 -0.16438 -0.568314 -1.23504 
660 1 4.53836 0.891415 16.6717 -7.72665 -0.246904 -0.575783 -0.485981 
876 1 4.40682 0.941036 21.8842 -7.71059 0.489823 -1.06388 -0.108755 
1092 1 4.27837 0.809815 27.0938 -8.11112 -0.182535 1.09066 0.964494 
1308 1 4.43224 0.933824 32.3778 -8.20735 -0.77316 1.09412 0.300105 
696 1 4.65556 4.5724 16.8345 -7.67207 -0.620286 0.153211 -1.36995 
912 1 4.36512 4.47583 22.0504 -7.97483 -0.260204 -0.523418 -1.38958 
1128 1 4.35399 4.65039 27.1806 -8.23775 0.851165 -0.972935 0.450362 
1344 1 4.40828 4.52001 32.3704 -7.95721 -0.31318 -0.848954 0.103146 
732 1 4.50707 8.02806 16.6597 -7.68376 0.691295 0.502357 -0.0613528 
948 1 4.44926 8.12894 21.9053 -7.82447 -0.366106 -0.624526 0.289363 
1164 1 4.42307 8.05787 27.173 -7.99134 -0.222099 0.0103959 -0.786555 
1380 1 4.46974 8.10224 32.2449 -7.71914 0.450946 -0.0285056 0.477918 
768 1 4.31585 11.6987 16.6586 -7.65624 0.287564 0.455239 -0.81195 
984 1 4.46649 11.6634 21.8597 -7.8354 -0.351667 -0.290787 0.365812 
1200 1 4.53861 11.7315 27.0896 -7.90634 0.243818 -0.619533 0.524457 
1416 1 4.29838 11.6164 32.2644 -7.46224 0.756749 -0.0624444 0.420418 
804 1 4.55683 15.3166 16.5864 -7.81647 -0.322734 -0.112267 0.158895 
1020 1 4.34005 15.2261 21.8713 -8.21495 0.292013 1.38559 0.0340005 
1236 1 4.36911 15.1847 27.0111 -7.49969 0.314544 0.819584 0.560409 
1452 1 4.39209 15.4207 32.2664 -7.78894 -0.0107556 -0.358743 0.229716 
840 1 4.43607 18.9205 16.7096 -7.69432 0.870724 0.222369 -0.605022 
1056 1 4.58917 18.8606 21.7952 -8.05399 -0.519128 0.16418 0.972443 
1272 1 4.4747 18.9801 27.2198 -8.13504 -0.263341 0.5466 -0.314206 
1488 1 4.31972 18.8271 32.3837 -7.86708 -0.589153 0.252808 -0.0991804 
666 1 8.12336 0.811268 16.6109 -7.82894 -0.0967467 0.268361 0.164014 
882 1 8.0132 0.859764 21.8356 -8.36993 0.100367 0.0442993 0.659072 
1098 1 7.9713 0.939593 27.1104 -8.03488 0.398138 0.269554 0.142687 
1314 1 7.95819 0.848647 32.4566 -8.55733 0.0114671 0.206346 -0.693002 
702 1 8.16912 4.35837 16.6602 -7.78703 0.0972995 0.30376 0.423816 
918 1 8.07915 4.5139 21.9683 -8.24419 -0.201616 -0.322887 -0.736029 
1134 1 7.94136 4.47346 27.0577 -7.9975 0.235459 -0.729535 0.80749 
1350 1 8.21478 4.50819 32.2376 -7.64039 -0.428975 0.346075 0.861456 
738 1 8.09984 8.22911 16.6265 -8.35496 0.0443016 -0.588555 0.908559 
954 1 8.15086 7.98998 21.8025 -8.03805 -0.288382 -0.432794 0.406465 
1170 1 8.14523 8.12941 26.9595 -7.5657 -0.215306 0.0642563 1.73025 
1386 1 7.99488 8.08547 32.337 -8.06579 -0.562813 0.566853 -0.715573 
774 1 7.97277 11.6536 16.7016 -7.99615 0.618399 -0.378809 -0.322843 
990 1 7.8872 11.6734 21.8651 -7.74259 1.0507 0.559186 0.0354206 
1206 1 8.05485 11.7546 27.0597 -8.28801 -0.543642 -0.386776 1.15042 
1422 1 7.98878 11.8103 32.4346 -8.09422 -0.253346 -1.07195 -0.526901 
810 1 8.11372 15.2554 16.6756 -7.89109 -0.550562 0.248959 -0.230069 
1026 1 8.05218 15.275 21.9223 -7.71192 0.114706 -0.816127 0.42855 
1242 1 8.06195 15.3203 27.1742 -7.80774 -0.548251 -0.535284 -1.10375 
1458 1 7.94386 15.2361 32.284 -7.8281 -0.117533 0.738384 1.36277 
846 1 8.08171 18.961 16.6831 -8.09145 0.170167 -0.664859 0.299505 
1062 1 8.13325 18.9617 21.9715 -7.97109 -0.836137 0.770527 -0.25864 
1278 1 7.91702 18.9034 26.9831 -7.84499 0.156063 0.576959 0.88448 
1494 1 7.92046 19.0085 32.311 -7.71163 0.0404005 0.435577 -0.556341 
653 1 0.789716 0.869971 19.3522 -8.08693 0.64134 -0.0293898 -0.867658 
869 1 0.878976 0.879741 24.5536 -7.55624 -0.183475 -0.296518 -0.137525 
1085 1 0.774512 0.904878 29.7358 -7.90158 0.470381 -0.553816 -0.791902 