ITEM: TIMESTEP
0
ITEM: NUMBER OF ATOMS
256
ITEM: BOX BOUNDS pp pp pp
0.0000000000000000e+00 1.4538000000000000e+01
0.0000000000000000e+00 1.4538000000000000e+01
0.0000000000000000e+00 1.4538000000000000e+01
ITEM: ATOMS id type xs ys zs
1 1 0 0.125 0.125
65 1 0.125 0 0.125
129 1 0.125 0.125 0
193 2 0 0 0
17 1 0.25 0.125 0.125
209 2 0.25 0 0
81 1 0.375 0 0.125
145 1 0.375 0.125 0
69 1 0.125 0.25 0.125
197 2 0 0.25 0
213 2 0.25 0.25 0
85 1 0.375 0.25 0.125
5 1 0 0.375 0.125
133 1 0.125 0.375 0
21 1 0.25 0.375 0.125
149 1 0.375 0.375 0
130 1 0.125 0.125 0.25
194 2 0 0 0.25
210 2 0.25 0 0.25
146 1 0.375 0.125 0.25
198 2 0 0.25 0.25
214 2 0.25 0.25 0.25
134 1 0.125 0.375 0.25
150 1 0.375 0.375 0.25
2 1 0 0.125 0.375
66 1 0.125 0 0.375
18 1 0.25 0.125 0.375
82 1 0.375 0 0.375
70 1 0.125 0.25 0.375
86 1 0.375 0.25 0.375
6 1 0 0.375 0.375
22 1 0.25 0.375 0.375
3 1 0 0.125 0.625
67 1 0.125 0 0.625
131 1 0.125 0.125 0.5
195 2 0 0 0.5
19 1 0.25 0.125 0.625
211 2 0.25 0 0.5
83 1 0.375 0 0.625
147 1 0.375 0.125 0.5
71 1 0.125 0.25 0.625
199 2 0 0.25 0.5
215 2 0.25 0.25 0.5
87 1 0.375 0.25 0.625
7 1 0 0.375 0.625
135 1 0.125 0.375 0.5
23 1 0.25 0.375 0.625
151 1 0.375 0.375 0.5
132 1 0.125 0.125 0.75
196 2 0 0 0.75
212 2 0.25 0 0.75
148 1 0.375 0.125 0.75
200 2 0 0.25 0.75
216 2 0.25 0.25 0.75
136 1 0.125 0.375 0.75
152 1 0.375 0.375 0.75
4 1 0 0.125 0.875
68 1 0.125 0 0.875
20 1 0.25 0.125 0.875
84 1 0.375 0 0.875
72 1 0.125 0.25 0.875
88 1 0.375 0.25 0.875
8 1 0 0.375 0.875
24 1 0.25 0.375 0.875
9 1 0 0.625 0.125
73 1 0.125 0.5 0.125
137 1 0.125 0.625 0
201 2 0 0.5 0
25 1 0.25 0.625 0.125
217 2 0.25 0.5 0
89 1 0.375 0.5 0.125
153 1 0.375 0.625 0
77 1 0.125 0.75 0.125
205 2 0 0.75 0
221 2 0.25 0.75 0
93 1 0.375 0.75 0.125
13 1 0 0.875 0.125
141 1 0.125 0.875 0
29 1 0.25 0.875 0.125
157 1 0.375 0.875 0
138 1 0.125 0.625 0.25
202 2 0 0.5 0.25
218 2 0.25 0.5 0.25
154 1 0.375 0.625 0.25
206 2 0 0.75 0.25
222 2 0.25 0.75 0.25
142 1 0.125 0.875 0.25
158 1 0.375 0.875 0.25
10 1 0 0.625 0.375
74 1 0.125 0.5 0.375
26 1 0.25 0.625 0.375
90 1 0.375 0.5 0.375
78 1 0.125 0.75 0.375
94 1 0.375 0.75 0.375
14 1 0 0.875 0.375
30 1 0.25 0.875 0.375
11 1 0 0.625 0.625
75 1 0.125 0.5 0.625
139 1 0.125 0.625 0.5
203 2 0 0.5 0.5
27 1 0.25 0.625 0.625
219 2 0.25 0.5 0.5
91 1 0.375 0.5 0.625
155 1 0.375 0.625 0.5
79 1 0.125 0.75 0.625
207 2 0 0.75 0.5
223 2 0.25 0.75 0.5
95 1 0.375 0.75 0.625
15 1 0 0.875 0.625
143 1 0.125 0.875 0.5
31 1 0.25 0.875 0.625
159 1 0.375 0.875 0.5
140 1 0.125 0.625 0.75
204 2 0 0.5 0.75
220 2 0.25 0.5 0.75
156 1 0.375 0.625 0.75
208 2 0 0.75 0.75
224 2 0.25 0.75 0.75
144 1 0.125 0.875 0.75
160 1 0.375 0.875 0.75
12 1 0 0.625 0.875
76 1 0.125 0.5 0.875
28 1 0.25 0.625 0.875
92 1 0.375 0.5 0.875
80 1 0.125 0.75 0.875
96 1 0.375 0.75 0.875
16 1 0 0.875 0.875
32 1 0.25 0.875 0.875
33 1 0.5 0.125 0.125
97 1 0.625 0 0.125
161 1 0.625 0.125 0
225 2 0.5 0 0
49 1 0.75 0.125 0.125
241 2 0.75 0 0
113 1 0.875 0 0.125
177 1 0.875 0.125 0
101 1 0.625 0.25 0.125
229 2 0.5 0.25 0
245 2 0.75 0.25 0
117 1 0.875 0.25 0.125
37 1 0.5 0.375 0.125
165 1 0.625 0.375 0
53 1 0.75 0.375 0.125
181 1 0.875 0.375 0
162 1 0.625 0.125 0.25
226 2 0.5 0 0.25
242 2 0.75 0 0.25
178 1 0.875 0.125 0.25
230 2 0.5 0.25 0.25
246 2 0.75 0.25 0.25
166 1 0.625 0.375 0.25
182 1 0.875 0.375 0.25
34 1 0.5 0.125 0.375
98 1 0.625 0 0.375
50 1 0.75 0.125 0.375
114 1 0.875 0 0.375
102 1 0.625 0.25 0.375
118 1 0.875 0.25 0.375
38 1 0.5 0.375 0.375
54 1 0.75 0.375 0.375
35 1 0.5 0.125 0.625
99 1 0.625 0 0.625
163 1 0.625 0.125 0.5
227 2 0.5 0 0.5
51 1 0.75 0.125 0.625
243 2 0.75 0 0.5
115 1 0.875 0 0.625
179 1 0.875 0.125 0.5
103 1 0.625 0.25 0.625
231 2 0.5 0.25 0.5
247 2 0.75 0.25 0.5
119 1 0.875 0.25 0.625
39 1 0.5 0.375 0.625
167 1 0.625 0.375 0.5
55 1 0.75 0.375 0.625
183 1 0.875 0.375 0.5
164 1 0.625 0.125 0.75
228 2 0.5 0 0.75
244 2 0.75 0 0.75
180 1 0.875 0.125 0.75
232 2 0.5 0.25 0.75
248 2 0.75 0.25 0.75
168 1 0.625 0.375 0.75
184 1 0.875 0.375 0.75
36 1 0.5 0.125 0.875
100 1 0.625 0 0.875
52 1 0.75 0.125 0.875
116 1 0.875 0 0.875
104 1 0.625 0.25 0.875
120 1 0.875 0.25 0.875
40 1 0.5 0.375 0.875
56 1 0.75 0.375 0.875
41 1 0.5 0.625 0.125
105 1 0.625 0.5 0.125
169 1 0.625 0.625 0
233 2 0.5 0.5 0
57 1 0.75 0.625 0.125
249 2 0.75 0.5 0
121 1 0.875 0.5 0.125
185 1 0.875 0.625 0
109 1 0.625 0.75 0.125
237 2 0.5 0.75 0
253 2 0.75 0.75 0
125 1 0.875 0.75 0.125
45 1 0.5 0.875 0.125
173 1 0.625 0.875 0
61 1 0.75 0.875 0.125
189 1 0.875 0.875 0
170 1 0.625 0.625 0.25
234 2 0.5 0.5 0.25
250 2 0.75 0.5 0.25
186 1 0.875 0.625 0.25
238 2 0.5 0.75 0.25
254 2 0.75 0.75 0.25
174 1 0.625 0.875 0.25
190 1 0.875 0.875 0.25
42 1 0.5 0.625 0.375
106 1 0.625 0.5 0.375
58 1 0.75 0.625 0.375
122 1 0.875 0.5 0.375
110 1 0.625 0.75 0.375
126 1 0.875 0.75 0.375
46 1 0.5 0.875 0.375
62 1 0.75 0.875 0.375
43 1 0.5 0.625 0.625
107 1 0.625 0.5 0.625
171 1 0.625 0.625 0.5
235 2 0.5 0.5 0.5
59 1 0.75 0.625 0.625
251 2 0.75 0.5 0.5
123 1 0.875 0.5 0.625
187 1 0.875 0.625 0.5
111 1 0.625 0.75 0.625
239 2 0.5 0.75 0.5
255 2 0.75 0.75 0.5
127 1 0.875 0.75 0.625
47 1 0.5 0.875 0.625
175 1 0.625 0.875 0.5
63 1 0.75 0.875 0.625
191 1 0.875 0.875 0.5
172 1 0.625 0.625 0.75
236 2 0.5 0.5 0.75
252 2 0.75 0.5 0.75
188 1 0.875 0.625 0.75
240 2 0.5 0.75 0.75
256 2 0.75 0.75 0.75
176 1 0.625 0.875 0.75
192 1 0.875 0.875 0.75
44 1 0.5 0.625 0.875
108 1 0.625 0.5 0.875
60 1 0.75 0.625 0.875
124 1 0.875 0.5 0.875
112 1 0.625 0.75 0.875
128 1 0.875 0.75 0.875
48 1 0.5 0.875 0.875
64 1 0.75 0.875 0.875
ITEM: TIMESTEP
10
ITEM: NUMBER OF ATOMS
256
ITEM: BOX BOUNDS pp pp pp
0.0000000000000000e+00 1.4538000000000000e+01
0.0000000000000000e+00 1.4538000000000000e+01
0.0000000000000000e+00 1.4538000000000000e+01
ITEM: ATOMS id type xs ys zs
1 1 -4.28796e-19 0.125 0.125
65 1 0.125 -2.28317e-19 0.125
129 1 0.125 0.125 -6.08207e-20
193 2 3.18898e-19 5.27632e-19 4.49357e-19
17 1 0.25 0.125 0.125
209 2 0.25 3.7688e-19 4.63852e-19
81 1 0.375 4.45288e-19 0.125
145 1 0.375 0.125 5.11256e-19
69 1 0.125 0.25 0.125
197 2 2.60917e-19 0.25 5.50825e-19
213 2 0.25 0.25 6.37797e-19
85 1 0.375 0.25 0.125
5 1 2.3089e-19 0.375 0.125
133 1 0.125 0.375 4.81105e-19
21 1 0.25 0.375 0.125
149 1 0.375 0.375 1.18743e-18
130 1 0.125 0.125 0.25
194 2 2.60917e-19 4.49357e-19 0.25
210 2 0.25 4.34861e-19 0.25
146 1 0.375 0.125 0.25
198 2 3.18898e-19 0.25 0.25
214 2 0.25 0.25 0.25
134 1 0.125 0.375 0.25
150 1 0.375 0.375 0.25
2 1 2.63874e-19 0.125 0.375
66 1 0.125 3.32418e-19 0.375
18 1 0.25 0.125 0.375
82 1 0.375 8.57591e-19 0.375
70 1 0.125 0.25 0.375
86 1 0.375 0.25 0.375
6 1 7.91623e-19 0.375 0.375
22 1 0.25 0.375 0.375
3 1 9.89528e-20 0.125 0.625
67 1 0.125 3.32417e-19 0.625
131 1 0.125 0.125 0.5
195 2 7.82751e-19 1.00018e-18 0.5
19 1 0.25 0.125 0.625
211 2 0.25 1.04367e-18 0.5
83 1 0.375 1.08848e-18 0.625
147 1 0.375 0.125 0.5
71 1 0.125 0.25 0.625
199 2 8.69723e-19 0.25 0.5
215 2 0.25 0.25 0.5
87 1 0.375 0.25 0.625
7 1 8.90576e-19 0.375 0.625
135 1 0.125 0.375 0.5
23 1 0.25 0.375 0.625
151 1 0.375 0.375 0.5
132 1 0.125 0.125 0.75
196 2 5.79815e-19 5.07338e-19 0.75
212 2 0.25 6.66788e-19 0.75
148 1 0.375 0.125 0.75
200 2 5.50825e-19 0.25 0.75
216 2 0.25 0.25 0.75
136 1 0.125 0.375 0.75
152 1 0.375 0.375 0.75
4 1 -1.31937e-19 0.125 0.875
68 1 0.125 -1.62346e-19 0.875
20 1 0.25 0.125 0.875
84 1 0.375 5.11256e-19 0.875
72 1 0.125 0.25 0.875
88 1 0.375 0.25 0.875
8 1 6.26701e-19 0.375 0.875
24 1 0.25 0.375 0.875
9 1 1.64921e-19 0.625 0.125
73 1 0.125 0.5 0.125
137 1 0.125 0.625 3.97866e-19
201 2 9.27705e-19 0.5 1.14514e-18
25 1 0.25 0.625 0.125
217 2 0.25 0.5 1.10165e-18
89 1 0.375 0.5 0.125
153 1 0.375 0.625 1.02251e-18
77 1 0.125 0.75 0.125
205 2 4.92843e-19 0.75 7.68255e-19
221 2 0.25 0.75 7.5376e-19
93 1 0.375 0.75 0.125
13 1 -1.12147e-19 0.875 0.125
141 1 0.125 0.875 -7.98853e-20
29 1 0.25 0.875 0.125
157 1 0.375 0.875 6.9267e-19
138 1 0.125 0.625 0.25
202 2 9.27705e-19 0.5 0.25
218 2 0.25 0.5 0.25
154 1 0.375 0.625 0.25
206 2 4.63852e-19 0.75 0.25
222 2 0.25 0.75 0.25
142 1 0.125 0.875 0.25
158 1 0.375 0.875 0.25
10 1 7.58639e-19 0.625 0.375
74 1 0.125 0.5 0.375
26 1 0.25 0.625 0.375
90 1 0.375 0.5 0.375
78 1 0.125 0.75 0.375
94 1 0.375 0.75 0.375
14 1 5.27749e-19 0.875 0.375
30 1 0.25 0.875 0.375
11 1 9.56544e-19 0.625 0.625
75 1 0.125 0.5 0.625
139 1 0.125 0.625 0.5
203 2 1.30458e-18 0.5 0.5
27 1 0.25 0.625 0.625
219 2 0.25 0.5 0.5
91 1 0.375 0.5 0.625
155 1 0.375 0.625 0.5
79 1 0.125 0.75 0.625
207 2 9.27705e-19 0.75 0.5
223 2 0.25 0.75 0.5
95 1 0.375 0.75 0.625
15 1 5.60733e-19 0.875 0.625
143 1 0.125 0.875 0.5
31 1 0.25 0.875 0.625
159 1 0.375 0.875 0.5
140 1 0.125 0.625 0.75
204 2 1.15963e-18 0.5 0.75
220 2 0.25 0.5 0.75
156 1 0.375 0.625 0.75
208 2 3.47889e-19 0.75 0.75
224 2 0.25 0.75 0.75
144 1 0.125 0.875 0.75
160 1 0.375 0.875 0.75
12 1 6.9267e-19 0.625 0.875
76 1 0.125 0.5 0.875
28 1 0.25 0.625 0.875
92 1 0.375 0.5 0.875
80 1 0.125 0.75 0.875
96 1 0.375 0.75 0.875
16 1 1.97906e-19 0.875 0.875
32 1 0.25 0.875 0.875
33 1 0.5 0.125 0.125
97 1 0.625 3.62824e-19 0.125
161 1 0.625 0.125 3.98126e-19
225 2 0.5 9.71191e-19 8.98714e-19
49 1 0.75 0.125 0.125
241 2 0.75 2.89908e-19 5.07338e-19
113 1 0.875 -3.62827e-20 0.125
177 1 0.875 0.125 1.15445e-19
101 1 0.625 0.25 0.125
229 2 0.5 0.25 9.422e-19
245 2 0.75 0.25 5.79815e-19
117 1 0.875 0.25 0.125
37 1 0.5 0.375 0.125
165 1 0.625 0.375 1.18718e-18
53 1 0.75 0.375 0.125
181 1 0.875 0.375 8.90576e-19
162 1 0.625 0.125 0.25
226 2 0.5 9.422e-19 0.25
242 2 0.75 4.05871e-19 0.25
178 1 0.875 0.125 0.25
230 2 0.5 0.25 0.25
246 2 0.75 0.25 0.25
166 1 0.625 0.375 0.25
182 1 0.875 0.375 0.25
34 1 0.5 0.125 0.375
98 1 0.625 9.23301e-19 0.375
50 1 0.75 0.125 0.375
114 1 0.875 4.94764e-19 0.375
102 1 0.625 0.25 0.375
118 1 0.875 0.25 0.375
38 1 0.5 0.375 0.375
54 1 0.75 0.375 0.375
35 1 0.5 0.125 0.625
99 1 0.625 6.59682e-19 0.625
163 1 0.625 0.125 0.5
227 2 0.5 1.39156e-18 0.5
51 1 0.75 0.125 0.625
243 2 0.75 9.27705e-19 0.5
115 1 0.875 5.60403e-19 0.625
179 1 0.875 0.125 0.5
103 1 0.625 0.25 0.625
231 2 0.5 0.25 0.5
247 2 0.75 0.25 0.5
119 1 0.875 0.25 0.625
39 1 0.5 0.375 0.625
167 1 0.625 0.375 0.5
55 1 0.75 0.375 0.625
183 1 0.875 0.375 0.5
164 1 0.625 0.125 0.75
228 2 0.5 1.11614e-18 0.75
244 2 0.75 4.92843e-19 0.75
180 1 0.875 0.125 0.75
232 2 0.5 0.25 0.75
248 2 0.75 0.25 0.75
168 1 0.625 0.375 0.75
184 1 0.875 0.375 0.75
36 1 0.5 0.125 0.875
100 1 0.625 5.27747e-19 0.875
52 1 0.75 0.125 0.875
116 1 0.875 1.48429e-19 0.875
104 1 0.625 0.25 0.875
120 1 0.875 0.25 0.875
40 1 0.5 0.375 0.875
56 1 0.75 0.375 0.875
41 1 0.5 0.625 0.125
105 1 0.625 0.5 0.125
169 1 0.625 0.625 8.57587e-19
233 2 0.5 0.5 1.36257e-18
57 1 0.75 0.625 0.125
249 2 0.75 0.5 1.23211e-18
121 1 0.875 0.5 0.125
185 1 0.875 0.625 8.40769e-19
109 1 0.625 0.75 0.125
237 2 0.5 0.75 1.14514e-18
253 2 0.75 0.75 5.21834e-19
125 1 0.875 0.75 0.125
45 1 0.5 0.875 0.125
173 1 0.625 0.875 5.77224e-19
61 1 0.75 0.875 0.125
189 1 0.875 0.875 3.95811e-19
170 1 0.625 0.625 0.25
234 2 0.5 0.5 0.25
250 2 0.75 0.5 0.25
186 1 0.875 0.625 0.25
238 2 0.5 0.75 0.25
254 2 0.75 0.75 0.25
174 1 0.625 0.875 0.25
190 1 0.875 0.875 0.25
42 1 0.5 0.625 0.375
106 1 0.625 0.5 0.375
58 1 0.75 0.625 0.375
122 1 0.875 0.5 0.375
110 1 0.625 0.75 0.375
126 1 0.875 0.75 0.375
46 1 0.5 0.875 0.375
62 1 0.75 0.875 0.375
43 1 0.5 0.625 0.625
107 1 0.625 0.5 0.625
171 1 0.625 0.625 0.5
235 2 0.5 0.5 0.5
59 1 0.75 0.625 0.625
251 2 0.75 0.5 0.5
123 1 0.875 0.5 0.625
187 1 0.875 0.625 0.5
111 1 0.625 0.75 0.625
239 2 0.5 0.75 0.5
255 2 0.75 0.75 0.5
127 1 0.875 0.75 0.625
47 1 0.5 0.875 0.625
175 1 0.625 0.875 0.5
63 1 0.75 0.875 0.625
191 1 0.875 0.875 0.5
172 1 0.625 0.625 0.75
236 2 0.5 0.5 0.75
252 2 0.75 0.5 0.75
188 1 0.875 0.625 0.75
240 2 0.5 0.75 0.75
256 2 0.75 0.75 0.75
176 1 0.625 0.875 0.75
192 1 0.875 0.875 0.75
44 1 0.5 0.625 0.875
108 1 0.625 0.5 0.875
60 1 0.75 0.625 0.875
124 1 0.875 0.5 0.875
112 1 0.625 0.75 0.875
128 1 0.875 0.75 0.875
48 1 0.5 0.875 0.875
64 1 0.75 0.875 0.875
ITEM: TIMESTEP
20
ITEM: NUMBER OF ATOMS
256
ITEM: BOX BOUNDS pp pp pp
0.0000000000000000e+00 1.4538000000000000e+01
0.0000000000000000e+00 1.4538000000000000e+01
0.0000000000000000e+00 1.4538000000000000e+01
ITEM: ATOMS id type xs ys zs
1 1 -1.74223e-18 0.125 0.125
65 1 0.125 -9.13316e-19 0.125
129 1 0.125 0.125 -2.43355e-19
193 2 1.27559e-18 2.14822e-18 1.79743e-18
17 1 0.25 0.125 0.125
209 2 0.25 1.50752e-18 1.85541e-18
81 1 0.375 1.78115e-18 0.125
145 1 0.375 0.125 2.04503e-18
69 1 0.125 0.25 0.125
197 2 1.04367e-18 0.25 2.2033e-18
213 2 0.25 0.25 2.55119e-18
85 1 0.375 0.25 0.125
5 1 9.2356e-19 0.375 0.125
133 1 0.125 0.375 1.9244e-18
21 1 0.25 0.375 0.125
149 1 0.375 0.375 4.74974e-18
130 1 0.125 0.125 0.25
194 2 1.04367e-18 1.80352e-18 0.25
210 2 0.25 1.73945e-18 0.25
146 1 0.375 0.125 0.25
198 2 1.27559e-18 0.25 0.25
214 2 0.25 0.25 0.25
134 1 0.125 0.375 0.25
150 1 0.375 0.375 0.25
2 1 1.0555e-18 0.125 0.375
66 1 0.125 1.3059e-18 0.375
18 1 0.25 0.125 0.375
82 1 0.375 3.43037e-18 0.375
70 1 0.125 0.25 0.375
86 1 0.375 0.25 0.375
6 1 3.16649e-18 0.375 0.375
22 1 0.25 0.375 0.375
3 1 3.95811e-19 0.125 0.625
67 1 0.125 1.32964e-18 0.625
131 1 0.125 0.125 0.5
195 2 3.131e-18 4.00073e-18 0.5
19 1 0.25 0.125 0.625
211 2 0.25 4.17467e-18 0.5
83 1 0.375 4.35393e-18 0.625
147 1 0.375 0.125 0.5
71 1 0.125 0.25 0.625
199 2 3.47889e-18 0.25 0.5
215 2 0.25 0.25 0.5
87 1 0.375 0.25 0.625
7 1 3.5623e-18 0.375 0.625
135 1 0.125 0.375 0.5
23 1 0.25 0.375 0.625
151 1 0.375 0.375 0.5
132 1 0.125 0.125 0.75
196 2 2.31926e-18 2.02935e-18 0.75
212 2 0.25 2.66715e-18 0.75
148 1 0.375 0.125 0.75
200 2 2.2033e-18 0.25 0.75
216 2 0.25 0.25 0.75
136 1 0.125 0.375 0.75
152 1 0.375 0.375 0.75
4 1 -5.27749e-19 0.125 0.875
68 1 0.125 -6.49409e-19 0.875
20 1 0.25 0.125 0.875
84 1 0.375 2.04503e-18 0.875
72 1 0.125 0.25 0.875
88 1 0.375 0.25 0.875
8 1 2.50681e-18 0.375 0.875
24 1 0.25 0.375 0.875
9 1 6.59686e-19 0.625 0.125
73 1 0.125 0.5 0.125
137 1 0.125 0.625 1.59152e-18
201 2 3.71082e-18 0.5 4.58054e-18
25 1 0.25 0.625 0.125
217 2 0.25 0.5 4.40747e-18
89 1 0.375 0.5 0.125
153 1 0.375 0.625 4.09005e-18
77 1 0.125 0.75 0.125
205 2 1.97137e-18 0.75 3.07302e-18
221 2 0.25 0.75 3.01504e-18
93 1 0.375 0.75 0.125
13 1 -5.34345e-19 0.875 0.125
141 1 0.125 0.875 -3.19415e-19
29 1 0.25 0.875 0.125
157 1 0.375 0.875 2.77068e-18
138 1 0.125 0.625 0.25
202 2 3.71082e-18 0.5 0.25
218 2 0.25 0.5 0.25
154 1 0.375 0.625 0.25
206 2 1.85541e-18 0.75 0.25
222 2 0.25 0.75 0.25
142 1 0.125 0.875 0.25
158 1 0.375 0.875 0.25
10 1 3.03455e-18 0.625 0.375
74 1 0.125 0.5 0.375
26 1 0.25 0.625 0.375
90 1 0.375 0.5 0.375
78 1 0.125 0.75 0.375
94 1 0.375 0.75 0.375
14 1 2.11099e-18 0.875 0.375
30 1 0.25 0.875 0.375
11 1 3.82618e-18 0.625 0.625
75 1 0.125 0.5 0.625
139 1 0.125 0.625 0.5
203 2 5.21834e-18 0.5 0.5
27 1 0.25 0.625 0.625
219 2 0.25 0.5 0.5
91 1 0.375 0.5 0.625
155 1 0.375 0.625 0.5
79 1 0.125 0.75 0.625
207 2 3.71082e-18 0.75 0.5
223 2 0.25 0.75 0.5
95 1 0.375 0.75 0.625
15 1 2.24293e-18 0.875 0.625
143 1 0.125 0.875 0.5
31 1 0.25 0.875 0.625
159 1 0.375 0.875 0.5
140 1 0.125 0.625 0.75
204 2 4.63852e-18 0.5 0.75
220 2 0.25 0.5 0.75
156 1 0.375 0.625 0.75
208 2 1.39156e-18 0.75 0.75
224 2 0.25 0.75 0.75
144 1 0.125 0.875 0.75
160 1 0.375 0.875 0.75
12 1 2.77068e-18 0.625 0.875
76 1 0.125 0.5 0.875
28 1 0.25 0.625 0.875
92 1 0.375 0.5 0.875
80 1 0.125 0.75 0.875
96 1 0.375 0.75 0.875
16 1 7.91623e-19 0.875 0.875
32 1 0.25 0.875 0.875
33 1 0.5 0.125 0.125
97 1 0.625 1.44136e-18 0.125
161 1 0.625 0.125 1.59245e-18
225 2 0.5 3.91665e-18 3.59485e-18
49 1 0.75 0.125 0.125
241 2 0.75 1.15963e-18 2.02935e-18
113 1 0.875 -1.66571e-19 0.125
177 1 0.875 0.125 4.6178e-19
101 1 0.625 0.25 0.125
229 2 0.5 0.25 3.7688e-18
245 2 0.75 0.25 2.31926e-18
117 1 0.875 0.25 0.125
37 1 0.5 0.375 0.125
165 1 0.625 0.375 4.7487e-18
53 1 0.75 0.375 0.125
181 1 0.875 0.375 3.5623e-18
162 1 0.625 0.125 0.25
226 2 0.5 3.7688e-18 0.25
242 2 0.75 1.62348e-18 0.25
178 1 0.875 0.125 0.25
230 2 0.5 0.25 0.25
246 2 0.75 0.25 0.25
166 1 0.625 0.375 0.25
182 1 0.875 0.375 0.25
34 1 0.5 0.125 0.375
98 1 0.625 3.69319e-18 0.375
50 1 0.75 0.125 0.375
114 1 0.875 1.97906e-18 0.375
102 1 0.625 0.25 0.375
118 1 0.875 0.25 0.375
38 1 0.5 0.375 0.375
54 1 0.75 0.375 0.375
35 1 0.5 0.125 0.625
99 1 0.625 2.6388e-18 0.625
163 1 0.625 0.125 0.5
227 2 0.5 5.56623e-18 0.5
51 1 0.75 0.125 0.625
243 2 0.75 3.71082e-18 0.5
115 1 0.875 2.22116e-18 0.625
179 1 0.875 0.125 0.5
103 1 0.625 0.25 0.625
231 2 0.5 0.25 0.5
247 2 0.75 0.25 0.5
119 1 0.875 0.25 0.625
39 1 0.5 0.375 0.625
167 1 0.625 0.375 0.5
55 1 0.75 0.375 0.625
183 1 0.875 0.375 0.5
164 1 0.625 0.125 0.75
228 2 0.5 4.46458e-18 0.75
244 2 0.75 1.97137e-18 0.75
180 1 0.875 0.125 0.75
232 2 0.5 0.25 0.75
248 2 0.75 0.25 0.75
168 1 0.625 0.375 0.75
184 1 0.875 0.375 0.75
36 1 0.5 0.125 0.875
100 1 0.625 2.10965e-18 0.875
52 1 0.75 0.125 0.875
116 1 0.875 5.93717e-19 0.875
104 1 0.625 0.25 0.875
120 1 0.875 0.25 0.875
40 1 0.5 0.375 0.875
56 1 0.75 0.375 0.875
41 1 0.5 0.625 0.125
105 1 0.625 0.5 0.125
169 1 0.625 0.625 3.43034e-18
233 2 0.5 0.5 5.45026e-18
57 1 0.75 0.625 0.125
249 2 0.75 0.5 4.92843e-18
121 1 0.875 0.5 0.125
185 1 0.875 0.625 3.34263e-18
109 1 0.625 0.75 0.125
237 2 0.5 0.75 4.58054e-18
253 2 0.75 0.75 2.08734e-18
125 1 0.875 0.75 0.125
45 1 0.5 0.875 0.125
173 1 0.625 0.875 2.30889e-18
61 1 0.75 0.875 0.125
189 1 0.875 0.875 1.58325e-18
170 1 0.625 0.625 0.25
234 2 0.5 0.5 0.25
250 2 0.75 0.5 0.25
186 1 0.875 0.625 0.25
238 2 0.5 0.75 0.25
254 2 0.75 0.75 0.25
174 1 0.625 0.875 0.25
190 1 0.875 0.875 0.25
42 1 0.5 0.625 0.375
106 1 0.625 0.5 0.375
58 1 0.75 0.625 0.375
122 1 0.875 0.5 0.375
110 1 0.625 0.75 0.375
126 1 0.875 0.75 0.375
46 1 0.5 0.875 0.375
62 1 0.75 0.875 0.375
43 1 0.5 0.625 0.625
107 1 0.625 0.5 0.625
171 1 0.625 0.625 0.5
235 2 0.5 0.5 0.5
59 1 0.75 0.625 0.625
251 2 0.75 0.5 0.5
123 1 0.875 0.5 0.625
187 1 0.875 0.625 0.5
111 1 0.625 0.75 0.625
239 2 0.5 0.75 0.5
255 2 0.75 0.75 0.5
127 1 0.875 0.75 0.625
47 1 0.5 0.875 0.625
175 1 0.625 0.875 0.5
63 1 0.75 0.875 0.625
191 1 0.875 0.875 0.5
172 1 0.625 0.625 0.75
236 2 0.5 0.5 0.75
252 2 0.75 0.5 0.75
188 1 0.875 0.625 0.75
240 2 0.5 0.75 0.75
256 2 0.75 0.75 0.75
176 1 0.625 0.875 0.75
192 1 0.875 0.875 0.75
44 1 0.5 0.625 0.875
108 1 0.625 0.5 0.875
60 1 0.75 0.625 0.875
124 1 0.875 0.5 0.875
112 1 0.625 0.75 0.875
128 1 0.875 0.75 0.875
48 1 0.5 0.875 0.875
64 1 0.75 0.875 0.875
ITEM: TIMESTEP
30
ITEM: NUMBER OF ATOMS
256
ITEM: BOX BOUNDS pp pp pp
0.0000000000000000e+00 1.4538000000000000e+01
0.0000000000000000e+00 1.4538000000000000e+01
0.0000000000000000e+00 1.4538000000000000e+01
ITEM: ATOMS id type xs ys zs
1 1 -4.08741e-18 0.125 0.125
65 1 0.125 -2.05486e-18 0.125
129 1 0.125 0.125 -5.47743e-19
193 2 2.87009e-18 4.87045e-18 4.04421e-18
17 1 0.25 0.125 0.125
209 2 0.25 3.39192e-18 4.17467e-18
81 1 0.375 3.98945e-18 0.125
145 1 0.375 0.125 4.58185e-18
69 1 0.125 0.25 0.125
197 2 2.34883e-18 0.25 4.97337e-18
213 2 0.25 0.25 5.74017e-18
85 1 0.375 0.25 0.125
5 1 2.03975e-18 0.375 0.125
133 1 0.125 0.375 4.31672e-18
21 1 0.25 0.375 0.125
149 1 0.375 0.375 1.04283e-17
130 1 0.125 0.125 0.25
194 2 2.34825e-18 4.08364e-18 0.25
210 2 0.25 3.91375e-18 0.25
146 1 0.375 0.125 0.25
198 2 2.87009e-18 0.25 0.25
214 2 0.25 0.25 0.25
134 1 0.125 0.375 0.25
150 1 0.375 0.375 0.25
2 1 2.36893e-18 0.125 0.375
66 1 0.125 2.8808e-18 0.375
18 1 0.25 0.125 0.375
82 1 0.375 7.74009e-18 0.375
70 1 0.125 0.25 0.375
86 1 0.375 0.25 0.375
6 1 7.12461e-18 0.375 0.375
22 1 0.25 0.375 0.375
3 1 8.89916e-19 0.125 0.625
67 1 0.125 2.98768e-18 0.625
131 1 0.125 0.125 0.5
195 2 7.07839e-18 8.92858e-18 0.5
19 1 0.25 0.125 0.625
211 2 0.25 9.30778e-18 0.5
83 1 0.375 9.64098e-18 0.625
147 1 0.375 0.125 0.5
71 1 0.125 0.25 0.625
199 2 7.82867e-18 0.25 0.5
215 2 0.25 0.25 0.5
87 1 0.375 0.25 0.625
7 1 8.00858e-18 0.375 0.625
135 1 0.125 0.375 0.5
23 1 0.25 0.375 0.625
151 1 0.375 0.375 0.5
132 1 0.125 0.125 0.75
196 2 5.21834e-18 4.56605e-18 0.75
212 2 0.25 5.99413e-18 0.75
148 1 0.375 0.125 0.75
200 2 4.95742e-18 0.25 0.75
216 2 0.25 0.25 0.75
136 1 0.125 0.375 0.75
152 1 0.375 0.375 0.75
4 1 -1.18743e-18 0.125 0.875
68 1 0.125 -1.46097e-18 0.875
20 1 0.25 0.125 0.875
84 1 0.375 4.59537e-18 0.875
72 1 0.125 0.25 0.875
88 1 0.375 0.25 0.875
8 1 5.62712e-18 0.375 0.875
24 1 0.25 0.375 0.875
9 1 1.48165e-18 0.625 0.125
73 1 0.125 0.5 0.125
137 1 0.125 0.625 3.57843e-18
201 2 8.41544e-18 0.5 1.00169e-17
25 1 0.25 0.625 0.125
217 2 0.25 0.5 9.75481e-18
89 1 0.375 0.5 0.125
153 1 0.375 0.625 9.13929e-18
77 1 0.125 0.75 0.125
205 2 4.43559e-18 0.75 6.89111e-18
221 2 0.25 0.75 6.77688e-18
93 1 0.375 0.75 0.125
13 1 -1.28639e-18 0.875 0.125
141 1 0.125 0.875 -7.1827e-19
29 1 0.25 0.875 0.125
157 1 0.375 0.875 6.22941e-18
138 1 0.125 0.625 0.25
202 2 8.31223e-18 0.5 0.25
218 2 0.25 0.5 0.25
154 1 0.375 0.625 0.25
206 2 4.17583e-18 0.75 0.25
222 2 0.25 0.75 0.25
142 1 0.125 0.875 0.25
158 1 0.375 0.875 0.25
10 1 6.81785e-18 0.625 0.375
74 1 0.125 0.5 0.375
26 1 0.25 0.625 0.375
90 1 0.375 0.5 0.375
78 1 0.125 0.75 0.375
94 1 0.375 0.75 0.375
14 1 4.74974e-18 0.875 0.375
30 1 0.25 0.875 0.375
11 1 8.55942e-18 0.625 0.625
75 1 0.125 0.5 0.625
139 1 0.125 0.625 0.5
203 2 1.12194e-17 0.5 0.5
27 1 0.25 0.625 0.625
219 2 0.25 0.5 0.5
91 1 0.375 0.5 0.625
155 1 0.375 0.625 0.5
79 1 0.125 0.75 0.625
207 2 8.33832e-18 0.75 0.5
223 2 0.25 0.75 0.5
95 1 0.375 0.75 0.625
15 1 5.04594e-18 0.875 0.625
143 1 0.125 0.875 0.5
31 1 0.25 0.875 0.625
159 1 0.375 0.875 0.5
140 1 0.125 0.625 0.75
204 2 1.01827e-17 0.5 0.75
220 2 0.25 0.5 0.75
156 1 0.375 0.625 0.75
208 2 3.14144e-18 0.75 0.75
224 2 0.25 0.75 0.75
144 1 0.125 0.875 0.75
160 1 0.375 0.875 0.75
12 1 6.23205e-18 0.625 0.875
76 1 0.125 0.5 0.875
28 1 0.25 0.625 0.875
92 1 0.375 0.5 0.875
80 1 0.125 0.75 0.875
96 1 0.375 0.75 0.875
16 1 1.78115e-18 0.875 0.875
32 1 0.25 0.875 0.875
33 1 0.5 0.125 0.125
97 1 0.625 3.18469e-18 0.125
161 1 0.625 0.125 3.59495e-18
225 2 0.5 8.78304e-18 8.12321e-18
49 1 0.75 0.125 0.125
241 2 0.75 2.62424e-18 4.56779e-18
113 1 0.875 -4.09005e-19 0.125
177 1 0.875 0.125 1.039e-18
101 1 0.625 0.25 0.125
229 2 0.5 0.25 8.4511e-18
245 2 0.75 0.25 5.21834e-18
117 1 0.875 0.25 0.125
37 1 0.5 0.375 0.125
165 1 0.625 0.375 1.04406e-17
53 1 0.75 0.375 0.125
181 1 0.875 0.375 8.01518e-18
162 1 0.625 0.125 0.25
226 2 0.5 8.46994e-18 0.25
242 2 0.75 3.65284e-18 0.25
178 1 0.875 0.125 0.25
230 2 0.5 0.25 0.25
246 2 0.75 0.25 0.25
166 1 0.625 0.375 0.25
182 1 0.875 0.375 0.25
34 1 0.5 0.125 0.375
98 1 0.625 8.27136e-18 0.375
50 1 0.75 0.125 0.375
114 1 0.875 4.44496e-18 0.375
102 1 0.625 0.25 0.375
118 1 0.875 0.25 0.375
38 1 0.5 0.375 0.375
54 1 0.75 0.375 0.375
35 1 0.5 0.125 0.625
99 1 0.625 5.92114e-18 0.625
163 1 0.625 0.125 0.5
227 2 0.5 1.17917e-17 0.5
51 1 0.75 0.125 0.625
243 2 0.75 8.34934e-18 0.5
115 1 0.875 4.96875e-18 0.625
179 1 0.875 0.125 0.5
103 1 0.625 0.25 0.625
231 2 0.5 0.25 0.5
247 2 0.75 0.25 0.5
119 1 0.875 0.25 0.625
39 1 0.5 0.375 0.625
167 1 0.625 0.375 0.5
55 1 0.75 0.375 0.625
183 1 0.875 0.375 0.5
164 1 0.625 0.125 0.75
228 2 0.5 9.84352e-18 0.75
244 2 0.75 4.43559e-18 0.75
180 1 0.875 0.125 0.75
232 2 0.5 0.25 0.75
248 2 0.75 0.25 0.75
168 1 0.625 0.375 0.75
184 1 0.875 0.375 0.75
36 1 0.5 0.125 0.875
100 1 0.625 4.67029e-18 0.875
52 1 0.75 0.125 0.875
116 1 0.875 1.33586e-18 0.875
104 1 0.625 0.25 0.875
120 1 0.875 0.25 0.875
40 1 0.5 0.375 0.875
56 1 0.75 0.375 0.875
41 1 0.5 0.625 0.125
105 1 0.625 0.5 0.125
169 1 0.625 0.625 7.71208e-18
233 2 0.5 0.5 1.14699e-17
57 1 0.75 0.625 0.125
249 2 0.75 0.5 1.06442e-17
121 1 0.875 0.5 0.125
185 1 0.875 0.625 7.47325e-18
109 1 0.625 0.75 0.125
237 2 0.5 0.75 1.00424e-17
253 2 0.75 0.75 4.7081e-18
125 1 0.875 0.75 0.125
45 1 0.5 0.875 0.125
173 1 0.625 0.875 5.19495e-18
61 1 0.75 0.875 0.125
189 1 0.875 0.875 3.56131e-18
170 1 0.625 0.625 0.25
234 2 0.5 0.5 0.25
250 2 0.75 0.5 0.25
186 1 0.875 0.625 0.25
238 2 0.5 0.75 0.25
254 2 0.75 0.75 0.25
174 1 0.625 0.875 0.25
190 1 0.875 0.875 0.25
42 1 0.5 0.625 0.375
106 1 0.625 0.5 0.375
58 1 0.75 0.625 0.375
122 1 0.875 0.5 0.375
110 1 0.625 0.75 0.375
126 1 0.875 0.75 0.375
46 1 0.5 0.875 0.375
62 1 0.75 0.875 0.375
43 1 0.5 0.625 0.625
107 1 0.625 0.5 0.625
171 1 0.625 0.625 0.5
235 2 0.5 0.5 0.5
59 1 0.75 0.625 0.625
251 2 0.75 0.5 0.5
123 1 0.875 0.5 0.625
187 1 0.875 0.625 0.5
111 1 0.625 0.75 0.625
239 2 0.5 0.75 0.5
255 2 0.75 0.75 0.5
127 1 0.875 0.75 0.625
47 1 0.5 0.875 0.625
175 1 0.625 0.875 0.5
63 1 0.75 0.875 0.625
191 1 0.875 0.875 0.5
172 1 0.625 0.625 0.75
236 2 0.5 0.5 0.75
252 2 0.75 0.5 0.75
188 1 0.875 0.625 0.75
240 2 0.5 0.75 0.75
256 2 0.75 0.75 0.75
176 1 0.625 0.875 0.75
192 1 0.875 0.875 0.75
44 1 0.5 0.625 0.875
108 1 0.625 0.5 0.875
60 1 0.75 0.625 0.875
124 1 0.875 0.5 0.875
112 1 0.625 0.75 0.875
128 1 0.875 0.75 0.875
48 1 0.5 0.875 0.875
64 1 0.75 0.875 0.875
ITEM: TIMESTEP
40
ITEM: NUMBER OF ATOMS
256
ITEM: BOX BOUNDS pp pp pp
0.0000000000000000e+00 1.4538000000000000e+01
0.0000000000000000e+00 1.4538000000000000e+01
0.0000000000000000e+00 1.4538000000000000e+01
ITEM: ATOMS id type xs ys zs
1 1 -7.47688e-18 0.125 0.125
65 1 0.125 -3.64043e-18 0.125
129 1 0.125 0.125 -1.00822e-18
193 2 5.14354e-18 8.66186e-18 7.20594e-18
17 1 0.25 0.125 0.125
209 2 0.25 6.06603e-18 7.39207e-18
81 1 0.375 7.25456e-18 0.125
145 1 0.375 0.125 8.09137e-18
69 1 0.125 0.25 0.125
197 2 4.34688e-18 0.25 8.81232e-18
213 2 0.25 0.25 9.8557e-18
85 1 0.375 0.25 0.125
5 1 3.84069e-18 0.375 0.125
133 1 0.125 0.375 7.71029e-18
21 1 0.25 0.375 0.125
149 1 0.375 0.375 1.61936e-17
130 1 0.125 0.125 0.25
194 2 4.17177e-18 7.32916e-18 0.25
210 2 0.25 6.95778e-18 0.25
146 1 0.375 0.125 0.25
198 2 5.03164e-18 0.25 0.25
214 2 0.25 0.25 0.25
134 1 0.125 0.375 0.25
150 1 0.375 0.375 0.25
2 1 4.27806e-18 0.125 0.375
66 1 0.125 5.2015e-18 0.375
18 1 0.25 0.125 0.375
82 1 0.375 1.26643e-17 0.375
70 1 0.125 0.25 0.375
86 1 0.375 0.25 0.375
6 1 1.16797e-17 0.375 0.375
22 1 0.25 0.375 0.375
3 1 1.66241e-18 0.125 0.625
67 1 0.125 5.21372e-18 0.625
131 1 0.125 0.125 0.5
195 2 1.19813e-17 1.47183e-17 0.5
19 1 0.25 0.125 0.625
211 2 0.25 1.44565e-17 0.5
83 1 0.375 1.50359e-17 0.625
147 1 0.375 0.125 0.5
71 1 0.125 0.25 0.625
199 2 1.23924e-17 0.25 0.5
215 2 0.25 0.25 0.5
87 1 0.375 0.25 0.625
7 1 1.29556e-17 0.375 0.625
135 1 0.125 0.375 0.5
23 1 0.25 0.375 0.625
151 1 0.375 0.375 0.5
132 1 0.125 0.125 0.75
196 2 9.13905e-18 8.23889e-18 0.75
212 2 0.25 1.02192e-17 0.75
148 1 0.375 0.125 0.75
200 2 8.79522e-18 0.25 0.75
216 2 0.25 0.25 0.75
136 1 0.125 0.375 0.75
152 1 0.375 0.375 0.75
4 1 -2.09978e-18 0.125 0.875
68 1 0.125 -2.58638e-18 0.875
20 1 0.25 0.125 0.875
84 1 0.375 8.0673e-18 0.875
72 1 0.125 0.25 0.875
88 1 0.375 0.25 0.875
8 1 9.70661e-18 0.375 0.875
24 1 0.25 0.375 0.875
9 1 2.87095e-18 0.625 0.125
73 1 0.125 0.5 0.125
137 1 0.125 0.625 6.48623e-18
201 2 1.34581e-17 0.5 1.64273e-17
25 1 0.25 0.625 0.125
217 2 0.25 0.5 1.49755e-17
89 1 0.375 0.5 0.125
153 1 0.375 0.625 1.45306e-17
77 1 0.125 0.75 0.125
205 2 8.17134e-18 0.75 1.13815e-17
221 2 0.25 0.75 1.10617e-17
93 1 0.375 0.75 0.125
13 1 -2.36827e-18 0.875 0.125
141 1 0.125 0.875 -1.2876e-18
29 1 0.25 0.875 0.125
157 1 0.375 0.875 1.058e-17
138 1 0.125 0.625 0.25
202 2 1.28209e-17 0.5 0.25
218 2 0.25 0.5 0.25
154 1 0.375 0.625 0.25
206 2 7.41526e-18 0.75 0.25
222 2 0.25 0.75 0.25
142 1 0.125 0.875 0.25
158 1 0.375 0.875 0.25
10 1 1.11856e-17 0.625 0.375
74 1 0.125 0.5 0.375
26 1 0.25 0.625 0.375
90 1 0.375 0.5 0.375
78 1 0.125 0.75 0.375
94 1 0.375 0.75 0.375
14 1 8.442e-18 0.875 0.375
30 1 0.25 0.875 0.375
11 1 1.35895e-17 0.625 0.625
75 1 0.125 0.5 0.625
139 1 0.125 0.625 0.5
203 2 1.66349e-17 0.5 0.5
27 1 0.25 0.625 0.625
219 2 0.25 0.5 0.5
91 1 0.375 0.5 0.625
155 1 0.375 0.625 0.5
79 1 0.125 0.75 0.625
207 2 1.30772e-17 0.75 0.5
223 2 0.25 0.75 0.5
95 1 0.375 0.75 0.625
15 1 8.8233e-18 0.875 0.625
143 1 0.125 0.875 0.5
31 1 0.25 0.875 0.625
159 1 0.375 0.875 0.5
140 1 0.125 0.625 0.75
204 2 1.57675e-17 0.5 0.75
220 2 0.25 0.5 0.75
156 1 0.375 0.625 0.75
208 2 5.59174e-18 0.75 0.75
224 2 0.25 0.75 0.75
144 1 0.125 0.875 0.75
160 1 0.375 0.875 0.75
12 1 1.05484e-17 0.625 0.875
76 1 0.125 0.5 0.875
28 1 0.25 0.625 0.875
92 1 0.375 0.5 0.875
80 1 0.125 0.75 0.875
96 1 0.375 0.75 0.875
16 1 3.15726e-18 0.875 0.875
32 1 0.25 0.875 0.875
33 1 0.5 0.125 0.125
97 1 0.625 5.42535e-18 0.125
161 1 0.625 0.125 6.4274e-18
225 2 0.5 1.38016e-17 1.41484e-17
49 1 0.75 0.125 0.125
241 2 0.75 4.86059e-18 8.1235e-18
113 1 0.875 -8.63199e-19 0.125
177 1 0.875 0.125 1.84349e-18
101 1 0.625 0.25 0.125
229 2 0.5 0.25 1.3178e-17
245 2 0.75 0.25 9.29096e-18
117 1 0.875 0.25 0.125
37 1 0.5 0.375 0.125
165 1 0.625 0.375 1.62264e-17
53 1 0.75 0.375 0.125
181 1 0.875 0.375 1.32749e-17