Position data for Cu system

 256  atoms
 2  atom types
  0  1.45380E+001  xlo xhi
  0  1.45380E+001  ylo yhi
  0  1.45380E+001  zlo zhi

 Atoms

1  1 0 1.81725 1.81725
2  1 0 1.81725 5.45175
3  1 0 1.81725 9.08625
4  1 0 1.81725 12.72075
5  1 0 5.45175 1.81725
6  1 0 5.45175 5.45175
7  1 0 5.45175 9.08625
8  1 0 5.45175 12.72075
9  1 0 9.08625 1.81725
10  1 0 9.08625 5.45175
11  1 0 9.08625 9.08625
12  1 0 9.08625 12.72075
13  1 0 12.72075 1.81725
14  1 0 12.72075 5.45175
15  1 0 12.72075 9.08625
16  1 0 12.72075 12.72075
17  1 3.6345 1.81725 1.81725
18  1 3.6345 1.81725 5.45175
19  1 3.6345 1.81725 9.08625
20  1 3.6345 1.81725 12.72075
21  1 3.6345 5.45175 1.81725
22  1 3.6345 5.45175 5.45175
23  1 3.6345 5.45175 9.08625
24  1 3.6345 5.45175 12.72075
25  1 3.6345 9.08625 1.81725
26  1 3.6345 9.08625 5.45175
27  1 3.6345 9.08625 9.08625
28  1 3.6345 9.08625 12.72075
29  1 3.6345 12.72075 1.81725
30  1 3.6345 12.72075 5.45175
31  1 3.6345 12.72075 9.08625
32  1 3.6345 12.72075 12.72075
33  1 7.269 1.81725 1.81725
34  1 7.269 1.81725 5.45175
35  1 7.269 1.81725 9.08625
36  1 7.269 1.81725 12.72075
37  1 7.269 5.45175 1.81725
38  1 7.269 5.45175 5.45175
39  1 7.269 5.45175 9.08625
40  1 7.269 5.45175 12.72075
41  1 7.269 9.08625 1.81725
42  1 7.269 9.08625 5.45175
43  1 7.269 9.08625 9.08625
44  1 7.269 9.08625 12.72075
45  1 7.269 12.72075 1.81725
46  1 7.269 12.72075 5.45175
47  1 7.269 12.72075 9.08625
48  1 7.269 12.72075 12.72075
49  1 10.9035 1.81725 1.81725
50  1 10.9035 1.81725 5.45175
51  1 10.9035 1.81725 9.08625
52  1 10.9035 1.81725 12.72075
53  1 10.9035 5.45175 1.81725
54  1 10.9035 5.45175 5.45175
55  1 10.9035 5.45175 9.08625
56  1 10.9035 5.45175 12.72075
57  1 10.9035 9.08625 1.81725
58  1 10.9035 9.08625 5.45175
59  1 10.9035 9.08625 9.08625
60  1 10.9035 9.08625 12.72075
61  1 10.9035 12.72075 1.81725
62  1 10.9035 12.72075 5.45175
63  1 10.9035 12.72075 9.08625
64  1 10.9035 12.72075 12.72075
65  1 1.81725 0 1.81725
66  1 1.81725 0 5.45175
67  1 1.81725 0 9.08625
68  1 1.81725 0 12.72075
69  1 1.81725 3.6345 1.81725
70  1 1.81725 3.6345 5.45175
71  1 1.81725 3.6345 9.08625
72  1 1.81725 3.6345 12.72075
73  1 1.81725 7.269 1.81725
74  1 1.81725 7.269 5.45175
75  1 1.81725 7.269 9.08625
76  1 1.81725 7.269 12.72075
77  1 1.81725 10.9035 1.81725
78  1 1.81725 10.9035 5.45175
79  1 1.81725 10.9035 9.08625
80  1 1.81725 10.9035 12.72075
81  1 5.45175 0 1.81725
82  1 5.45175 0 5.45175
83  1 5.45175 0 9.08625
84  1 5.45175 0 12.72075
85  1 5.45175 3.6345 1.81725
86  1 5.45175 3.6345 5.45175
87  1 5.45175 3.6345 9.08625
88  1 5.45175 3.6345 12.72075
89  1 5.45175 7.269 1.81725
90  1 5.45175 7.269 5.45175
91  1 5.45175 7.269 9.08625
92  1 5.45175 7.269 12.72075
93  1 5.45175 10.9035 1.81725
94  1 5.45175 10.9035 5.45175
95  1 5.45175 10.9035 9.08625
96  1 5.45175 10.9035 12.72075
97  1 9.08625 0 1.81725
98  1 9.08625 0 5.45175
99  1 9.08625 0 9.08625
100  1 9.08625 0 12.72075
101  1 9.08625 3.6345 1.81725
102  1 9.08625 3.6345 5.45175
103  1 9.08625 3.6345 9.08625
104  1 9.08625 3.6345 12.72075
105  1 9.08625 7.269 1.81725
106  1 9.08625 7.269 5.45175
107  1 9.08625 7.269 9.08625
108  1 9.08625 7.269 12.72075
109  1 9.08625 10.9035 1.81725
110  1 9.08625 10.9035 5.45175
111  1 9.08625 10.9035 9.08625
112  1 9.08625 10.9035 12.72075
113  1 12.72075 0 1.81725
114  1 12.72075 0 5.45175
115  1 12.72075 0 9.08625
116  1 12.72075 0 12.72075
117  1 12.72075 3.6345 1.81725
118  1 12.72075 3.6345 5.45175
119  1 12.72075 3.6345 9.08625
120  1 12.72075 3.6345 12.72075
121  1 12.72075 7.269 1.81725
122  1 12.72075 7.269 5.45175
123  1 12.72075 7.269 9.08625
124  1 12.72075 7.269 12.72075
125  1 12.72075 10.9035 1.81725
126  1 12.72075 10.9035 5.45175
127  1 12.72075 10.9035 9.08625
128  1 12.72075 10.9035 12.72075
129  1 1.81725 1.81725 0
130  1 1.81725 1.81725 3.6345
131  1 1.81725 1.81725 7.269
132  1 1.81725 1.81725 10.9035
133  1 1.81725 5.45175 0
134  1 1.81725 5.45175 3.6345
135  1 1.81725 5.45175 7.269
136  1 1.81725 5.45175 10.9035
137  1 1.81725 9.08625 0
138  1 1.81725 9.08625 3.6345
139  1 1.81725 9.08625 7.269
140  1 1.81725 9.08625 10.9035
141  1 1.81725 12.72075 0
142  1 1.81725 12.72075 3.6345
143  1 1.81725 12.72075 7.269
144  1 1.81725 12.72075 10.9035
145  1 5.45175 1.81725 0
146  1 5.45175 1.81725 3.6345
147  1 5.45175 1.81725 7.269
148  1 5.45175 1.81725 10.9035
149  1 5.45175 5.45175 0
150  1 5.45175 5.45175 3.6345
151  1 5.45175 5.45175 7.269
152  1 5.45175 5.45175 10.9035
153  1 5.45175 9.08625 0
154  1 5.45175 9.08625 3.6345
155  1 5.45175 9.08625 7.269
156  1 5.45175 9.08625 10.9035
157  1 5.45175 12.72075 0
158  1 5.45175 12.72075 3.6345
159  1 5.45175 12.72075 7.269
160  1 5.45175 12.72075 10.9035
161  1 9.08625 1.81725 0
162  1 9.08625 1.81725 3.6345
163  1 9.08625 1.81725 7.269
164  1 9.08625 1.81725 10.9035
165  1 9.08625 5.45175 0
166  1 9.08625 5.45175 3.6345
167  1 9.08625 5.45175 7.269
168  1 9.08625 5.45175 10.9035
169  1 9.08625 9.08625 0
170  1 9.08625 9.08625 3.6345
171  1 9.08625 9.08625 7.269
172  1 9.08625 9.08625 10.9035
173  1 9.08625 12.72075 0
174  1 9.08625 12.72075 3.6345
175  1 9.08625 12.72075 7.269
176  1 9.08625 12.72075 10.9035
177  1 12.72075 1.81725 0
178  1 12.72075 1.81725 3.6345
179  1 12.72075 1.81725 7.269
180  1 12.72075 1.81725 10.9035
181  1 12.72075 5.45175 0
182  1 12.72075 5.45175 3.6345
183  1 12.72075 5.45175 7.269
184  1 12.72075 5.45175 10.9035
185  1 12.72075 9.08625 0
186  1 12.72075 9.08625 3.6345
187  1 12.72075 9.08625 7.269
188  1 12.72075 9.08625 10.9035
189  1 12.72075 12.72075 0
190  1 12.72075 12.72075 3.6345
191  1 12.72075 12.72075 7.269
192  1 12.72075 12.72075 10.9035
193  2 0 0 0
194  2 0 0 3.6345
195  2 0 0 7.269
196  2 0 0 10.9035
197  2 0 3.6345 0
198  2 0 3.6345 3.6345
199  2 0 3.6345 7.269
200  2 0 3.6345 10.9035
201  2 0 7.269 0
202  2 0 7.269 3.6345
203  2 0 7.269 7.269
204  2 0 7.269 10.9035
205  2 0 10.9035 0
206  2 0 10.9035 3.6345
207  2 0 10.9035 7.269
208  2 0 10.9035 10.9035
209  2 3.6345 0 0
210  2 3.6345 0 3.6345
211  2 3.6345 0 7.269
212  2 3.6345 0 10.9035
213  2 3.6345 3.6345 0
214  2 3.6345 3.6345 3.6345
215  2 3.6345 3.6345 7.269
216  2 3.6345 3.6345 10.9035
217  2 3.6345 7.269 0
218  2 3.6345 7.269 3.6345
219  2 3.6345 7.269 7.269
220  2 3.6345 7.269 10.9035
221  2 3.6345 10.9035 0
222  2 3.6345 10.9035 3.6345
223  2 3.6345 10.9035 7.269
224  2 3.6345 10.9035 10.9035
225  2 7.269 0 0
226  2 7.269 0 3.6345
227  2 7.269 0 7.269
228  2 7.269 0 10.9035
229  2 7.269 3.6345 0
230  2 7.269 3.6345 3.6345
231  2 7.269 3.6345 7.269
232  2 7.269 3.6345 10.9035
233  2 7.269 7.269 0
234  2 7.269 7.269 3.6345
235  2 7.269 7.269 7.269
236  2 7.269 7.269 10.9035
237  2 7.269 10.9035 0
238  2 7.269 10.9035 3.6345
239  2 7.269 10.9035 7.269
240  2 7.269 10.9035 10.9035
241  2 10.9035 0 0
242  2 10.9035 0 3.6345
243  2 10.9035 0 7.269
244  2 10.9035 0 10.9035
245  2 10.9035 3.6345 0
246  2 10.9035 3.6345 3.6345
247  2 10.9035 3.6345 7.269
248  2 10.9035 3.6345 10.9035
249  2 10.9035 7.269 0
250  2 10.9035 7.269 3.6345
251  2 10.9035 7.269 7.269
252  2 10.9035 7.269 10.9035
253  2 10.9035 10.9035 0
254  2 10.9035 10.9035 3.6345
255  2 10.9035 10.9035 7.269
256  2 10.9035 10.9035 10.9035
