# LAMMPS data file written by OVITO Basic 3.8.4

8 atoms
2 atom types

0.0 4.14 xlo xhi
0.0 4.14 ylo yhi
0.0 4.14 zlo zhi

Masses

1 51.996   # Cr
2 14.0067  # N

Atoms  # atomic

1 1 2.07 0.0 0.0
2 1 2.07 2.07 2.07
3 1 0.0 0.0 2.07
4 1 0.0 2.07 0.0
5 2 0.0 0.0 0.0
6 2 0.0 2.07 2.07
7 2 2.07 0.0 2.07
8 2 2.07 2.07 0.0
