# LAMMPS data file written by OVITO Basic 3.8.4

8 atoms
2 atom types

0.0 4.08 xlo xhi
0.0 4.08 ylo yhi
0.0 4.08 zlo zhi

Masses

1 55.845   # Fe
2 14.0067  # N

Atoms  # atomic

1 1 2.04 0.0 0.0
2 1 2.04 2.04 2.04
3 1 0.0 0.0 2.04
4 1 0.0 2.04 0.0
5 2 0.0 0.0 0.0
6 2 0.0 2.04 2.04
7 2 2.04 0.0 2.04
8 2 2.04 2.04 0.0
