# LAMMPS data file written by OVITO Basic 3.8.4

8 atoms
2 atom types

0.0 4.253534 xlo xhi
0.0 4.253534 ylo yhi
0.0 4.253534 zlo zhi

Masses

1 47.867  # Ti
2 14.0067  # N

Atoms  # atomic

1 1 2.126767 0.0 0.0
2 1 2.126767 2.126767 2.126767
3 1 0.0 0.0 2.126767
4 1 0.0 2.126767 0.0
5 2 0.0 0.0 0.0
6 2 0.0 2.126767 2.126767
7 2 2.126767 0.0 2.126767
8 2 2.126767 2.126767 0.0
