# LAMMPS data file written by OVITO Basic 3.8.4

8 atoms
2 atom types

0.0 4.12 xlo xhi
0.0 4.12 ylo yhi
0.0 4.12 zlo zhi

Masses

1 50.942   # V
2 14.0067  # N

Atoms  # atomic

1 1 2.06 0.0 0.0
2 1 2.06 2.06 2.06
3 1 0.0 0.0 2.06
4 1 0.0 2.06 0.0
5 2 0.0 0.0 0.0
6 2 0.0 2.06 2.06
7 2 2.06 0.0 2.06
8 2 2.06 2.06 0.0
