ITEM: TIMESTEP
0
ITEM: NUMBER OF ATOMS
12000
ITEM: BOX BOUNDS pp pp pp
3.6225230035667266e-01 2.6978747699643570e+01
3.6411673434561820e-01 2.6976883265654763e+01
2.9336678309236959e+00 2.1579433216907640e+02
ITEM: ATOMS id type x y z c_peratom fx fy fz 
242 2 5.75127 5.74689 8.08632 -25.1852 -1.15731 -1.26169 1.54018 
1201 3 5.64796 3.07466 5.46247 -28.8081 0.0682851 0.215415 0.882071 
1202 3 5.74669 3.07808 10.8073 -28.907 -0.982682 -0.112809 -0.373607 
2041 2 2.97929 5.8328 5.56074 -25.5251 0.33039 -2.42503 -0.625289 
2042 2 3.05221 5.71115 10.8885 -25.7036 -0.0220704 -0.388444 -0.836754 
3002 3 3.00622 3.03154 8.21665 -29.2861 0.00354168 0.394782 -0.230112 
4001 1 1.60727 1.7372 4.24646 -7.57721 0.749036 -0.610139 -0.120564 
4002 1 1.60701 1.67856 9.5727 -7.92875 0.538551 0.0880206 -0.409035 
5001 1 4.24625 4.4315 6.84576 -7.4989 1.467 -0.63647 0.21185 
6001 1 4.35702 4.42087 4.23111 -7.25718 1.38816 -0.167051 0.336779 
6002 1 4.26966 4.2924 9.49998 -7.41478 0.959799 0.0661543 -0.143794 
7001 1 1.75008 1.82607 6.83258 -7.14429 0.708881 0.225858 0.76787 
8001 1 4.50471 1.68129 6.93532 -8.14019 -0.156323 1.71767 -0.574649 
9001 1 1.82464 4.32882 4.23958 -7.21372 -1.53636 1.14683 0.0612622 
9002 1 1.67503 4.40049 9.43493 -7.43709 0.132816 -0.5087 0.811993 
10001 1 1.70787 4.34742 6.82796 -7.372 -1.33417 0.735326 0.23737 
11001 1 4.25557 1.80189 4.16666 -8.33796 1.19651 -0.458461 1.26329 
11002 1 4.39509 1.667 9.61915 -7.84176 -0.288652 0.464998 -0.232808 
10201 1 6.96134 4.34554 6.80892 -7.56989 -0.780009 -0.978823 -0.132617 
9201 1 6.99252 4.35073 4.25645 -7.92607 -0.275227 0.467349 -0.235261 
11041 1 4.29005 7.00288 4.26107 -7.70749 0.604529 1.41843 0.744081 
9202 1 6.964 4.41443 9.45517 -7.81262 -0.563316 -0.583394 0.00108436 
42 2 0.410516 5.73048 8.13899 -25.2377 -0.554661 0.385627 0.64694 
2001 2 3.13947 0.463145 5.59656 -25.434 -2.29514 -0.355184 0.180316 
4202 1 6.96859 1.78432 9.37713 -7.72552 0.298541 -0.0960998 0.995603 
4201 1 6.97556 1.70405 4.34821 -7.49853 -0.434594 1.39528 0.0219096 
1001 3 0.445447 3.08887 5.54677 -29.6784 -0.525799 0.0531395 -0.135603 
202 3 5.75873 0.484411 8.1469 -29.2784 -0.715287 -1.08098 0.878399 
2002 2 3.09061 0.410407 10.8746 -25.2823 -0.398765 -1.20826 -1.20008 
1 3 0.472128 0.435788 3.13351 -28.9815 -1.2058 -0.2685 -1.93027 
201 2 5.57938 0.427374 2.95349 -25.5582 0.984955 -0.692317 -0.1687 
7201 1 7.13905 1.58022 6.90786 -7.62752 -0.352233 0.820887 -0.16231 
7241 1 7.14112 6.95981 6.83855 -7.94079 -1.64325 0.161412 -0.745012 
442 2 10.8467 5.5658 8.22541 -25.6377 0.683891 1.42954 -1.53899 
1401 2 10.9349 3.02631 5.57108 -25.5182 0.448668 -0.510277 -0.475772 
1402 3 10.9614 2.92471 10.8083 -29.058 0.297459 -0.0215311 0.517621 
2241 3 8.23953 5.65952 5.39972 -29.3235 1.43264 0.398503 0.693396 
2242 2 8.26614 5.66411 10.7612 -25.4917 0.981413 0.22653 1.24863 
3202 3 8.37292 2.86569 8.19445 -28.9507 -0.860464 1.02584 -0.596595 
4401 1 12.3895 1.71287 4.20715 -7.58654 -0.328366 -0.0931015 -0.182676 
4402 1 12.2281 1.65178 9.53633 -7.81452 -0.10095 0.83047 -0.31615 
5201 1 9.53396 4.32224 6.81034 -7.71896 0.0950166 -0.570766 0.25147 
6201 1 9.66562 4.35984 4.16102 -7.55194 -0.691198 -0.0208235 0.441297 
6202 1 9.53145 4.17019 9.44021 -8.0819 0.766104 0.0808151 0.844503 
7401 1 12.2215 1.61645 6.90772 -7.63174 0.975724 0.593078 -0.18752 
8201 1 9.66984 1.5877 6.86307 -7.82979 0.0180055 1.02816 1.54173 
9401 1 12.2243 4.3157 4.15413 -7.82809 1.73308 1.23762 0.0805469 
9402 1 12.2321 4.41369 9.51273 -7.63786 -0.157444 -1.29592 0.074341 
10401 1 12.2614 4.33664 6.81647 -7.48773 0.298603 -1.0309 0.278766 
11201 1 9.65461 1.65412 4.31742 -7.89563 -0.27882 0.118443 -1.04856 
11202 1 9.5596 1.58729 9.56401 -7.94392 0.1714 -0.278599 -0.554868 
11241 1 9.55503 6.98433 4.01845 -7.16641 -0.465782 0.0736923 0.661722 
2201 3 8.3753 0.409586 5.65385 -29.5228 -0.865784 -0.895472 -1.44407 
2442 2 13.6338 5.7012 10.7595 -25.7483 0.647237 -0.849122 0.328857 
2441 2 13.6424 5.71982 5.4962 -25.5586 -0.254852 0.155557 0.519305 
2402 2 13.5614 0.3814 10.8289 -25.1335 0.382256 -0.924033 -0.29373 
7441 1 12.2378 6.89476 6.93907 -7.06041 0.676517 0.615055 -0.526359 
11242 1 9.63217 6.95274 9.48654 -7.77631 0.149873 -0.564822 0.125758 
3201 2 8.31656 3.02769 2.96793 -25.6242 -0.601044 0.532607 -0.912389 
3401 3 13.5767 3.07794 2.99687 -29.0866 0.647873 -0.614993 -0.813278 
3402 2 13.7231 2.93252 8.07976 -25.4295 -2.06147 0.794064 0.114746 
642 2 16.415 5.65 8.10562 -25.262 -0.914925 0.133551 -0.465719 
1601 3 16.3058 3.10162 5.49917 -29.5259 -0.504216 -0.999563 -1.036 
1602 2 16.3341 2.93512 10.6769 -25.1514 -0.0751914 0.266223 0.51355 
2641 3 18.9211 5.72651 5.40205 -28.9138 0.0525452 0.449241 -0.173257 
2642 2 19.113 5.63112 10.7253 -25.8127 -0.541411 -0.761055 1.58817 
3602 2 19.0496 3.02699 8.07804 -25.2857 -0.0479416 -0.961964 -0.650811 
4601 1 17.5592 1.82114 4.19264 -7.54733 0.636683 -0.0732098 0.117815 
4602 1 17.6328 1.5332 9.29616 -7.51513 -0.521502 -0.00242706 1.87599 
5401 1 14.9468 4.36133 6.8214 -7.6076 0.503206 0.293371 -0.514365 
6401 1 15.0261 4.38956 4.17454 -7.73688 -0.721575 1.06319 -0.3486 
6402 1 14.9767 4.30833 9.42608 -7.82603 0.72391 -0.326851 0.497916 
7601 1 17.7181 1.55167 6.79653 -7.39469 0.184363 0.631878 -0.802484 
8401 1 14.9962 1.75382 6.73097 -7.26321 0.242734 -0.847491 -0.281439 
9601 1 17.7338 4.50636 4.04198 -7.52066 0.425859 0.220631 -0.344114 
9602 1 17.8401 4.20517 9.36593 -7.93723 -2.13056 1.11743 -0.000571866 
10601 1 17.5742 4.28857 6.57262 -7.96236 0.758909 0.123648 1.57895 
11401 1 14.9952 1.78915 4.25774 -7.15976 -0.503706 -0.376858 -1.04943 
11402 1 14.9527 1.58405 9.26634 -7.83588 0.69039 -0.603908 2.38058 
11601 1 20.2325 1.66901 4.14453 -7.71771 -0.091237 0.629034 1.34517 
5601 1 20.2443 4.52864 6.71584 -7.83452 -0.382661 0.244338 -1.07033 
2601 3 18.9804 0.37347 5.45287 -29.078 -0.136486 0.358748 0.407991 
11602 1 20.1952 1.60556 9.54313 -7.55831 0.527617 1.01458 0.391573 
11641 1 20.2455 7.01655 4.33178 -7.49167 -0.329115 -0.960381 -0.682817 
11442 1 15.0019 7.00443 9.44207 -7.70992 0.217603 0.692688 0.766127 
7641 1 17.8013 6.97137 6.70832 -8.05092 0.0603941 0.381931 1.46092 
4642 1 17.603 6.90639 9.52956 -7.92442 0.345482 1.20586 0.162942 
11642 1 20.2614 6.97445 9.40841 -7.82305 0.540165 0.741046 0.675756 
601 3 16.1758 0.404152 3.0046 -29.7741 0.214311 0.00576623 -0.556051 
8601 1 20.3898 1.86102 6.86044 -7.82974 -0.458144 -0.913586 -1.42909 
6601 1 20.5069 4.32443 4.03772 -8.30462 -0.881512 0.142898 0.790615 
1002 2 26.9659 3.01987 10.9455 -25.1491 0.504052 -0.400756 -1.85021 
842 3 21.6832 5.73488 8.13619 -29.5658 0.448528 0.175892 -0.475275 
1801 3 21.6049 3.23603 5.4625 -29.3191 1.55911 -1.34136 1.03804 
1802 3 21.7342 2.99032 10.7969 -29.3266 -1.04644 0.438507 0.129732 
2841 3 24.3632 5.78734 5.5543 -29.4464 -0.60841 -0.568563 0.160937 
2842 2 24.3775 5.76793 10.9123 -25.2225 -0.723352 -0.044973 -1.65834 
3802 2 24.3797 3.12439 8.28383 -25.5172 -1.25339 -0.859013 -2.2644 
4801 1 22.9745 1.71909 4.2807 -7.55699 -0.30475 -0.127398 -1.12408 
4802 1 22.8876 1.70674 9.54024 -7.59277 -0.131278 -0.556759 0.0615662 
5801 1 25.5528 4.48311 6.88132 -7.91433 0.726514 0.302216 -0.0144627 
6602 1 20.4424 4.4022 9.26723 -7.43159 0.40965 -1.05132 0.765745 
6801 1 25.8249 4.41359 4.276 -7.33844 -0.468812 0.578644 -0.36478 
6802 1 25.6866 4.46405 9.56708 -7.84693 0.205184 0.0992077 -0.0689251 
7801 1 22.9075 1.88464 6.84848 -7.00628 1.34228 -0.139699 0.757614 
8801 1 25.7018 1.74575 6.9484 -7.8551 -0.484387 -0.217186 -0.853514 
9801 1 23.1428 4.28949 4.2507 -7.29004 -0.00100302 0.698005 0.0327383 
9802 1 23.0284 4.33831 9.42713 -7.56334 -0.404373 0.570917 1.45254 
10801 1 22.9036 4.57303 6.757 -7.38483 -0.288337 0.708954 0.560241 
11801 1 25.6638 1.86868 4.24548 -7.42862 -0.621912 -1.3541 0.395966 
11802 1 25.4867 1.68581 9.57339 -7.72161 0.545705 0.29328 0.825773 
802 2 21.5796 0.444277 8.1949 -25.4308 0.383923 -0.541201 -0.201581 
11841 1 25.5992 6.97935 4.33257 -7.69644 -0.131948 0.155844 -1.27967 
3801 3 24.2734 3.07917 2.9394 -29.2786 1.28799 -1.01767 0.665082 
801 2 21.6945 0.377148 2.96413 -25.6635 -0.242329 0.0827588 -0.765872 
4841 1 22.9652 6.90876 4.19526 -7.64132 -0.320635 0.17715 0.139333 
4842 1 22.9486 6.95057 9.43003 -7.42572 0.235707 -0.27932 0.553467 
8041 1 4.33899 7.1146 7.02759 -8.17915 0.688369 0.549989 -0.978043 
11042 1 4.33075 7.05129 9.69974 -7.41711 1.32463 -0.153734 -1.20443 
7041 1 1.71204 7.02872 6.84301 -8.07263 -0.394728 1.33284 0.16236 
4241 1 6.90206 7.03947 4.14203 -7.86144 0.210672 -0.8004 0.26243 
4041 1 1.57091 7.0476 4.16319 -7.69379 0.201461 0.336779 0.580893 
4042 1 1.79301 7.09893 9.49148 -7.5244 -1.45671 -0.471348 -0.280386 
282 2 5.8231 10.9998 8.27156 -26.0763 -0.972943 1.29988 1.84189 
1241 2 5.75364 8.37308 5.60367 -24.9403 -1.00606 0.0365747 -0.364448 
1242 2 5.72445 8.35877 10.9286 -25.8922 0.167526 0.768897 0.133337 
2081 2 3.0954 11.141 5.71868 -25.8538 -0.974871 -0.610767 0.0945857 
2082 2 3.11803 11.1247 10.9342 -25.6816 -0.7322 -2.18237 -0.93986 
3042 3 3.02221 8.34512 8.2547 -29.6634 0.0645577 1.43077 0.690336 
4081 1 1.62059 12.3604 4.25673 -7.63184 -0.20944 0.596667 -0.0726413 
4082 1 1.77265 12.4828 9.53794 -7.6953 -0.477648 0.478208 0.311759 
5041 1 4.41765 9.84818 7.00639 -7.21204 0.141704 -1.23499 -1.4334 
6041 1 4.30276 9.74042 4.29834 -7.68289 1.49342 -0.398771 -0.0666144 
6042 1 4.29566 9.73037 9.5385 -7.23233 0.73382 -0.744656 0.861709 
7081 1 1.6608 12.3853 6.96995 -7.71292 -0.238443 1.17482 -0.752393 
8081 1 4.45454 12.5653 7.05618 -7.32346 -1.12923 0.154777 -0.698102 
9041 1 1.70307 9.74577 4.41517 -7.48953 -0.800817 -0.750791 -0.699596 
9042 1 1.61502 9.69785 9.63409 -7.08234 -0.253509 0.548931 0.251538 
10041 1 1.83979 9.75554 7.02931 -7.08042 -1.02648 -1.02543 0.0338407 
11081 1 4.3587 12.3611 4.30029 -8.07647 0.207363 0.838849 -0.319698 
11082 1 4.48949 12.3549 9.68564 -7.38419 -0.388503 0.0732524 -0.451325 
10241 1 6.98536 9.5656 7.09239 -7.70046 0.926875 -0.480078 -1.74193 
1042 3 0.388647 8.31727 10.8643 -29.6126 0.8286 1.15382 -0.352377 
1041 3 0.402419 8.37085 5.55992 -29.2518 -0.16929 0.693308 0.259441 
1282 2 5.73175 13.6579 10.9393 -25.3348 1.28156 0.584571 -0.366252 
4442 1 12.2884 7.10131 9.55322 -7.26535 -0.359366 -0.847345 0.16338 
4282 1 7.17019 12.352 9.60125 -7.18338 -0.253224 0.47087 -0.244763 
4281 1 7.05526 12.3096 4.22257 -8.07451 0.262709 0.916227 -0.510464 
8241 1 9.58402 7.02678 6.76989 -7.16042 0.863871 -0.147962 0.0498243 
7281 1 7.04128 12.254 6.92538 -7.33957 0.829619 0.639901 -0.774555 
4441 1 12.2202 7.19196 4.23571 -7.6241 0.949284 -2.04333 -0.791862 
4242 1 7.03497 7.11428 9.52496 -7.66674 -0.647916 -0.631081 -1.18919 
9241 1 7.08505 9.59827 4.18398 -8.07467 -0.439174 0.664895 0.907598 
9242 1 7.14203 9.68434 9.68942 -7.32578 -0.54258 0.55925 0.25943 
482 3 10.9807 10.881 8.37412 -29.0432 -0.205528 0.512095 -2.0931 
1441 2 10.9937 8.42366 5.5499 -25.9669 -0.907327 -1.43132 0.337018 
1442 3 10.9946 8.38072 10.7838 -29.179 -0.0294892 -0.931824 0.827846 
2281 2 8.40096 10.9964 5.51595 -25.585 -0.208014 0.560895 0.390169 
2282 3 8.48825 10.9675 10.92 -29.5711 -0.958237 0.272762 0.370894 
3242 3 8.35342 8.28497 8.16423 -29.5652 0.594711 0.40785 0.457421 
4481 1 12.3278 12.3552 4.14016 -7.8618 0.793445 -0.341206 1.49605 
4482 1 12.3858 12.4175 9.52751 -8.00812 -0.0471654 -2.01037 -0.40533 
5241 1 9.5971 9.7006 6.78015 -7.37509 0.497076 -1.33477 1.65086 
6241 1 9.72048 9.62529 4.18628 -7.68222 -0.0743399 0.926035 -1.17958 
6242 1 9.70786 9.48675 9.45247 -7.76891 0.490889 1.05965 0.267007 
7481 1 12.2821 12.1504 6.88439 -7.91094 1.74289 0.306828 0.21605 
8281 1 9.68842 12.1898 6.95465 -7.13948 0.292713 1.39005 0.941186 
9441 1 12.4059 9.74011 4.36861 -7.44405 -0.278396 0.890562 -0.9875 
9442 1 12.3048 9.5924 9.52395 -7.89139 0.184136 2.47141 0.371918 
10441 1 12.28 9.53509 6.93774 -7.34343 0.644231 1.13386 0.626482 
11281 1 9.71273 12.3634 4.28333 -7.43844 0.0830119 -0.243602 -0.804984 
11282 1 9.70361 12.157 9.63554 -7.74818 1.4061 0.117711 0.268899 
1481 2 11.1613 13.5912 5.68249 -25.4696 -2.04712 -0.204734 -1.79742 
3442 2 13.6541 8.31289 8.22704 -25.5714 -0.140715 -0.0369 -0.922412 
1482 2 11.1603 13.629 10.9383 -25.5839 -2.32376 0.114395 -0.722655 
3441 3 13.6556 8.41122 3.0202 -29.1209 -0.281493 0.926907 -0.765058 
8441 1 15.0418 7.05642 6.83474 -7.50607 0.471336 0.118964 -0.0887214 
2482 3 13.7486 10.9946 10.7351 -28.916 -0.87813 0.360284 0.667563 
2481 3 13.7351 11.0167 5.44576 -28.8033 -0.65021 -0.0271436 0.690364 
11441 1 14.849 7.17756 4.26929 -7.6616 0.198117 -1.00335 -1.1048 
3482 3 13.7277 13.542 8.17648 -28.9722 -0.109557 0.990495 0.385981 
4641 1 17.4907 7.15165 4.15665 -7.41693 0.132764 0.195728 -0.166851 
682 3 16.3943 10.9838 7.95697 -28.5824 -0.597957 0.861199 1.35592 
1641 3 16.3071 8.56713 5.56659 -28.8401 -0.284959 -2.3379 -1.37238 
1642 3 16.2356 8.47497 10.8124 -28.4621 0.838156 -0.907533 -0.331875 
2681 3 19.0408 10.9627 5.50262 -28.8891 -0.531526 1.00712 0.720568 
2682 2 19.0249 10.9154 10.706 -25.0288 -0.544516 0.780846 1.32542 
3642 2 18.964 8.35625 8.18315 -24.8458 1.49179 -1.0063 -2.12926 
4681 1 17.7213 12.4522 4.16024 -7.7098 -0.545163 0.128217 0.372733 
4682 1 17.5776 12.1527 9.47587 -7.94097 0.233135 0.70248 -0.486878 
5441 1 15.0063 9.65867 6.91254 -8.43365 0.261834 1.13563 -0.684215 
6441 1 14.9249 9.71926 4.15244 -7.5644 1.11014 0.372694 1.7834 
6442 1 14.9573 9.7673 9.59034 -8.05464 0.449681 -0.474163 -1.29231 
7681 1 17.6506 12.2204 6.78311 -7.89007 -0.643472 0.715099 0.047324 
8481 1 14.9987 12.353 6.84883 -7.84588 -0.134366 -0.525802 -0.292958 
9641 1 17.612 9.79327 4.25781 -7.95724 -0.233591 0.69145 -0.381743 
9642 1 17.6519 9.63236 9.27339 -8.19851 -1.11234 -0.0920518 1.34129 
10641 1 17.6728 9.68138 6.72502 -8.24463 0.48033 -0.480993 0.577729 
11481 1 15.0766 12.2998 4.29661 -7.71378 -0.0208382 0.336402 0.105598 
11482 1 14.9811 12.425 9.39635 -7.71594 0.43924 -0.767097 -0.161701 
3641 2 18.9513 8.42908 2.94734 -25.4911 -0.145738 -1.6308 -0.312047 
11681 1 20.2293 12.4095 4.45817 -7.94245 1.15167 -0.871093 -1.89079 
8681 1 20.1577 12.4514 6.89271 -7.39781 1.07417 -1.40255 -0.056542 
6641 1 20.2461 9.61695 4.26332 -8.28137 0.807976 1.53805 0.52112 
1682 3 16.3246 13.5105 10.702 -29.1658 0.340592 0.942499 0.519112 
3682 3 19.1012 13.5032 8.15626 -29.0049 -1.23339 1.60913 0.165065 
11682 1 20.2926 12.3059 9.43406 -8.16417 0.278861 -0.202865 0.448371 
8841 1 25.7641 7.23008 6.85457 -7.7253 0.205919 -0.819758 0.800878 
7841 1 23.2025 7.28916 6.82834 -7.53531 0.115253 -0.116625 -0.304089 
82 2 26.9373 11.1552 8.29282 -25.6384 1.1543 -1.19455 0.390776 
5641 1 20.4947 9.80039 6.88427 -7.86011 -1.17272 0.685448 -0.34047 
6642 1 20.3993 9.6339 9.46725 -8.24194 -0.0542136 0.325841 0.359296 
8641 1 20.5923 7.23574 6.88692 -7.41355 -0.827447 -0.962159 0.372863 
11842 1 25.654 7.2276 9.5367 -7.71088 0.485329 -0.980975 -0.796198 
882 3 21.7131 11.0112 8.20687 -29.3364 0.672035 0.37843 0.223609 
1841 3 21.7695 8.43389 5.76283 -29.185 0.182018 -0.159377 -1.45747 
1842 2 21.7042 8.28928 10.7726 -25.3585 0.903269 0.177963 -0.271363 
2881 3 24.3444 11.151 5.70266 -28.9048 -0.506851 -0.909605 -0.37999 
2882 3 24.3464 11.0913 10.8319 -29.6669 0.036742 -0.566536 -0.310478 
3842 3 24.5533 8.50705 8.14609 -29.6031 -1.57302 -0.18323 0.485105 
4881 1 22.9416 12.4737 4.41107 -7.98705 -0.953673 -1.5448 -0.134571 
4882 1 22.9839 12.1921 9.65524 -7.19001 -1.13638 -0.701543 -0.130901 
5841 1 25.7576 9.84609 6.91618 -7.68156 -0.101663 -0.104485 0.270247 
6841 1 25.6191 9.6113 4.42174 -7.63015 0.0744056 0.114548 -1.5668 
6842 1 25.587 9.82619 9.53867 -7.13386 1.01046 -0.551851 -0.016269 
7881 1 22.7794 12.5227 7.05155 -7.5844 0.248796 0.277494 -0.596879 
8881 1 25.4633 12.4654 7.02714 -8.32586 0.74325 0.659654 -0.994418 
9841 1 22.9778 9.65113 4.26786 -7.87856 -0.715989 0.685602 0.160028 
9842 1 23.1113 9.57339 9.38399 -7.01134 -1.39053 -0.0620515 0.315992 
10841 1 23.0839 9.97713 6.88381 -7.70067 0.320223 -0.517664 -0.65029 
11881 1 25.4997 12.3014 4.31884 -7.99836 0.90324 0.835426 0.375338 
11882 1 25.5548 12.3295 9.6356 -7.54181 1.35474 2.2513 -0.0900096 
881 2 21.5323 11.0233 3.01144 -24.7313 1.08203 -0.00634047 -0.206866 
81 2 26.8694 10.9652 2.97676 -25.0412 1.00556 1.51442 1.36451 
1881 3 21.5731 13.6333 5.58738 -29.0847 0.134133 0.921553 1.05139 
1882 2 21.656 13.6079 10.8689 -25.6783 0.974754 -0.627799 -0.437398 
2003 2 3.07502 0.449998 16.1956 -25.3622 -1.55555 -0.446716 0.674154 
203 2 5.68465 0.416442 13.4672 -25.0017 0.500496 -1.34146 1.09568 
243 3 5.65819 5.56307 13.5222 -29.2742 -0.0171072 1.30461 -0.0971519 
244 2 5.56413 5.79016 18.749 -25.3531 0.471312 -0.773036 0.447485 
1203 3 5.59762 3.03521 16.1671 -29.0346 0.156207 0.825453 -0.402805 
2043 3 2.96502 5.69796 16.1925 -29.8304 0.207344 -0.5056 -0.150386 
3003 3 2.951 2.99912 13.4898 -29.2375 1.08867 1.03711 0.975712 
3004 3 2.98567 3.06868 18.8959 -29.543 -0.599053 0.453133 -0.64686 
4003 1 1.73907 1.89125 14.8265 -7.50989 -0.581354 -2.4119 -0.505126 
4004 1 1.67641 1.64086 20.1425 -7.48697 -0.491561 0.71271 0.54336 
5002 1 4.39363 4.47458 12.1275 -7.56882 0.459873 -0.276626 0.408814 
5003 1 4.15004 4.47757 17.4777 -7.39357 1.66395 -0.221603 -0.667962 
6003 1 4.35993 4.27246 14.7627 -7.58204 0.164899 -0.014457 0.35986 
6004 1 4.38186 4.48106 20.0868 -7.74461 0.200652 -1.35989 0.42432 
7002 1 1.84369 1.65749 12.1861 -8.07834 -1.89522 -0.724313 0.944935 
7003 1 1.61699 1.7248 17.4361 -7.33111 0.103674 1.03056 0.247662 
8002 1 4.3886 1.87253 12.3346 -7.86882 0.710185 -0.478012 -0.699785 
8003 1 4.25257 1.88456 17.6746 -8.07101 0.598448 -0.562056 -0.59415 
9003 1 1.73082 4.36843 14.8768 -7.52824 -0.856119 0.483382 0.065312 
9004 1 1.76332 4.2726 20.2059 -7.91496 -1.15726 0.201306 0.504829 
10002 1 1.75834 4.27055 12.1556 -8.09518 -0.169422 0.419388 0.694729 
10003 1 1.70335 4.40309 17.6266 -7.06037 -1.91945 -0.905716 -0.509039 
11003 1 4.39886 1.65983 14.9693 -7.91285 0.368128 0.474859 -0.381431 
11004 1 4.17109 1.74209 20.3019 -7.73168 1.20909 0.086915 -0.600622 
10203 1 6.86536 4.47207 17.3681 -7.75259 0.398459 -0.884565 0.728456 
9203 1 6.99661 4.48149 14.7355 -7.52293 -0.195775 -0.946035 0.188197 
4043 1 1.7915 6.92716 14.8625 -7.38021 -0.40914 0.468584 -1.00405 
43 2 0.435918 5.67799 13.4758 -25.278 0.06476 0.0551834 0.810454 
7043 1 1.65587 6.90643 17.4038 -7.33943 0.153194 0.879124 0.208532 
204 2 5.6368 0.508601 18.8312 -25.0662 -0.875357 -1.50509 0.277122 
10202 1 6.99971 4.34666 12.0977 -7.91782 -0.245356 -1.48925 0.149706 
7203 1 6.90804 1.77618 17.284 -7.82272 0.649047 -0.106637 1.62823 
4044 1 1.5698 6.95911 19.9594 -7.3422 0.512706 -0.442891 1.4296 
11043 1 4.36253 6.94005 14.8605 -7.39225 0.824885 -0.447153 0.229529 
4204 1 6.83045 1.75043 20.1092 -7.93929 0.826909 0.48021 0.0148113 
7042 1 1.71208 6.96717 12.1231 -7.58489 0.0342992 0.358033 0.760331 
4244 1 6.93365 6.97649 20.2221 -8.02346 0.187537 0.375298 -0.614515 
7202 1 7.02989 1.53544 12.0114 -8.45321 0.0984792 1.14405 0.289521 
9204 1 7.04879 4.28819 20.1981 -7.16539 -0.692992 0.865395 -1.31754 
4203 1 7.04654 1.66985 14.7559 -7.68429 -0.352762 0.170287 -0.569761 
443 2 10.9766 5.60259 13.4214 -25.5017 1.57007 -0.22506 0.802269 
444 3 10.8977 5.68787 18.7394 -28.6445 0.871533 -0.370258 0.562091 
1403 2 10.9952 2.95283 16.1069 -25.1434 0.576496 -0.455004 -0.188749 
2243 2 8.3461 5.79008 16.1289 -25.0836 -0.401527 -1.53279 -0.141292 
3203 2 8.3482 2.9203 13.4581 -25.2676 -0.292029 0.247695 -0.434687 
3204 2 8.36734 2.95516 18.7352 -25.1447 -1.70569 1.05945 0.311389 
4403 1 12.4306 1.50077 14.7438 -7.76105 -1.28751 0.468503 1.09888 
4404 1 12.3367 1.58003 20.2219 -7.83869 -1.54616 0.543286 -0.631443 
5202 1 9.66959 4.3056 12.1819 -7.78277 0.228816 -1.113 -2.03304 
5203 1 9.69548 4.26855 17.4871 -8.19668 -0.168522 1.37594 -0.605995 
6203 1 9.63583 4.17681 14.733 -7.68823 0.648779 1.52025 1.6116 
6204 1 9.56802 4.35331 20.1359 -7.72385 1.01871 0.351298 0.390253 
7402 1 12.3107 1.70051 12.1469 -7.39528 0.0568508 -1.7621 0.263984 
7403 1 12.1889 1.60615 17.5747 -7.95734 0.341826 -0.127732 -1.19122 
8202 1 9.74042 1.55652 12.1424 -7.74038 -0.801842 0.673597 0.0521703 
8203 1 9.67743 1.6308 17.4446 -7.95909 -0.942046 -0.649233 -0.1122 
9403 1 12.3484 4.21001 14.7926 -7.79964 -0.188258 0.277599 0.0146439 
9404 1 12.2506 4.31289 20.0807 -7.74649 -0.692991 0.471849 0.540656 
10402 1 12.4338 4.12745 12.1111 -7.2141 -1.08907 1.76305 0.118845 
10403 1 12.3941 4.3365 17.4681 -7.72063 -1.40977 1.03643 -0.918492 
11203 1 9.67056 1.55171 14.7545 -7.84956 0.695401 -0.484748 0.686217 
11204 1 9.51949 1.67419 20.1481 -7.99245 1.48764 -0.0410742 -0.0516013 
4443 1 12.4 6.91957 14.8628 -7.36007 -0.247692 -0.174834 -0.986979 
3404 2 13.5348 2.96546 18.8258 -25.6824 1.46263 0.0848063 0.0850707 
3403 3 13.6347 2.94048 13.4424 -29.3637 0.160087 0.372799 0.226762 
4444 1 12.3778 6.94486 20.0716 -7.93685 -1.12805 -0.882895 0.0195827 
7442 1 12.3865 6.91244 12.1216 -7.69245 -0.655821 0.545798 1.01324 
11243 1 9.79116 7.00991 14.822 -8.06637 -0.163668 -0.281948 1.18238 
2443 3 13.6016 5.74182 16.1361 -28.9493 0.22356 -1.01893 -0.170603 
7242 1 7.06849 7.01002 12.1536 -7.28734 -0.919494 -0.330742 0.666344 
8242 1 9.67676 6.93314 12.2023 -7.45182 0.470754 1.12565 -1.10759 
11244 1 9.67978 6.95107 20.1476 -7.84133 -0.468628 0.108666 -0.104 
643 2 16.321 5.71606 13.4352 -25.9062 0.784747 -0.481695 0.632427 
644 3 16.299 5.70065 18.8275 -29.2874 0.132787 -1.01385 0.0778038 
1603 2 16.2016 3.06468 16.0814 -25.8451 0.378635 -1.64322 0.790552 
2643 2 19.1037 5.71633 16.1009 -25.3623 -1.56552 0.0837594 0.0751216 
3603 2 18.8768 2.94616 13.3706 -25.8463 1.31499 1.14655 1.22908 
3604 2 18.7785 3.00744 18.8067 -25.3577 2.37278 0.124392 -0.315108 
4603 1 17.583 1.63499 14.8285 -7.38167 -0.120275 -0.377459 -0.743038 
4604 1 17.6674 1.68718 20.2016 -7.81763 -0.262433 -0.869601 -0.124471 
5402 1 15.0167 4.49909 12.1433 -7.24616 -0.110725 -1.36636 -0.671579 
5403 1 14.9337 4.2665 17.5915 -7.09005 -0.178851 1.256 -1.3186 
6403 1 15.0066 4.35152 14.7778 -7.68825 -1.16451 0.0602683 0.279373 
6404 1 14.9604 4.33351 20.1498 -7.30872 -0.325795 0.212919 0.256077 
7602 1 17.6565 1.62405 12.0901 -8.15713 -1.22603 -1.16839 -0.560197 
7603 1 17.6002 1.64565 17.4448 -7.78831 -0.16527 -0.966856 0.510861 
8402 1 14.9837 1.743 12.1635 -8.12301 0.0846648 -0.544568 -0.896395 
8403 1 14.8086 1.61621 17.4898 -7.45253 0.580265 -0.431052 0.0794389 
9603 1 17.6592 4.31495 14.7781 -7.32817 -0.237779 0.499322 -0.331087 
9604 1 17.5874 4.33166 20.0915 -7.46269 -0.557126 0.911873 0.37227 
10602 1 17.6966 4.27609 11.9819 -7.31286 -0.600441 -0.314847 0.303801 
10603 1 17.4609 4.25597 17.4553 -7.07167 1.40504 0.626971 0.020624 
11403 1 14.962 1.60106 14.814 -7.65317 0.247977 0.144364 -0.292022 
11404 1 14.9929 1.607 20.3024 -7.82647 -0.38343 -0.36813 -1.39137 
8603 1 20.3116 1.58676 17.4173 -7.78499 -1.20261 0.852141 0.963129 
11604 1 20.3152 1.66772 20.2571 -7.42419 -0.74262 -0.272434 -0.603796 
8602 1 20.2483 1.65433 12.2036 -7.48437 0.741207 -1.2412 -0.671754 
4644 1 17.7798 7.01373 20.2469 -7.19956 -1.24492 -0.0673253 -0.566145 
11603 1 20.2185 1.71792 14.7901 -7.34501 -0.304232 -0.363004 0.616913 
6604 1 20.2523 4.18664 20.1756 -7.40137 0.967256 0.895237 -0.103509 
5603 1 20.271 4.36083 17.5102 -8.1107 -0.291377 0.457592 0.0897843 
6603 1 20.2571 4.33836 14.7072 -7.71594 1.0945 0.89556 -0.043143 
11444 1 15.0211 7.00815 20.1425 -7.94251 0.99212 -0.0225506 -0.364457 
7643 1 17.6587 6.79708 17.5662 -7.64062 0.212341 1.59423 -0.147327 
7642 1 17.8598 6.8409 12.3418 -7.24669 0.366134 1.76261 -1.82878 
8443 1 14.9014 7.0059 17.4208 -8.13746 0.12774 -2.00148 0.711459 
1003 3 26.8149 3.11071 16.1246 -29.3121 1.50514 -0.265565 -0.0798333 
4 2 26.9368 0.488348 18.8068 -25.9534 0.161484 -0.900263 -0.000368559 
11843 1 25.7223 7.00774 14.8849 -7.98191 0.241247 0.605638 -0.715575 
5602 1 20.4066 4.23091 11.9578 -7.01666 -0.289931 -0.385691 0.157553 
804 2 21.5736 0.439934 18.9464 -25.5016 1.24271 -1.13402 -0.449186 
803 3 21.4595 0.38424 13.6185 -29.1367 0.907711 0.122802 -0.701459 
44 3 26.9584 5.67106 18.8012 -29.5501 0.0216381 0.369916 -0.387628 
843 3 21.8478 5.66698 13.5293 -28.8485 -1.6748 0.213329 -0.465903 
844 3 21.6851 5.77626 18.83 -29.1659 0.280187 -0.140492 -0.611619 
1803 2 21.5085 3.09801 16.1569 -25.3621 1.15536 -1.06057 -0.594959 
2843 3 24.3607 5.83329 16.0899 -29.2083 -0.122132 -1.02261 1.53193 
3803 2 24.2219 3.02099 13.4667 -25.3263 0.718804 -0.135202 1.31236 
3804 2 24.1893 3.15135 18.7555 -25.3856 1.56845 -1.15996 0.261967 
4803 1 22.8097 1.58605 14.6612 -7.64978 1.01041 0.60818 1.49541 
4804 1 22.9161 1.6532 20.3329 -7.89646 0.274172 0.886919 -0.680834 
5802 1 25.6589 4.30426 12.1849 -7.88808 -0.358462 1.20172 0.140614 
5803 1 25.6109 4.48502 17.3755 -7.86903 0.661617 -0.145141 0.167987 
6803 1 25.599 4.41908 14.7311 -7.67619 0.239581 -0.21983 0.759623 
6804 1 25.6064 4.404 20.0926 -7.87166 0.729686 0.203192 0.779142 
7802 1 22.9839 1.83396 12.1318 -7.49245 -0.462615 -1.16252 -1.03114 
7803 1 22.8865 1.74294 17.4675 -7.78374 0.353211 0.0906519 0.40177 
8802 1 25.662 1.69557 12.1864 -8.01987 0.372092 -1.50064 0.507134 
8803 1 25.5897 1.76476 17.313 -7.41416 -0.217567 0.789421 1.44202 
9803 1 22.9442 4.40798 14.9358 -7.93677 -0.0698141 -0.353505 -1.08269 
9804 1 22.9513 4.45327 20.0655 -7.93618 -0.85699 0.205793 1.23341 
10802 1 22.9494 4.42508 12.2065 -7.96727 0.849665 0.572477 -0.21971 
10803 1 22.9897 4.43134 17.4801 -7.42327 -1.1193 0.523937 -0.457088 
11803 1 25.6241 1.75757 14.8331 -7.45402 -0.0885706 -0.173192 -1.12904 
11804 1 25.5815 1.79262 20.0256 -7.27331 -0.177353 0.14965 -0.0355202 
4843 1 23.1806 7.0156 14.8612 -8.05502 -1.07999 0.625221 -0.373758 
11644 1 20.3577 6.92582 20.0887 -7.70672 1.00061 0.180436 0.124729 
8642 1 20.5298 6.81165 12.1549 -7.53181 -0.303116 1.13591 -0.151964 
83 2 0.380574 11.0321 13.4779 -24.9504 0.883585 -0.447862 0.84614 
11044 1 4.22304 7.08029 20.1494 -7.65102 0.173657 0.377023 -1.59202 
8042 1 4.34006 7.13484 12.3258 -7.46889 0.548028 -0.527291 -0.0319704 
8043 1 4.32695 7.10364 17.423 -7.69502 -0.624952 -0.0564929 0.4764 
283 2 5.80379 11.0513 13.644 -25.2748 0.283657 -0.254164 -0.108103 
284 3 5.5647 10.9769 18.8669 -29.7929 0.40076 0.221747 0.296346 
1243 3 5.67899 8.29912 16.1507 -29.5901 0.246862 0.441764 0.325212 
2083 2 3.04519 10.9657 16.2431 -25.5682 0.138214 0.456846 0.376932 
3043 3 3.17109 8.32378 13.6157 -29.4004 -1.01368 -0.042314 -0.302146 
3044 3 3.00274 8.37124 18.7969 -29.5534 0.125354 -0.830775 0.973087 
4083 1 1.88468 12.2996 14.7894 -7.67941 -1.45317 -1.6221 -0.338454 
4084 1 1.5305 12.1804 20.116 -7.46518 -0.475468 0.115927 -0.604294 
5042 1 4.53992 9.78296 12.249 -7.69817 -0.747494 0.30442 0.281102 
5043 1 4.36951 9.65192 17.5753 -7.59143 -0.025965 0.707167 -0.116559 
6043 1 4.37437 9.57627 14.943 -7.90538 1.03909 0.415772 -0.452658 
6044 1 4.32287 9.68496 20.1746 -7.37946 0.911099 0.641985 0.164069 
7082 1 1.75472 12.3797 12.1279 -8.06247 -1.06814 0.494588 0.887353 
7083 1 1.70762 12.3943 17.4582 -7.67747 -0.821262 0.0429298 0.0569958 
8082 1 4.34135 12.5023 12.3317 -7.95563 0.810853 -0.404897 0.517721 
8083 1 4.28358 12.3699 17.5884 -7.38755 -0.0793768 -0.207632 0.749586 
9043 1 1.78087 9.52498 14.9675 -7.73288 -0.457853 1.10565 -0.248995 
9044 1 1.8341 9.48306 20.3994 -7.31853 -0.453921 0.664372 -0.947149 
10042 1 1.80329 9.64422 12.2737 -7.44042 0.304857 0.404602 0.493064 
10043 1 1.76627 9.58423 17.7165 -8.17217 -1.42666 1.14976 -0.655551 
11083 1 4.48347 12.3007 15.013 -7.61239 0.688011 0.195391 -0.635989 
11084 1 4.09602 12.4505 20.25 -7.10409 0.612167 -0.473731 -0.706295 
4284 1 6.84916 12.1843 20.2657 -7.09434 -0.712283 1.57938 -0.656412 
9244 1 7.00281 9.71804 19.9791 -7.19686 -0.38363 -1.62871 0.598738 
7243 1 6.93385 7.05494 17.4782 -7.79084 0.859033 -0.266264 0.171869 
10243 1 6.98787 9.58053 17.492 -6.87618 -0.39638 1.41489 -0.641685 
7283 1 6.83232 12.3646 17.6726 -7.56384 1.00039 -0.140574 -0.769399 
3083 3 2.96432 13.6398 13.4605 -29.2178 0.549054 1.34489 1.33088 
1083 3 0.4144 13.6675 16.0684 -29.345 0.24946 0.305711 0.905939 
4243 1 7.0642 7.11654 14.8205 -7.6186 -0.915203 -0.999293 0.378176 
7282 1 7.12915 12.3341 12.2035 -7.723 -0.440541 0.706946 1.14511 
4283 1 7.21004 12.4297 14.9597 -8.41231 0.04136 -0.279409 -0.076603 
10242 1 7.17853 9.70219 12.3676 -7.21135 -0.635083 0.243225 -0.739357 
9243 1 7.1691 9.63873 14.9632 -7.44876 -0.809754 1.81013 0.136963 
7443 1 12.1831 7.12619 17.3769 -7.8135 0.934124 -1.11524 1.10738 
8243 1 9.68986 7.03802 17.5408 -8.15582 -0.938506 -0.214852 -0.702394 
483 2 11.2092 11.0059 13.6338 -25.5685 -2.12893 -0.463371 -1.74895 
484 2 10.9868 10.9696 18.8647 -25.3789 -0.879613 0.113669 -0.102155 
1443 3 11.0233 8.40778 16.1484 -29.1682 0.244958 -0.00240021 -0.432773 
2283 3 8.37993 11.0872 16.2679 -29.1753 -0.100568 -0.758324 0.124244 
3243 2 8.44882 8.34011 13.6012 -25.8497 0.0728737 0.650747 -1.32681 
3244 2 8.33969 8.35442 18.8083 -25.3612 -0.508569 0.17778 0.191605 
4483 1 12.4414 12.2102 14.9705 -7.75352 1.12801 1.26521 0.116001 
4484 1 12.2259 12.1701 20.3516 -7.87673 0.202855 0.808272 -0.0901531 
5242 1 9.74251 9.69744 12.1642 -7.56862 0.880013 -0.4808 -0.491505 
5243 1 9.58324 9.77018 17.4525 -7.86702 1.17885 -0.756607 0.742807 
6243 1 9.84324 9.71597 14.883 -7.51568 -0.665785 -0.693481 -0.0797856 
6244 1 9.70628 9.65103 20.2292 -7.8085 -0.644208 -0.38735 -0.49082 
7482 1 12.3974 12.3088 12.1981 -7.87112 0.486468 -0.223362 0.513188 
7483 1 12.2559 12.2886 17.6093 -7.85859 -0.0732191 0.950794 -0.0960103 
8282 1 9.76061 12.3395 12.3653 -7.42862 -0.0503626 0.360726 -0.263973 
8283 1 9.50209 12.3751 17.6285 -7.37088 0.426985 -0.159224 -1.35452 
9443 1 12.4364 9.59147 14.8113 -7.55345 0.204374 -0.357017 -0.279376 
9444 1 12.3209 9.52958 20.258 -7.59893 1.07325 0.597368 -2.21343 
10442 1 12.3897 9.64918 12.1043 -7.63305 0.328277 -0.115988 0.17767 
10443 1 12.356 9.74235 17.2987 -7.64774 -0.634459 -0.530805 2.30955 