molecular system: beta-Li3PS4
32 atoms
16 bonds
24 angles
0 dihedrals
0 impropers
3 atom types
1 bond types
1 angle types
0 dihedral types
0 improper types

  0.000000  12.819000 xlo xhi
  0.000000   8.219500 ylo yhi
  0.000000   6.123600 zlo zhi

Masses

     1   6.941000 # Li   Li  
     2  30.973762 # P4   PS4 
     3  32.066000 # S4   PS4 

Atoms

     1      1      1   1.000000   4.566128   0.106854   2.688260 0 0 0  # Li Li
     2      2      1   1.000000   8.252872   8.112647   3.435340 0 0 0  # Li Li
     3      3      1   1.000000   1.843372   8.112647   5.750060 0 0 0  # Li Li
     4      4      1   1.000000  10.975628   0.106854   0.373540 0 0 0  # Li Li
     5      5      1   1.000000   8.252872   4.216603   3.435340 0 0 0  # Li Li
     6      6      1   1.000000   4.566128   4.002897   2.688260 0 0 0  # Li Li
     7      7      1   1.000000  10.975628   4.002897   0.373540 0 0 0  # Li Li
     8      8      1   1.000000   1.843372   4.216603   5.750060 0 0 0  # Li Li
     9      9      1   1.000000   0.000000   0.000000   3.061800 0 0 0  # Li Li
    10     10      1   1.000000   6.409500   0.000000   0.000000 0 0 0  # Li Li
    11     11      1   1.000000   0.000000   4.109750   3.061800 0 0 0  # Li Li
    12     12      1   1.000000   6.409500   4.109750   0.000000 0 0 0  # Li Li
    13     13      2   5.000000   1.117817   2.054875   1.052647 0 0 0  # P4 PS4
    14     14      2   5.000000  11.701183   6.164625   5.070953 0 0 0  # P4 PS4
    15     15      2   5.000000   5.291683   6.164625   4.114447 0 0 0  # P4 PS4
    16     16      2   5.000000   7.527317   2.054875   2.009153 0 0 0  # P4 PS4
    17     13      3  -2.000000   1.988227   0.376453   1.746451 0 0 0  # S4 PS4
    18     14      3  -2.000000  10.830773   7.843047   4.377149 0 0 0  # S4 PS4
    19     15      3  -2.000000   4.421273   7.843047   4.808251 0 0 0  # S4 PS4
    20     16      3  -2.000000   8.397727   0.376453   1.315349 0 0 0  # S4 PS4
    21     14      3  -2.000000  10.830773   4.486203   4.377149 0 0 0  # S4 PS4
    22     13      3  -2.000000   1.988227   3.733297   1.746451 0 0 0  # S4 PS4
    23     16      3  -2.000000   8.397727   3.733297   1.315349 0 0 0  # S4 PS4
    24     15      3  -2.000000   4.421273   4.486203   4.808251 0 0 0  # S4 PS4
    25     13      3  -2.000000  11.980637   2.054875   1.576215 -1 0 0  # S4 PS4
    26     14      3  -2.000000   0.838363   6.164625   4.547385 1 0 0  # S4 PS4
    27     15      3  -2.000000   7.247863   6.164625   4.638015 0 0 0  # S4 PS4
    28     16      3  -2.000000   5.571137   2.054875   1.485585 0 0 0  # S4 PS4
    29     13      3  -2.000000   1.369069   2.054875   5.123004 0 0 -1  # S4 PS4
    30     14      3  -2.000000  11.449931   6.164625   1.000596 0 0 1  # S4 PS4
    31     15      3  -2.000000   5.040431   6.164625   2.061204 0 0 0  # S4 PS4
    32     16      3  -2.000000   7.778569   2.054875   4.062396 0 0 0  # S4 PS4

Bonds

     1      1     13     17 # P4-S4
     2      1     13     22 # P4-S4
     3      1     13     25 # P4-S4
     4      1     13     29 # P4-S4
     5      1     14     18 # P4-S4
     6      1     14     21 # P4-S4
     7      1     14     26 # P4-S4
     8      1     14     30 # P4-S4
     9      1     15     19 # P4-S4
    10      1     15     24 # P4-S4
    11      1     15     27 # P4-S4
    12      1     15     31 # P4-S4
    13      1     16     20 # P4-S4
    14      1     16     23 # P4-S4
    15      1     16     28 # P4-S4
    16      1     16     32 # P4-S4

Angles

     1      1     17     13     22 # S4-P4-S4
     2      1     17     13     25 # S4-P4-S4
     3      1     17     13     29 # S4-P4-S4
     4      1     18     14     21 # S4-P4-S4
     5      1     18     14     26 # S4-P4-S4
     6      1     18     14     30 # S4-P4-S4
     7      1     19     15     24 # S4-P4-S4
     8      1     19     15     27 # S4-P4-S4
     9      1     19     15     31 # S4-P4-S4
    10      1     20     16     23 # S4-P4-S4
    11      1     20     16     28 # S4-P4-S4
    12      1     20     16     32 # S4-P4-S4
    13      1     21     14     26 # S4-P4-S4
    14      1     21     14     30 # S4-P4-S4
    15      1     22     13     25 # S4-P4-S4
    16      1     22     13     29 # S4-P4-S4
    17      1     23     16     28 # S4-P4-S4
    18      1     23     16     32 # S4-P4-S4
    19      1     24     15     27 # S4-P4-S4
    20      1     24     15     31 # S4-P4-S4
    21      1     25     13     29 # S4-P4-S4
    22      1     26     14     30 # S4-P4-S4
    23      1     27     15     31 # S4-P4-S4
    24      1     28     16     32 # S4-P4-S4
