LAMMPS data file via write_data, version 22 Dec 2022, timestep = 1

8 atoms
2 atom types

-6.697682717112928e-09 4.610000006697683 xlo xhi
-6.697682717112928e-09 4.610000006697683 ylo yhi
-6.697682717112928e-09 4.610000006697683 zlo zhi

Masses

1 91.224
2 14.007

Atoms # atomic

1 1 -6.697682717112928e-09 -6.697682408685068e-09 -6.697682408685068e-09 0 0 0
7 2 -6.697682717112928e-09 -6.697682716737671e-09 2.3049999999999997 0 0 0
8 2 -6.697682717112928e-09 2.3049999999999997 -6.697682716737671e-09 0 0 0
2 1 -6.697682717112928e-09 2.3049999999999997 2.3049999999999997 0 0 0
5 2 2.3049999999999997 -6.697682717112928e-09 -6.697682716737671e-09 0 0 0
3 1 2.3049999999999997 -6.697682408685068e-09 2.3049999999999997 0 0 0
4 1 2.3049999999999997 2.3049999999999997 -6.697682408685068e-09 0 0 0
6 2 2.3049999999999997 2.3049999999999997 2.3049999999999997 0 0 0

Velocities

1 0 0 0
7 0 0 0
8 0 0 0
2 0 0 0
5 0 0 0
3 0 0 0
4 0 0 0
6 0 0 0
