LAMMPS (22 Dec 2022)
  using 1 OpenMP thread(s) per MPI task
Loaded 1 plugins from C:\Program Files\LAMMPS 64-bit 23Jun2022\plugins
Loaded 0 plugins from C:\Program Files\LAMMPS 64-bit 23Jun2022-MPI\plugins
Loaded 1 plugins from C:\Program Files\LAMMPS 64-bit 22Dec2022-MSMPI\plugins
Loaded 1 plugins from C:\Program Files\LAMMPS 64-bit 28Mar2023-MPI\plugins
# Compute elastic constant tensor for a crystal
#
# Written by Aidan Thompson (Sandia, athomps@sandia.gov)
#
#  This script uses the following three include files.
#
#   init.mod      (must be modified for different crystal structures)
# 	       	  Define units, deformation parameters and initial
#		  configuration of the atoms and simulation cell.
#
#
#   potential.mod    (must be modified for different pair styles)
# 		     Define pair style and other attributes
#		     not stored in restart file
#
#
#   displace.mod    (displace.mod should not need to be modified)
# 		    Perform positive and negative box displacements
# 		    in direction ${dir} and size ${up}.
# 		    It uses the resultant changes
#		    in stress to compute one
# 		    row of the elastic stiffness tensor
#
#		    Inputs variables:
#		    	   dir = the Voigt deformation component
#		    		    (1,2,3,4,5,6)
#		    Global constants:
#       	    	   up = the deformation magnitude (strain units)
#       		   cfac = conversion from LAMMPS pressure units to
#               	   output units for elastic constants
#
#
#  To run this on a different system, it should only be necessary to
#  modify the files init.mod and potential.mod. In order to calculate
#  the elastic constants correctly, care must be taken to specify
#  the correct units in init.mod (units, cfac and cunits). It is also
#  important to verify that the minimization of energy w.r.t atom
#  positions in the deformed cell is fully converged.
#  One indication of this is that the elastic constants are insensitive
#  to the choice of the variable ${up} in init.mod. Another is to check
#  the final max and two-norm forces reported in the log file. If you know
#  that minimization is not required, you can set maxiter = 0.0 in
#  init.mod.
#

include init.mod
# NOTE: This script can be modified for different atomic structures,
# units, etc. See in.elastic for more info.
#

# Define the finite deformation size. Try several values of this
# variable to verify that results do not depend on it.
variable up equal 1.0e-6

# Define the amount of random jiggle for atoms
# This prevents atoms from staying on saddle points
variable atomjiggle equal 1.0e-5

# Uncomment one of these blocks, depending on what units
# you are using in LAMMPS and for output

# metal units, elastic constants in eV/A^3
#units		metal
#variable cfac equal 6.2414e-7
#variable cunits string eV/A^3

# metal units, elastic constants in GPa
units		metal
variable cfac equal 1.0e-4
variable cunits string GPa

# real units, elastic constants in GPa
#units		real
#variable cfac equal 1.01325e-4
#variable cunits string GPa

# Define minimization parameters
variable etol equal 0.0
variable ftol equal 1.0e-10
variable maxiter equal 100
variable maxeval equal 1000
variable dmax equal 1.0e-2

# generate the box and atom positions using a diamond lattice

dimension    3
boundary     p p p
read_data    data.in
Reading data file ...
  orthogonal box = (-6.6976827e-09 -6.6976827e-09 -6.6976827e-09) to (4.61 4.61 4.61)
  1 by 2 by 2 MPI processor grid
  reading atoms ...
  8 atoms
  reading velocities ...
  8 velocities
  read_data CPU = 0.001 seconds
#replicate    2 3 4
replicate    2 3 4
Replication is creating a 2x3x4 = 24 times larger system...
  orthogonal box = (-6.6976827e-09 -6.6976827e-09 -6.6976827e-09) to (9.22 13.83 18.44)
  1 by 2 by 2 MPI processor grid
  192 atoms
  replicate CPU = 0.000 seconds
change_box   all triclinic
Changing box ...
  triclinic box = (-6.6976827e-09 -6.6976827e-09 -6.6976827e-09) to (9.22 13.83 18.44) with tilt (0 0 0)

# Need to set mass to something, just to satisfy LAMMPS
mass 1 1.0e-20

include potential.mod
# NOTE: This script can be modified for different pair styles
# See in.elastic for more info.

# Choose potential
#-----------------------
#pair_style	sw
#pair_coeff * * Si.sw Si
#-----------------------
#pair_style morse	2.83994742	# D0[eV] a[1/A] r0[A] rc[A], 1NN for BCC
#pair_coeff 1 1	2.1173	1.0202	2.4595	2.6497	#	Fe-Fe
#-----------------------
#pair_style smatb # R0(A)   p       q     A(eV)   xi(eV)  Rcs(A)   Rc(A), 4NN: Rcs=4NN, Rc=(4NN+5NN)/2
#pair_coeff 1 1	2.4802	7.0149	2.3779	0.3144	3.0551	4.033	4.176	#	Co	Co
#-----------------------
#pair_style eam/alloy
#pair_coeff * * AlCrFeCoNi_Zhou04.eam.alloy Fe
#-----------------------
pair_style meam
pair_coeff * * ./../../library.meam Zr N ./../../ZrN.meam Zr N
#-----------------------

# Setup neighbor style
neighbor 1.0 nsq
neigh_modify once no every 1 delay 0 check yes

# Setup minimization style
min_style	     cg
min_modify	     dmax ${dmax} line quadratic
min_modify	     dmax 0.01 line quadratic

# Setup output
thermo		1
thermo_style custom step temp pe press pxx pyy pzz pxy pxz pyz lx ly lz vol
thermo_modify norm no

# Compute initial state
fix 3 all box/relax  aniso 0.0
minimize ${etol} ${ftol} ${maxiter} ${maxeval}
minimize 0 ${ftol} ${maxiter} ${maxeval}
minimize 0 1e-10 ${maxiter} ${maxeval}
minimize 0 1e-10 100 ${maxeval}
minimize 0 1e-10 100 1000
Neighbor list info ...
  update: every = 1 steps, delay = 0 steps, check = yes
  max neighbors/atom: 2000, page size: 100000
  master list distance cutoff = 6.26
  ghost atom cutoff = 6.26
  2 neighbor lists, perpetual/occasional/extra = 2 0 0
  (1) pair meam, perpetual
      attributes: full, newton on
      pair build: full/nsq
      stencil: none
      bin: none
  (2) pair meam, perpetual, half/full from (1)
      attributes: half, newton on
      pair build: halffull/newton
      stencil: none
      bin: none
Per MPI rank memory allocation (min/avg/max) = 9.886 | 9.901 | 9.916 Mbytes
   Step          Temp          PotEng         Press           Pxx            Pyy            Pzz            Pxy            Pxz            Pyz             Lx             Ly             Lz           Volume    
         0   0             -1418.304      -2.8753541e-07 -2.8748538e-07 -2.876391e-07  -2.8748175e-07 -1.7853303e-11 -4.8415736e-12 -5.3862506e-11  9.22           13.83          18.44          2351.3324    
         1   0             -1418.304       3.9746293e-10  6.3530522e-10  1.3405107e-10  4.2303249e-10  4.6297548e-11  2.4510466e-11  3.9640384e-11  9.22           13.83          18.44          2351.3324    
Loop time of 0.00215675 on 4 procs for 1 steps with 192 atoms

0.0% CPU use with 4 MPI tasks x 1 OpenMP threads

Minimization stats:
  Stopping criterion = force tolerance
  Energy initial, next-to-last, final = 
     -1418.30400009227  -1418.30400009227  -1418.30400009226
  Force two-norm initial, final = 7.3089613e-10 1.1668047e-12
  Force max component initial, final = 4.2213522e-10 9.3236527e-13
  Final line search alpha, max atom move = 1 9.3236527e-13
  Iterations, force evaluations = 1 2

MPI task timing breakdown:
Section |  min time  |  avg time  |  max time  |%varavg| %total
---------------------------------------------------------------
Pair    | 0.001739   | 0.0018592  | 0.001974   |   0.3 | 86.21
Neigh   | 0          | 0          | 0          |   0.0 |  0.00
Comm    | 7.3e-05    | 0.0001875  | 0.000308   |   0.0 |  8.69
Output  | 0          | 0          | 0          |   0.0 |  0.00
Modify  | 0          | 0          | 0          |   0.0 |  0.00
Other   |            | 0.00011    |            |       |  5.10

Nlocal:             48 ave          64 max          32 min
Histogram: 2 0 0 0 0 0 0 0 0 2
Nghost:            600 ave         616 max         584 min
Histogram: 2 0 0 0 0 0 0 0 0 2
Neighs:           1920 ave        2560 max        1280 min
Histogram: 2 0 0 0 0 0 0 0 0 2
FullNghs:         3840 ave        5120 max        2560 min
Histogram: 2 0 0 0 0 0 0 0 0 2

Total # of neighbors = 15360
Ave neighs/atom = 80
Neighbor list builds = 0
Dangerous builds = 0

variable tmp equal pxx
variable pxx0 equal ${tmp}
variable pxx0 equal 6.35305222824856e-10
variable tmp equal pyy
variable pyy0 equal ${tmp}
variable pyy0 equal 1.34051069450747e-10
variable tmp equal pzz
variable pzz0 equal ${tmp}
variable pzz0 equal 4.23032494564659e-10
variable tmp equal pyz
variable pyz0 equal ${tmp}
variable pyz0 equal 3.96403839685053e-11
variable tmp equal pxz
variable pxz0 equal ${tmp}
variable pxz0 equal 2.45104664232742e-11
variable tmp equal pxy
variable pxy0 equal ${tmp}
variable pxy0 equal 4.62975476884069e-11

variable tmp equal lx
variable lx0 equal ${tmp}
variable lx0 equal 9.22000002679032
variable tmp equal ly
variable ly0 equal ${tmp}
variable ly0 equal 13.8300000401855
variable tmp equal lz
variable lz0 equal ${tmp}
variable lz0 equal 18.4400000535806

# These formulas define the derivatives w.r.t. strain components
# Constants uses $, variables use v_
variable d1 equal -(v_pxx1-${pxx0})/(v_delta/v_len0)*${cfac}
variable d1 equal -(v_pxx1-6.35305222824856e-10)/(v_delta/v_len0)*${cfac}
variable d1 equal -(v_pxx1-6.35305222824856e-10)/(v_delta/v_len0)*0.0001
variable d2 equal -(v_pyy1-${pyy0})/(v_delta/v_len0)*${cfac}
variable d2 equal -(v_pyy1-1.34051069450747e-10)/(v_delta/v_len0)*${cfac}
variable d2 equal -(v_pyy1-1.34051069450747e-10)/(v_delta/v_len0)*0.0001
variable d3 equal -(v_pzz1-${pzz0})/(v_delta/v_len0)*${cfac}
variable d3 equal -(v_pzz1-4.23032494564659e-10)/(v_delta/v_len0)*${cfac}
variable d3 equal -(v_pzz1-4.23032494564659e-10)/(v_delta/v_len0)*0.0001
variable d4 equal -(v_pyz1-${pyz0})/(v_delta/v_len0)*${cfac}
variable d4 equal -(v_pyz1-3.96403839685053e-11)/(v_delta/v_len0)*${cfac}
variable d4 equal -(v_pyz1-3.96403839685053e-11)/(v_delta/v_len0)*0.0001
variable d5 equal -(v_pxz1-${pxz0})/(v_delta/v_len0)*${cfac}
variable d5 equal -(v_pxz1-2.45104664232742e-11)/(v_delta/v_len0)*${cfac}
variable d5 equal -(v_pxz1-2.45104664232742e-11)/(v_delta/v_len0)*0.0001
variable d6 equal -(v_pxy1-${pxy0})/(v_delta/v_len0)*${cfac}
variable d6 equal -(v_pxy1-4.62975476884069e-11)/(v_delta/v_len0)*${cfac}
variable d6 equal -(v_pxy1-4.62975476884069e-11)/(v_delta/v_len0)*0.0001

displace_atoms all random ${atomjiggle} ${atomjiggle} ${atomjiggle} 87287 units box
displace_atoms all random 1e-05 ${atomjiggle} ${atomjiggle} 87287 units box
displace_atoms all random 1e-05 1e-05 ${atomjiggle} 87287 units box
displace_atoms all random 1e-05 1e-05 1e-05 87287 units box
Displacing atoms ...

# Write restart
unfix 3
write_restart restart.equil
System init for write_restart ...

# uxx Perturbation

variable dir equal 1
include displace.mod
# NOTE: This script should not need to be
# modified. See in.elastic for more info.
#
# Find which reference length to use

if "${dir} == 1" then    "variable len0 equal ${lx0}"
variable len0 equal ${lx0}
variable len0 equal 9.22000002679032
if "${dir} == 2" then    "variable len0 equal ${ly0}"
if "${dir} == 3" then    "variable len0 equal ${lz0}"
if "${dir} == 4" then    "variable len0 equal ${lz0}"
if "${dir} == 5" then    "variable len0 equal ${lz0}"
if "${dir} == 6" then    "variable len0 equal ${ly0}"

# Reset box and simulation parameters

clear
  using 1 OpenMP thread(s) per MPI task
Loaded 1 plugins from C:\Program Files\LAMMPS 64-bit 23Jun2022\plugins
Loaded 0 plugins from C:\Program Files\LAMMPS 64-bit 23Jun2022-MPI\plugins
Loaded 1 plugins from C:\Program Files\LAMMPS 64-bit 22Dec2022-MSMPI\plugins
Loaded 1 plugins from C:\Program Files\LAMMPS 64-bit 28Mar2023-MPI\plugins
box tilt large

The 'box' command has been removed and will be ignored

read_restart restart.equil
Reading restart file ...
  restart file = 22 Dec 2022, LAMMPS = 22 Dec 2022
  restoring atom style atomic from restart
  triclinic box = (-6.6974773e-09 -6.6973744e-09 -6.6972718e-09) to (9.22 13.83 18.44) with tilt (0 0 0)
  1 by 2 by 2 MPI processor grid
  pair style meam stores no restart info
  192 atoms
  read_restart CPU = 0.000 seconds
include potential.mod
# NOTE: This script can be modified for different pair styles
# See in.elastic for more info.

# Choose potential
#-----------------------
#pair_style	sw
#pair_coeff * * Si.sw Si
#-----------------------
#pair_style morse	2.83994742	# D0[eV] a[1/A] r0[A] rc[A], 1NN for BCC
#pair_coeff 1 1	2.1173	1.0202	2.4595	2.6497	#	Fe-Fe
#-----------------------
#pair_style smatb # R0(A)   p       q     A(eV)   xi(eV)  Rcs(A)   Rc(A), 4NN: Rcs=4NN, Rc=(4NN+5NN)/2
#pair_coeff 1 1	2.4802	7.0149	2.3779	0.3144	3.0551	4.033	4.176	#	Co	Co
#-----------------------
#pair_style eam/alloy
#pair_coeff * * AlCrFeCoNi_Zhou04.eam.alloy Fe
#-----------------------
pair_style meam
pair_coeff * * ./../../library.meam Zr N ./../../ZrN.meam Zr N
#-----------------------

# Setup neighbor style
neighbor 1.0 nsq
neigh_modify once no every 1 delay 0 check yes

# Setup minimization style
min_style	     cg
min_modify	     dmax ${dmax} line quadratic
min_modify	     dmax 0.01 line quadratic

# Setup output
thermo		1
thermo_style custom step temp pe press pxx pyy pzz pxy pxz pyz lx ly lz vol
thermo_modify norm no

# Negative deformation

variable delta equal -${up}*${len0}
variable delta equal -1e-06*${len0}
variable delta equal -1e-06*9.22000002679032
variable deltaxy equal -${up}*xy
variable deltaxy equal -1e-06*xy
variable deltaxz equal -${up}*xz
variable deltaxz equal -1e-06*xz
variable deltayz equal -${up}*yz
variable deltayz equal -1e-06*yz
if "${dir} == 1" then    "change_box all x delta 0 ${delta} xy delta ${deltaxy} xz delta ${deltaxz} remap units box"
change_box all x delta 0 ${delta} xy delta ${deltaxy} xz delta ${deltaxz} remap units box
change_box all x delta 0 -9.22000002679032e-06 xy delta ${deltaxy} xz delta ${deltaxz} remap units box
change_box all x delta 0 -9.22000002679032e-06 xy delta -0 xz delta ${deltaxz} remap units box
change_box all x delta 0 -9.22000002679032e-06 xy delta -0 xz delta -0 remap units box
Changing box ...
  triclinic box = (-6.6974773e-09 -6.6973744e-09 -6.6972718e-09) to (9.2199908 13.83 18.44) with tilt (0 0 0)
  triclinic box = (-6.6974773e-09 -6.6973744e-09 -6.6972718e-09) to (9.2199908 13.83 18.44) with tilt (0 0 0)
  triclinic box = (-6.6974773e-09 -6.6973744e-09 -6.6972718e-09) to (9.2199908 13.83 18.44) with tilt (0 0 0)
if "${dir} == 2" then    "change_box all y delta 0 ${delta} yz delta ${deltayz} remap units box"
if "${dir} == 3" then    "change_box all z delta 0 ${delta} remap units box"
if "${dir} == 4" then    "change_box all yz delta ${delta} remap units box"
if "${dir} == 5" then    "change_box all xz delta ${delta} remap units box"
if "${dir} == 6" then    "change_box all xy delta ${delta} remap units box"

# Relax atoms positions

minimize ${etol} ${ftol} ${maxiter} ${maxeval}
minimize 0 ${ftol} ${maxiter} ${maxeval}
minimize 0 1e-10 ${maxiter} ${maxeval}
minimize 0 1e-10 100 ${maxeval}
minimize 0 1e-10 100 1000
Neighbor list info ...
  update: every = 1 steps, delay = 0 steps, check = yes
  max neighbors/atom: 2000, page size: 100000
  master list distance cutoff = 6.26
  ghost atom cutoff = 6.26
  2 neighbor lists, perpetual/occasional/extra = 2 0 0
  (1) pair meam, perpetual
      attributes: full, newton on
      pair build: full/nsq
      stencil: none
      bin: none
  (2) pair meam, perpetual, half/full from (1)
      attributes: half, newton on
      pair build: halffull/newton
      stencil: none
      bin: none
Per MPI rank memory allocation (min/avg/max) = 9.869 | 9.871 | 9.872 Mbytes
   Step          Temp          PotEng         Press           Pxx            Pyy            Pzz            Pxy            Pxz            Pyz             Lx             Ly             Lz           Volume    
         1   0             -1418.304       2.1505372      4.8038557      0.82386888     0.82388708     2.3383462e-07 -2.304975e-06  -1.9607519e-06  9.2199908      13.83          18.44          2351.33      
         2   0             -1418.304       2.1503909      4.8037153      0.82372992     0.82372764     3.8840247e-07 -3.4724107e-07 -7.5022645e-07  9.2199908      13.83          18.44          2351.33      
         3   0             -1418.304       2.1503778      4.8037         0.82371677     0.82371674     1.031816e-08  -2.2987323e-08 -6.7554074e-08  9.2199908      13.83          18.44          2351.33      
         4   0             -1418.304       2.1503761      4.8036985      0.82371493     0.82371502     2.024385e-08  -1.4856459e-08 -8.4370871e-09  9.2199908      13.83          18.44          2351.33      
         5   0             -1418.304       2.1503758      4.8036982      0.82371461     0.8237147      4.0083277e-08 -4.2087312e-09 -2.4650454e-09  9.2199908      13.83          18.44          2351.33      
         6   0             -1418.304       2.1503758      4.8036982      0.82371456     0.82371458     4.801348e-08  -2.8866777e-09 -2.3365339e-09  9.2199908      13.83          18.44          2351.33      
         7   0             -1418.304       2.1503758      4.8036982      0.82371453     0.82371455     3.8388573e-08 -2.8995003e-09 -1.3398244e-10  9.2199908      13.83          18.44          2351.33      
         8   0             -1418.304       2.1503757      4.8036982      0.82371453     0.82371454     2.379197e-08  -9.3563504e-10  1.472776e-10   9.2199908      13.83          18.44          2351.33      
         9   0             -1418.304       2.1503757      4.8036982      0.82371452     0.82371453     1.1257729e-08  4.5087199e-11 -7.4692843e-10  9.2199908      13.83          18.44          2351.33      
        10   0             -1418.304       2.1503757      4.8036982      0.82371452     0.82371453     3.9142649e-09 -1.2455717e-10 -3.615457e-10   9.2199908      13.83          18.44          2351.33      
        11   0             -1418.304       2.1503757      4.8036982      0.82371452     0.82371452     9.1369663e-10 -1.1385274e-10  1.2187435e-10  9.2199908      13.83          18.44          2351.33      
        12   0             -1418.304       2.1503757      4.8036982      0.82371452     0.82371452     2.1666064e-10 -2.6027267e-10 -1.2002384e-10  9.2199908      13.83          18.44          2351.33      
        13   0             -1418.304       2.1503757      4.8036982      0.82371452     0.82371452     8.3365929e-11 -1.6858527e-10  3.9462572e-11  9.2199908      13.83          18.44          2351.33      
        14   0             -1418.304       2.1503757      4.8036982      0.82371452     0.82371452     2.1938402e-11 -3.4950144e-11  1.1072614e-11  9.2199908      13.83          18.44          2351.33      
        15   0             -1418.304       2.1503757      4.8036982      0.82371452     0.82371452    -9.8344562e-12  6.8841194e-12 -6.6033723e-11  9.2199908      13.83          18.44          2351.33      
        16   0             -1418.304       2.1503757      4.8036982      0.82371452     0.82371452    -2.9654668e-11 -5.3786911e-11 -7.0526839e-11  9.2199908      13.83          18.44          2351.33      
        17   0             -1418.304       2.1503757      4.8036982      0.82371452     0.82371452    -1.9668912e-11 -4.6335419e-11 -1.4391813e-10  9.2199908      13.83          18.44          2351.33      
        18   0             -1418.304       2.1503757      4.8036982      0.82371452     0.82371452     4.3876805e-12 -1.9252839e-11  1.8978858e-11  9.2199908      13.83          18.44          2351.33      
        19   0             -1418.304       2.1503757      4.8036982      0.82371452     0.82371452    -2.9049471e-11  2.9389894e-11  1.7614382e-10  9.2199908      13.83          18.44          2351.33      
        20   0             -1418.304       2.1503757      4.8036982      0.82371452     0.82371452    -1.5281232e-11  5.4089509e-11  7.6713053e-11  9.2199908      13.83          18.44          2351.33      
        21   0             -1418.304       2.1503757      4.8036982      0.82371452     0.82371452     1.0590953e-11 -8.0831665e-11 -2.0936322e-11  9.2199908      13.83          18.44          2351.33      
        22   0             -1418.304       2.1503757      4.8036982      0.82371452     0.82371452    -2.9957267e-11 -1.0326179e-11 -6.5557126e-11  9.2199908      13.83          18.44          2351.33      
        23   0             -1418.304       2.1503757      4.8036982      0.82371452     0.82371452    -7.2623677e-12 -4.7734938e-11  1.0612902e-10  9.2199908      13.83          18.44          2351.33      
        24   0             -1418.304       2.1503757      4.8036982      0.82371452     0.82371452    -1.6642926e-11  9.4751203e-11 -1.087084e-10   9.2199908      13.83          18.44          2351.33      
        25   0             -1418.304       2.1503757      4.8036982      0.82371452     0.82371452    -1.1801347e-11 -2.019846e-11  -5.9725108e-11  9.2199908      13.83          18.44          2351.33      
        26   0             -1418.304       2.1503757      4.8036982      0.82371452     0.82371452     2.8746872e-12 -3.5630991e-11 -8.8334302e-11  9.2199908      13.83          18.44          2351.33      
        27   0             -1418.304       2.1503757      4.8036982      0.82371452     0.82371452     2.6477382e-11 -1.8382868e-11 -2.9555945e-11  9.2199908      13.83          18.44          2351.33      
        28   0             -1418.304       2.1503757      4.8036982      0.82371452     0.82371452    -1.5886429e-11  5.847719e-11   1.8186411e-10  9.2199908      13.83          18.44          2351.33      
        29   0             -1418.304       2.1503757      4.8036982      0.82371452     0.82371452    -6.6571704e-12  3.5782291e-11  7.6450437e-11  9.2199908      13.83          18.44          2351.33      
        30   0             -1418.304       2.1503757      4.8036982      0.82371452     0.82371452     1.0893552e-11  3.3891049e-11  2.8373075e-11  9.2199908      13.83          18.44          2351.33      
        31   0             -1418.304       2.1503757      4.8036982      0.82371452     0.82371452     1.2406545e-11  1.8155919e-11  7.6966393e-11  9.2199908      13.83          18.44          2351.33      
Loop time of 0.0382387 on 4 procs for 30 steps with 192 atoms

71.5% CPU use with 4 MPI tasks x 1 OpenMP threads

Minimization stats:
  Stopping criterion = force tolerance
  Energy initial, next-to-last, final = 
     -1418.30399995749  -1418.30400008873  -1418.30400008873
  Force two-norm initial, final = 0.002058721 4.6918969e-11
  Force max component initial, final = 0.00024685112 6.5928374e-12
  Final line search alpha, max atom move = 1 6.5928374e-12
  Iterations, force evaluations = 30 60

MPI task timing breakdown:
Section |  min time  |  avg time  |  max time  |%varavg| %total
---------------------------------------------------------------
Pair    | 0.033474   | 0.034367   | 0.035984   |   0.5 | 89.87
Neigh   | 0          | 0          | 0          |   0.0 |  0.00
Comm    | 0.00143    | 0.003045   | 0.003933   |   1.8 |  7.96
Output  | 0.000325   | 0.00035525 | 0.000422   |   0.0 |  0.93
Modify  | 0          | 0          | 0          |   0.0 |  0.00
Other   |            | 0.000472   |            |       |  1.23

Nlocal:             48 ave          51 max          45 min
Histogram: 1 0 0 0 0 2 0 0 0 1
Nghost:            600 ave         603 max         597 min
Histogram: 1 0 0 0 0 2 0 0 0 1
Neighs:           1920 ave        2040 max        1807 min
Histogram: 1 0 0 0 2 0 0 0 0 1
FullNghs:         3840 ave        4080 max        3600 min
Histogram: 1 0 0 0 0 2 0 0 0 1

Total # of neighbors = 15360
Ave neighs/atom = 80
Neighbor list builds = 0
Dangerous builds = 0

# Obtain new stress tensor

variable tmp equal pxx
variable pxx1 equal ${tmp}
variable pxx1 equal 4.8036981773395
variable tmp equal pyy
variable pyy1 equal ${tmp}
variable pyy1 equal 0.823714519701102
variable tmp equal pzz
variable pzz1 equal ${tmp}
variable pzz1 equal 0.823714520358951
variable tmp equal pxy
variable pxy1 equal ${tmp}
variable pxy1 equal 1.24065447936342e-11
variable tmp equal pxz
variable pxz1 equal ${tmp}
variable pxz1 equal 1.81559192101964e-11
variable tmp equal pyz
variable pyz1 equal ${tmp}
variable pyz1 equal 7.69663926849791e-11

# Compute elastic constant from pressure tensor

variable C1neg equal ${d1}
variable C1neg equal 480.36981767042
variable C2neg equal ${d2}
variable C2neg equal 82.3714519567051
variable C3neg equal ${d3}
variable C3neg equal 82.3714519935919
variable C4neg equal ${d4}
variable C4neg equal 3.73260087164738e-09
variable C5neg equal ${d5}
variable C5neg equal -6.3545472130778e-10
variable C6neg equal ${d6}
variable C6neg equal -3.38910028947727e-09

# Reset box and simulation parameters

clear
  using 1 OpenMP thread(s) per MPI task
Loaded 1 plugins from C:\Program Files\LAMMPS 64-bit 23Jun2022\plugins
Loaded 0 plugins from C:\Program Files\LAMMPS 64-bit 23Jun2022-MPI\plugins
Loaded 1 plugins from C:\Program Files\LAMMPS 64-bit 22Dec2022-MSMPI\plugins
Loaded 1 plugins from C:\Program Files\LAMMPS 64-bit 28Mar2023-MPI\plugins
box tilt large

The 'box' command has been removed and will be ignored

read_restart restart.equil
Reading restart file ...
  restart file = 22 Dec 2022, LAMMPS = 22 Dec 2022
  restoring atom style atomic from restart
  triclinic box = (-6.6974773e-09 -6.6973744e-09 -6.6972718e-09) to (9.22 13.83 18.44) with tilt (0 0 0)
  1 by 2 by 2 MPI processor grid
  pair style meam stores no restart info
  192 atoms
  read_restart CPU = 0.000 seconds
include potential.mod
# NOTE: This script can be modified for different pair styles
# See in.elastic for more info.

# Choose potential
#-----------------------
#pair_style	sw
#pair_coeff * * Si.sw Si
#-----------------------
#pair_style morse	2.83994742	# D0[eV] a[1/A] r0[A] rc[A], 1NN for BCC
#pair_coeff 1 1	2.1173	1.0202	2.4595	2.6497	#	Fe-Fe
#-----------------------
#pair_style smatb # R0(A)   p       q     A(eV)   xi(eV)  Rcs(A)   Rc(A), 4NN: Rcs=4NN, Rc=(4NN+5NN)/2
#pair_coeff 1 1	2.4802	7.0149	2.3779	0.3144	3.0551	4.033	4.176	#	Co	Co
#-----------------------
#pair_style eam/alloy
#pair_coeff * * AlCrFeCoNi_Zhou04.eam.alloy Fe
#-----------------------
pair_style meam
pair_coeff * * ./../../library.meam Zr N ./../../ZrN.meam Zr N
#-----------------------

# Setup neighbor style
neighbor 1.0 nsq
neigh_modify once no every 1 delay 0 check yes

# Setup minimization style
min_style	     cg
min_modify	     dmax ${dmax} line quadratic
min_modify	     dmax 0.01 line quadratic

# Setup output
thermo		1
thermo_style custom step temp pe press pxx pyy pzz pxy pxz pyz lx ly lz vol
thermo_modify norm no

# Positive deformation

variable delta equal ${up}*${len0}
variable delta equal 1e-06*${len0}
variable delta equal 1e-06*9.22000002679032
variable deltaxy equal ${up}*xy
variable deltaxy equal 1e-06*xy
variable deltaxz equal ${up}*xz
variable deltaxz equal 1e-06*xz
variable deltayz equal ${up}*yz
variable deltayz equal 1e-06*yz
if "${dir} == 1" then    "change_box all x delta 0 ${delta} xy delta ${deltaxy} xz delta ${deltaxz} remap units box"
change_box all x delta 0 ${delta} xy delta ${deltaxy} xz delta ${deltaxz} remap units box
change_box all x delta 0 9.22000002679032e-06 xy delta ${deltaxy} xz delta ${deltaxz} remap units box
change_box all x delta 0 9.22000002679032e-06 xy delta 0 xz delta ${deltaxz} remap units box
change_box all x delta 0 9.22000002679032e-06 xy delta 0 xz delta 0 remap units box
Changing box ...
  triclinic box = (-6.6974773e-09 -6.6973744e-09 -6.6972718e-09) to (9.2200092 13.83 18.44) with tilt (0 0 0)
  triclinic box = (-6.6974773e-09 -6.6973744e-09 -6.6972718e-09) to (9.2200092 13.83 18.44) with tilt (0 0 0)
  triclinic box = (-6.6974773e-09 -6.6973744e-09 -6.6972718e-09) to (9.2200092 13.83 18.44) with tilt (0 0 0)
if "${dir} == 2" then    "change_box all y delta 0 ${delta} yz delta ${deltayz} remap units box"
if "${dir} == 3" then    "change_box all z delta 0 ${delta} remap units box"
if "${dir} == 4" then    "change_box all yz delta ${delta} remap units box"
if "${dir} == 5" then    "change_box all xz delta ${delta} remap units box"
if "${dir} == 6" then    "change_box all xy delta ${delta} remap units box"

# Relax atoms positions

minimize ${etol} ${ftol} ${maxiter} ${maxeval}
minimize 0 ${ftol} ${maxiter} ${maxeval}
minimize 0 1e-10 ${maxiter} ${maxeval}
minimize 0 1e-10 100 ${maxeval}
minimize 0 1e-10 100 1000
Neighbor list info ...
  update: every = 1 steps, delay = 0 steps, check = yes
  max neighbors/atom: 2000, page size: 100000
  master list distance cutoff = 6.26
  ghost atom cutoff = 6.26
  2 neighbor lists, perpetual/occasional/extra = 2 0 0
  (1) pair meam, perpetual
      attributes: full, newton on
      pair build: full/nsq
      stencil: none
      bin: none
  (2) pair meam, perpetual, half/full from (1)
      attributes: half, newton on
      pair build: halffull/newton
      stencil: none
      bin: none
Per MPI rank memory allocation (min/avg/max) = 9.869 | 9.871 | 9.872 Mbytes
   Step          Temp          PotEng         Press           Pxx            Pyy            Pzz            Pxy            Pxz            Pyz             Lx             Ly             Lz           Volume    
         1   0             -1418.304      -2.1501973     -4.8034983     -0.82355587    -0.82353767     2.338278e-07  -2.3048786e-06 -1.960732e-06   9.2200092      13.83          18.44          2351.3347    
         2   0             -1418.304      -2.1503436     -4.8036388     -0.82369483    -0.82369711     3.8831833e-07 -3.472077e-07  -7.5011209e-07  9.2200092      13.83          18.44          2351.3347    
         3   0             -1418.304      -2.1503567     -4.8036541     -0.82370799    -0.82370801     1.0312088e-08 -2.2967343e-08 -6.753944e-08   9.2200092      13.83          18.44          2351.3347    
         4   0             -1418.304      -2.1503584     -4.8036556     -0.82370982    -0.82370974     2.0219148e-08 -1.4836874e-08 -8.4152102e-09  9.2200092      13.83          18.44          2351.3347    
         5   0             -1418.304      -2.1503587     -4.8036558     -0.82371014    -0.82371005     4.0080927e-08 -4.1278913e-09 -2.4698432e-09  9.2200092      13.83          18.44          2351.3347    
         6   0             -1418.304      -2.1503587     -4.8036559     -0.82371019    -0.82371017     4.7975408e-08 -2.8758919e-09 -2.3260381e-09  9.2200092      13.83          18.44          2351.3347    
         7   0             -1418.304      -2.1503588     -4.8036559     -0.82371022    -0.8237102      3.8380477e-08 -2.8155614e-09 -3.4700104e-11  9.2200092      13.83          18.44          2351.3347    
         8   0             -1418.304      -2.1503588     -4.8036559     -0.82371023    -0.82371021     2.3818551e-08 -8.8528842e-10  1.3523319e-10  9.2200092      13.83          18.44          2351.3347    
         9   0             -1418.304      -2.1503588     -4.8036559     -0.82371023    -0.82371022     1.1267541e-08  4.5843604e-11 -6.7447057e-10  9.2200092      13.83          18.44          2351.3347    
        10   0             -1418.304      -2.1503588     -4.8036559     -0.82371023    -0.82371022     3.9044226e-09 -1.4259933e-11 -3.8378305e-10  9.2200092      13.83          18.44          2351.3347    
        11   0             -1418.304      -2.1503588     -4.8036559     -0.82371023    -0.82371023     8.8676358e-10 -5.7266681e-11  8.7964122e-11  9.2200092      13.83          18.44          2351.3347    
        12   0             -1418.304      -2.1503588     -4.8036559     -0.82371023    -0.82371023     2.5100508e-10 -1.8700559e-10 -2.5322537e-11  9.2200092      13.83          18.44          2351.3347    
        13   0             -1418.304      -2.1503588     -4.8036559     -0.82371023    -0.82371023     1.1317167e-10 -1.4399885e-10 -1.5085925e-10  9.2200092      13.83          18.44          2351.3347    
        14   0             -1418.304      -2.1503588     -4.8036559     -0.82371023    -0.82371023     5.113907e-11  -9.1838508e-11 -2.5419545e-11  9.2200092      13.83          18.44          2351.3347    
        15   0             -1418.304      -2.1503588     -4.8036559     -0.82371023    -0.82371023     2.4207844e-12  2.4964339e-12  5.4693608e-11  9.2200092      13.83          18.44          2351.3347    
        16   0             -1418.304      -2.1503588     -4.8036559     -0.82371023    -0.82371023     2.4964339e-11 -5.8174475e-11  9.5955425e-13  9.2200092      13.83          18.44          2351.3347    
        17   0             -1418.304      -2.1503588     -4.8036559     -0.82371023    -0.82371023     7.5649512e-13 -2.1030564e-11  1.0907752e-10  9.2200092      13.83          18.44          2351.3347    
        18   0             -1418.304      -2.1503588     -4.8036559     -0.82371023    -0.82371023     3.721956e-11   3.0675877e-11 -4.9914026e-11  9.2200092      13.83          18.44          2351.3347    
        19   0             -1418.304      -2.1503588     -4.8036559     -0.82371023    -0.82371023     7.7162502e-12 -1.2519994e-11  5.9327983e-11  9.2200092      13.83          18.44          2351.3347    
        20   0             -1418.304      -2.1503588     -4.8036559     -0.82371023    -0.82371023     5.2954658e-12  5.2198163e-12  2.7736314e-11  9.2200092      13.83          18.44          2351.3347    
        21   0             -1418.304      -2.1503588     -4.8036559     -0.82371023    -0.82371023     4.9928678e-12 -9.456189e-12   8.5103273e-11  9.2200092      13.83          18.44          2351.3347    
        22   0             -1418.304      -2.1503588     -4.8036559     -0.82371023    -0.82371023     6.20326e-12    3.1432372e-11  3.7003951e-11  9.2200092      13.83          18.44          2351.3347    
        23   0             -1418.304      -2.1503588     -4.8036559     -0.82371023    -0.82371023    -1.0590932e-11  4.103986e-11   5.378333e-11   9.2200092      13.83          18.44          2351.3347    
        24   0             -1418.304      -2.1503588     -4.8036559     -0.82371023    -0.82371023    -6.6571571e-12 -3.3550559e-11  4.4728141e-12  9.2200092      13.83          18.44          2351.3347    
        25   0             -1418.304      -2.1503588     -4.8036559     -0.82371023    -0.82371023    -1.3616912e-12 -2.0047121e-11  9.4645688e-11  9.2200092      13.83          18.44          2351.3347    
        26   0             -1418.304      -2.1503588     -4.8036559     -0.82371023    -0.82371023     1.4070809e-11 -1.5886398e-11  2.6005485e-11  9.2200092      13.83          18.44          2351.3347    
        27   0             -1418.304      -2.1503588     -4.8036559     -0.82371023    -0.82371023    -9.8344366e-12 -1.1347427e-12  3.4437849e-11  9.2200092      13.83          18.44          2351.3347    
        28   0             -1418.304      -2.1503588     -4.8036559     -0.82371023    -0.82371023    -4.5389707e-13 -4.4708862e-11  5.2806887e-11  9.2200092      13.83          18.44          2351.3347    
        29   0             -1418.304      -2.1503588     -4.8036559     -0.82371023    -0.82371023     1.5129902e-13  2.1333162e-11 -1.4574477e-10  9.2200092      13.83          18.44          2351.3347    
        30   0             -1418.304      -2.1503588     -4.8036559     -0.82371023    -0.82371023    -7.4136522e-12 -3.6992611e-11  3.7068042e-11  9.2200092      13.83          18.44          2351.3347    
        31   0             -1418.304      -2.1503588     -4.8036559     -0.82371023    -0.82371023     2.7233824e-12 -3.3739682e-11 -3.057905e-11   9.2200092      13.83          18.44          2351.3347    
Loop time of 0.033977 on 4 procs for 30 steps with 192 atoms

23.0% CPU use with 4 MPI tasks x 1 OpenMP threads

Minimization stats:
  Stopping criterion = force tolerance
  Energy initial, next-to-last, final = 
     -1418.30399995749  -1418.30400008873  -1418.30400008873
  Force two-norm initial, final = 0.0020587116 4.6913989e-11
  Force max component initial, final = 0.00024685093 6.585954e-12
  Final line search alpha, max atom move = 1 6.585954e-12
  Iterations, force evaluations = 30 60

MPI task timing breakdown:
Section |  min time  |  avg time  |  max time  |%varavg| %total
---------------------------------------------------------------
Pair    | 0.030886   | 0.031476   | 0.03195    |   0.2 | 92.64
Neigh   | 0          | 0          | 0          |   0.0 |  0.00
Comm    | 0.001285   | 0.0017642  | 0.002351   |   0.9 |  5.19
Output  | 0.000337   | 0.00035225 | 0.00039    |   0.0 |  1.04
Modify  | 0          | 0          | 0          |   0.0 |  0.00
Other   |            | 0.0003848  |            |       |  1.13

Nlocal:             48 ave          51 max          45 min
Histogram: 1 0 0 0 0 2 0 0 0 1
Nghost:            600 ave         603 max         597 min
Histogram: 1 0 0 0 0 2 0 0 0 1
Neighs:           1920 ave        2040 max        1807 min
Histogram: 1 0 0 0 2 0 0 0 0 1
FullNghs:         3840 ave        4080 max        3600 min
Histogram: 1 0 0 0 0 2 0 0 0 1

Total # of neighbors = 15360
Ave neighs/atom = 80
Neighbor list builds = 0
Dangerous builds = 0

# Obtain new stress tensor

variable tmp equal pe
variable e1 equal ${tmp}
variable e1 equal -1418.30400008873
variable tmp equal press
variable p1 equal ${tmp}
variable p1 equal -2.15035877547288
variable tmp equal pxx
variable pxx1 equal ${tmp}
variable pxx1 equal -4.80365586255335
variable tmp equal pyy
variable pyy1 equal ${tmp}
variable pyy1 equal -0.823710232287297
variable tmp equal pzz
variable pzz1 equal ${tmp}
variable pzz1 equal -0.823710231578007
variable tmp equal pxy
variable pxy1 equal ${tmp}
variable pxy1 equal 2.72338243475915e-12
variable tmp equal pxz
variable pxz1 equal ${tmp}
variable pxz1 equal -3.37396823861828e-11
variable tmp equal pyz
variable pyz1 equal ${tmp}
variable pyz1 equal -3.05790501272846e-11

# Compute elastic constant from pressure tensor

variable C1pos equal ${d1}
variable C1pos equal 480.365586318866
variable C2pos equal ${d2}
variable C2pos equal 82.3710232421348
variable C3pos equal ${d3}
variable C3pos equal 82.371023200104
variable C4pos equal ${d4}
variable C4pos equal 7.02194340957899e-09
variable C5pos equal ${d5}
variable C5pos equal 5.8250148809457e-09
variable C6pos equal ${d6}
variable C6pos equal 4.35741652536478e-09

# Combine positive and negative

variable C1${dir} equal 0.5*(${C1neg}+${C1pos})
variable C11 equal 0.5*(${C1neg}+${C1pos})
variable C11 equal 0.5*(480.36981767042+${C1pos})
variable C11 equal 0.5*(480.36981767042+480.365586318866)
variable C2${dir} equal 0.5*(${C2neg}+${C2pos})
variable C21 equal 0.5*(${C2neg}+${C2pos})
variable C21 equal 0.5*(82.3714519567051+${C2pos})
variable C21 equal 0.5*(82.3714519567051+82.3710232421348)
variable C3${dir} equal 0.5*(${C3neg}+${C3pos})
variable C31 equal 0.5*(${C3neg}+${C3pos})
variable C31 equal 0.5*(82.3714519935919+${C3pos})
variable C31 equal 0.5*(82.3714519935919+82.371023200104)
variable C4${dir} equal 0.5*(${C4neg}+${C4pos})
variable C41 equal 0.5*(${C4neg}+${C4pos})
variable C41 equal 0.5*(3.73260087164738e-09+${C4pos})
variable C41 equal 0.5*(3.73260087164738e-09+7.02194340957899e-09)
variable C5${dir} equal 0.5*(${C5neg}+${C5pos})
variable C51 equal 0.5*(${C5neg}+${C5pos})
variable C51 equal 0.5*(-6.3545472130778e-10+${C5pos})
variable C51 equal 0.5*(-6.3545472130778e-10+5.8250148809457e-09)
variable C6${dir} equal 0.5*(${C6neg}+${C6pos})
variable C61 equal 0.5*(${C6neg}+${C6pos})
variable C61 equal 0.5*(-3.38910028947727e-09+${C6pos})
variable C61 equal 0.5*(-3.38910028947727e-09+4.35741652536478e-09)

# Delete dir to make sure it is not reused

variable dir delete

# uyy Perturbation

variable dir equal 2
include displace.mod
# NOTE: This script should not need to be
# modified. See in.elastic for more info.
#
# Find which reference length to use

if "${dir} == 1" then    "variable len0 equal ${lx0}"
if "${dir} == 2" then    "variable len0 equal ${ly0}"
variable len0 equal ${ly0}
variable len0 equal 13.8300000401855
if "${dir} == 3" then    "variable len0 equal ${lz0}"
if "${dir} == 4" then    "variable len0 equal ${lz0}"
if "${dir} == 5" then    "variable len0 equal ${lz0}"
if "${dir} == 6" then    "variable len0 equal ${ly0}"

# Reset box and simulation parameters

clear
  using 1 OpenMP thread(s) per MPI task
Loaded 1 plugins from C:\Program Files\LAMMPS 64-bit 23Jun2022\plugins
Loaded 0 plugins from C:\Program Files\LAMMPS 64-bit 23Jun2022-MPI\plugins
Loaded 1 plugins from C:\Program Files\LAMMPS 64-bit 22Dec2022-MSMPI\plugins
Loaded 1 plugins from C:\Program Files\LAMMPS 64-bit 28Mar2023-MPI\plugins
box tilt large

The 'box' command has been removed and will be ignored

read_restart restart.equil
Reading restart file ...
  restart file = 22 Dec 2022, LAMMPS = 22 Dec 2022
  restoring atom style atomic from restart
  triclinic box = (-6.6974773e-09 -6.6973744e-09 -6.6972718e-09) to (9.22 13.83 18.44) with tilt (0 0 0)
  1 by 2 by 2 MPI processor grid
  pair style meam stores no restart info
  192 atoms
  read_restart CPU = 0.000 seconds
include potential.mod
# NOTE: This script can be modified for different pair styles
# See in.elastic for more info.

# Choose potential
#-----------------------
#pair_style	sw
#pair_coeff * * Si.sw Si
#-----------------------
#pair_style morse	2.83994742	# D0[eV] a[1/A] r0[A] rc[A], 1NN for BCC
#pair_coeff 1 1	2.1173	1.0202	2.4595	2.6497	#	Fe-Fe
#-----------------------
#pair_style smatb # R0(A)   p       q     A(eV)   xi(eV)  Rcs(A)   Rc(A), 4NN: Rcs=4NN, Rc=(4NN+5NN)/2
#pair_coeff 1 1	2.4802	7.0149	2.3779	0.3144	3.0551	4.033	4.176	#	Co	Co
#-----------------------
#pair_style eam/alloy
#pair_coeff * * AlCrFeCoNi_Zhou04.eam.alloy Fe
#-----------------------
pair_style meam
pair_coeff * * ./../../library.meam Zr N ./../../ZrN.meam Zr N
#-----------------------

# Setup neighbor style
neighbor 1.0 nsq
neigh_modify once no every 1 delay 0 check yes

# Setup minimization style
min_style	     cg
min_modify	     dmax ${dmax} line quadratic
min_modify	     dmax 0.01 line quadratic

# Setup output
thermo		1
thermo_style custom step temp pe press pxx pyy pzz pxy pxz pyz lx ly lz vol
thermo_modify norm no

# Negative deformation

variable delta equal -${up}*${len0}
variable delta equal -1e-06*${len0}
variable delta equal -1e-06*13.8300000401855
variable deltaxy equal -${up}*xy
variable deltaxy equal -1e-06*xy
variable deltaxz equal -${up}*xz
variable deltaxz equal -1e-06*xz
variable deltayz equal -${up}*yz
variable deltayz equal -1e-06*yz
if "${dir} == 1" then    "change_box all x delta 0 ${delta} xy delta ${deltaxy} xz delta ${deltaxz} remap units box"
if "${dir} == 2" then    "change_box all y delta 0 ${delta} yz delta ${deltayz} remap units box"
change_box all y delta 0 ${delta} yz delta ${deltayz} remap units box
change_box all y delta 0 -1.38300000401855e-05 yz delta ${deltayz} remap units box
change_box all y delta 0 -1.38300000401855e-05 yz delta -0 remap units box
Changing box ...
  triclinic box = (-6.6974773e-09 -6.6973744e-09 -6.6972718e-09) to (9.22 13.829986 18.44) with tilt (0 0 0)
  triclinic box = (-6.6974773e-09 -6.6973744e-09 -6.6972718e-09) to (9.22 13.829986 18.44) with tilt (0 0 0)
if "${dir} == 3" then    "change_box all z delta 0 ${delta} remap units box"
if "${dir} == 4" then    "change_box all yz delta ${delta} remap units box"
if "${dir} == 5" then    "change_box all xz delta ${delta} remap units box"
if "${dir} == 6" then    "change_box all xy delta ${delta} remap units box"

# Relax atoms positions

minimize ${etol} ${ftol} ${maxiter} ${maxeval}
minimize 0 ${ftol} ${maxiter} ${maxeval}
minimize 0 1e-10 ${maxiter} ${maxeval}
minimize 0 1e-10 100 ${maxeval}
minimize 0 1e-10 100 1000
Neighbor list info ...
  update: every = 1 steps, delay = 0 steps, check = yes
  max neighbors/atom: 2000, page size: 100000
  master list distance cutoff = 6.26
  ghost atom cutoff = 6.26
  2 neighbor lists, perpetual/occasional/extra = 2 0 0
  (1) pair meam, perpetual
      attributes: full, newton on
      pair build: full/nsq
      stencil: none
      bin: none
  (2) pair meam, perpetual, half/full from (1)
      attributes: half, newton on
      pair build: halffull/newton
      stencil: none
      bin: none
Per MPI rank memory allocation (min/avg/max) = 9.869 | 9.871 | 9.872 Mbytes
   Step          Temp          PotEng         Press           Pxx            Pyy            Pzz            Pxy            Pxz            Pyz             Lx             Ly             Lz           Volume    
         1   0             -1418.304       2.1505372      0.82387206     4.8038525      0.82388708     2.3384158e-07 -2.3049365e-06 -1.9608685e-06  9.22           13.829986      18.44          2351.33      
         2   0             -1418.304       2.1503909      0.8237316      4.8037136      0.82372764     3.8836404e-07 -3.4721524e-07 -7.5021644e-07  9.22           13.829986      18.44          2351.33      
         3   0             -1418.304       2.1503778      0.82371633     4.8037004      0.82371674     1.0325574e-08 -2.2950671e-08 -6.7478022e-08  9.22           13.829986      18.44          2351.33      
         4   0             -1418.304       2.1503761      0.82371479     4.8036986      0.82371502     2.021828e-08  -1.488392e-08  -8.3747057e-09  9.22           13.829986      18.44          2351.33      
         5   0             -1418.304       2.1503758      0.82371458     4.8036983      0.8237147      4.0097196e-08 -4.2244285e-09 -2.5390887e-09  9.22           13.829986      18.44          2351.33      
         6   0             -1418.304       2.1503758      0.82371453     4.8036982      0.82371458     4.7960374e-08 -2.8626211e-09 -2.3383487e-09  9.22           13.829986      18.44          2351.33      
         7   0             -1418.304       2.1503758      0.82371452     4.8036982      0.82371455     3.8366937e-08 -2.8370893e-09 -2.1822079e-10  9.22           13.829986      18.44          2351.33      
         8   0             -1418.304       2.1503757      0.82371452     4.8036982      0.82371454     2.3826315e-08 -9.4376738e-10  2.1961826e-10  9.22           13.829986      18.44          2351.33      
         9   0             -1418.304       2.1503757      0.82371452     4.8036982      0.82371453     1.1263024e-08  2.5531761e-11 -6.6631754e-10  9.22           13.829986      18.44          2351.33      
        10   0             -1418.304       2.1503757      0.82371452     4.8036982      0.82371453     3.8944447e-09 -3.2151107e-12 -4.8883625e-10  9.22           13.829986      18.44          2351.33      
        11   0             -1418.304       2.1503757      0.82371452     4.8036982      0.82371452     9.0764466e-10 -1.4899201e-10  6.355858e-11   9.22           13.829986      18.44          2351.33      
        12   0             -1418.304       2.1503757      0.82371452     4.8036982      0.82371452     2.5584716e-10 -2.013794e-10  -1.3434386e-10  9.22           13.829986      18.44          2351.33      
        13   0             -1418.304       2.1503757      0.82371452     4.8036982      0.82371452     8.8510106e-11 -1.4225919e-10 -4.7909767e-12  9.22           13.829986      18.44          2351.33      
        14   0             -1418.304       2.1503757      0.82371452     4.8036982      0.82371452     1.7096824e-11 -5.0117902e-11  5.5222517e-11  9.22           13.829986      18.44          2351.33      
        15   0             -1418.304       2.1503757      0.82371452     4.8036982      0.82371452     1.2103946e-12 -2.6061309e-11  3.8040757e-11  9.22           13.829986      18.44          2351.33      
        16   0             -1418.304       2.1503757      0.82371452     4.8036982      0.82371452    -2.4056593e-11  7.640616e-12  -4.1656321e-11  9.22           13.829986      18.44          2351.33      
        17   0             -1418.304       2.1503757      0.82371452     4.8036982      0.82371452    -1.4978633e-11 -1.3238691e-11  9.1392925e-11  9.22           13.829986      18.44          2351.33      
        18   0             -1418.304       2.1503757      0.82371452     4.8036982      0.82371452    -3.3285852e-12  5.3030414e-11  8.4173205e-11  9.22           13.829986      18.44          2351.33      
        19   0             -1418.304       2.1503757      0.82371452     4.8036982      0.82371452    -2.2694899e-12  1.5167758e-11  4.6220948e-11  9.22           13.829986      18.44          2351.33      
        20   0             -1418.304       2.1503757      0.82371452     4.8036982      0.82371452    -1.0137055e-11  3.1961983e-11 -2.8304528e-11  9.22           13.829986      18.44          2351.33      
        21   0             -1418.304       2.1503757      0.82371452     4.8036982      0.82371452    -9.6831569e-12  3.1016362e-12 -6.2628566e-11  9.22           13.829986      18.44          2351.33      
        22   0             -1418.304       2.1503757      0.82371452     4.8036982      0.82371452     2.5115688e-11  2.7839076e-11  7.9954127e-11  9.22           13.829986      18.44          2351.33      
        23   0             -1418.304       2.1503757      0.82371452     4.8036982      0.82371452     2.920077e-11  -2.8292974e-11 -4.9383764e-12  9.22           13.829986      18.44          2351.33      
        24   0             -1418.304       2.1503757      0.82371452     4.8036982      0.82371452    -2.027411e-11   2.7574302e-11 -3.088744e-11   9.22           13.829986      18.44          2351.33      
        25   0             -1418.304       2.1503757      0.82371452     4.8036982      0.82371452    -5.5980751e-12  3.3474976e-11  4.7940013e-11  9.22           13.829986      18.44          2351.33      
        26   0             -1418.304       2.1503757      0.82371452     4.8036982      0.82371452     4.0850818e-12  2.4359192e-11  6.9532152e-11  9.22           13.829986      18.44          2351.33      
        27   0             -1418.304       2.1503757      0.82371452     4.8036982      0.82371452     1.0893552e-11 -7.5649663e-12 -5.2428007e-11  9.22           13.829986      18.44          2351.33      
        28   0             -1418.304       2.1503757      0.82371452     4.8036982      0.82371452    -1.2557844e-11 -1.134745e-13   1.2346404e-10  9.22           13.829986      18.44          2351.33      
        29   0             -1418.304       2.1503757      0.82371452     4.8036982      0.82371452     7.5649663e-13 -2.9503369e-11  9.1947416e-11  9.22           13.829986      18.44          2351.33      
        30   0             -1418.304       2.1503757      0.82371452     4.8036982      0.82371452    -1.6642926e-11 -7.201848e-11  -9.5166268e-11  9.22           13.829986      18.44          2351.33      
        31   0             -1418.304       2.1503757      0.82371452     4.8036982      0.82371452     4.0850818e-12  4.3120308e-11  8.2102459e-11  9.22           13.829986      18.44          2351.33      
Loop time of 0.0327983 on 4 procs for 30 steps with 192 atoms

35.7% CPU use with 4 MPI tasks x 1 OpenMP threads

Minimization stats:
  Stopping criterion = force tolerance
  Energy initial, next-to-last, final = 
     -1418.30399995749  -1418.30400008873  -1418.30400008873
  Force two-norm initial, final = 0.0020587209 4.6921888e-11
  Force max component initial, final = 0.00024685246 6.6004979e-12
  Final line search alpha, max atom move = 1 6.6004979e-12
  Iterations, force evaluations = 30 60

MPI task timing breakdown:
Section |  min time  |  avg time  |  max time  |%varavg| %total
---------------------------------------------------------------
Pair    | 0.030053   | 0.030372   | 0.030831   |   0.2 | 92.60
Neigh   | 0          | 0          | 0          |   0.0 |  0.00
Comm    | 0.001273   | 0.0017358  | 0.00205    |   0.7 |  5.29
Output  | 0.000311   | 0.00033275 | 0.00038    |   0.0 |  1.01
Modify  | 0          | 0          | 0          |   0.0 |  0.00
Other   |            | 0.000358   |            |       |  1.09

Nlocal:             48 ave          51 max          45 min
Histogram: 1 0 0 0 0 2 0 0 0 1
Nghost:            600 ave         603 max         597 min
Histogram: 1 0 0 0 0 2 0 0 0 1
Neighs:           1920 ave        2040 max        1807 min
Histogram: 1 0 0 0 2 0 0 0 0 1
FullNghs:         3840 ave        4080 max        3600 min
Histogram: 1 0 0 0 0 2 0 0 0 1

Total # of neighbors = 15360
Ave neighs/atom = 80
Neighbor list builds = 0
Dangerous builds = 0

# Obtain new stress tensor

variable tmp equal pxx
variable pxx1 equal ${tmp}
variable pxx1 equal 0.823714519617584
variable tmp equal pyy
variable pyy1 equal ${tmp}
variable pyy1 equal 4.80369817673249
variable tmp equal pzz
variable pzz1 equal ${tmp}
variable pzz1 equal 0.823714520245779
variable tmp equal pxy
variable pxy1 equal ${tmp}
variable pxy1 equal 4.0850818222942e-12
variable tmp equal pxz
variable pxz1 equal ${tmp}
variable pxz1 equal 4.31203081242165e-11
variable tmp equal pyz
variable pyz1 equal ${tmp}
variable pyz1 equal 8.21024591532377e-11

# Compute elastic constant from pressure tensor

variable C1neg equal ${d1}
variable C1neg equal 82.3714518982279
variable C2neg equal ${d2}
variable C2neg equal 480.369817659844
variable C3neg equal ${d3}
variable C3neg equal 82.3714519822746
variable C4neg equal ${d4}
variable C4neg equal 4.24620751847324e-09
variable C5neg equal ${d5}
variable C5neg equal 1.86098417009423e-09
variable C6neg equal ${d6}
variable C6neg equal -4.22124658661127e-09

# Reset box and simulation parameters

clear
  using 1 OpenMP thread(s) per MPI task
Loaded 1 plugins from C:\Program Files\LAMMPS 64-bit 23Jun2022\plugins
Loaded 0 plugins from C:\Program Files\LAMMPS 64-bit 23Jun2022-MPI\plugins
Loaded 1 plugins from C:\Program Files\LAMMPS 64-bit 22Dec2022-MSMPI\plugins
Loaded 1 plugins from C:\Program Files\LAMMPS 64-bit 28Mar2023-MPI\plugins
box tilt large

The 'box' command has been removed and will be ignored

read_restart restart.equil
Reading restart file ...
  restart file = 22 Dec 2022, LAMMPS = 22 Dec 2022
  restoring atom style atomic from restart
  triclinic box = (-6.6974773e-09 -6.6973744e-09 -6.6972718e-09) to (9.22 13.83 18.44) with tilt (0 0 0)
  1 by 2 by 2 MPI processor grid
  pair style meam stores no restart info
  192 atoms
  read_restart CPU = 0.000 seconds
include potential.mod
# NOTE: This script can be modified for different pair styles
# See in.elastic for more info.

# Choose potential
#-----------------------
#pair_style	sw
#pair_coeff * * Si.sw Si
#-----------------------
#pair_style morse	2.83994742	# D0[eV] a[1/A] r0[A] rc[A], 1NN for BCC
#pair_coeff 1 1	2.1173	1.0202	2.4595	2.6497	#	Fe-Fe
#-----------------------
#pair_style smatb # R0(A)   p       q     A(eV)   xi(eV)  Rcs(A)   Rc(A), 4NN: Rcs=4NN, Rc=(4NN+5NN)/2
#pair_coeff 1 1	2.4802	7.0149	2.3779	0.3144	3.0551	4.033	4.176	#	Co	Co
#-----------------------
#pair_style eam/alloy
#pair_coeff * * AlCrFeCoNi_Zhou04.eam.alloy Fe
#-----------------------
pair_style meam
pair_coeff * * ./../../library.meam Zr N ./../../ZrN.meam Zr N
#-----------------------

# Setup neighbor style
neighbor 1.0 nsq
neigh_modify once no every 1 delay 0 check yes

# Setup minimization style
min_style	     cg
min_modify	     dmax ${dmax} line quadratic
min_modify	     dmax 0.01 line quadratic

# Setup output
thermo		1
thermo_style custom step temp pe press pxx pyy pzz pxy pxz pyz lx ly lz vol
thermo_modify norm no

# Positive deformation

variable delta equal ${up}*${len0}
variable delta equal 1e-06*${len0}
variable delta equal 1e-06*13.8300000401855
variable deltaxy equal ${up}*xy
variable deltaxy equal 1e-06*xy
variable deltaxz equal ${up}*xz
variable deltaxz equal 1e-06*xz
variable deltayz equal ${up}*yz
variable deltayz equal 1e-06*yz
if "${dir} == 1" then    "change_box all x delta 0 ${delta} xy delta ${deltaxy} xz delta ${deltaxz} remap units box"
if "${dir} == 2" then    "change_box all y delta 0 ${delta} yz delta ${deltayz} remap units box"
change_box all y delta 0 ${delta} yz delta ${deltayz} remap units box
change_box all y delta 0 1.38300000401855e-05 yz delta ${deltayz} remap units box
change_box all y delta 0 1.38300000401855e-05 yz delta 0 remap units box
Changing box ...
  triclinic box = (-6.6974773e-09 -6.6973744e-09 -6.6972718e-09) to (9.22 13.830014 18.44) with tilt (0 0 0)
  triclinic box = (-6.6974773e-09 -6.6973744e-09 -6.6972718e-09) to (9.22 13.830014 18.44) with tilt (0 0 0)
if "${dir} == 3" then    "change_box all z delta 0 ${delta} remap units box"
if "${dir} == 4" then    "change_box all yz delta ${delta} remap units box"
if "${dir} == 5" then    "change_box all xz delta ${delta} remap units box"
if "${dir} == 6" then    "change_box all xy delta ${delta} remap units box"

# Relax atoms positions

minimize ${etol} ${ftol} ${maxiter} ${maxeval}
minimize 0 ${ftol} ${maxiter} ${maxeval}
minimize 0 1e-10 ${maxiter} ${maxeval}
minimize 0 1e-10 100 ${maxeval}
minimize 0 1e-10 100 1000
Neighbor list info ...
  update: every = 1 steps, delay = 0 steps, check = yes
  max neighbors/atom: 2000, page size: 100000
  master list distance cutoff = 6.26
  ghost atom cutoff = 6.26
  2 neighbor lists, perpetual/occasional/extra = 2 0 0
  (1) pair meam, perpetual
      attributes: full, newton on
      pair build: full/nsq
      stencil: none
      bin: none
  (2) pair meam, perpetual, half/full from (1)
      attributes: half, newton on
      pair build: halffull/newton
      stencil: none
      bin: none
Per MPI rank memory allocation (min/avg/max) = 9.869 | 9.871 | 9.872 Mbytes
   Step          Temp          PotEng         Press           Pxx            Pyy            Pzz            Pxy            Pxz            Pyz             Lx             Ly             Lz           Volume    
         1   0             -1418.304      -2.1501973     -0.8235527     -4.8035015     -0.82353767     2.3383748e-07 -2.3049067e-06 -1.960698e-06   9.22           13.830014      18.44          2351.3347    
         2   0             -1418.304      -2.1503436     -0.82369315    -4.8036405     -0.82369711     3.8835509e-07 -3.4715894e-07 -7.5020416e-07  9.22           13.830014      18.44          2351.3347    
         3   0             -1418.304      -2.1503567     -0.82370842    -4.8036536     -0.82370801     1.0299076e-08 -2.3006e-08    -6.7548389e-08  9.22           13.830014      18.44          2351.3347    
         4   0             -1418.304      -2.1503584     -0.82370996    -4.8036554     -0.82370973     2.0238363e-08 -1.484894e-08  -8.3529161e-09  9.22           13.830014      18.44          2351.3347    
         5   0             -1418.304      -2.1503587     -0.82371018    -4.8036558     -0.82371005     4.0069731e-08 -4.2100466e-09 -2.5646489e-09  9.22           13.830014      18.44          2351.3347    
         6   0             -1418.304      -2.1503587     -0.82371023    -4.8036558     -0.82371017     4.7979795e-08 -2.8821329e-09 -2.3857224e-09  9.22           13.830014      18.44          2351.3347    
         7   0             -1418.304      -2.1503588     -0.82371023    -4.8036558     -0.8237102      3.8376846e-08 -2.8026631e-09 -1.256041e-10   9.22           13.830014      18.44          2351.3347    
         8   0             -1418.304      -2.1503588     -0.82371023    -4.8036559     -0.82371021     2.3849265e-08 -9.3287196e-10  2.0647455e-10  9.22           13.830014      18.44          2351.3347    
         9   0             -1418.304      -2.1503588     -0.82371023    -4.8036559     -0.82371022     1.1261186e-08  2.9162887e-11 -7.2204095e-10  9.22           13.830014      18.44          2351.3347    
        10   0             -1418.304      -2.1503588     -0.82371023    -4.8036559     -0.82371022     3.8764323e-09 -4.64488e-11   -4.6361891e-10  9.22           13.830014      18.44          2351.3347    
        11   0             -1418.304      -2.1503588     -0.82371023    -4.8036559     -0.82371023     8.4591284e-10 -1.1525203e-10  1.3371907e-10  9.22           13.830014      18.44          2351.3347    
        12   0             -1418.304      -2.1503588     -0.82371023    -4.8036559     -0.82371023     2.4101935e-10 -1.8866988e-10 -1.1000854e-11  9.22           13.830014      18.44          2351.3347    
        13   0             -1418.304      -2.1503588     -0.82371023    -4.8036559     -0.82371023     1.0318593e-10 -1.7902457e-10 -4.0108281e-12  9.22           13.830014      18.44          2351.3347    
        14   0             -1418.304      -2.1503588     -0.82371023    -4.8036559     -0.82371023     3.4798776e-11 -1.5727534e-10  3.3882706e-11  9.22           13.830014      18.44          2351.3347    
        15   0             -1418.304      -2.1503588     -0.82371023    -4.8036559     -0.82371023     6.8084561e-12 -8.9985095e-11 -9.6513039e-11  9.22           13.830014      18.44          2351.3347    
        16   0             -1418.304      -2.1503588     -0.82371023    -4.8036559     -0.82371023     1.7550687e-11  1.6794192e-11 -4.0049849e-11  9.22           13.830014      18.44          2351.3347    
        17   0             -1418.304      -2.1503588     -0.82371023    -4.8036559     -0.82371023     1.6188996e-11  3.793823e-11  -5.2063355e-11  9.22           13.830014      18.44          2351.3347    
        18   0             -1418.304      -2.1503588     -0.82371023    -4.8036559     -0.82371023    -2.4359143e-11  1.0553107e-11  2.5523682e-11  9.22           13.830014      18.44          2351.3347    
        19   0             -1418.304      -2.1503588     -0.82371023    -4.8036559     -0.82371023    -1.0590932e-12 -3.1848445e-11 -5.1638506e-11  9.22           13.830014      18.44          2351.3347    
        20   0             -1418.304      -2.1503588     -0.82371023    -4.8036559     -0.82371023    -4.2363727e-12 -3.1243248e-11  3.6344088e-11  9.22           13.830014      18.44          2351.3347    
        21   0             -1418.304      -2.1503588     -0.82371023    -4.8036559     -0.82371023    -1.0137035e-11  1.4373407e-12  1.2748567e-11  9.22           13.830014      18.44          2351.3347    
        22   0             -1418.304      -2.1503588     -0.82371023    -4.8036559     -0.82371023    -1.8458481e-11  4.6675749e-11 -2.6822118e-11  9.22           13.830014      18.44          2351.3347    
        23   0             -1418.304      -2.1503588     -0.82371023    -4.8036559     -0.82371023     2.5720834e-12 -3.7711282e-11  3.9969506e-11  9.22           13.830014      18.44          2351.3347    
        24   0             -1418.304      -2.1503588     -0.82371023    -4.8036559     -0.82371023    -3.4798776e-12 -3.8959499e-12  1.4124319e-11  9.22           13.830014      18.44          2351.3347    
        25   0             -1418.304      -2.1503588     -0.82371023    -4.8036559     -0.82371023     1.6945491e-11  1.3768211e-11 -1.3640602e-10  9.22           13.830014      18.44          2351.3347    
        26   0             -1418.304      -2.1503588     -0.82371023    -4.8036559     -0.82371023    -2.330005e-11  -2.6212556e-11 -3.1419125e-11  9.22           13.830014      18.44          2351.3347    
        27   0             -1418.304      -2.1503588     -0.82371023    -4.8036559     -0.82371023     1.6794192e-11  9.8344366e-12 -9.954944e-11   9.22           13.830014      18.44          2351.3347    
        28   0             -1418.304      -2.1503588     -0.82371023    -4.8036559     -0.82371023     3.9337746e-12  3.2680589e-11 -4.8624385e-11  9.22           13.830014      18.44          2351.3347    
        29   0             -1418.304      -2.1503588     -0.82371023    -4.8036559     -0.82371023     2.1484461e-11  2.7687721e-11  2.5158791e-11  9.22           13.830014      18.44          2351.3347    
        30   0             -1418.304      -2.1503588     -0.82371023    -4.8036559     -0.82371023     1.3465613e-11  1.6756367e-11 -4.3192523e-11  9.22           13.830014      18.44          2351.3347    
        31   0             -1418.304      -2.1503588     -0.82371023    -4.8036559     -0.82371023     2.4207844e-11  1.0553107e-11 -3.3975048e-11  9.22           13.830014      18.44          2351.3347    
Loop time of 0.032675 on 4 procs for 30 steps with 192 atoms

71.7% CPU use with 4 MPI tasks x 1 OpenMP threads

Minimization stats:
  Stopping criterion = force tolerance
  Energy initial, next-to-last, final = 
     -1418.30399995749  -1418.30400008873  -1418.30400008873
  Force two-norm initial, final = 0.0020587118 4.692775e-11
  Force max component initial, final = 0.00024684959 6.5851768e-12
  Final line search alpha, max atom move = 1 6.5851768e-12
  Iterations, force evaluations = 30 60

MPI task timing breakdown:
Section |  min time  |  avg time  |  max time  |%varavg| %total
---------------------------------------------------------------
Pair    | 0.029526   | 0.030169   | 0.030863   |   0.3 | 92.33
Neigh   | 0          | 0          | 0          |   0.0 |  0.00
Comm    | 0.001135   | 0.0018255  | 0.002468   |   1.1 |  5.59
Output  | 0.000309   | 0.00032625 | 0.00037    |   0.0 |  1.00
Modify  | 0          | 0          | 0          |   0.0 |  0.00
Other   |            | 0.000354   |            |       |  1.08

Nlocal:             48 ave          51 max          45 min
Histogram: 1 0 0 0 0 2 0 0 0 1
Nghost:            600 ave         603 max         597 min
Histogram: 1 0 0 0 0 2 0 0 0 1
Neighs:           1920 ave        2040 max        1807 min
Histogram: 1 0 0 0 2 0 0 0 0 1
FullNghs:         3840 ave        4080 max        3600 min
Histogram: 1 0 0 0 0 2 0 0 0 1

Total # of neighbors = 15360
Ave neighs/atom = 80
Neighbor list builds = 0
Dangerous builds = 0

# Obtain new stress tensor

variable tmp equal pe
variable e1 equal ${tmp}
variable e1 equal -1418.30400008873
variable tmp equal press
variable p1 equal ${tmp}
variable p1 equal -2.15035877519086
variable tmp equal pxx
variable pxx1 equal ${tmp}
variable pxx1 equal -0.823710232109369
variable tmp equal pyy
variable pyy1 equal ${tmp}
variable pyy1 equal -4.80365586200262
variable tmp equal pzz
variable pzz1 equal ${tmp}
variable pzz1 equal -0.823710231460599
variable tmp equal pxy
variable pxy1 equal ${tmp}
variable pxy1 equal 2.42078438645258e-11
variable tmp equal pxz
variable pxz1 equal ${tmp}
variable pxz1 equal 1.05531069346917e-11
variable tmp equal pyz
variable pyz1 equal ${tmp}
variable pyz1 equal -3.39750484342683e-11

# Compute elastic constant from pressure tensor

variable C1pos equal ${d1}
variable C1pos equal 82.3710232744674
variable C2pos equal ${d2}
variable C2pos equal 480.365586213667
variable C3pos equal ${d3}
variable C3pos equal 82.3710231883632
variable C4pos equal ${d4}
variable C4pos equal 7.36154324027736e-09
variable C5pos equal ${d5}
variable C5pos equal 1.39573594885825e-09
variable C6pos equal ${d6}
variable C6pos equal 2.20897038238811e-09

# Combine positive and negative

variable C1${dir} equal 0.5*(${C1neg}+${C1pos})
variable C12 equal 0.5*(${C1neg}+${C1pos})
variable C12 equal 0.5*(82.3714518982279+${C1pos})
variable C12 equal 0.5*(82.3714518982279+82.3710232744674)
variable C2${dir} equal 0.5*(${C2neg}+${C2pos})
variable C22 equal 0.5*(${C2neg}+${C2pos})
variable C22 equal 0.5*(480.369817659844+${C2pos})
variable C22 equal 0.5*(480.369817659844+480.365586213667)
variable C3${dir} equal 0.5*(${C3neg}+${C3pos})
variable C32 equal 0.5*(${C3neg}+${C3pos})
variable C32 equal 0.5*(82.3714519822746+${C3pos})
variable C32 equal 0.5*(82.3714519822746+82.3710231883632)
variable C4${dir} equal 0.5*(${C4neg}+${C4pos})
variable C42 equal 0.5*(${C4neg}+${C4pos})
variable C42 equal 0.5*(4.24620751847324e-09+${C4pos})
variable C42 equal 0.5*(4.24620751847324e-09+7.36154324027736e-09)
variable C5${dir} equal 0.5*(${C5neg}+${C5pos})
variable C52 equal 0.5*(${C5neg}+${C5pos})
variable C52 equal 0.5*(1.86098417009423e-09+${C5pos})
variable C52 equal 0.5*(1.86098417009423e-09+1.39573594885825e-09)
variable C6${dir} equal 0.5*(${C6neg}+${C6pos})
variable C62 equal 0.5*(${C6neg}+${C6pos})
variable C62 equal 0.5*(-4.22124658661127e-09+${C6pos})
variable C62 equal 0.5*(-4.22124658661127e-09+2.20897038238811e-09)

# Delete dir to make sure it is not reused

variable dir delete

# uzz Perturbation

variable dir equal 3
include displace.mod
# NOTE: This script should not need to be
# modified. See in.elastic for more info.
#
# Find which reference length to use

if "${dir} == 1" then    "variable len0 equal ${lx0}"
if "${dir} == 2" then    "variable len0 equal ${ly0}"
if "${dir} == 3" then    "variable len0 equal ${lz0}"
variable len0 equal ${lz0}
variable len0 equal 18.4400000535806
if "${dir} == 4" then    "variable len0 equal ${lz0}"
if "${dir} == 5" then    "variable len0 equal ${lz0}"
if "${dir} == 6" then    "variable len0 equal ${ly0}"

# Reset box and simulation parameters

clear
  using 1 OpenMP thread(s) per MPI task
Loaded 1 plugins from C:\Program Files\LAMMPS 64-bit 23Jun2022\plugins
Loaded 0 plugins from C:\Program Files\LAMMPS 64-bit 23Jun2022-MPI\plugins
Loaded 1 plugins from C:\Program Files\LAMMPS 64-bit 22Dec2022-MSMPI\plugins
Loaded 1 plugins from C:\Program Files\LAMMPS 64-bit 28Mar2023-MPI\plugins
box tilt large

The 'box' command has been removed and will be ignored

read_restart restart.equil
Reading restart file ...
  restart file = 22 Dec 2022, LAMMPS = 22 Dec 2022
  restoring atom style atomic from restart
  triclinic box = (-6.6974773e-09 -6.6973744e-09 -6.6972718e-09) to (9.22 13.83 18.44) with tilt (0 0 0)
  1 by 2 by 2 MPI processor grid
  pair style meam stores no restart info
  192 atoms
  read_restart CPU = 0.000 seconds
include potential.mod
# NOTE: This script can be modified for different pair styles
# See in.elastic for more info.

# Choose potential
#-----------------------
#pair_style	sw
#pair_coeff * * Si.sw Si
#-----------------------
#pair_style morse	2.83994742	# D0[eV] a[1/A] r0[A] rc[A], 1NN for BCC
#pair_coeff 1 1	2.1173	1.0202	2.4595	2.6497	#	Fe-Fe
#-----------------------
#pair_style smatb # R0(A)   p       q     A(eV)   xi(eV)  Rcs(A)   Rc(A), 4NN: Rcs=4NN, Rc=(4NN+5NN)/2
#pair_coeff 1 1	2.4802	7.0149	2.3779	0.3144	3.0551	4.033	4.176	#	Co	Co
#-----------------------
#pair_style eam/alloy
#pair_coeff * * AlCrFeCoNi_Zhou04.eam.alloy Fe
#-----------------------
pair_style meam
pair_coeff * * ./../../library.meam Zr N ./../../ZrN.meam Zr N
#-----------------------

# Setup neighbor style
neighbor 1.0 nsq
neigh_modify once no every 1 delay 0 check yes

# Setup minimization style
min_style	     cg
min_modify	     dmax ${dmax} line quadratic
min_modify	     dmax 0.01 line quadratic

# Setup output
thermo		1
thermo_style custom step temp pe press pxx pyy pzz pxy pxz pyz lx ly lz vol
thermo_modify norm no

# Negative deformation

variable delta equal -${up}*${len0}
variable delta equal -1e-06*${len0}
variable delta equal -1e-06*18.4400000535806
variable deltaxy equal -${up}*xy
variable deltaxy equal -1e-06*xy
variable deltaxz equal -${up}*xz
variable deltaxz equal -1e-06*xz
variable deltayz equal -${up}*yz
variable deltayz equal -1e-06*yz
if "${dir} == 1" then    "change_box all x delta 0 ${delta} xy delta ${deltaxy} xz delta ${deltaxz} remap units box"
if "${dir} == 2" then    "change_box all y delta 0 ${delta} yz delta ${deltayz} remap units box"
if "${dir} == 3" then    "change_box all z delta 0 ${delta} remap units box"
change_box all z delta 0 ${delta} remap units box
change_box all z delta 0 -1.84400000535806e-05 remap units box
Changing box ...
  triclinic box = (-6.6974773e-09 -6.6973744e-09 -6.6972718e-09) to (9.22 13.83 18.439982) with tilt (0 0 0)
if "${dir} == 4" then    "change_box all yz delta ${delta} remap units box"
if "${dir} == 5" then    "change_box all xz delta ${delta} remap units box"
if "${dir} == 6" then    "change_box all xy delta ${delta} remap units box"

# Relax atoms positions

minimize ${etol} ${ftol} ${maxiter} ${maxeval}
minimize 0 ${ftol} ${maxiter} ${maxeval}
minimize 0 1e-10 ${maxiter} ${maxeval}
minimize 0 1e-10 100 ${maxeval}
minimize 0 1e-10 100 1000
Neighbor list info ...
  update: every = 1 steps, delay = 0 steps, check = yes
  max neighbors/atom: 2000, page size: 100000
  master list distance cutoff = 6.26
  ghost atom cutoff = 6.26
  2 neighbor lists, perpetual/occasional/extra = 2 0 0
  (1) pair meam, perpetual
      attributes: full, newton on
      pair build: full/nsq
      stencil: none
      bin: none
  (2) pair meam, perpetual, half/full from (1)
      attributes: half, newton on
      pair build: halffull/newton
      stencil: none
      bin: none
Per MPI rank memory allocation (min/avg/max) = 9.869 | 9.871 | 9.872 Mbytes
   Step          Temp          PotEng         Press           Pxx            Pyy            Pzz            Pxy            Pxz            Pyz             Lx             Ly             Lz           Volume    
         1   0             -1418.304       2.1505372      0.82387206     0.82386888     4.8038707      2.3380905e-07 -2.3050055e-06 -1.9607507e-06  9.22           13.83          18.439982      2351.33      
         2   0             -1418.304       2.1503909      0.8237316      0.82372992     4.8037113      3.8838265e-07 -3.4714575e-07 -7.5028269e-07  9.22           13.83          18.439982      2351.33      
         3   0             -1418.304       2.1503778      0.82371633     0.82371677     4.8037004      1.0292742e-08 -2.3041753e-08 -6.7558978e-08  9.22           13.83          18.439982      2351.33      
         4   0             -1418.304       2.1503761      0.82371479     0.82371493     4.8036987      2.0206328e-08 -1.4952345e-08 -8.4612396e-09  9.22           13.83          18.439982      2351.33      
         5   0             -1418.304       2.1503758      0.82371458     0.82371461     4.8036984      4.0118227e-08 -4.2720121e-09 -2.5344507e-09  9.22           13.83          18.439982      2351.33      
         6   0             -1418.304       2.1503758      0.82371453     0.82371456     4.8036982      4.7969452e-08 -2.8358411e-09 -2.4549865e-09  9.22           13.83          18.439982      2351.33      
         7   0             -1418.304       2.1503758      0.82371452     0.82371453     4.8036982      3.8376923e-08 -2.8553209e-09 -1.221745e-10   9.22           13.83          18.439982      2351.33      
         8   0             -1418.304       2.1503757      0.82371452     0.82371453     4.8036982      2.3825559e-08 -8.3275149e-10  2.0193558e-10  9.22           13.83          18.439982      2351.33      
         9   0             -1418.304       2.1503757      0.82371452     0.82371452     4.8036982      1.1258032e-08  3.1924158e-11 -6.5009693e-10  9.22           13.83          18.439982      2351.33      
        10   0             -1418.304       2.1503757      0.82371452     0.82371452     4.8036982      3.9250071e-09  3.3701925e-11 -4.2858851e-10  9.22           13.83          18.439982      2351.33      
        11   0             -1418.304       2.1503757      0.82371452     0.82371452     4.8036982      8.546899e-10  -1.0473696e-10  3.2729077e-11  9.22           13.83          18.439982      2351.33      
        12   0             -1418.304       2.1503757      0.82371452     0.82371452     4.8036982      1.9865602e-10 -2.0149288e-10 -1.0751651e-10  9.22           13.83          18.439982      2351.33      
        13   0             -1418.304       2.1503757      0.82371452     0.82371452     4.8036982      7.7767854e-11 -2.1208383e-10 -2.8855665e-11  9.22           13.83          18.439982      2351.33      
        14   0             -1418.304       2.1503757      0.82371452     0.82371452     4.8036982      2.7990375e-11 -9.0590472e-11 -1.5596032e-11  9.22           13.83          18.439982      2351.33      
        15   0             -1418.304       2.1503757      0.82371452     0.82371452     4.8036982      9.0779596e-12 -4.3309432e-11 -3.6183215e-11  9.22           13.83          18.439982      2351.33      
        16   0             -1418.304       2.1503757      0.82371452     0.82371452     4.8036982      1.5129933e-11 -2.364052e-11  -7.1260925e-12  9.22           13.83          18.439982      2351.33      
        17   0             -1418.304       2.1503757      0.82371452     0.82371452     4.8036982      1.2860443e-11  2.6477382e-11 -6.7579805e-11  9.22           13.83          18.439982      2351.33      
        18   0             -1418.304       2.1503757      0.82371452     0.82371452     4.8036982     -1.1650048e-11  1.8118094e-11  4.8106495e-11  9.22           13.83          18.439982      2351.33      
        19   0             -1418.304       2.1503757      0.82371452     0.82371452     4.8036982      1.6794225e-11 -2.0425409e-11  4.4027313e-11  9.22           13.83          18.439982      2351.33      
        20   0             -1418.304       2.1503757      0.82371452     0.82371452     4.8036982     -1.0439654e-11  4.7167565e-11 -7.7596178e-11  9.22           13.83          18.439982      2351.33      
        21   0             -1418.304       2.1503757      0.82371452     0.82371452     4.8036982     -3.0259865e-12  7.9318672e-11  3.8293739e-11  9.22           13.83          18.439982      2351.33      
        22   0             -1418.304       2.1503757      0.82371452     0.82371452     4.8036982     -7.2623677e-12 -3.9716073e-11  3.9007956e-11  9.22           13.83          18.439982      2351.33      
        23   0             -1418.304       2.1503757      0.82371452     0.82371452     4.8036982      9.2292589e-12 -5.6358999e-12  7.6780607e-11  9.22           13.83          18.439982      2351.33      
        24   0             -1418.304       2.1503757      0.82371452     0.82371452     4.8036982     -3.0259865e-13 -5.7682868e-11  4.5372375e-11  9.22           13.83          18.439982      2351.33      
        25   0             -1418.304       2.1503757      0.82371452     0.82371452     4.8036982     -2.7233879e-12  9.4146006e-11  1.1024385e-11  9.22           13.83          18.439982      2351.33      
        26   0             -1418.304       2.1503757      0.82371452     0.82371452     4.8036982     -9.9857556e-12  5.4202984e-11 -2.3866857e-11  9.22           13.83          18.439982      2351.33      
        27   0             -1418.304       2.1503757      0.82371452     0.82371452     4.8036982      7.2623677e-12 -1.8836766e-11  8.8947796e-12  9.22           13.83          18.439982      2351.33      
        28   0             -1418.304       2.1503757      0.82371452     0.82371452     4.8036982     -6.3545717e-12 -6.5436959e-12 -1.1139248e-10  9.22           13.83          18.439982      2351.33      
[...]
if "${dir} == 6" then    "change_box all xy delta ${delta} remap units box"
change_box all xy delta ${delta} remap units box
change_box all xy delta 1.38300000401855e-05 remap units box
Changing box ...
  triclinic box = (-6.6974773e-09 -6.6973744e-09 -6.6972718e-09) to (9.22 13.83 18.44) with tilt (1.383e-05 0 0)

# Relax atoms positions

minimize ${etol} ${ftol} ${maxiter} ${maxeval}
minimize 0 ${ftol} ${maxiter} ${maxeval}
minimize 0 1e-10 ${maxiter} ${maxeval}
minimize 0 1e-10 100 ${maxeval}
minimize 0 1e-10 100 1000
Neighbor list info ...
  update: every = 1 steps, delay = 0 steps, check = yes
  max neighbors/atom: 2000, page size: 100000
  master list distance cutoff = 6.26
  ghost atom cutoff = 6.26
  2 neighbor lists, perpetual/occasional/extra = 2 0 0
  (1) pair meam, perpetual
      attributes: full, newton on
      pair build: full/nsq
      stencil: none
      bin: none
  (2) pair meam, perpetual, half/full from (1)
      attributes: half, newton on
      pair build: halffull/newton
      stencil: none
      bin: none
Per MPI rank memory allocation (min/avg/max) = 9.869 | 9.871 | 9.872 Mbytes
   Step          Temp          PotEng         Press           Pxx            Pyy            Pzz            Pxy            Pxz            Pyz             Lx             Ly             Lz           Volume    
         1   0             -1418.304       0.00016147878  0.00015746191  0.00015474779  0.00017222664 -1.224369      -2.3049289e-06 -1.9608376e-06  9.22           13.83          18.44          2351.3324    
         2   0             -1418.304       1.5191866e-05  1.7007218e-05  1.5784693e-05  1.2783687e-05 -1.2243689     -3.4714571e-07 -7.5025411e-07  9.22           13.83          18.44          2351.3324    
         3   0             -1418.304       2.0826757e-06  1.7367511e-06  2.6310442e-06  1.8802318e-06 -1.2243693     -2.3002203e-08 -6.7544753e-08  9.22           13.83          18.44          2351.3324    
         4   0             -1418.304       3.8603279e-07  1.9991402e-07  7.9888264e-07  1.5930169e-07 -1.2243693     -1.4867527e-08 -8.4641986e-09  9.22           13.83          18.44          2351.3324    
         5   0             -1418.304       9.9057587e-08 -1.809054e-08   4.7264955e-07 -1.5738624e-07 -1.2243692     -4.1689353e-09 -2.4945702e-09  9.22           13.83          18.44          2351.3324    
         6   0             -1418.304       2.6575196e-08 -6.7986587e-08  4.2574983e-07 -2.7803765e-07 -1.2243692     -2.9121309e-09 -2.3880577e-09  9.22           13.83          18.44          2351.3324    
         7   0             -1418.304       3.965854e-09  -7.6844246e-08  3.9780971e-07 -3.090679e-07  -1.2243692     -2.8220322e-09 -3.1588311e-11  9.22           13.83          18.44          2351.3324    
         8   0             -1418.304       3.0259835e-12 -7.4004058e-08  3.9086508e-07 -3.1685194e-07 -1.2243693     -8.8767226e-10  2.4701935e-10  9.22           13.83          18.44          2351.3324    
         9   0             -1418.304      -3.100221e-09  -7.4556602e-08  3.8864764e-07 -3.233917e-07  -1.2243693      7.6292609e-11 -7.9830932e-10  9.22           13.83          18.44          2351.3324    
        10   0             -1418.304      -4.7683448e-09 -7.2419048e-08  3.8801642e-07 -3.2990241e-07 -1.2243693      3.756002e-11  -4.9639609e-10  9.22           13.83          18.44          2351.3324    
        11   0             -1418.304      -7.4727671e-09 -7.310171e-08   3.8576267e-07 -3.3507926e-07 -1.2243693     -1.0662809e-10  1.1604249e-10  9.22           13.83          18.44          2351.3324    
        12   0             -1418.304      -8.3591786e-09 -7.3643966e-08  3.8539894e-07 -3.3683251e-07 -1.2243693     -1.9528941e-10 -3.6078357e-11  9.22           13.83          18.44          2351.3324    
        13   0             -1418.304      -8.6966766e-09 -7.3886045e-08  3.8485911e-07 -3.3706309e-07 -1.2243693     -1.748262e-10   3.9315808e-11  9.22           13.83          18.44          2351.3324    
        14   0             -1418.304      -8.8953829e-09 -7.407184e-08   3.8463276e-07 -3.3724707e-07 -1.2243693     -8.1701555e-11 -1.2129757e-10  9.22           13.83          18.44          2351.3324    
        15   0             -1418.304      -9.0422439e-09 -7.4215877e-08  3.8454198e-07 -3.3745284e-07 -1.2243693     -2.1787081e-11 -2.038052e-11   9.22           13.83          18.44          2351.3324    
        16   0             -1418.304      -9.0168257e-09 -7.4285474e-08  3.8452988e-07 -3.3729488e-07 -1.2243693      2.76121e-12    2.2843285e-11  9.22           13.83          18.44          2351.3324    
        17   0             -1418.304      -9.0599964e-09 -7.427095e-08   3.8453775e-07 -3.3744679e-07 -1.2243693     -2.5115663e-11 -1.1766654e-11  9.22           13.83          18.44          2351.3324    
        18   0             -1418.304      -9.1237437e-09 -7.4275791e-08  3.8450023e-07 -3.3759567e-07 -1.2243693     -1.0212694e-11  3.9452402e-11  9.22           13.83          18.44          2351.3324    
        19   0             -1418.304      -9.1172883e-09 -7.4275791e-08  3.8449841e-07 -3.3757448e-07 -1.2243693     -3.3437118e-11  7.3996481e-11  9.22           13.83          18.44          2351.3324    
        20   0             -1418.304      -9.0940891e-09 -7.4216482e-08  3.8454925e-07 -3.3761503e-07 -1.2243693      8.173938e-11  -8.4942825e-11  9.22           13.83          18.44          2351.3324    
        21   0             -1418.304      -8.9855572e-09 -7.4227981e-08  3.846025e-07  -3.3733119e-07 -1.2243693     -3.4155789e-11 -3.9085544e-12  9.22           13.83          18.44          2351.3324    
        22   0             -1418.304      -9.1330234e-09 -7.4247347e-08  3.8443789e-07 -3.3758961e-07 -1.2243693     -1.9404119e-11  6.8709247e-11  9.22           13.83          18.44          2351.3324    
        23   0             -1418.304      -9.1080086e-09 -7.4264292e-08  3.8446452e-07 -3.3752425e-07 -1.2243693      2.1900556e-11  5.9983839e-11  9.22           13.83          18.44          2351.3324    
        24   0             -1418.304      -8.948035e-09  -7.4201352e-08  3.846951e-07  -3.3733785e-07 -1.2243693      2.382962e-12  -1.8181439e-12  9.22           13.83          18.44          2351.3324    
        25   0             -1418.304      -9.0295348e-09 -7.4246137e-08  3.8469449e-07 -3.3753696e-07 -1.2243693      5.144172e-12  -1.1213831e-10  9.22           13.83          18.44          2351.3324    
        26   0             -1418.304      -9.0886423e-09 -7.4267318e-08  3.8457164e-07 -3.3757025e-07 -1.2243693     -8.8661317e-11 -2.1733828e-11  9.22           13.83          18.44          2351.3324    
        27   0             -1418.304      -9.0505149e-09 -7.421164e-08   3.8462792e-07 -3.3756783e-07 -1.2243693      1.4032999e-11  3.5289957e-11  9.22           13.83          18.44          2351.3324    
        28   0             -1418.304      -9.0398231e-09 -7.4229796e-08  3.8467452e-07 -3.375642e-07  -1.2243693     -3.669005e-12  -6.3855341e-11  9.22           13.83          18.44          2351.3324    
        29   0             -1418.304      -8.999275e-09  -7.4274581e-08  3.8471023e-07 -3.3743347e-07 -1.2243693      2.6099108e-11 -3.1498684e-11  9.22           13.83          18.44          2351.3324    
        30   0             -1418.304      -9.0212638e-09 -7.4260056e-08  3.846836e-07  -3.3748734e-07 -1.2243693     -2.0349739e-11 -3.8151509e-11  9.22           13.83          18.44          2351.3324    
        31   0             -1418.304      -9.0035113e-09 -7.4236453e-08  3.846836e-07  -3.3745768e-07 -1.2243693      2.3073124e-11  6.4583636e-11  9.22           13.83          18.44          2351.3324    
Loop time of 0.0316857 on 4 procs for 30 steps with 192 atoms

86.3% CPU use with 4 MPI tasks x 1 OpenMP threads

Minimization stats:
  Stopping criterion = force tolerance
  Energy initial, next-to-last, final = 
     -1418.30399996012  -1418.30400009136  -1418.30400009136
  Force two-norm initial, final = 0.0020587163 4.6890056e-11
  Force max component initial, final = 0.00024685106 6.6221473e-12
  Final line search alpha, max atom move = 1 6.6221473e-12
  Iterations, force evaluations = 30 60

MPI task timing breakdown:
Section |  min time  |  avg time  |  max time  |%varavg| %total
---------------------------------------------------------------
Pair    | 0.028839   | 0.029391   | 0.029928   |   0.2 | 92.76
Neigh   | 0          | 0          | 0          |   0.0 |  0.00
Comm    | 0.001114   | 0.0016505  | 0.002207   |   1.0 |  5.21
Output  | 0.000305   | 0.000317   | 0.000345   |   0.0 |  1.00
Modify  | 0          | 0          | 0          |   0.0 |  0.00
Other   |            | 0.0003275  |            |       |  1.03

Nlocal:             48 ave          51 max          45 min
Histogram: 1 0 0 0 0 2 0 0 0 1
Nghost:            600 ave         603 max         597 min
Histogram: 1 0 0 0 0 2 0 0 0 1
Neighs:           1920 ave        2040 max        1807 min
Histogram: 1 0 0 0 2 0 0 0 0 1
FullNghs:         3840 ave        4080 max        3600 min
Histogram: 1 0 0 0 0 2 0 0 0 1

Total # of neighbors = 15360
Ave neighs/atom = 80
Neighbor list builds = 0
Dangerous builds = 0

# Obtain new stress tensor

variable tmp equal pe
variable e1 equal ${tmp}
variable e1 equal -1418.30400009136
variable tmp equal press
variable p1 equal ${tmp}
variable p1 equal -9.00351133281607e-09
variable tmp equal pxx
variable pxx1 equal ${tmp}
variable pxx1 equal -7.42364534274305e-08
variable tmp equal pyy
variable pyy1 equal ${tmp}
variable pyy1 equal 3.84683600357815e-07
variable tmp equal pzz
variable pzz1 equal ${tmp}
variable pzz1 equal -3.37457680928833e-07
variable tmp equal pxy
variable pxy1 equal ${tmp}
variable pxy1 equal -1.22436928218743
variable tmp equal pxz
variable pxz1 equal ${tmp}
variable pxz1 equal 2.30731242564773e-11
variable tmp equal pyz
variable pyz1 equal ${tmp}
variable pyz1 equal 6.45836355497659e-11

# Compute elastic constant from pressure tensor

variable C1pos equal ${d1}
variable C1pos equal 7.48717586502554e-06
variable C2pos equal ${d2}
variable C2pos equal -3.84549549288364e-05
variable C3pos equal ${d3}
variable C3pos equal 3.37880713423398e-05
variable C4pos equal ${d4}
variable C4pos equal -2.49432515812606e-09
variable C5pos equal ${d5}
variable C5pos equal 1.4373421667969e-10
variable C6pos equal ${d6}
variable C6pos equal 122.436928223373

# Combine positive and negative

variable C1${dir} equal 0.5*(${C1neg}+${C1pos})
variable C16 equal 0.5*(${C1neg}+${C1pos})
variable C16 equal 0.5*(-7.48759950271681e-06+${C1pos})
variable C16 equal 0.5*(-7.48759950271681e-06+7.48717586502554e-06)
variable C2${dir} equal 0.5*(${C2neg}+${C2pos})
variable C26 equal 0.5*(${C2neg}+${C2pos})
variable C26 equal 0.5*(3.84547733698258e-05+${C2pos})
variable C26 equal 0.5*(3.84547733698258e-05+-3.84549549288364e-05)
variable C3${dir} equal 0.5*(${C3neg}+${C3pos})
variable C36 equal 0.5*(${C3neg}+${C3pos})
variable C36 equal 0.5*(-3.38016882681305e-05+${C3pos})
variable C36 equal 0.5*(-3.38016882681305e-05+3.37880713423398e-05)
variable C4${dir} equal 0.5*(${C4neg}+${C4pos})
variable C46 equal 0.5*(${C4neg}+${C4pos})
variable C46 equal 0.5*(5.71173842107012e-09+${C4pos})
variable C46 equal 0.5*(5.71173842107012e-09+-2.49432515812606e-09)
variable C5${dir} equal 0.5*(${C5neg}+${C5pos})
variable C56 equal 0.5*(${C5neg}+${C5pos})
variable C56 equal 0.5*(3.29832202486037e-09+${C5pos})
variable C56 equal 0.5*(3.29832202486037e-09+1.4373421667969e-10)
variable C6${dir} equal 0.5*(${C6neg}+${C6pos})
variable C66 equal 0.5*(${C6neg}+${C6pos})
variable C66 equal 0.5*(122.43692821328+${C6pos})
variable C66 equal 0.5*(122.43692821328+122.436928223373)

# Delete dir to make sure it is not reused

variable dir delete

# Output final values

variable C11all equal ${C11}
variable C11all equal 480.367701994643
variable C22all equal ${C22}
variable C22all equal 480.367701936755
variable C33all equal ${C33}
variable C33all equal 480.367701980571

variable C12all equal 0.5*(${C12}+${C21})
variable C12all equal 0.5*(82.3712375863477+${C21})
variable C12all equal 0.5*(82.3712375863477+82.3712375994199)
variable C13all equal 0.5*(${C13}+${C31})
variable C13all equal 0.5*(82.3712376024459+${C31})
variable C13all equal 0.5*(82.3712376024459+82.3712375968479)
variable C23all equal 0.5*(${C23}+${C32})
variable C23all equal 0.5*(82.3712375962729+${C32})
variable C23all equal 0.5*(82.3712375962729+82.3712375853189)

variable C44all equal ${C44}
variable C44all equal 122.436928214132
variable C55all equal ${C55}
variable C55all equal 122.436928217196
variable C66all equal ${C66}
variable C66all equal 122.436928218326

variable C14all equal 0.5*(${C14}+${C41})
variable C14all equal 0.5*(-1.63403109490115e-09+${C41})
variable C14all equal 0.5*(-1.63403109490115e-09+5.37727214061318e-09)
variable C15all equal 0.5*(${C15}+${C51})
variable C15all equal 0.5*(1.02883439307989e-09+${C51})
variable C15all equal 0.5*(1.02883439307989e-09+2.59478007981896e-09)
variable C16all equal 0.5*(${C16}+${C61})
variable C16all equal 0.5*(-2.11818845635241e-10+${C61})
variable C16all equal 0.5*(-2.11818845635241e-10+4.84158117943755e-10)

variable C24all equal 0.5*(${C24}+${C42})
variable C24all equal 0.5*(1.51299175452521e-09+${C42})
variable C24all equal 0.5*(1.51299175452521e-09+5.8038753793753e-09)
variable C25all equal 0.5*(${C25}+${C52})
variable C25all equal 0.5*(-6.95976207051765e-10+${C52})
variable C25all equal 0.5*(-6.95976207051765e-10+1.62836005947624e-09)
variable C26all equal 0.5*(${C26}+${C62})
variable C26all equal 0.5*(-9.0779505298262e-11+${C62})
variable C26all equal 0.5*(-9.0779505298262e-11+-1.00613810211158e-09)

variable C34all equal 0.5*(${C34}+${C43})
variable C34all equal 0.5*(6.65716371990179e-09+${C43})
variable C34all equal 0.5*(6.65716371990179e-09+-8.4397223154955e-10)
variable C35all equal 0.5*(${C35}+${C53})
variable C35all equal 0.5*(-6.83872273045088e-09+${C53})
variable C35all equal 0.5*(-6.83872273045088e-09+-6.63825119058995e-10)
variable C36all equal 0.5*(${C36}+${C63})
variable C36all equal 0.5*(-6.80846289535033e-09+${C63})
variable C36all equal 0.5*(-6.80846289535033e-09+2.98059567791302e-09)

variable C45all equal 0.5*(${C45}+${C54})
variable C45all equal 0.5*(-6.8338495180564e-10+${C54})
variable C45all equal 0.5*(-6.8338495180564e-10+-1.75317919555364e-09)
variable C46all equal 0.5*(${C46}+${C64})
variable C46all equal 0.5*(1.60870663147203e-09+${C64})
variable C46all equal 0.5*(1.60870663147203e-09+8.3214546498771e-10)
variable C56all equal 0.5*(${C56}+${C65})
variable C56all equal 0.5*(1.72102812077003e-09+${C65})
variable C56all equal 0.5*(1.72102812077003e-09+1.12717885711971e-09)

# Average moduli for cubic crystals

variable C11cubic equal (${C11all}+${C22all}+${C33all})/3.0
variable C11cubic equal (480.367701994643+${C22all}+${C33all})/3.0
variable C11cubic equal (480.367701994643+480.367701936755+${C33all})/3.0
variable C11cubic equal (480.367701994643+480.367701936755+480.367701980571)/3.0
variable C12cubic equal (${C12all}+${C13all}+${C23all})/3.0
variable C12cubic equal (82.3712375928838+${C13all}+${C23all})/3.0
variable C12cubic equal (82.3712375928838+82.3712375996469+${C23all})/3.0
variable C12cubic equal (82.3712375928838+82.3712375996469+82.3712375907959)/3.0
variable C44cubic equal (${C44all}+${C55all}+${C66all})/3.0
variable C44cubic equal (122.436928214132+${C55all}+${C66all})/3.0
variable C44cubic equal (122.436928214132+122.436928217196+${C66all})/3.0
variable C44cubic equal (122.436928214132+122.436928217196+122.436928218326)/3.0

variable bulkmodulus equal (${C11cubic}+2*${C12cubic})/3.0
variable bulkmodulus equal (480.367701970656+2*${C12cubic})/3.0
variable bulkmodulus equal (480.367701970656+2*82.3712375944422)/3.0
variable shearmodulus1 equal ${C44cubic}
variable shearmodulus1 equal 122.436928216551
variable shearmodulus2 equal (${C11cubic}-${C12cubic})/2.0
variable shearmodulus2 equal (480.367701970656-${C12cubic})/2.0
variable shearmodulus2 equal (480.367701970656-82.3712375944422)/2.0
variable poissonratio equal 1.0/(1.0+${C11cubic}/${C12cubic})
variable poissonratio equal 1.0/(1.0+480.367701970656/${C12cubic})
variable poissonratio equal 1.0/(1.0+480.367701970656/82.3712375944422)

# For Stillinger-Weber silicon, the analytical results
# are known to be (E. R. Cowley, 1988):
#               C11 = 151.4 GPa
#               C12 = 76.4 GPa
#               C44 = 56.4 GPa

print "========================================="
=========================================
print "Components of the Elastic Constant Tensor"
Components of the Elastic Constant Tensor
print "========================================="
=========================================

print "Elastic Constant C11all = ${C11all} ${cunits}"
Elastic Constant C11all = 480.367701994643 GPa
print "Elastic Constant C22all = ${C22all} ${cunits}"
Elastic Constant C22all = 480.367701936755 GPa
print "Elastic Constant C33all = ${C33all} ${cunits}"
Elastic Constant C33all = 480.367701980571 GPa

print "Elastic Constant C12all = ${C12all} ${cunits}"
Elastic Constant C12all = 82.3712375928838 GPa
print "Elastic Constant C13all = ${C13all} ${cunits}"
Elastic Constant C13all = 82.3712375996469 GPa
print "Elastic Constant C23all = ${C23all} ${cunits}"
Elastic Constant C23all = 82.3712375907959 GPa

print "Elastic Constant C44all = ${C44all} ${cunits}"
Elastic Constant C44all = 122.436928214132 GPa
print "Elastic Constant C55all = ${C55all} ${cunits}"
Elastic Constant C55all = 122.436928217196 GPa
print "Elastic Constant C66all = ${C66all} ${cunits}"
Elastic Constant C66all = 122.436928218326 GPa

print "Elastic Constant C14all = ${C14all} ${cunits}"
Elastic Constant C14all = 1.87162052285601e-09 GPa
print "Elastic Constant C15all = ${C15all} ${cunits}"
Elastic Constant C15all = 1.81180723644942e-09 GPa
print "Elastic Constant C16all = ${C16all} ${cunits}"
Elastic Constant C16all = 1.36169636154257e-10 GPa

print "Elastic Constant C24all = ${C24all} ${cunits}"
Elastic Constant C24all = 3.65843356695025e-09 GPa
print "Elastic Constant C25all = ${C25all} ${cunits}"
Elastic Constant C25all = 4.66191926212238e-10 GPa
print "Elastic Constant C26all = ${C26all} ${cunits}"
Elastic Constant C26all = -5.48458803704921e-10 GPa

print "Elastic Constant C34all = ${C34all} ${cunits}"
Elastic Constant C34all = 2.90659574417612e-09 GPa
print "Elastic Constant C35all = ${C35all} ${cunits}"
Elastic Constant C35all = -3.75127392475494e-09 GPa
print "Elastic Constant C36all = ${C36all} ${cunits}"
Elastic Constant C36all = -1.91393360871866e-09 GPa

print "Elastic Constant C45all = ${C45all} ${cunits}"
Elastic Constant C45all = -1.21828207367964e-09 GPa
print "Elastic Constant C46all = ${C46all} ${cunits}"
Elastic Constant C46all = 1.22042604822987e-09 GPa
print "Elastic Constant C56all = ${C56all} ${cunits}"
Elastic Constant C56all = 1.42410348894487e-09 GPa

print "========================================="
=========================================
print "Average properties for a cubic crystal"
Average properties for a cubic crystal
print "========================================="
=========================================

print "Bulk Modulus = ${bulkmodulus} ${cunits}"
Bulk Modulus = 215.036725719847 GPa
print "Shear Modulus 1 = ${shearmodulus1} ${cunits}"
Shear Modulus 1 = 122.436928216551 GPa
print "Shear Modulus 2 = ${shearmodulus2} ${cunits}"
Shear Modulus 2 = 198.998232188107 GPa
print "Poisson Ratio = ${poissonratio}"
Poisson Ratio = 0.146375578093283
Total wall time: 0:00:00
