ITEM: TIMESTEP
0
ITEM: NUMBER OF ATOMS
12000
ITEM: BOX BOUNDS pp pp pp
-2.7792388356228770e-02 2.7368792388355953e+01
-3.0026292005528532e-02 2.7371026292005642e+01
-2.2592265560402325e-01 2.1895392265560423e+02
ITEM: ATOMS id type x y z c_peratom fx fy fz 
242 2 5.55994 5.31718 5.42596 -25.671 0.12097 1.1488 -1.71751 
1201 2 5.5151 2.6888 2.51664 -25.3916 -0.167447 -1.75223 1.07385 
1202 2 5.57451 2.59354 7.96826 -25.2378 -1.20046 0.216324 0.571598 
2041 2 2.84092 5.33981 2.58002 -25.651 -1.15425 0.72828 -0.412053 
2042 2 2.77851 5.38163 8.00248 -25.8333 -0.460567 -0.351156 1.33721 
3002 2 2.87887 2.60073 5.35062 -25.7152 -1.56934 0.145965 0.320269 
4001 1 1.36635 1.25138 1.19998 -7.66532 0.327097 -0.347963 0.592518 
4002 1 1.39277 1.26086 6.78917 -7.11899 -0.175778 -0.774177 0.444317 
5001 1 4.04958 4.13735 4.00818 -7.44357 1.14061 -0.959988 -0.3637 
6001 1 4.18853 4.01583 1.23862 -7.80587 -0.247085 -1.17904 -0.750856 
6002 1 4.18751 3.99056 6.60682 -7.68612 0.0497528 -0.297323 0.948214 
7001 1 1.48038 1.30641 4.10181 -7.26296 -0.96345 0.313543 -1.17039 
8001 1 4.10794 1.27805 3.94181 -7.43202 1.07167 0.200381 0.141921 
9001 1 1.40918 3.87271 1.13768 -7.22758 0.234352 0.81367 0.413553 
9002 1 1.39656 3.96198 6.853 -7.21462 0.196578 -0.134529 -1.4487 
10001 1 1.40783 4.04728 3.91792 -7.41745 -0.650278 -0.334781 0.478369 
11001 1 4.09579 1.18066 1.24886 -7.57197 0.207242 0.865622 -1.10598 
11002 1 4.13104 1.23894 6.71695 -7.49 0.613371 -0.113123 -0.116045 
4201 1 6.78575 1.13968 1.20825 -7.45781 0.32096 0.218344 -0.757546 
4041 1 1.38837 6.69323 1.1794 -7.34411 -0.264323 -0.425011 0.0175438 
11041 1 4.09696 6.61227 1.12462 -7.34912 -0.0025184 1.22398 -0.0940559 
42 2 0.0226779 5.30504 5.39414 -25.5625 0.204523 0.377228 -0.762577 
7041 1 1.37615 6.75364 3.90287 -7.79203 0.0835926 0.409332 0.52471 
11042 1 4.20651 6.71474 6.72878 -7.63349 -1.2926 0.432208 -0.312136 
3001 2 2.84575 2.54611 -0.187352 -25.2667 -0.985551 0.279029 0.263692 
1001 2 0.0265658 2.64241 2.58101 -25.4246 0.374104 0.0858511 -0.419084 
1002 2 0.0489184 2.51974 8.19024 -25.7312 -0.0718862 0.90685 -1.84053 
4042 1 1.30195 6.66444 6.70042 -7.64854 1.58048 0.971404 -0.740118 
9201 1 6.87499 3.92021 1.19298 -7.85304 0.224458 0.42625 -0.636027 
4202 1 6.9056 1.09851 6.64418 -7.82148 -1.05054 1.28974 -0.519239 
10201 1 6.82949 3.84079 3.99419 -7.35738 -0.570871 0.97246 -0.701644 
9202 1 6.94897 3.91482 6.61814 -7.70493 -0.447314 -0.0773222 1.17345 
7201 1 6.89966 1.21833 3.89231 -7.25842 -0.38786 -0.978839 0.250804 
441 2 10.9743 5.23535 -0.130685 -25.3241 -0.811001 0.299754 0.0348557 
442 2 10.9424 5.37055 5.30232 -25.6208 0.204727 -0.50756 0.711202 
1401 2 10.8578 2.40431 2.71134 -25.4511 0.742702 1.43429 -1.42837 
1402 2 10.9915 2.64482 8.03491 -25.5083 -1.19869 -0.50848 0.841778 
2241 2 8.19338 5.32982 2.56514 -25.6631 0.166934 -0.618458 0.0422356 
2242 2 8.23866 5.44618 8.06008 -25.5002 -0.164836 -0.471193 0.0244641 
3202 2 8.21417 2.5102 5.26606 -25.5408 0.592082 0.153455 0.134092 
4401 1 12.3119 1.15465 1.2076 -7.30416 -0.386312 -0.305221 0.34243 
4402 1 12.2042 1.20664 6.71085 -7.39013 0.810003 0.392938 -0.0302031 
5201 1 9.51912 3.90538 3.9076 -7.28362 0.146872 -0.703673 1.26919 
6201 1 9.60189 3.84868 1.37866 -7.44004 -0.227119 0.665362 -2.36786 
6202 1 9.62226 3.99401 6.66682 -7.33697 0.139036 -0.890188 0.0586046 
7401 1 12.2985 1.16679 3.99439 -7.88892 0.448814 0.231356 -0.274658 
8201 1 9.6075 0.95714 3.93217 -7.77347 -0.524365 0.717745 -0.114626 
9401 1 12.3153 3.83356 1.29813 -7.31171 -0.172674 0.378944 0.27088 
9402 1 12.3325 3.93378 6.82325 -7.51914 0.410206 -0.0212204 -0.876191 
10401 1 12.2217 3.98246 4.05318 -7.70608 -0.122591 -0.858527 -0.0853264 
11201 1 9.54964 1.14765 1.22445 -7.71619 -0.282732 -0.513513 -0.214123 
11202 1 9.51627 1.07915 6.64375 -7.23021 0.769282 1.42813 -0.346096 
11242 1 9.59875 6.66526 6.72139 -7.61862 0.728615 0.288988 0.0655811 
11241 1 9.43523 6.71611 1.16423 -7.43149 1.08853 -1.08733 0.429601 
3201 2 8.23709 2.56578 -0.131993 -25.3191 0.712318 0.229555 -0.325327 
4442 1 12.4378 6.59629 6.63685 -7.27383 -0.777914 0.431257 0.540743 
7241 1 6.969 6.60503 3.94976 -7.22909 -0.288004 0.0433908 0.0357634 
7441 1 12.3617 6.71493 3.96777 -7.19248 -0.439855 -0.171004 -0.430075 
2441 2 13.6546 5.19648 2.68569 -25.6404 -0.539783 1.95053 -0.668817 
3402 2 13.6098 2.66035 5.36105 -25.3806 0.339046 -1.34284 0.323593 
4242 1 6.88099 6.73168 6.69528 -7.46106 0.340448 0.0570351 -0.115191 
8241 1 9.63819 6.63243 3.9549 -7.78366 -0.0411784 0.386149 -0.350281 
4241 1 6.83238 6.715 1.13963 -7.12453 -1.00351 -2.06109 0.643428 
4441 1 12.1842 6.57095 1.21562 -7.43474 0.565387 -0.423236 0.235412 
3401 2 13.6811 2.68505 -0.139501 -26.0023 0.848105 -1.14727 0.144822 
641 2 16.4512 5.43354 -0.154047 -25.2894 -0.719823 -1.00766 -0.0615069 
642 2 16.5358 5.3577 5.37529 -25.4138 -1.95741 0.00818645 0.0103008 
1601 2 16.3326 2.69979 2.5532 -25.8302 0.604504 -1.18212 0.767423 
1602 2 16.4285 2.60433 7.99222 -25.2832 0.333114 0.160103 0.930812 
2442 2 13.7452 5.3034 8.10375 -25.5551 -0.279909 0.827661 -0.938693 
2641 2 19.0738 5.33982 2.60206 -25.1043 0.790532 -0.335357 -0.344574 
2642 2 19.3209 5.43628 8.10633 -25.21 -0.779136 -0.790749 0.349817 
3602 2 19.1313 2.6507 5.38457 -25.1692 0.702144 -0.493836 -1.48504 
4601 1 17.6677 1.18192 1.2302 -7.49192 1.08966 1.07085 -0.87575 
4602 1 17.8346 1.15788 6.64099 -7.90369 -0.318883 0.919399 0.648677 
5401 1 14.9023 3.90287 3.98816 -7.57872 1.17622 -0.0251263 -0.142321 
6401 1 15.03 4.05107 1.21996 -7.60307 -0.168087 0.299527 -0.351251 
6402 1 15.041 3.96261 6.67884 -7.61147 0.329341 -0.191835 0.230264 
7601 1 17.6932 1.31051 3.90451 -7.0028 0.843259 0.244797 0.627153 
8401 1 15.0476 1.19604 3.99118 -7.16191 -1.00403 0.24065 0.418432 
9601 1 17.6815 3.98224 1.19433 -7.64932 1.20024 0.353407 -0.767162 
9602 1 17.7815 3.96569 6.69981 -7.90968 0.709403 -0.349125 -0.501584 
10601 1 17.7088 4.0399 3.89328 -7.94575 0.599507 -0.111065 0.815908 
11401 1 14.9883 1.33767 1.37774 -7.33076 -0.255861 -0.64874 -1.65258 
11402 1 15.016 1.18299 6.74761 -7.4653 0.113127 1.60059 -0.257502 
7641 1 17.6676 6.75658 3.99938 -7.68425 1.52064 -0.362193 0.228292 
8441 1 15.0615 6.64606 4.02552 -6.89523 -0.14773 -0.22618 -0.917901 
11441 1 15.013 6.7577 1.29509 -7.45401 -0.043225 -0.377797 -0.125874 
11442 1 15.1747 6.72468 6.60971 -7.21343 0.2282 0.22596 1.26166 
8601 1 20.4764 1.27732 3.89352 -7.49287 0.364935 0.363332 0.109524 
4641 1 17.7546 6.80074 1.2744 -7.92229 0.467686 -1.1208 -0.672464 
4642 1 17.939 6.66945 6.78132 -7.9053 -0.0579618 0.292639 -0.568954 
8641 1 20.4263 6.60605 3.96691 -7.52626 0.222886 1.17513 0.196236 
11641 1 20.5092 6.72203 1.24431 -8.16903 0.441815 -1.3522 -0.969155 
2602 2 19.3268 0.102652 8.05703 -25.2194 -1.08919 -1.75637 -0.249857 
5601 1 20.6093 4.03303 3.94517 -7.23898 -1.11559 -0.888613 -0.188565 
6601 1 20.5382 3.84099 1.13852 -7.36853 -0.26819 1.49085 0.294005 
11602 1 20.5923 1.35052 6.67398 -7.56139 0.366343 0.258302 -0.432392 
6602 1 20.6224 3.99861 6.68663 -7.80576 -0.651415 0.824478 -0.0800661 
842 2 22.0004 5.31388 5.33039 -25.6004 -0.314323 0.0239683 -0.0980421 
1801 2 21.9155 2.58151 2.52665 -25.6133 -0.162891 0.204555 0.445808 
1802 2 22.0038 2.7034 7.99756 -25.652 0.571732 -0.260694 0.302073 
2841 2 24.6722 5.31154 2.59962 -25.6661 0.0078771 0.347361 0.0579648 
2842 2 24.7891 5.43672 8.1192 -25.5162 -0.857407 -0.288334 -0.766784 
3802 2 24.7731 2.6836 5.30908 -25.8552 -1.19615 -0.803908 0.420399 
4801 1 23.3479 1.22714 1.19272 -7.68262 -0.535122 -0.158196 -0.335286 
4802 1 23.3742 1.24874 6.55494 -7.11329 -0.958304 -0.262511 0.975549 
5801 1 26.0109 3.97519 3.96851 -7.69555 0.926303 -0.239975 -0.622445 
6801 1 26.0594 4.09999 1.18981 -7.43351 -0.0807844 -0.564738 1.53818 
6802 1 26.0761 4.10768 6.68718 -7.34944 0.0559928 -1.08003 0.66013 
7801 1 23.3006 1.21572 3.96046 -7.35348 0.284501 0.6039 -1.30726 
8801 1 26.1072 1.25374 3.90745 -7.76312 -0.166217 -0.213968 -0.533297 
9801 1 23.3507 3.94227 1.17214 -7.71425 -1.22051 0.935587 0.75457 
9802 1 23.4161 4.0137 6.67395 -7.46083 -0.60182 0.286679 0.076945 
10801 1 23.2846 3.93771 3.92956 -7.28495 0.354358 -0.579303 -0.20049 
11601 1 20.5264 1.24092 1.11147 -7.57038 0.168835 -0.709897 0.105967 
11801 1 26.0772 1.23424 1.11381 -7.39489 -0.366816 0.304381 0.662365 
11802 1 25.9688 1.26675 6.6087 -7.06947 1.42292 -0.122571 0.185107 
4842 1 23.4188 6.78723 6.74152 -7.56829 -0.606652 -0.354815 0.0863216 
7841 1 23.2413 6.55762 3.92136 -7.42129 -0.577827 0.998501 -0.039529 
841 2 21.8887 5.39993 -0.178688 -25.0806 -0.337815 -1.90811 0.0825285 
3801 2 24.5481 2.69511 -0.16562 -25.2494 1.0457 -2.27085 0.223717 
11642 1 20.7061 6.81191 6.70201 -7.72233 -0.632864 -1.49047 -0.0748159 
11842 1 26.1014 6.78195 6.76568 -7.30342 -0.0778453 0.641052 -0.545204 
4841 1 23.421 6.70701 1.15062 -7.85164 -2.04277 -0.56961 0.885578 
8841 1 25.9015 6.62995 4.0732 -7.3434 1.26379 0.527979 -0.183602 
41 2 27.3674 5.34247 -0.164809 -25.5674 0.418544 -0.605178 0.600778 
8041 1 4.29212 6.85196 3.90331 -7.13274 -1.49736 -0.712398 0.367065 
282 2 5.42275 10.7229 5.28171 -25.6677 0.857247 1.97487 -1.11393 
1241 2 5.44009 8.10449 2.4164 -25.7827 -0.140461 -1.18252 1.99464 
1242 2 5.45563 8.21695 7.99766 -25.4169 0.00801601 -1.25086 0.341942 
2081 2 2.67756 10.8685 2.64754 -25.3835 0.800576 0.403111 -0.754316 
2082 2 2.78602 10.9214 8.07301 -25.5018 -0.0460265 -0.194109 -0.566407 
3042 2 2.64401 8.13583 5.26679 -24.9479 2.06967 -0.912138 0.265432 
4081 1 1.54651 12.2028 1.14704 -7.55767 -1.89109 -0.607132 -0.269884 
4082 1 1.49352 12.2153 6.57178 -7.56749 -0.871071 0.165586 0.131557 
5041 1 4.17075 9.4786 3.9101 -7.5459 -1.39396 0.369943 -0.32473 
6041 1 4.08404 9.4664 1.14382 -7.73014 -0.49394 0.418043 0.264208 
6042 1 4.14035 9.53383 6.68335 -7.65576 -0.707623 -0.612832 0.280259 
7081 1 1.29191 12.4156 3.88545 -7.72999 -0.277602 -0.883796 0.0976579 
8081 1 4.02857 12.2714 3.84009 -7.1748 0.296374 -0.960474 1.12311 
9041 1 1.40691 9.37928 1.38618 -7.44636 0.0871634 0.969113 -0.496186 
9042 1 1.50209 9.46059 6.70337 -7.83393 -1.15331 0.184208 0.489332 
10041 1 1.37382 9.57206 4.08056 -8.05945 -0.0513481 -0.0871367 -0.84975 
11081 1 4.12175 12.3775 1.23641 -7.34441 0.609124 -0.984539 -1.56023 
11082 1 4.12398 12.2438 6.6323 -7.1851 0.32414 -0.370281 -0.211999 
9242 1 6.78821 9.46669 6.5261 -7.56264 0.997976 -0.125351 1.01307 
82 2 0.0397042 10.8921 5.27067 -24.8982 -0.729319 0.676885 0.270914 
1281 2 5.49717 13.6196 2.52192 -25.7651 -0.605112 -0.587441 1.07968 
3082 2 2.69401 13.6505 5.23247 -25.5434 0.905091 -0.150826 0.160082 
1082 2 0.0211066 13.5866 7.97121 -25.3666 0.286278 0.980317 0.0983196 
281 2 5.40021 10.7516 -0.18094 -25.2566 0.0177108 0.950626 -0.571402 
3041 2 2.61045 8.12908 -0.169087 -25.4329 0.841802 -1.79573 0.612106 
9241 1 6.75637 9.21602 1.13202 -7.33453 0.876397 3.22706 -0.486467 
1042 2 0.0569362 8.24667 7.98765 -25.5779 0.238885 -1.20808 1.12597 
1282 2 5.53006 13.6104 7.91025 -25.4414 0.279068 -0.179422 0.276079 
3081 2 2.69777 13.5836 -0.0998797 -25.5021 0.867336 0.680228 -1.19267 
4282 1 6.85006 12.2337 6.57197 -7.62498 0.393834 -0.0850782 -0.0500048 
7281 1 6.8566 12.0906 3.82569 -7.19334 -0.0682903 1.04487 1.16353 
4281 1 6.83485 12.1143 1.22414 -7.51742 0.207267 -0.123145 -1.16456 
10241 1 6.88224 9.40416 3.85866 -7.04544 -0.0314555 -0.335585 -0.187959 
482 2 10.9807 10.7595 5.35698 -25.2611 0.856712 -0.508091 -0.697749 
1441 2 10.8974 7.97536 2.5476 -25.9548 0.484088 0.712481 0.112021 
1442 2 11.0452 8.06345 8.08445 -25.2638 -0.0275664 0.549349 -1.05833 
2281 2 8.25101 10.8283 2.60887 -25.5731 -0.148975 -0.926408 -0.912389 
2282 2 8.24933 10.769 7.93802 -25.2527 -0.161908 0.438545 0.251748 
3241 2 8.11061 8.00497 -0.171225 -25.9636 1.05522 0.110357 -1.06091 
3242 2 8.27078 8.02448 5.24188 -25.6476 -1.11782 0.0504809 -0.0393399 
4481 1 12.3245 12.0111 1.27213 -6.97559 -0.948908 0.233503 -0.32348 
4482 1 12.429 12.0367 6.71085 -7.734 -1.1966 1.30678 0.13555 
5241 1 9.57027 9.40524 3.8668 -7.41519 0.301179 -0.57888 0.541136 
6241 1 9.63105 9.40128 1.13795 -7.28072 -0.795958 0.483994 -0.258118 
6242 1 9.53328 9.28751 6.63651 -7.9328 1.18016 1.22063 0.360002 
7481 1 12.3768 12.3534 4.03076 -7.15033 -0.832787 -1.87593 -0.378512 
8281 1 9.68079 12.0282 3.99667 -7.7359 -0.593958 1.15975 -0.702305 
9441 1 12.3355 9.24904 1.36417 -6.77072 -0.216306 0.379281 -0.908511 
9442 1 12.5073 9.32863 6.63703 -7.46835 -2.63852 0.869441 1.28152 
10441 1 12.3022 9.4412 3.93242 -7.07758 -0.522681 0.588545 1.01161 
11281 1 9.59524 12.1557 1.11863 -7.56652 -0.690218 0.316179 0.831488 
11282 1 9.64471 12.1198 6.67791 -7.98722 0.11194 -0.419438 0.259181 
1482 2 10.9751 13.4773 8.11689 -25.2674 0.404951 0.469056 -1.01404 
3282 2 8.33125 13.5092 5.35591 -25.371 -0.835647 0.475312 -0.816097 
1481 2 10.9894 13.4266 2.5225 -25.7228 0.496286 0.765694 0.0284607 
3281 2 8.0525 13.6087 -0.213906 -25.3397 0.875096 -0.828431 0.0149302 
3441 2 13.6465 8.04578 -0.0677394 -26.026 -0.0439379 0.269447 -0.745197 
3482 2 13.6683 13.6253 5.31891 -25.7163 1.38143 -0.691639 -0.552607 
2482 2 13.7606 10.9049 8.04778 -25.2433 0.178942 -1.35135 -0.279949 
3442 2 13.725 8.07953 5.35281 -26.2226 0.636859 -1.21382 -1.23213 
2481 2 13.6823 10.7411 2.60459 -26.1641 -0.506809 0.440086 -0.302542 
3682 2 19.2599 13.6047 5.26212 -26.2082 -0.0462759 -1.15001 -0.10052 
1682 2 16.4236 13.6223 8.09615 -24.8788 1.37231 -0.0465552 -1.9695 
682 2 16.433 10.9068 5.30519 -25.8409 0.640084 -0.39976 -0.378221 
1641 2 16.4117 8.03237 2.6047 -25.4765 -0.913044 0.885609 0.924365 
1642 2 16.4551 8.16706 7.98828 -25.6479 -0.527956 -1.23124 1.28357 
2681 2 19.1967 10.7309 2.63203 -25.8359 -0.546593 1.09267 -0.342734 
2682 2 19.2105 10.7211 8.04336 -25.505 0.243426 1.02503 -0.384428 
3642 2 19.1494 7.98966 5.39556 -25.3668 0.402848 1.41175 -0.913693 
4681 1 17.7767 12.1737 1.17991 -7.2882 -0.333451 -0.0158271 0.895887 
4682 1 18.0253 12.1212 6.59922 -7.09256 -0.839228 0.0963909 0.959531 
5441 1 14.9933 9.41087 3.99003 -7.38222 0.95013 0.258767 -1.28984 
6441 1 14.9633 9.47062 1.09608 -7.46007 1.42538 -0.600302 1.2871 
6442 1 15.087 9.49672 6.62209 -7.29614 0.848369 0.493542 0.953496 
7681 1 17.9014 12.2155 3.94111 -6.92281 -1.5623 -0.371992 -0.494146 
8481 1 15.0451 12.1714 3.87356 -7.31977 0.803161 -0.0415646 -0.304987 
9641 1 17.8182 9.46725 1.35137 -7.64088 -0.453945 -0.61662 0.0764245 
9642 1 17.7967 9.45714 6.75839 -7.54725 0.297742 -0.366479 -0.407659 
10641 1 17.7697 9.4534 4.07149 -7.23555 -0.176366 -0.0796778 -0.426163 
11481 1 14.937 12.1086 1.1359 -7.15931 1.54686 1.28045 0.678733 
11482 1 15.112 12.2868 6.55481 -7.67216 0.525304 -0.184385 1.48317 
8681 1 20.4806 12.1821 3.789 -6.95765 0.993229 -0.239093 0.837086 
681 2 16.503 10.7244 0.00115315 -25.639 -2.00859 1.67614 -1.05975 
3681 2 19.183 13.5575 -0.145975 -25.7587 0.254712 -0.332053 -0.171251 
5641 1 20.4881 9.44525 3.95998 -7.69393 0.622696 -1.15609 -0.359172 
1681 2 16.3776 13.5914 2.52534 -25.5207 0.64133 -1.14004 0.451905 
3641 2 19.1763 8.02566 -0.179312 -24.9156 -0.317056 0.557002 0.943271 
11841 1 26.0498 6.85303 1.32005 -7.42017 -0.15459 -1.70404 -0.705887 
11682 1 20.7929 12.2262 6.56775 -7.01331 -0.260931 -0.276659 0.0628917 
6642 1 20.5724 9.39309 6.67294 -7.44376 -0.231698 0.939855 -0.197119 
11681 1 20.5264 12.103 1.15537 -7.351 0.285974 0.0864521 -0.2829 
1041 2 27.3555 8.07748 2.57856 -25.4367 0.745498 -0.0457747 0.257996 
6641 1 20.525 9.3359 1.14261 -7.60159 -0.372442 0.164859 0.665137 
882 2 21.9593 10.7376 5.12877 -25.4744 -1.32023 -0.0254672 1.65481 
1841 2 21.8996 7.96278 2.5663 -25.2179 0.190185 0.672948 0.392483 
1842 2 21.9456 8.15317 8.03103 -25.4653 1.19704 -0.287853 -0.0724469 
2881 2 24.7241 10.7824 2.44586 -25.4477 -0.651612 -0.0727956 0.178946 
2882 2 24.6546 10.895 8.00608 -25.3776 1.07445 -0.118154 0.281178 
3842 2 24.7121 8.05999 5.42052 -25.5463 -0.23421 0.378638 -1.53997 
4881 1 23.3861 12.2319 1.22622 -7.15133 0.333641 -0.293405 -0.482444 
4882 1 23.4761 12.2619 6.83991 -7.43915 -0.772192 0.925779 -1.52212 
5841 1 26.0241 9.40806 3.84636 -7.74887 0.226861 0.655143 0.530517 
6841 1 26.1202 9.42407 1.0753 -7.28009 -0.827875 1.21802 1.03862 
6842 1 26.0302 9.58347 6.63174 -7.76418 0.874149 -0.30311 -0.749435 
7881 1 23.1377 12.0243 3.86272 -7.62934 1.89614 0.913677 0.537641 
8881 1 25.9591 12.2865 3.81334 -7.66272 -0.41296 -0.73625 1.24776 
9841 1 23.1654 9.47233 1.12283 -7.36696 1.21912 -0.604595 0.925278 
9842 1 23.3413 9.54823 6.50513 -7.4686 -0.409253 -0.184823 0.626871 
10841 1 23.2874 9.28257 3.84323 -7.33809 0.0920374 0.107983 -0.140064 
11881 1 26.1592 12.2584 1.19142 -7.77335 0.117537 0.0264314 -0.510388 
11882 1 26.165 12.3113 6.65788 -7.83094 -0.302772 -0.27772 -0.814265 
1881 2 21.9728 13.49 2.4972 -25.8806 -0.80355 -0.0753354 -0.249084 
3841 2 24.6366 8.00067 -0.127868 -25.5603 0.473141 1.53016 -0.89921 
881 2 21.7651 10.6482 -0.212631 -25.7001 1.28259 1.70207 -0.0527869 
1882 2 21.9582 13.623 8.10345 -25.6673 0.343724 -0.452092 -1.31308 
3882 2 24.6129 13.5769 5.30767 -25.2538 0.51674 0.0551362 -0.641291 
3881 2 24.8008 13.567 -0.168877 -25.5596 -1.26488 -0.581586 -0.615475 
44 2 0.0755278 5.41003 16.1973 -25.5956 0.459116 0.760785 1.18501 
243 2 5.42519 5.37893 10.6639 -25.5641 0.646422 -0.382539 1.2699 
244 2 5.50095 5.34659 16.2532 -25.5375 -0.137113 0.0999401 -0.151285 
1203 2 5.44534 2.62188 13.5131 -25.4053 0.505539 0.302202 0.471359 
2043 2 2.72101 5.30501 13.5052 -25.6565 0.523454 1.11733 0.39573 
3003 2 2.86561 2.50003 10.8713 -25.5942 -1.9089 1.19598 -1.01332 
3004 2 2.77295 2.64261 16.2904 -25.6672 -0.695803 -0.0543144 0.0962813 
4003 1 1.29171 1.23029 12.2155 -7.27975 0.351535 0.0512874 0.0495542 
4004 1 1.37643 1.37603 17.6283 -7.6994 -0.221112 -0.533662 -0.409701 
5002 1 4.1604 3.96787 9.31956 -7.29276 0.763076 0.134278 0.162487 
5003 1 4.02147 4.04529 14.8754 -7.57617 1.43718 -0.26434 -0.389748 
6003 1 4.11186 3.86561 12.1066 -7.80029 0.486501 0.660277 0.19068 
6004 1 4.11461 3.88525 17.564 -7.38603 0.680363 0.684049 0.11045 
7002 1 1.2829 1.39366 9.60337 -7.42107 0.451883 -1.58102 -0.199507 
7003 1 1.47312 1.20834 14.8415 -7.38242 -1.56485 0.584908 0.925319 
8002 1 4.09003 1.26278 9.46609 -7.40437 0.0539133 -0.672689 0.320562 
8003 1 4.07808 1.27626 15.1186 -7.36971 0.704708 -0.503285 -1.34956 
9003 1 1.37922 4.0271 12.1841 -7.5687 -0.000790272 -0.147163 -0.0238532 
9004 1 1.34825 4.13532 17.7225 -7.6393 0.142149 -0.559966 -0.563805 
10002 1 1.4918 4.05129 9.49824 -6.7525 -0.571679 0.149141 0.276932 
10003 1 1.40414 4.00116 14.9479 -7.58342 -0.644455 -0.526475 -0.353793 
11003 1 4.01066 1.14098 12.3216 -7.90945 1.06333 0.0193796 -0.346891 
11004 1 4.14274 1.17712 17.7691 -7.0369 -0.376759 0.58599 -0.31336 
4044 1 1.43559 6.78768 17.6409 -7.48317 -0.658492 0.44503 0.520951 
7043 1 1.48326 6.76721 15.0171 -7.24631 -0.187415 -0.0885317 -1.00537 
8042 1 4.09321 6.7612 9.48381 -7.42012 -0.97331 0.634256 -0.659655 
7202 1 6.77308 1.23467 9.29403 -7.53249 0.687791 1.08541 0.614859 
1003 2 0.0105301 2.69062 13.4393 -25.238 0.169365 -0.916954 1.28934 
7242 1 6.68955 6.74551 9.36193 -7.35478 1.64365 1.04707 0.245963 
11044 1 4.1355 6.62168 17.5158 -7.42522 -0.17195 0.624226 0.278623 
4204 1 6.79174 1.26593 17.4837 -7.56717 0.359293 0.343537 0.469086 
7203 1 6.76649 1.30812 14.7403 -7.09689 -0.0571353 -0.968858 0.343646 
7042 1 1.32771 6.78989 9.41888 -7.00433 0.385416 0.121483 0.355162 
8043 1 4.13837 6.81037 14.8509 -7.1328 0.781348 -0.485626 -0.139076 
11043 1 4.1542 6.67129 12.1681 -7.57149 0.243867 0.139663 -0.335498 
7243 1 6.96663 6.61288 14.9667 -7.37256 -0.868417 1.1946 0.0883447 
9204 1 6.91361 4.03398 17.7689 -7.94243 -0.36168 0.00811981 -0.665077 
4203 1 6.8607 1.30937 12.0162 -7.79153 -0.481768 -0.410043 0.306119 
10203 1 6.88328 4.0103 14.9803 -7.37971 -0.676482 -0.493568 0.0454379 
443 2 10.9399 5.48875 10.7515 -25.7378 -0.62249 -1.89085 0.0901212 
444 2 10.9502 5.25141 16.3693 -25.5175 0.96179 1.79562 -2.6688 
1403 2 10.939 2.63866 13.5409 -26.1812 -0.22619 0.165821 -0.39519 
2243 2 8.22692 5.41975 13.5473 -26.1394 0.249794 -1.59009 -0.78288 
3203 2 8.16257 2.56775 10.6796 -25.411 0.712284 1.84581 1.09817 
3204 2 8.18714 2.6053 16.3005 -25.6234 -0.129085 0.896149 -0.747803 
4403 1 12.3129 1.29084 12.108 -7.09497 0.63346 -0.631879 1.04757 
4404 1 12.4059 1.36401 17.7606 -7.66211 -1.45189 -0.411166 -0.929171 
5202 1 9.51755 4.17772 9.46135 -7.21388 0.414977 -0.359719 -0.28569 
5203 1 9.65646 3.94759 14.9268 -6.96326 -0.432313 0.286845 0.654702 
6203 1 9.57623 4.0195 12.236 -6.92725 0.372356 -0.67629 -0.692205 
6204 1 9.65142 4.12699 17.6787 -7.80815 -0.89838 -0.633482 0.559522 
7402 1 12.3081 1.19171 9.50991 -7.42224 0.441031 0.625547 -1.18965 
7403 1 12.1392 1.24115 14.9582 -7.6307 0.925494 0.713031 -0.0942778 
8202 1 9.56038 1.40047 9.37915 -7.66866 0.00938206 -0.676015 0.0353285 
8203 1 9.42273 1.36234 14.9435 -7.07428 0.858862 -1.19424 -0.113414 
9203 1 6.85728 4.03874 12.2136 -7.14292 -0.702906 0.0513148 -0.434764 
9403 1 12.4211 3.84424 12.2008 -6.95734 0.22094 1.11133 -0.090995 
9404 1 12.3754 4.01757 17.6149 -7.66231 -0.0437401 0.0125999 1.24878 
10202 1 6.92753 4.12777 9.42027 -7.54439 -1.00974 -1.60358 -0.340676 
10402 1 12.1826 4.08247 9.45806 -7.52745 1.69983 -0.847347 0.158671 
10403 1 12.3657 3.94891 14.9448 -7.07463 -0.492874 0.150911 -0.426734 
11203 1 9.63673 1.13612 12.1944 -7.50633 -0.691676 0.912184 -0.305918 
11204 1 9.54348 1.37433 17.7284 -7.68657 0.793281 0.427713 -0.804877 
11243 1 9.61783 6.70455 12.1199 -7.29296 -0.962068 0.54578 0.187231 
7442 1 12.3607 6.7709 9.35512 -7.63101 0.320083 -0.256791 0.526864 
7443 1 12.3471 6.71094 14.8323 -6.91888 0.353754 -0.691753 0.602188 
4443 1 12.2768 6.54881 12.1247 -7.39913 1.43259 0.602043 0.022519 
4444 1 12.3711 6.73953 17.5853 -7.88038 -0.726316 0.277481 0.147048 
8243 1 9.63011 6.59467 14.8719 -7.28281 0.16535 0.889304 0.480937 
2603 2 19.1899 0.0222785 13.5295 -25.851 -0.175119 -1.16069 -0.711852 
604 2 16.3707 -0.0209713 16.2215 -25.2138 0.58481 -0.835618 -0.753105 
603 2 16.5418 -0.0162385 10.7746 -25.5027 -0.0996535 -0.397513 0.914453 
2443 2 13.7807 5.34737 13.5274 -25.7351 -1.68801 0.679063 0.344217 
3403 2 13.7776 2.65493 10.7743 -25.4067 -1.19846 -0.115758 0.791282 
643 2 16.4028 5.39568 10.816 -25.611 1.41445 0.653554 -0.707122 
644 2 16.3817 5.35182 16.2626 -25.3654 0.434662 1.54258 0.30168 
1603 2 16.4859 2.67809 13.5541 -25.5054 -0.488082 -0.377382 -1.28631 
2643 2 19.1377 5.48397 13.6129 -25.401 0.519211 -0.0502143 -1.2829 
3404 2 13.6768 2.57994 16.2271 -25.5459 -0.577888 1.49422 0.19717 
3603 2 19.2495 2.80218 10.7843 -25.9583 -0.225493 -1.02219 -0.265595 
3604 2 19.1352 2.78478 16.2004 -25.2153 -0.00363894 -1.30786 -0.26904 
4603 1 17.9324 1.39194 12.1437 -7.23032 -0.372188 -1.00561 0.368031 
4604 1 17.8798 1.37246 17.5507 -7.78162 -0.920371 0.291101 0.421162 
5402 1 15.147 4.02324 9.41666 -7.94055 -0.958462 -0.320729 0.561708 
5403 1 14.9771 4.08936 15.0208 -7.52626 1.09647 -0.355352 -0.47242 
6403 1 15.1697 4.11264 12.2782 -7.86891 -0.0963387 0.0405825 -0.869116 
6404 1 15.1641 4.05477 17.6825 -7.23348 -0.729451 0.0644296 0.104056 
7602 1 17.8539 1.32955 9.50132 -7.38642 -0.75107 -0.147532 -1.36822 
7603 1 17.7127 1.21183 14.8358 -7.7155 0.0775078 0.872783 0.591165 
8402 1 15.0311 1.33923 9.42774 -7.70126 0.665705 -0.649744 -0.139231 
8403 1 14.9656 1.37672 14.7513 -7.74199 0.00658674 -0.546276 0.99751 
9603 1 17.8817 4.00406 12.1205 -7.20422 -0.631598 1.55756 0.0489811 
9604 1 17.8204 4.15118 17.5917 -7.50737 -0.522999 -1.14455 -0.531515 
10602 1 17.8745 3.99672 9.38352 -7.18115 0.278126 0.569079 -0.0789576 
10603 1 17.7573 4.05077 14.7577 -7.98506 -0.204792 -0.0538586 1.6443 
11403 1 15.1582 1.39327 12.1515 -7.38485 -0.22654 -0.72599 -0.675563 
11404 1 14.9965 1.31987 17.4825 -7.70577 1.70598 -0.3658 0.325989 
8603 1 20.4646 1.45004 14.8489 -7.36613 0.552378 -1.50664 0.226356 
4644 1 17.8898 6.78225 17.7901 -7.28221 -1.33046 1.49547 -0.764188 
7642 1 17.8009 6.73428 9.45705 -7.1067 0.943957 -0.19261 0.236917 
8442 1 15.0704 6.71565 9.35015 -7.35728 -0.049347 0.452778 -0.119464 
8602 1 20.4928 1.38292 9.37107 -7.36814 1.65918 0.669414 0.564032 
7643 1 17.8605 6.73144 15.0336 -7.57574 -0.0391428 0.470185 -0.0494158 
5603 1 20.4805 3.93598 14.7202 -7.43385 0.310767 2.42009 0.890321 
6604 1 20.4085 4.07364 17.5113 -7.66155 1.17749 -0.405353 0.3184 
43 2 27.336 5.31123 10.7437 -25.3259 2.23692 1.33991 0.04996 
11603 1 20.6487 1.34985 12.1007 -7.57588 0.00826846 0.170219 -0.0538495 
6603 1 20.5541 4.20244 12.0722 -7.51194 0.448868 -0.192691 0.255521 
8642 1 20.6689 6.74311 9.48518 -7.87944 -0.866338 0.178709 -0.264876 
4 2 27.3191 -0.0164615 16.2362 -25.2119 0.354292 0.233526 0.383787 
11604 1 20.6072 1.213 17.6352 -7.49896 -0.722087 1.27868 0.0286027 
11844 1 26.0515 6.64607 17.6223 -7.86853 -0.511256 -0.153284 -0.204678 
843 2 21.9822 5.50812 10.8613 -25.3237 0.51442 -0.868159 -0.593291 
844 2 21.8334 5.39618 16.2461 -25.3215 0.435707 0.401692 -0.616573 
1803 2 21.9525 2.74188 13.338 -25.5665 -0.505743 -0.294707 1.75206 
2843 2 24.7003 5.39703 13.5163 -25.5803 0.457474 0.869937 0.277047 
3803 2 24.7393 2.69898 10.7149 -25.4348 -1.07938 -1.77956 0.558252 
3804 2 24.7071 2.78697 16.3354 -24.9795 -0.916366 -1.25926 -1.467 
4803 1 23.3558 1.30402 12.1916 -7.46302 -0.384575 0.123067 -0.881039 
4804 1 23.2783 1.3437 17.7185 -7.68346 0.440271 0.210362 -1.00765 
5602 1 20.7085 4.07328 9.40193 -7.45232 -0.355137 0.0985135 -0.0694814 
5802 1 26.1255 3.89317 9.45178 -8.21021 0.148363 1.29759 -0.198723 
5803 1 26.0862 4.27959 14.9503 -7.57172 -1.14599 -2.44896 -0.449111 
6803 1 26.0911 4.02252 12.2096 -7.93157 -0.840795 -0.385521 -0.591739 
6804 1 26.0242 3.93108 17.6653 -7.82397 -0.194261 1.35461 0.221291 
7802 1 23.3132 1.33706 9.31928 -7.34659 -1.00827 -0.143354 0.569825 
7803 1 23.2816 1.31298 14.8524 -7.6557 -0.359701 0.618719 1.02991 
8802 1 25.9101 1.17329 9.28724 -7.1392 1.08575 -0.28676 0.719098 
8803 1 26.0325 1.42824 14.9434 -7.80063 0.28511 -0.1126 -0.439169 
9803 1 23.3241 3.99784 12.1028 -7.66571 0.409258 0.666906 -0.669015 
9804 1 23.1849 4.05745 17.5375 -7.87054 0.638837 -0.531332 0.370443 
10802 1 23.428 4.07867 9.40141 -7.37031 -0.11187 0.275907 0.101306 
10803 1 23.2384 4.12389 14.7591 -7.59772 0.268324 -0.0555715 0.933705 
11803 1 25.9794 1.2269 12.0638 -7.33072 0.470583 0.493572 0.526367 
11804 1 26.0609 1.33008 17.6853 -7.37747 -0.0648401 0.132405 -0.444742 
4844 1 23.1208 6.68611 17.6935 -7.3943 1.64133 0.308858 0.113985 
11843 1 26.1452 6.69587 12.1064 -7.39586 -0.405591 0.626496 -0.173615 
4843 1 23.3816 6.73534 12.2519 -7.70923 -0.550144 0.148832 -0.503308 
7842 1 23.327 6.81941 9.50234 -7.43928 0.305005 -0.135819 -0.0583518 
11644 1 20.5394 6.78517 17.5794 -7.33351 -0.468174 0.576738 -0.508274 
804 2 21.9001 0.11837 16.2383 -25.3779 -0.008859 -1.85714 0.0792768 
803 2 22.0482 -0.000369261 10.8057 -25.5378 -1.21964 0.0365352 -0.310044 
4043 1 1.49801 6.83398 12.2878 -7.35742 -0.329601 -0.715424 -0.597752 
4244 1 6.76288 6.86885 17.7003 -7.44092 1.53303 -1.62946 -1.04269 
84 2 0.0383656 10.9344 16.2168 -25.8359 -0.593664 -0.603543 -1.03423 
283 2 5.52134 10.9794 10.6974 -25.2674 -0.035197 -0.809591 0.599125 
284 2 5.31787 10.8209 16.1452 -25.2461 2.23018 1.28722 0.704253 
1243 2 5.51255 8.04716 13.4511 -25.69 -0.109119 0.853742 0.989609 
2083 2 2.74167 10.9211 13.3532 -25.828 -0.592359 0.00312699 1.32123 
3043 2 2.78323 8.15201 10.8729 -25.6257 -0.211081 -0.311942 -0.835555 
3044 2 2.79458 8.09211 16.3074 -25.6219 -0.50705 0.243572 -1.30543 
4083 1 1.31855 12.2743 11.9608 -7.52811 0.377792 -0.0170752 0.756499 
4084 1 1.34713 12.2082 17.5618 -7.39421 0.0156018 -0.073164 0.712988 
5042 1 4.08688 9.59506 9.46843 -7.71181 0.856701 -0.477909 -0.0211849 
5043 1 4.12053 9.52208 14.951 -7.24074 -0.742685 -0.603847 -0.814393 
6043 1 4.22414 9.58308 12.271 -7.54144 -0.27105 -1.14413 -1.14932 
6044 1 4.07752 9.43244 17.6205 -8.06576 -0.521886 0.297438 0.563857 
7082 1 1.28656 12.2438 9.26402 -7.83729 0.533064 0.096617 0.262445 
7083 1 1.37358 12.2886 14.7926 -6.98176 -0.408297 -0.395077 -0.151249 
8082 1 4.17407 12.3214 9.36164 -7.78865 -0.0941706 -0.0332127 -0.435109 
8083 1 4.03285 12.3014 14.6614 -7.46582 1.04678 0.0371083 1.3637 
9043 1 1.37828 9.49025 12.0931 -7.48001 0.207403 0.649638 0.605454 
9044 1 1.19355 9.47803 17.5773 -7.64826 1.23326 -0.0714742 0.304992 
10042 1 1.44717 9.56409 9.5126 -7.21846 -0.193842 -0.202962 -1.18248 
10043 1 1.40606 9.58694 14.7792 -7.21781 -0.0311038 -0.320861 0.489353 
11083 1 3.99843 12.2185 12.0019 -7.37266 0.877491 1.05148 -0.412964 
11084 1 3.93613 12.1937 17.5356 -7.73492 1.46846 -0.0792738 0.0940622 
1283 2 5.48645 13.662 13.4493 -25.4741 -0.087691 -0.0822468 -0.220969 
4284 1 6.79589 12.2431 17.5337 -7.32322 -0.604838 0.0424373 -0.123648 
3083 2 2.71347 13.6452 10.6331 -25.5465 0.244942 -0.0415251 0.416278 
3084 2 2.75902 13.6578 16.2398 -25.7585 -0.446542 -0.615531 -1.38499 
1043 2 0.104292 8.13047 13.5237 -25.8289 -0.571831 0.317806 0.173646 
83 2 0.0282945 10.9305 10.7352 -25.5276 -0.625116 -0.640512 -0.358127 
8242 1 9.64714 6.98895 9.51548 -7.69263 -0.831797 -1.17576 -1.12539 
11244 1 9.592 6.88159 17.5966 -7.97993 0.105293 -0.387526 0.761645 
4243 1 6.90813 6.85986 12.1925 -7.30844 -0.00823711 -0.910178 -0.688289 
10243 1 6.86943 9.38553 14.7737 -7.42278 0.246073 0.338202 0.0135444 
4283 1 6.83289 12.2862 12.0572 -7.668 -0.0199406 0.293666 -0.787116 
9243 1 6.94334 9.48624 12.0634 -7.30837 -0.891687 1.14683 -0.279924 
7283 1 6.83016 12.263 14.6829 -7.18398 -0.87542 -0.444699 1.33378 
10242 1 6.86953 9.5083 9.29987 -8.04056 0.0052234 0.0762917 0.055734 
7282 1 6.96357 12.231 9.25165 -7.64834 -0.891997 0.136499 0.578117 
3283 2 8.23438 13.5793 10.6727 -25.4216 0.563173 -0.0649254 0.0885942 
1483 2 10.9168 13.6487 13.4848 -25.7738 0.927568 -1.3946 -0.647757 
483 2 10.9599 10.7945 10.7439 -25.768 0.747283 0.388671 1.77978 
484 2 10.9829 10.9064 16.1936 -25.8101 -0.677818 -0.734155 -0.309561 