LAMMPS data file via write_data, version 11 Aug 2017, timestep = 3800000

8071 atoms
8 atom types
4323 bonds
5 bond types
6777 angles
6 angle types
1755 dihedrals
2 dihedral types

-6.2158347833713989e-01 5.5342197286015988e+01 xlo xhi
-6.2158347833713989e-01 5.5342197286015988e+01 ylo yhi
-6.2158347833713989e-01 5.5342197286015988e+01 zlo zhi

Masses

1 30.9738
2 32.066
3 30.9738
4 32.066
5 32.066
6 30.9738
7 32.066
8 6.941

Bond Coeffs # class2

1 2.058 181.497 58.1043 40.2771
2 2.06993 161.072 21.6278 556.095
3 2.28618 78.2615 18.8148 284.987
4 2.09744 121.563 6.356 644.743
5 2.31455 157.603 150.088 143.735

Angle Coeffs # class2

1 104.305 32.4491 48.6496 183.885
2 115.313 42.4781 63.8853 431.709
3 116.46 85.0402 10.9476 474.391
4 114.173 51.6291 11.6247 45.6632
5 105.522 35.6433 9.12177 99.6474
6 109.46 48.2328 17.9674 192.083

BondBond Coeffs

1 5.15375 2.26144 2.05203
2 10.4361 1.96742 2.07272
3 95.1087 2.09524 2.12546
4 21.473 2.06174 2.02696
5 11.4089 2.07712 2.13569
6 30.5069 2.17645 2.18138

BondAngle Coeffs

1 4.69868 26.746 2.26144 2.05203
2 43.8527 53.6314 1.96742 2.07272
3 50.5195 59.567 2.09524 2.12546
4 21.3283 20.088 2.06174 2.02696
5 17.8438 24.848 2.07712 2.13569
6 16.9159 23.001 2.17645 2.18138

Dihedral Coeffs # class2

1 0 0 0 0 0 0
2 0.638244 195.783 0.757404 103.391 0.458612 133.865

AngleAngleTorsion Coeffs

1 0 0 0
2 0 0 0

EndBondTorsion Coeffs

1 0 0 0 0 0 0 0 0
2 0 0 0 0 0 0 0 0

MiddleBondTorsion Coeffs

1 0 0 0 0
2 0 0 0 0

BondBond13 Coeffs

1 0 0 0
2 0 0 0

AngleTorsion Coeffs

1 0 0 0 0 0 0 0 0
2 0 0 0 0 0 0 0 0

Atoms # full

2408 3190 6 5.4641600000000001e-01 3.2518470766861105e+00 1.8332649324294605e+00 1.1350693112894692e+00 0 0 0
2409 3190 7 -5.9410399999999997e-01 4.8477866308285913e+00 2.8706261092195002e+00 1.8496690383059766e+00 0 0 0
2906 3289 7 -5.9410399999999997e-01 2.2938734293674963e+00 1.7598388312869857e+00 5.5654187587726387e+00 0 0 -1
2903 3289 6 5.4641600000000001e-01 3.8201994058835398e+00 1.2958925908615821e+00 6.7770628706504450e+00 0 0 -1
2904 3289 7 -5.9410399999999997e-01 5.4002234387202872e+00 7.6588255552925522e-01 5.5030960954521664e+00 0 0 -1
5926 724 8 6.0999999999999999e-01 3.4110719771564950e+00 4.0819417613569362e+00 3.1024784261506180e+00 -1 -1 2
2411 3190 7 -5.9410399999999997e-01 1.6836443304358948e+00 3.1935535829693857e+00 1.0122093440205853e+00 0 0 0
5071 3722 7 -5.9410399999999997e-01 1.6421683427607783e+00 5.4563250763796711e+00 3.9106492340823307e+00 -1 1 1
5068 3722 6 5.4641600000000001e-01 1.5957657116028221e+00 6.6006793815698881e+00 2.1020915940777973e+00 -1 1 1
5069 3722 7 -5.9410399999999997e-01 3.3910012823230460e+00 6.2683237588533061e+00 1.1782195437546239e+00 -1 1 1
2569 3222 7 -5.9410399999999997e-01 1.8451136041512335e+00 6.1284198820175941e+00 8.0071719339632423e+00 0 0 1
6433 1231 8 6.0999999999999999e-01 7.0410189249702331e+00 7.1289290923290247e+00 8.5180400442684192e+00 2 3 1
2572 3222 7 -5.9410399999999997e-01 4.9393643642052245e+00 7.6991418281390853e+00 7.5953122876315451e+00 0 0 1
5748 546 8 6.0999999999999999e-01 6.3168064376995021e+00 4.4637438439911303e+00 3.0236277271669794e+00 0 2 6
4830 3674 7 -5.9410399999999997e-01 4.9619932251086505e+00 5.4389939560294280e+00 4.9579815391148170e+00 1 0 0
5072 3722 7 -5.9410399999999997e-01 6.3143588015460828e-02 6.2202815626907908e+00 8.7181430385081460e-01 -1 1 1
7961 2759 8 6.0999999999999999e-01 4.2943661440757035e+00 5.0839995164953722e+00 7.2928127699212135e+00 2 -1 0
7135 1933 8 6.0999999999999999e-01 1.5757820996323557e-01 6.5935460319090011e-01 4.8389292776381199e+00 2 -1 0
2905 3289 7 -5.9410399999999997e-01 3.2910997535546493e+00 -2.4350955279405312e-01 7.8973342923388561e+00 0 0 -1
2412 3190 7 -5.9410399999999997e-01 2.6589950830169262e+00 1.6954629329022575e-01 2.1074574062291207e+00 0 0 0
5070 3722 7 -5.9410399999999997e-01 1.5201548166995318e+00 8.6570675985307428e+00 2.4338815064763462e+00 -1 1 1
6700 1498 8 6.0999999999999999e-01 9.7709681374422406e+00 4.6584857974447260e+00 4.3675582055918802e+00 0 0 1
6206 1004 8 6.0999999999999999e-01 9.7470018332111383e+00 5.0063152207406452e+00 8.3270128199337083e+00 1 -1 4
2568 3222 6 5.4641600000000001e-01 2.7921761446015259e+00 7.9432926354506215e+00 7.7555191443236016e+00 0 0 1
4509 3610 7 -5.9410399999999997e-01 9.9286677845724576e+00 2.1307556703284307e+00 8.1018995373497003e+00 1 0 0
5254 52 8 6.0999999999999999e-01 5.0463943635178614e+00 7.9212236016724002e+00 4.9710596105548444e+00 2 -2 3
6027 825 8 6.0999999999999999e-01 6.7988524560192110e-02 1.1445523440622081e+00 1.4676252084404928e+00 0 1 -1
2907 3289 7 -5.9410399999999997e-01 4.1171619293182911e+00 2.8858764237710361e+00 8.0829802601176404e+00 0 0 -1
6058 856 8 6.0999999999999999e-01 1.0093765589464538e+00 3.8220275896978633e+00 6.0403896982871741e+00 -1 1 3
4829 3674 7 -5.9410399999999997e-01 7.9471938827046174e+00 6.8325112972325739e+00 4.6587702521984617e+00 1 0 0
2456 3199 7 -5.9410399999999997e-01 9.3208018365555674e+00 7.3506519901707010e+00 8.4479632991362799e+00 2 1 0
5757 555 8 6.0999999999999999e-01 8.6612416156985912e+00 2.0975363696311931e+00 5.5213934973999712e-01 0 -1 1
6587 1385 8 6.0999999999999999e-01 6.9051199266096202e+00 1.4099926674329568e+00 3.7758775549812640e+00 3 4 -1
4832 3674 7 -5.9410399999999997e-01 7.7704582150368449e+00 3.4446650654086621e+00 4.4757828604789260e+00 1 0 0
5316 114 8 6.0999999999999999e-01 1.1674939399176079e+01 1.1187746610251390e+00 6.4957984899164760e+00 -3 0 0
6460 1258 8 6.0999999999999999e-01 1.1590383165579324e+01 6.2228345862199523e+00 1.0031157233425092e+00 0 0 1
4723 3653 6 5.4641600000000001e-01 8.7839751135822510e+00 4.8419978200522040e+00 -3.9589958306217432e-01 1 0 -1
4831 3674 7 -5.9410399999999997e-01 7.3144903309360902e+00 4.8604720738132015e+00 7.5472264986862019e+00 1 0 0
5144 3737 7 -5.9410399999999997e-01 1.0402474152313287e+01 7.3736695345941259e+00 2.6481696898159242e+00 0 0 0
4725 3653 7 -5.9410399999999997e-01 7.6494537691496500e+00 5.1861135598252934e+00 1.3806986280744229e+00 1 0 -1
4828 3674 6 5.4641600000000001e-01 7.0327748026946422e+00 5.0410498382297559e+00 5.4166863583880014e+00 1 0 0
4684 3645 7 -5.9410399999999997e-01 7.1077496736470671e+00 4.8407108130194487e-01 5.0424761177899380e-01 0 1 -1
6047 845 8 6.0999999999999999e-01 3.5080625380481099e+00 -1.5304012458660987e-01 4.3966508060536276e+00 -3 2 -1
4508 3610 6 5.4641600000000001e-01 1.1457693590981641e+01 3.5425066205989024e+00 8.0761929169150655e+00 1 0 0
1029 2997 4 -5.3452554465310598e-01 1.2066651286646687e+01 2.1447685604876945e+00 4.4845601687691792e+00 2 1 0
4726 3653 7 -5.9410399999999997e-01 1.0612367738912953e+01 4.0873299311600375e+00 5.2192892392641688e-02 1 0 -1
4512 3610 7 -5.9410399999999997e-01 1.1248970585930136e+01 4.7841607406791278e+00 6.4710994682456962e+00 1 0 0
5964 762 8 6.0999999999999999e-01 8.1841874172534936e+00 7.6955262671033768e+00 1.8940825117091786e+00 -1 0 1
5347 145 8 6.0999999999999999e-01 3.6344208698864122e-01 7.4714158466066145e+00 5.2816210596126831e+00 2 -3 0
6008 806 8 6.0999999999999999e-01 3.5528597547337784e+00 8.4340970809903997e+00 1.5047788813253251e+00 3 -1 0
4510 3610 7 -5.9410399999999997e-01 1.3258921270757460e+01 2.4567693157737822e+00 7.7872378714269157e+00 1 0 0
6093 891 8 6.0999999999999999e-01 1.2597677792857167e+01 7.4589135303791281e+00 4.2659818761280341e+00 1 1 -2
6489 1287 8 6.0999999999999999e-01 4.9534833453395217e+00 -4.5103015525880275e-01 8.1836881542326867e-01 3 -1 -1
6274 1072 8 6.0999999999999999e-01 -5.8131354288120463e-01 4.4964297454633462e+00 2.4536853807324612e+00 -5 5 -3
1181 3014 4 -5.3452554465310598e-01 1.1725388524317761e+01 8.7004706688763296e+00 6.7579245446309706e+00 1 0 0
7623 2421 8 6.0999999999999999e-01 9.1936371506701846e+00 8.6803000048614436e+00 5.7556399028865792e+00 3 4 -1
6515 1313 8 6.0999999999999999e-01 1.5976224626137112e+00 4.9559382467666344e+00 -5.8214549722097786e-01 2 2 0
3059 3320 7 -5.9410399999999997e-01 4.8577542419606852e+00 5.6143044126208634e+00 1.0501293474286802e+01 1 -1 0
3058 3320 6 5.4641600000000001e-01 4.3604103873235109e+00 4.0209372119474729e+00 1.1597078090022320e+01 1 -1 0
3061 3320 7 -5.9410399999999997e-01 4.3999377240800674e+00 4.5728701936992362e+00 1.3663347897127315e+01 1 -1 0
3060 3320 7 -5.9410399999999997e-01 2.3585137074092333e+00 3.5778182041167872e+00 1.1036572921784188e+01 1 -1 0
5556 354 8 6.0999999999999999e-01 1.7256842244796582e+00 3.7659920413015318e+00 1.3500450264096051e+01 -3 1 4
5233 31 8 6.0999999999999999e-01 5.9360317587356999e+00 6.4815062858633681e+00 1.2350262174751894e+01 0 2 3
2599 3228 7 -5.9410399999999997e-01 1.2892072897992544e+00 5.8718896907608444e+00 1.4854674208014165e+01 0 -1 1
4299 3568 7 -5.9410399999999997e-01 1.8811194320535862e+00 1.7439981065526582e+00 1.4897246563374534e+01 1 1 0
4302 3568 7 -5.9410399999999997e-01 4.9613486558413493e+00 1.8658670967612254e+00 1.6213411002770396e+01 1 1 0
3062 3320 7 -5.9410399999999997e-01 5.6412206386180861e+00 2.4891219786855587e+00 1.1288512099951182e+01 1 -1 0
7768 2566 8 6.0999999999999999e-01 1.1876416633389233e+01 6.6640923490852071e+00 1.6925147439279261e+01 2 3 -3
4952 3698 7 -5.9410399999999997e-01 4.1178325163577796e+00 8.3183415491007313e+00 1.2934067431000917e+01 1 0 1
4298 3568 6 5.4641600000000001e-01 3.2906072979580001e+00 6.3118252655054508e-01 1.5741953936051882e+01 1 1 0
4476 3603 7 -5.9410399999999997e-01 1.1540872085013753e+01 -5.8401579030306416e-01 9.7510156577396554e+00 0 0 2
6091 889 8 6.0999999999999999e-01 -2.0854028876784259e-01 1.2609126930277330e+00 1.3346056649579117e+01 -5 2 2
5320 118 8 6.0999999999999999e-01 3.6882400176528627e+00 1.5874654825008521e+00 1.0168069168411774e+01 1 2 -2
2464 3201 7 -5.9410399999999997e-01 1.0221234881720601e+01 1.5341708428835101e+00 1.2463748738844592e+01 0 0 1
5394 192 8 6.0999999999999999e-01 6.3009954001048207e+00 3.1327738686749163e+00 9.0735939903724709e+00 -1 3 3
4274 3563 7 -5.9410399999999997e-01 7.7358577782947027e+00 3.4895565506389730e+00 1.7873526329712252e+01 1 0 -1
5253 51 8 6.0999999999999999e-01 6.1334997344956630e+00 4.0063320005895724e+00 1.5776537090995799e+01 -1 0 -5
4950 3698 7 -5.9410399999999997e-01 4.7369122080300059e+00 8.2763250874854872e+00 1.6272180720899797e+01 1 0 1
7083 1881 8 6.0999999999999999e-01 1.1267142832188020e+01 8.3738740322580245e+00 1.3851540761734125e+01 1 1 4
3274 3363 7 -5.9410399999999997e-01 7.6206404100133920e+00 5.7766727623889942e+00 1.5055060873793623e+01 0 2 0
3275 3363 7 -5.9410399999999997e-01 1.0938445416018798e+01 6.1186333909278181e+00 1.4905277872234382e+01 0 2 0
3273 3363 6 5.4641600000000001e-01 9.2032362926540401e+00 7.0531414246839086e+00 1.5586406307499477e+01 0 2 0
4276 3563 7 -5.9410399999999997e-01 4.6142093545974170e+00 4.6914954393873698e+00 1.7571791266667372e+01 1 0 -1
5324 122 8 6.0999999999999999e-01 2.0195027659158109e+00 7.9658614869312583e+00 1.1783626681861103e+01 0 1 -1
2455 3199 7 -5.9410399999999997e-01 8.1720172389531349e+00 5.6068470779327830e+00 1.0932534874426393e+01 2 1 0
2454 3199 7 -5.9410399999999997e-01 1.0444966971988656e+01 8.2385706238234437e+00 1.1512533601327764e+01 2 1 0
2467 3201 7 -5.9410399999999997e-01 9.9921423862700873e+00 1.8251822717970061e+00 1.5806978591329152e+01 0 0 1
2714 3251 7 -5.9410399999999997e-01 1.3316205268325582e+01 3.9753162147091925e-01 1.5928981103430278e+01 0 -1 2
6340 1138 8 6.0999999999999999e-01 9.6240502762227003e+00 4.3148078993144674e+00 1.1953108875660917e+01 1 0 3
5993 791 8 6.0999999999999999e-01 1.2701876484847329e+01 1.9592501686422223e+00 1.0280328001408318e+01 2 6 2
4301 3568 7 -5.9410399999999997e-01 2.4878630281428964e+00 5.6790249910422363e-02 1.7526783547726261e+01 1 1 0
6413 1211 8 6.0999999999999999e-01 4.9356719439714274e+00 8.6183704485767105e+00 9.9808763378260341e+00 -2 0 1
7189 1987 8 6.0999999999999999e-01 9.4023627629170310e+00 4.7933129848938174e+00 1.6744007100402186e+01 2 0 4
5504 302 8 6.0999999999999999e-01 1.2200460525086562e+01 3.6310668053376682e-01 1.3583004381509236e+01 1 1 0
7465 2263 8 6.0999999999999999e-01 7.3695575659395534e+00 1.2725028336596829e+00 1.6381313526388226e+01 5 3 0
7207 2005 8 6.0999999999999999e-01 5.6311139604844289e+00 -1.0067428426976122e-01 1.3057727648805324e+01 -1 0 2
6571 1369 8 6.0999999999999999e-01 3.4117759492152997e+00 2.4912659082611821e+00 1.7935320131313684e+01 0 0 0
2463 3201 6 5.4641600000000001e-01 9.4706777943142235e+00 5.2693727093318654e-01 1.4188059183315874e+01 0 0 1
6794 1592 8 6.0999999999999999e-01 1.2564720638057070e+01 2.8973246741295755e+00 1.5435638403135165e+01 -2 -1 -1
2453 3199 6 5.4641600000000001e-01 8.8610358306350960e+00 7.4721936703838274e+00 1.0416916229456930e+01 2 1 0
5678 476 8 6.0999999999999999e-01 9.2615870180013253e+00 4.1153845164849212e-02 1.0192264515952942e+01 0 0 -1
8037 2835 8 6.0999999999999999e-01 3.6156743048328002e+00 6.2203613401240077e+00 1.5344478448856762e+01 4 1 0
4511 3610 7 -5.9410399999999997e-01 1.1409002007733477e+01 4.6021884404632702e+00 9.9153561052323997e+00 1 0 0
3276 3363 7 -5.9410399999999997e-01 9.3418462401634841e+00 7.0448925609911752e+00 1.7640475335532724e+01 0 2 0
7401 2199 8 6.0999999999999999e-01 1.1621621578148627e+01 6.7021290647594256e+00 9.0246967558093036e+00 2 -4 -2
2466 3201 7 -5.9410399999999997e-01 7.5238532969288201e+00 3.9614855918527314e-01 1.4262545631420938e+01 0 0 1
2598 3228 6 5.4641600000000001e-01 -5.9897507366810032e-01 5.5182548304734675e+00 1.3854680576690406e+01 0 -1 1
7826 2624 8 6.0999999999999999e-01 3.1744322638680045e-01 5.2461438806312586e+00 9.6691091963328262e+00 -3 -1 1
5333 131 8 6.0999999999999999e-01 1.0975539009922068e+01 1.0592264914026976e+00 1.7969274191212133e+01 3 -2 0
1643 3065 4 -5.3452554465310598e-01 7.6527281806019243e+00 -5.3801827423072335e-01 1.7743462182279668e+01 0 0 1
2573 3223 6 5.4641600000000001e-01 3.0664195832265286e+00 3.9308621831264619e+00 2.4002757645996819e+01 1 0 0
2575 3223 7 -5.9410399999999997e-01 3.9591616290593095e+00 2.2902989544050660e+00 2.3394867592243898e+01 1 0 0
2576 3223 7 -5.9410399999999997e-01 1.1076098279025803e+00 3.4084955508863510e+00 2.4868719699704421e+01 1 0 0
2577 3223 7 -5.9410399999999997e-01 4.1014959508317403e+00 5.0953782934114757e+00 2.5331925130551170e+01 1 0 0
2574 3223 7 -5.9410399999999997e-01 2.7828853276475796e+00 4.8192731581096337e+00 2.2143527689129822e+01 1 0 0
4275 3563 7 -5.9410399999999997e-01 5.0597990197892004e+00 2.5609178308466563e+00 1.9944593123925145e+01 1 0 -1
5537 335 8 6.0999999999999999e-01 2.9169445116514718e+00 6.9680286699596712e+00 2.1422916852324128e+01 0 -2 2
3951 3498 7 -5.9410399999999997e-01 2.2715961000508296e+00 7.6437643587011532e+00 1.9407795034154422e+01 1 0 1
7546 2344 8 6.0999999999999999e-01 1.6957742163770093e+00 1.2550393135788243e+00 2.5638915678406651e+01 3 3 2
7873 2671 8 6.0999999999999999e-01 5.6458979296912046e+00 3.5160703201387413e+00 2.2086410504828226e+01 2 4 0
3315 3371 7 -5.9410399999999997e-01 1.3352063459590602e+00 4.4833348804872708e-01 2.1378154555426452e+01 0 3 2
4273 3563 6 5.4641600000000001e-01 5.9283141662055332e+00 4.1441135762111436e+00 1.9048031483969819e+01 1 0 -1
7109 1907 8 6.0999999999999999e-01 -2.9000295790143293e-01 -9.6826963045641978e-03 1.9403541083858148e+01 -2 -1 0
7064 1862 8 6.0999999999999999e-01 5.0536163567314984e+00 7.0572268874132345e+00 1.8699596978914325e+01 -3 2 5
2012 3110 7 -5.9410399999999997e-01 1.4126390528050718e+00 3.8252607617209629e+00 1.9081471986047038e+01 1 1 0
5988 786 8 6.0999999999999999e-01 5.3668776254012345e+00 -6.8132003025293320e-02 2.4106366470165455e+01 2 1 -3
8005 2803 8 6.0999999999999999e-01 5.4340693094385237e+00 2.8712312957145341e+00 2.6181423324825637e+01 0 2 0
6842 1640 8 6.0999999999999999e-01 2.6903023710089844e+00 2.5338483552039572e+00 2.0800195168074552e+01 2 0 4
3874 3483 7 -5.9410399999999997e-01 1.9720193806550355e+00 8.3220445809694290e+00 2.5347003372342261e+01 1 2 0
5839 637 8 6.0999999999999999e-01 8.9152383908625428e+00 -3.9157489449744010e-01 2.2911701678634397e+01 1 -3 6
6801 1599 8 6.0999999999999999e-01 9.2748633550449622e+00 5.5121785574402340e+00 2.4157707143303682e+01 0 2 -1
6262 1060 8 6.0999999999999999e-01 2.6559438248075873e+00 6.1705808655408960e+00 2.6505282792592855e+01 0 3 3
5149 3738 7 -5.9410399999999997e-01 -4.9490105513583571e-01 6.9377859854651671e+00 2.2642416050723604e+01 0 -1 -1
8051 2849 8 6.0999999999999999e-01 5.5287404181424127e-01 4.6861059987076983e+00 2.2803624301108588e+01 3 1 -4
3099 3328 7 -5.9410399999999997e-01 7.1116363227170458e+00 1.0410146631312931e+00 2.5003449068569253e+01 0 -1 0
4277 3563 7 -5.9410399999999997e-01 6.2446125632908966e+00 5.4477359276981083e+00 2.0599390428697660e+01 1 0 -1
3877 3483 7 -5.9410399999999997e-01 5.4102505510704395e+00 8.5906066528964704e+00 2.4957186254363361e+01 1 2 0
3102 3328 7 -5.9410399999999997e-01 1.0282033118768842e+01 2.0882078938948703e+00 2.4194107003168710e+01 0 -1 0
3317 3371 7 -5.9410399999999997e-01 2.6896373808482394e+00 -4.4054820747141832e-01 2.4362993097641965e+01 0 3 2
6178 976 8 6.0999999999999999e-01 6.2096087710838486e+00 5.9697686327380364e+00 2.4859876257210221e+01 2 2 -3
4940 3696 7 -5.9410399999999997e-01 1.1820234847732435e+01 7.1239346176023099e+00 2.3857449172522685e+01 1 -1 1
3422 3392 7 -5.9410399999999997e-01 1.0255392180433775e+01 4.0898313771488812e+00 2.7344800227904450e+01 1 -1 -1
4938 3696 6 5.4641600000000001e-01 1.0900842643859363e+01 8.3376368107243142e+00 2.2564895995735586e+01 1 -1 1
4941 3696 7 -5.9410399999999997e-01 1.1947973345903030e+01 8.3297231244839782e+00 2.0828630702607889e+01 1 -1 1
3101 3328 7 -5.9410399999999997e-01 7.9601853070542443e+00 1.6551974987877034e+00 2.1821036695788592e+01 0 -1 0
4433 3595 6 5.4641600000000001e-01 1.1631534314094399e+01 3.6337518475564536e+00 1.9989960881361213e+01 -1 0 -1
7811 2609 8 6.0999999999999999e-01 1.2994013376694140e+01 6.2488983070836515e+00 2.1606750651323789e+01 1 2 1
7835 2633 8 6.0999999999999999e-01 1.2057333807955802e+01 1.7596165605708269e+00 2.2671389825540640e+01 1 4 -1
7211 2009 8 6.0999999999999999e-01 1.1344860333048926e+01 2.4948699634155660e+00 2.5987491869601929e+01 -1 0 2
4436 3595 7 -5.9410399999999997e-01 1.1078467094795895e+01 1.5859895027577862e+00 2.0262869589836136e+01 -1 0 -1
3420 3392 7 -5.9410399999999997e-01 8.4730370112818250e+00 6.7266089221271717e+00 2.6009062759722340e+01 1 -1 -1
3098 3328 6 5.4641600000000001e-01 8.2302607592424177e+00 2.2763683379869883e+00 2.3833387901163366e+01 0 -1 0
5730 528 8 6.0999999999999999e-01 8.8210424808777823e+00 6.2472526433169895e+00 2.0426203060100509e+01 0 5 1
3100 3328 7 -5.9410399999999997e-01 7.3812145753155889e+00 4.2616336118582083e+00 2.3801408274512927e+01 0 -1 0
4942 3696 7 -5.9410399999999997e-01 8.9226633900365595e+00 7.6571954109444587e+00 2.2429919505544898e+01 1 -1 1
4435 3595 7 -5.9410399999999997e-01 1.0290954823355323e+01 4.6002843508331983e+00 2.1183017099669307e+01 -1 0 -1
5587 385 8 6.0999999999999999e-01 8.6102151005507288e+00 3.1564860272914079e+00 1.9969325479268981e+01 3 1 -1
7578 2376 8 6.0999999999999999e-01 5.4495068695058291e-01 6.0201296334831120e+00 1.8199200322686128e+01 3 1 3
3785 3465 7 -5.9410399999999997e-01 3.8851299175678120e+00 1.8239275608683583e+00 2.7316759839367194e+01 0 0 1
7838 2636 8 6.0999999999999999e-01 1.3354371635226384e+01 -5.8819401398585569e-01 2.6231221254187606e+01 -2 2 -2
4437 3595 7 -5.9410399999999997e-01 1.1387662393400872e+01 3.9893708788991065e+00 1.8049786979864162e+01 -1 0 -1
1739 3076 4 -5.3452554465310598e-01 2.7148497511637264e+00 5.7732713037086736e+00 3.2356512827509349e+01 0 1 0
1738 3076 3 5.5465100000000001e-01 4.7002639654776992e+00 5.6166819526421063e+00 3.1998898946654958e+01 0 1 0
3787 3465 7 -5.9410399999999997e-01 3.1696025259084388e+00 9.9925355250960535e-01 3.0186630897374055e+01 0 0 1
1737 3076 5 -3.4214873208136398e-01 5.3990484135982308e+00 5.7788917027660061e+00 3.4280048584236695e+01 0 1 0
3441 3396 7 -5.9410399999999997e-01 3.7927775698990773e-01 2.9802942490488054e+00 3.4632731669762379e+01 1 0 0
3784 3465 7 -5.9410399999999997e-01 2.4339894497491499e+00 4.2275565912620801e+00 2.8899208314492437e+01 0 0 1
1094 3004 4 -5.3452554465310598e-01 1.5784470885163873e+00 6.2079806592919970e+00 3.5805786818637301e+01 0 -1 0
3783 3465 6 5.4641600000000001e-01 2.4848639401123451e+00 2.0295360220496614e+00 2.8611121651866100e+01 0 0 1
3442 3396 7 -5.9410399999999997e-01 3.0896505097758973e+00 1.0987116108665911e+00 3.4335381449486619e+01 1 0 0
3438 3396 6 5.4641600000000001e-01 1.6047692717286224e+00 1.8759819162198785e+00 3.5679035514754503e+01 1 0 0
6414 1212 8 6.0999999999999999e-01 4.3883227445313322e+00 2.9035685908981930e+00 2.9664446154457064e+01 0 2 -1
6720 1518 8 6.0999999999999999e-01 1.3130720837732261e+01 6.5205934112569048e+00 3.5557877387193940e+01 1 -1 2
3535 3415 7 -5.9410399999999997e-01 -2.0154882821521958e-01 6.6114767699916959e+00 2.7962152632361875e+01 1 1 0
7055 1853 8 6.0999999999999999e-01 1.1213094994435231e+00 5.9760718692314168e+00 3.0444478507193747e+01 -5 -1 -3
1740 3076 4 -5.3452554465310598e-01 5.5393619261308089e+00 3.7966331092971313e+00 3.1404331232156249e+01 0 1 0
5600 398 8 6.0999999999999999e-01 2.6009679298526498e+00 4.3209138574658095e+00 3.4611121122550514e+01 -2 6 -1
3875 3483 7 -5.9410399999999997e-01 4.2396447086702658e+00 7.6602798342018552e+00 2.7781898065425956e+01 1 2 0
4070 3522 7 -5.9410399999999997e-01 5.9235897662943762e+00 6.5160927449700257e-02 3.2975115833418783e+01 -1 1 0
5960 758 8 6.0999999999999999e-01 1.6557223265369636e-01 6.7379335594519718e-01 3.3940551618906696e+01 -3 2 -1
6057 855 8 6.0999999999999999e-01 5.3141437762611803e+00 2.3475511338707680e+00 3.3697922746316252e+01 -1 0 -5
6112 910 8 6.0999999999999999e-01 6.8747858349110578e+00 7.7574795131153795e+00 2.8068224770400747e+01 3 2 2
4420 3592 7 -5.9410399999999997e-01 1.0065996266807925e+01 5.5594782499610540e-01 2.7786859477484704e+01 -1 1 0
5658 456 8 6.0999999999999999e-01 7.9302269847252518e+00 4.8432147577125955e+00 3.0776392021553502e+01 2 1 1
3786 3465 7 -5.9410399999999997e-01 7.1193752635710172e-01 1.5117208525309569e+00 2.7944015902154771e+01 0 0 1
3419 3392 7 -5.9410399999999997e-01 8.4382493347906973e+00 6.4319173626111379e+00 2.9330278395887053e+01 1 -1 -1
2701 3248 7 -5.9410399999999997e-01 1.2246854899303436e+01 2.7364903797395748e+00 3.3246785891194790e+01 1 0 -1
3418 3392 6 5.4641600000000001e-01 8.5627498643648998e+00 5.2717910904204688e+00 2.7488936149685046e+01 1 -1 -1
5623 421 8 6.0999999999999999e-01 1.2369210469284196e+01 5.5517532054015351e-01 2.8946611484939861e+01 -1 1 2
1742 3076 4 -5.3452554465310598e-01 5.1609956427270021e+00 7.4690429281358899e+00 3.1395419968380924e+01 0 1 0
1741 3076 4 -5.3452554465310598e-01 8.6791483839924890e+00 6.4391410018494781e+00 3.3188738643573132e+01 0 1 0
4909 3690 7 -5.9410399999999997e-01 1.2052018919747949e+01 7.4273410608974970e+00 2.8444465857308362e+01 -1 1 -1
1735 3076 4 -5.3452554465310598e-01 7.6574416962978624e+00 3.4572878279315908e+00 3.4639095847924153e+01 0 1 0
4418 3592 6 5.4641600000000001e-01 9.0520815072601746e+00 -5.8451561593407619e-01 2.9186339991960171e+01 -1 1 0
1629 3064 5 -3.4214873208136398e-01 1.3098332467006705e+01 -4.6258315055560156e-01 3.4722245893349921e+01 0 0 0
8039 2837 8 6.0999999999999999e-01 1.2156110164751864e+01 3.0956461945195834e-01 3.2672277558642463e+01 1 -1 3
7151 1949 8 6.0999999999999999e-01 1.0767274783909640e+01 7.5621009917158482e+00 3.2284439869204206e+01 1 1 1
6003 801 8 6.0999999999999999e-01 4.0637749431539687e+00 8.0151438104401755e+00 3.4062764834246167e+01 2 1 1
1734 3076 3 5.5465100000000001e-01 7.4887848227781610e+00 5.4893922573008629e+00 3.4507257270067925e+01 0 1 0
6403 1201 8 6.0999999999999999e-01 1.1871673104006621e+01 5.4808872023005888e+00 2.9452492192629411e+01 0 1 -5
1627 3064 4 -5.3452554465310598e-01 1.0158627591779618e+01 2.0920767438672006e-01 3.4233330174229479e+01 0 0 0
6304 1102 8 6.0999999999999999e-01 1.1640110102248835e-01 2.9840826186582765e+00 2.9676843587051913e+01 -1 1 -5
2700 3248 7 -5.9410399999999997e-01 1.2093677595341502e+01 5.6581515126591437e+00 3.1679294552696422e+01 1 0 -1
3421 3392 7 -5.9410399999999997e-01 7.0097612816929864e+00 3.8747198452604508e+00 2.7646722449702171e+01 1 -1 -1
5085 3725 7 -5.9410399999999997e-01 1.1494458395637043e+01 5.0578065315504821e+00 3.6164535958813417e+01 1 0 0
4419 3592 7 -5.9410399999999997e-01 7.3961216608501168e+00 4.6451985393201123e-01 2.9678228715887467e+01 -1 1 0
5596 394 8 6.0999999999999999e-01 8.8327273791138623e+00 2.4002523962973488e+00 2.8751818401388057e+01 2 1 1
5843 641 8 6.0999999999999999e-01 9.9061378441390957e+00 2.6725925229856449e+00 3.3601228644886362e+01 3 -1 3
2699 3248 7 -5.9410399999999997e-01 1.2638637463748401e+01 3.0934358815041691e+00 2.9721937457394183e+01 1 0 -1
2702 3248 7 -5.9410399999999997e-01 9.6178033780579550e+00 3.1429193325760054e+00 3.1200632888430775e+01 1 0 -1
2698 3248 6 5.4641600000000001e-01 1.1727923547964359e+01 3.5911195989132469e+00 3.1454373291950166e+01 1 0 -1
6362 1160 8 6.0999999999999999e-01 4.9531552588716661e+00 -2.5237194006326213e-01 2.8897670829402625e+01 1 0 0
5683 481 8 6.0999999999999999e-01 9.5344468607054171e+00 8.6101771866650285e+00 2.8384788898479343e+01 -1 0 0
7974 2772 8 6.0999999999999999e-01 7.3954696280029708e+00 8.6086906088267323e+00 3.2617699453278888e+01 3 5 -3
1736 3076 4 -5.3452554465310598e-01 7.6589937300685644e+00 6.0380906576889481e+00 3.6453623964920027e+01 0 1 0
7988 2786 8 6.0999999999999999e-01 3.3852504704050865e+00 -3.0426639218600815e-01 3.2174594255617308e+01 1 0 -1
3439 3396 7 -5.9410399999999997e-01 5.3348762408035899e-01 4.3918154878940063e-01 3.6517727793618633e+01 1 0 0
7309 2107 8 6.0999999999999999e-01 4.6302762696727573e+00 -5.5018748723312572e-01 3.5532100718833732e+01 -1 1 3
6979 1777 8 6.0999999999999999e-01 -5.3031396462785096e-01 7.5461797242586730e+00 3.5795308786520792e+01 2 3 0
7544 2342 8 6.0999999999999999e-01 7.1353255092231969e+00 8.4706128739787392e+00 3.6539478443429957e+01 0 -1 0
5120 3732 7 -5.9410399999999997e-01 8.4122163473010669e-01 6.9784879541318148e+00 4.2659485253797499e+01 -1 1 1
3994 3507 7 -5.9410399999999997e-01 1.0083300865036484e+00 3.8079778402599507e-01 4.0526180486211260e+01 1 0 -2
1092 3004 4 -5.3452554465310598e-01 1.9911897127211868e+00 5.9997618006142979e+00 3.9322728623667658e+01 0 -1 0
2509 3210 7 -5.9410399999999997e-01 5.1613059349401063e+00 5.7675571684535107e+00 4.3783398171307624e+01 1 0 -1
7964 2762 8 6.0999999999999999e-01 1.9393083918317231e+00 1.9641928977695549e+00 4.3169540183597732e+01 2 -3 2
2508 3210 6 5.4641600000000001e-01 5.5111404042245704e+00 4.3277325508525886e+00 4.2164310745918996e+01 1 0 -1
8011 2809 8 6.0999999999999999e-01 6.4915331164333532e+00 7.8547152304162040e+00 4.4304649195590613e+01 3 -2 -2
7311 2109 8 6.0999999999999999e-01 9.6493874684285963e+00 7.9949797342446782e-01 3.6826231392905115e+01 4 2 -2
5891 689 8 6.0999999999999999e-01 2.9843386223467236e+00 1.3852128054603772e+00 3.8559393083804920e+01 2 -2 2
2510 3210 7 -5.9410399999999997e-01 3.6254070318444285e+00 3.5161805258610217e+00 4.1889794390970806e+01 1 0 -1
5747 545 8 6.0999999999999999e-01 1.5272169554939574e+00 8.0693400155469899e+00 4.0474715711770543e+01 0 -2 -1
1145 3010 4 -5.3452554465310598e-01 3.6836243685694603e+00 9.0163722266395685e-02 4.3581719516802437e+01 1 1 0
1144 3010 3 5.5465100000000001e-01 5.0279417936552706e+00 -1.6840492585124711e-01 4.5107252855450625e+01 1 1 0
6985 1783 8 6.0999999999999999e-01 4.2932626985678173e+00 4.3361443524898231e+00 3.9372237556856788e+01 -1 1 -1
1090 3004 3 5.5465100000000001e-01 2.0506172236904496e+00 7.0646061866037151e+00 3.7573665495888406e+01 0 -1 0
1142 3010 4 -5.3452554465310598e-01 2.2474628071387945e+00 2.8500453927506268e+00 4.5290752291162249e+01 1 1 0
1093 3004 4 -5.3452554465310598e-01 3.8204701332864239e+00 8.2012564045566343e+00 4.0736341150402168e+01 0 -1 0
2273 3163 6 5.4641600000000001e-01 5.9159967163889426e+00 7.3737603004705776e-02 3.8781913712231983e+01 1 1 0
1409 3039 4 -5.3452554465310598e-01 1.2955064081619305e+01 7.4899179014391191e+00 4.4124638405119612e+01 -1 0 -1
2275 3163 7 -5.9410399999999997e-01 5.4991750247912154e+00 2.0814957892848391e+00 3.8526804946583738e+01 1 1 0
7096 1894 8 6.0999999999999999e-01 1.1102119976399615e+01 6.2516044989635589e+00 4.5276927572105677e+01 0 0 2
7228 2026 8 6.0999999999999999e-01 9.7163643444844165e+00 5.4387137680536446e+00 3.7764114471468616e+01 3 4 0
3997 3507 7 -5.9410399999999997e-01 -4.1883435070252056e-01 3.2177354042277821e+00 3.9901856636792871e+01 1 0 -2
3995 3507 7 -5.9410399999999997e-01 -5.7041379957470895e-01 2.0603207543019875e+00 4.3039452944283255e+01 1 0 -2
6241 1039 8 6.0999999999999999e-01 9.2169527447605297e+00 2.5488524328425557e+00 4.3349409446268837e+01 0 1 1
7593 2391 8 6.0999999999999999e-01 1.3176855284945816e+01 5.4373661546268650e+00 4.1290146348580450e+01 3 -1 -1
7231 2029 8 6.0999999999999999e-01 4.9216365628784620e-01 4.0331814380687963e+00 3.7671576942362037e+01 -2 -2 0
2277 3163 7 -5.9410399999999997e-01 6.4085050371958783e+00 -5.2290783456213219e-01 4.0646717737234894e+01 1 1 0
7386 2184 8 6.0999999999999999e-01 3.1277393051562483e+00 4.6070777753966610e+00 4.3883982483066234e+01 0 -2 1
5032 3714 7 -5.9410399999999997e-01 1.0749467073248166e+01 4.1969198945012067e+00 4.3473924357752367e+01 1 1 1
2511 3210 7 -5.9410399999999997e-01 6.8341631352704395e+00 2.9088889490654419e+00 4.2936661425930538e+01 1 0 -1
6914 1712 8 6.0999999999999999e-01 5.8898258949396025e+00 8.1155856011210381e-01 4.2435921225810347e+01 -1 4 1
7951 2749 8 6.0999999999999999e-01 2.0872404765321195e+00 7.6357930301630201e+00 4.5132011719518900e+01 0 1 4
1406 3039 4 -5.3452554465310598e-01 1.0900652652749578e+01 7.6569921609953191e+00 4.1527595194203670e+01 -1 0 -1
1148 3010 4 -5.3452554465310598e-01 6.9395903864002246e+00 -4.7048184322868664e-01 4.4403147356835859e+01 1 1 0