Output produced by LAMMPSStructureWriter


12000 atoms
3 atom types
0.00000000 25.72500000 xlo xhi
0.00000000 25.72500000 ylo yhi
0.00000000 205.80000000 zlo zhi
0.00000000 0.00000000 0.00000000 xy xz yz



Masses

1 15.99939999999999962199 #O
2 91.22400000000000375167 #Zr
3 238.02890999999999621650 #U

Atoms

1 0 1 0.0 1.28625000000000033751 1.28625000000000033751 3.85875000000000012434
2 0 1 0.0 1.28625000000000055955 1.28625000000000055955 9.00375000000000014211
3 0 1 0.0 1.28625000000000100364 1.28625000000000100364 14.14875000000000149214
4 0 1 0.0 1.28625000000000122569 1.28625000000000122569 19.29375000000000284217
5 0 1 0.0 1.28625000000000166978 1.28625000000000166978 24.43874999999999886313
6 0 1 0.0 1.28625000000000189182 1.28625000000000189182 29.58374999999999843681
7 0 1 0.0 1.28625000000000233591 1.28625000000000233591 34.72875000000000511591
8 0 1 0.0 1.28625000000000255795 1.28625000000000255795 39.87375000000000113687
9 0 1 0.0 1.28625000000000278000 1.28625000000000278000 45.01875000000000426326
10 0 1 0.0 1.28625000000000322409 1.28625000000000322409 50.16375000000000028422
11 0 1 0.0 1.28625000000000344613 1.28625000000000344613 55.30875000000000341061
12 0 1 0.0 1.28625000000000389022 1.28625000000000389022 60.45375000000000653699
13 0 1 0.0 1.28625000000000411227 1.28625000000000411227 65.59874999999999545253
14 0 1 0.0 1.28625000000000455636 1.28625000000000455636 70.74375000000000568434
15 0 1 0.0 1.28625000000000477840 1.28625000000000477840 75.88875000000000170530
16 0 1 0.0 1.28625000000000500044 1.28625000000000500044 81.03374999999999772626
17 0 1 0.0 1.28625000000000544453 1.28625000000000544453 86.17875000000000795808
18 0 1 0.0 1.28625000000000566658 1.28625000000000566658 91.32375000000000397904
19 0 1 0.0 1.28625000000000611067 1.28625000000000611067 96.46875000000000000000
20 0 1 0.0 1.28625000000000633271 1.28625000000000633271 101.61375000000001023182
21 0 1 0.0 1.28625000000000655476 1.28625000000000655476 106.75875000000002046363
22 0 1 0.0 1.28625000000000699885 1.28625000000000699885 111.90375000000000227374
23 0 1 0.0 1.28625000000000722089 1.28625000000000722089 117.04874999999999829470
24 0 1 0.0 1.28625000000000766498 1.28625000000000766498 122.19375000000000852651
25 0 1 0.0 1.28625000000000788702 1.28625000000000788702 127.33875000000000454747
26 0 1 0.0 1.28625000000000833111 1.28625000000000833111 132.48375000000001477929
27 0 1 0.0 1.28625000000000855316 1.28625000000000855316 137.62874999999999658939
28 0 1 0.0 1.28625000000000877520 1.28625000000000877520 142.77375000000000682121
29 0 1 0.0 1.28625000000000921929 1.28625000000000921929 147.91875000000001705303
30 0 1 0.0 1.28625000000000944134 1.28625000000000944134 153.06374999999999886313
31 0 1 0.0 1.28625000000000988543 1.28625000000000988543 158.20875000000000909495
32 0 1 0.0 1.28625000000001010747 1.28625000000001010747 163.35374999999999090505
33 0 1 0.0 1.28625000000001032952 1.28625000000001032952 168.49875000000000113687
34 0 1 0.0 1.28625000000001077360 1.28625000000001077360 173.64375000000001136868
35 0 1 0.0 1.28625000000001099565 1.28625000000001099565 178.78875000000002160050
36 0 1 0.0 1.28625000000001143974 1.28625000000001143974 183.93375000000003183231
37 0 1 0.0 1.28625000000001166178 1.28625000000001166178 189.07875000000001364242
38 0 1 0.0 1.28625000000001210587 1.28625000000001210587 194.22374999999999545253
39 0 1 0.0 1.28625000000001232792 1.28625000000001232792 199.36875000000000568434
40 0 1 0.0 1.28625000000001254996 1.28625000000001254996 204.51375000000001591616
41 0 1 0.0 1.28625000000000078160 6.43125000000000035527 3.85875000000000012434
42 0 1 0.0 1.28625000000000100364 6.43125000000000124345 9.00375000000000014211
43 0 1 0.0 1.28625000000000144773 6.43125000000000124345 14.14875000000000149214
44 0 1 0.0 1.28625000000000166978 6.43125000000000124345 19.29375000000000284217
45 0 1 0.0 1.28625000000000211386 6.43125000000000213163 24.43874999999999886313
46 0 1 0.0 1.28625000000000233591 6.43125000000000213163 29.58374999999999843681
47 0 1 0.0 1.28625000000000278000 6.43125000000000213163 34.72875000000000511591
48 0 1 0.0 1.28625000000000300204 6.43125000000000301981 39.87375000000000113687
49 0 1 0.0 1.28625000000000322409 6.43125000000000301981 45.01875000000000426326
50 0 1 0.0 1.28625000000000366818 6.43125000000000301981 50.16375000000000028422
51 0 1 0.0 1.28625000000000389022 6.43125000000000390799 55.30875000000000341061
52 0 1 0.0 1.28625000000000433431 6.43125000000000390799 60.45375000000000653699
53 0 1 0.0 1.28625000000000455636 6.43125000000000479616 65.59874999999999545253
54 0 1 0.0 1.28625000000000500044 6.43125000000000479616 70.74375000000000568434
55 0 1 0.0 1.28625000000000522249 6.43125000000000479616 75.88875000000000170530
56 0 1 0.0 1.28625000000000544453 6.43125000000000568434 81.03374999999999772626
57 0 1 0.0 1.28625000000000588862 6.43125000000000568434 86.17875000000000795808
58 0 1 0.0 1.28625000000000611067 6.43125000000000568434 91.32375000000000397904
59 0 1 0.0 1.28625000000000655476 6.43125000000000657252 96.46875000000000000000
60 0 1 0.0 1.28625000000000677680 6.43125000000000657252 101.61375000000001023182
61 0 1 0.0 1.28625000000000699885 6.43125000000000657252 106.75875000000002046363
62 0 1 0.0 1.28625000000000744294 6.43125000000000746070 111.90375000000000227374
63 0 1 0.0 1.28625000000000766498 6.43125000000000746070 117.04874999999999829470
64 0 1 0.0 1.28625000000000810907 6.43125000000000746070 122.19375000000000852651
65 0 1 0.0 1.28625000000000833111 6.43125000000000834888 127.33875000000000454747
66 0 1 0.0 1.28625000000000877520 6.43125000000000834888 132.48375000000001477929
67 0 1 0.0 1.28625000000000899725 6.43125000000000834888 137.62874999999999658939
68 0 1 0.0 1.28625000000000921929 6.43125000000000923706 142.77375000000000682121
69 0 1 0.0 1.28625000000000966338 6.43125000000000923706 147.91875000000001705303
70 0 1 0.0 1.28625000000000988543 6.43125000000001012523 153.06374999999999886313
71 0 1 0.0 1.28625000000001032952 6.43125000000001012523 158.20875000000000909495
72 0 1 0.0 1.28625000000001055156 6.43125000000001012523 163.35374999999999090505
73 0 1 0.0 1.28625000000001077360 6.43125000000001101341 168.49875000000000113687
74 0 1 0.0 1.28625000000001121769 6.43125000000001101341 173.64375000000001136868
75 0 1 0.0 1.28625000000001143974 6.43125000000001101341 178.78875000000002160050
76 0 1 0.0 1.28625000000001188383 6.43125000000001190159 183.93375000000003183231
77 0 1 0.0 1.28625000000001210587 6.43125000000001190159 189.07875000000001364242
78 0 1 0.0 1.28625000000001254996 6.43125000000001190159 194.22374999999999545253
79 0 1 0.0 1.28625000000001277201 6.43125000000001278977 199.36875000000000568434
80 0 1 0.0 1.28625000000001299405 6.43125000000001278977 204.51375000000001591616
81 0 1 0.0 1.28625000000000100364 11.57625000000000170530 3.85875000000000012434
82 0 1 0.0 1.28625000000000122569 11.57625000000000170530 9.00375000000000014211
83 0 1 0.0 1.28625000000000166978 11.57625000000000170530 14.14875000000000149214
84 0 1 0.0 1.28625000000000189182 11.57625000000000348166 19.29375000000000284217
85 0 1 0.0 1.28625000000000233591 11.57625000000000348166 24.43874999999999886313
86 0 1 0.0 1.28625000000000255795 11.57625000000000348166 29.58374999999999843681
87 0 1 0.0 1.28625000000000300204 11.57625000000000348166 34.72875000000000511591
88 0 1 0.0 1.28625000000000322409 11.57625000000000348166 39.87375000000000113687
89 0 1 0.0 1.28625000000000344613 11.57625000000000525802 45.01875000000000426326
90 0 1 0.0 1.28625000000000389022 11.57625000000000525802 50.16375000000000028422
91 0 1 0.0 1.28625000000000411227 11.57625000000000525802 55.30875000000000341061
92 0 1 0.0 1.28625000000000455636 11.57625000000000525802 60.45375000000000653699
93 0 1 0.0 1.28625000000000477840 11.57625000000000525802 65.59874999999999545253
94 0 1 0.0 1.28625000000000522249 11.57625000000000525802 70.74375000000000568434
95 0 1 0.0 1.28625000000000544453 11.57625000000000703437 75.88875000000000170530
96 0 1 0.0 1.28625000000000566658 11.57625000000000703437 81.03374999999999772626
97 0 1 0.0 1.28625000000000611067 11.57625000000000703437 86.17875000000000795808
98 0 1 0.0 1.28625000000000633271 11.57625000000000703437 91.32375000000000397904
99 0 1 0.0 1.28625000000000677680 11.57625000000000703437 96.46875000000000000000
100 0 1 0.0 1.28625000000000699885 11.57625000000000881073 101.61375000000001023182
101 0 1 0.0 1.28625000000000722089 11.57625000000000881073 106.75875000000002046363
102 0 1 0.0 1.28625000000000766498 11.57625000000000881073 111.90375000000000227374
103 0 1 0.0 1.28625000000000788702 11.57625000000000881073 117.04874999999999829470
104 0 1 0.0 1.28625000000000833111 11.57625000000000881073 122.19375000000000852651
105 0 1 0.0 1.28625000000000855316 11.57625000000000881073 127.33875000000000454747
106 0 1 0.0 1.28625000000000899725 11.57625000000001058709 132.48375000000001477929
107 0 1 0.0 1.28625000000000921929 11.57625000000001058709 137.62874999999999658939
108 0 1 0.0 1.28625000000000944134 11.57625000000001058709 142.77375000000000682121
109 0 1 0.0 1.28625000000000988543 11.57625000000001058709 147.91875000000001705303
110 0 1 0.0 1.28625000000001010747 11.57625000000001058709 153.06374999999999886313
111 0 1 0.0 1.28625000000001055156 11.57625000000001058709 158.20875000000000909495
112 0 1 0.0 1.28625000000001077360 11.57625000000001236344 163.35374999999999090505
113 0 1 0.0 1.28625000000001099565 11.57625000000001236344 168.49875000000000113687
114 0 1 0.0 1.28625000000001143974 11.57625000000001236344 173.64375000000001136868
115 0 1 0.0 1.28625000000001166178 11.57625000000001236344 178.78875000000002160050
116 0 1 0.0 1.28625000000001210587 11.57625000000001236344 183.93375000000003183231
117 0 1 0.0 1.28625000000001232792 11.57625000000001413980 189.07875000000001364242
118 0 1 0.0 1.28625000000001277201 11.57625000000001413980 194.22374999999999545253
119 0 1 0.0 1.28625000000001299405 11.57625000000001413980 199.36875000000000568434
120 0 1 0.0 1.28625000000001321609 11.57625000000001413980 204.51375000000001591616
121 0 1 0.0 1.28625000000000144773 16.72125000000000127898 3.85875000000000012434
122 0 1 0.0 1.28625000000000166978 16.72125000000000127898 9.00375000000000014211
123 0 1 0.0 1.28625000000000211386 16.72125000000000127898 14.14875000000000149214
124 0 1 0.0 1.28625000000000233591 16.72125000000000127898 19.29375000000000284217
125 0 1 0.0 1.28625000000000278000 16.72125000000000127898 24.43874999999999886313
126 0 1 0.0 1.28625000000000300204 16.72125000000000483169 29.58374999999999843681
127 0 1 0.0 1.28625000000000344613 16.72125000000000483169 34.72875000000000511591
128 0 1 0.0 1.28625000000000366818 16.72125000000000483169 39.87375000000000113687
129 0 1 0.0 1.28625000000000389022 16.72125000000000483169 45.01875000000000426326
130 0 1 0.0 1.28625000000000433431 16.72125000000000483169 50.16375000000000028422
131 0 1 0.0 1.28625000000000455636 16.72125000000000483169 55.30875000000000341061
132 0 1 0.0 1.28625000000000500044 16.72125000000000483169 60.45375000000000653699
133 0 1 0.0 1.28625000000000522249 16.72125000000000483169 65.59874999999999545253
134 0 1 0.0 1.28625000000000566658 16.72125000000000483169 70.74375000000000568434
135 0 1 0.0 1.28625000000000588862 16.72125000000000483169 75.88875000000000170530
136 0 1 0.0 1.28625000000000611067 16.72125000000000483169 81.03374999999999772626
137 0 1 0.0 1.28625000000000655476 16.72125000000000483169 86.17875000000000795808
138 0 1 0.0 1.28625000000000677680 16.72125000000000838440 91.32375000000000397904
139 0 1 0.0 1.28625000000000722089 16.72125000000000838440 96.46875000000000000000
140 0 1 0.0 1.28625000000000744294 16.72125000000000838440 101.61375000000001023182
141 0 1 0.0 1.28625000000000766498 16.72125000000000838440 106.75875000000002046363
142 0 1 0.0 1.28625000000000810907 16.72125000000000838440 111.90375000000000227374
143 0 1 0.0 1.28625000000000833111 16.72125000000000838440 117.04874999999999829470
144 0 1 0.0 1.28625000000000877520 16.72125000000000838440 122.19375000000000852651
145 0 1 0.0 1.28625000000000899725 16.72125000000000838440 127.33875000000000454747
146 0 1 0.0 1.28625000000000944134 16.72125000000000838440 132.48375000000001477929
147 0 1 0.0 1.28625000000000966338 16.72125000000000838440 137.62874999999999658939
148 0 1 0.0 1.28625000000000988543 16.72125000000000838440 142.77375000000000682121
149 0 1 0.0 1.28625000000001032952 16.72125000000001193712 147.91875000000001705303
150 0 1 0.0 1.28625000000001055156 16.72125000000001193712 153.06374999999999886313
151 0 1 0.0 1.28625000000001099565 16.72125000000001193712 158.20875000000000909495
152 0 1 0.0 1.28625000000001121769 16.72125000000001193712 163.35374999999999090505
153 0 1 0.0 1.28625000000001143974 16.72125000000001193712 168.49875000000000113687
154 0 1 0.0 1.28625000000001188383 16.72125000000001193712 173.64375000000001136868
155 0 1 0.0 1.28625000000001210587 16.72125000000001193712 178.78875000000002160050
156 0 1 0.0 1.28625000000001254996 16.72125000000001193712 183.93375000000003183231
157 0 1 0.0 1.28625000000001277201 16.72125000000001193712 189.07875000000001364242
158 0 1 0.0 1.28625000000001321609 16.72125000000001193712 194.22374999999999545253
159 0 1 0.0 1.28625000000001343814 16.72125000000001193712 199.36875000000000568434
160 0 1 0.0 1.28625000000001366018 16.72125000000001548983 204.51375000000001591616
161 0 1 0.0 1.28625000000000166978 21.86625000000000085265 3.85875000000000012434
162 0 1 0.0 1.28625000000000189182 21.86625000000000085265 9.00375000000000014211
163 0 1 0.0 1.28625000000000233591 21.86625000000000085265 14.14875000000000149214
164 0 1 0.0 1.28625000000000255795 21.86625000000000085265 19.29375000000000284217
165 0 1 0.0 1.28625000000000300204 21.86625000000000085265 24.43874999999999886313
166 0 1 0.0 1.28625000000000322409 21.86625000000000440536 29.58374999999999843681
167 0 1 0.0 1.28625000000000366818 21.86625000000000440536 34.72875000000000511591
168 0 1 0.0 1.28625000000000389022 21.86625000000000440536 39.87375000000000113687
169 0 1 0.0 1.28625000000000411227 21.86625000000000440536 45.01875000000000426326
170 0 1 0.0 1.28625000000000455636 21.86625000000000440536 50.16375000000000028422
171 0 1 0.0 1.28625000000000477840 21.86625000000000440536 55.30875000000000341061
172 0 1 0.0 1.28625000000000522249 21.86625000000000440536 60.45375000000000653699
173 0 1 0.0 1.28625000000000544453 21.86625000000000440536 65.59874999999999545253
174 0 1 0.0 1.28625000000000588862 21.86625000000000440536 70.74375000000000568434
175 0 1 0.0 1.28625000000000611067 21.86625000000000440536 75.88875000000000170530
176 0 1 0.0 1.28625000000000633271 21.86625000000000440536 81.03374999999999772626
177 0 1 0.0 1.28625000000000677680 21.86625000000000440536 86.17875000000000795808
178 0 1 0.0 1.28625000000000699885 21.86625000000000795808 91.32375000000000397904
179 0 1 0.0 1.28625000000000744294 21.86625000000000795808 96.46875000000000000000
180 0 1 0.0 1.28625000000000766498 21.86625000000000795808 101.61375000000001023182
181 0 1 0.0 1.28625000000000788702 21.86625000000000795808 106.75875000000002046363
182 0 1 0.0 1.28625000000000833111 21.86625000000000795808 111.90375000000000227374
183 0 1 0.0 1.28625000000000855316 21.86625000000000795808 117.04874999999999829470
184 0 1 0.0 1.28625000000000899725 21.86625000000000795808 122.19375000000000852651
185 0 1 0.0 1.28625000000000921929 21.86625000000000795808 127.33875000000000454747
186 0 1 0.0 1.28625000000000966338 21.86625000000000795808 132.48375000000001477929
187 0 1 0.0 1.28625000000000988543 21.86625000000000795808 137.62874999999999658939
188 0 1 0.0 1.28625000000001010747 21.86625000000000795808 142.77375000000000682121
189 0 1 0.0 1.28625000000001055156 21.86625000000001151079 147.91875000000001705303
190 0 1 0.0 1.28625000000001077360 21.86625000000001151079 153.06374999999999886313
191 0 1 0.0 1.28625000000001121769 21.86625000000001151079 158.20875000000000909495
192 0 1 0.0 1.28625000000001143974 21.86625000000001151079 163.35374999999999090505
193 0 1 0.0 1.28625000000001166178 21.86625000000001151079 168.49875000000000113687
194 0 1 0.0 1.28625000000001210587 21.86625000000001151079 173.64375000000001136868
195 0 1 0.0 1.28625000000001232792 21.86625000000001151079 178.78875000000002160050
196 0 1 0.0 1.28625000000001277201 21.86625000000001151079 183.93375000000003183231
197 0 1 0.0 1.28625000000001299405 21.86625000000001151079 189.07875000000001364242
198 0 1 0.0 1.28625000000001343814 21.86625000000001151079 194.22374999999999545253
199 0 1 0.0 1.28625000000001366018 21.86625000000001151079 199.36875000000000568434
200 0 1 0.0 1.28625000000001388223 21.86625000000001506351 204.51375000000001591616
201 0 1 0.0 6.43125000000000035527 1.28625000000000033751 3.85875000000000012434
202 0 1 0.0 6.43125000000000124345 1.28625000000000055955 9.00375000000000014211
203 0 1 0.0 6.43125000000000124345 1.28625000000000100364 14.14875000000000149214
204 0 1 0.0 6.43125000000000124345 1.28625000000000122569 19.29375000000000284217
205 0 1 0.0 6.43125000000000213163 1.28625000000000166978 24.43874999999999886313
206 0 1 0.0 6.43125000000000213163 1.28625000000000189182 29.58374999999999843681
207 0 1 0.0 6.43125000000000213163 1.28625000000000233591 34.72875000000000511591
208 0 1 0.0 6.43125000000000301981 1.28625000000000255795 39.87375000000000113687
209 0 1 0.0 6.43125000000000301981 1.28625000000000278000 45.01875000000000426326
210 0 1 0.0 6.43125000000000301981 1.28625000000000322409 50.16375000000000028422
211 0 1 0.0 6.43125000000000390799 1.28625000000000344613 55.30875000000000341061
212 0 1 0.0 6.43125000000000390799 1.28625000000000389022 60.45375000000000653699
213 0 1 0.0 6.43125000000000479616 1.28625000000000411227 65.59874999999999545253
214 0 1 0.0 6.43125000000000479616 1.28625000000000455636 70.74375000000000568434
215 0 1 0.0 6.43125000000000479616 1.28625000000000477840 75.88875000000000170530
216 0 1 0.0 6.43125000000000568434 1.28625000000000500044 81.03374999999999772626
217 0 1 0.0 6.43125000000000568434 1.28625000000000544453 86.17875000000000795808
218 0 1 0.0 6.43125000000000568434 1.28625000000000566658 91.32375000000000397904
219 0 1 0.0 6.43125000000000657252 1.28625000000000611067 96.46875000000000000000
220 0 1 0.0 6.43125000000000657252 1.28625000000000633271 101.61375000000001023182
221 0 1 0.0 6.43125000000000657252 1.28625000000000655476 106.75875000000002046363
222 0 1 0.0 6.43125000000000746070 1.28625000000000699885 111.90375000000000227374
223 0 1 0.0 6.43125000000000746070 1.28625000000000722089 117.04874999999999829470
224 0 1 0.0 6.43125000000000746070 1.28625000000000766498 122.19375000000000852651
225 0 1 0.0 6.43125000000000834888 1.28625000000000788702 127.33875000000000454747
226 0 1 0.0 6.43125000000000834888 1.28625000000000833111 132.48375000000001477929
227 0 1 0.0 6.43125000000000834888 1.28625000000000855316 137.62874999999999658939
228 0 1 0.0 6.43125000000000923706 1.28625000000000877520 142.77375000000000682121
229 0 1 0.0 6.43125000000000923706 1.28625000000000921929 147.91875000000001705303
230 0 1 0.0 6.43125000000001012523 1.28625000000000944134 153.06374999999999886313
231 0 1 0.0 6.43125000000001012523 1.28625000000000988543 158.20875000000000909495
232 0 1 0.0 6.43125000000001012523 1.28625000000001010747 163.35374999999999090505
233 0 1 0.0 6.43125000000001101341 1.28625000000001032952 168.49875000000000113687
234 0 1 0.0 6.43125000000001101341 1.28625000000001077360 173.64375000000001136868
235 0 1 0.0 6.43125000000001101341 1.28625000000001099565 178.78875000000002160050
236 0 1 0.0 6.43125000000001190159 1.28625000000001143974 183.93375000000003183231
237 0 1 0.0 6.43125000000001190159 1.28625000000001166178 189.07875000000001364242
238 0 1 0.0 6.43125000000001190159 1.28625000000001210587 194.22374999999999545253
239 0 1 0.0 6.43125000000001278977 1.28625000000001232792 199.36875000000000568434
240 0 1 0.0 6.43125000000001278977 1.28625000000001254996 204.51375000000001591616
241 0 1 0.0 6.43125000000000035527 6.43125000000000035527 3.85875000000000012434
242 0 1 0.0 6.43125000000000124345 6.43125000000000124345 9.00375000000000014211
243 0 1 0.0 6.43125000000000124345 6.43125000000000124345 14.14875000000000149214
244 0 1 0.0 6.43125000000000124345 6.43125000000000124345 19.29375000000000284217
245 0 1 0.0 6.43125000000000213163 6.43125000000000213163 24.43874999999999886313
246 0 1 0.0 6.43125000000000213163 6.43125000000000213163 29.58374999999999843681
247 0 1 0.0 6.43125000000000213163 6.43125000000000213163 34.72875000000000511591
248 0 1 0.0 6.43125000000000301981 6.43125000000000301981 39.87375000000000113687
249 0 1 0.0 6.43125000000000301981 6.43125000000000301981 45.01875000000000426326
250 0 1 0.0 6.43125000000000301981 6.43125000000000301981 50.16375000000000028422
251 0 1 0.0 6.43125000000000390799 6.43125000000000390799 55.30875000000000341061
252 0 1 0.0 6.43125000000000390799 6.43125000000000390799 60.45375000000000653699
253 0 1 0.0 6.43125000000000479616 6.43125000000000479616 65.59874999999999545253
254 0 1 0.0 6.43125000000000479616 6.43125000000000479616 70.74375000000000568434
255 0 1 0.0 6.43125000000000479616 6.43125000000000479616 75.88875000000000170530
256 0 1 0.0 6.43125000000000568434 6.43125000000000568434 81.03374999999999772626
257 0 1 0.0 6.43125000000000568434 6.43125000000000568434 86.17875000000000795808
258 0 1 0.0 6.43125000000000568434 6.43125000000000568434 91.32375000000000397904
259 0 1 0.0 6.43125000000000657252 6.43125000000000657252 96.46875000000000000000
260 0 1 0.0 6.43125000000000657252 6.43125000000000657252 101.61375000000001023182
261 0 1 0.0 6.43125000000000657252 6.43125000000000657252 106.75875000000002046363
262 0 1 0.0 6.43125000000000746070 6.43125000000000746070 111.90375000000000227374
263 0 1 0.0 6.43125000000000746070 6.43125000000000746070 117.04874999999999829470
264 0 1 0.0 6.43125000000000746070 6.43125000000000746070 122.19375000000000852651
265 0 1 0.0 6.43125000000000834888 6.43125000000000834888 127.33875000000000454747
266 0 1 0.0 6.43125000000000834888 6.43125000000000834888 132.48375000000001477929
267 0 1 0.0 6.43125000000000834888 6.43125000000000834888 137.62874999999999658939
268 0 1 0.0 6.43125000000000923706 6.43125000000000923706 142.77375000000000682121
269 0 1 0.0 6.43125000000000923706 6.43125000000000923706 147.91875000000001705303
270 0 1 0.0 6.43125000000001012523 6.43125000000001012523 153.06374999999999886313
271 0 1 0.0 6.43125000000001012523 6.43125000000001012523 158.20875000000000909495
272 0 1 0.0 6.43125000000001012523 6.43125000000001012523 163.35374999999999090505
273 0 1 0.0 6.43125000000001101341 6.43125000000001101341 168.49875000000000113687
274 0 1 0.0 6.43125000000001101341 6.43125000000001101341 173.64375000000001136868
275 0 1 0.0 6.43125000000001101341 6.43125000000001101341 178.78875000000002160050
276 0 1 0.0 6.43125000000001190159 6.43125000000001190159 183.93375000000003183231
277 0 1 0.0 6.43125000000001190159 6.43125000000001190159 189.07875000000001364242
278 0 1 0.0 6.43125000000001190159 6.43125000000001190159 194.22374999999999545253
279 0 1 0.0 6.43125000000001278977 6.43125000000001278977 199.36875000000000568434
280 0 1 0.0 6.43125000000001278977 6.43125000000001278977 204.51375000000001591616
281 0 1 0.0 6.43125000000000124345 11.57625000000000170530 3.85875000000000012434
282 0 1 0.0 6.43125000000000213163 11.57625000000000170530 9.00375000000000014211
283 0 1 0.0 6.43125000000000213163 11.57625000000000170530 14.14875000000000149214
284 0 1 0.0 6.43125000000000213163 11.57625000000000348166 19.29375000000000284217
285 0 1 0.0 6.43125000000000301981 11.57625000000000348166 24.43874999999999886313
286 0 1 0.0 6.43125000000000301981 11.57625000000000348166 29.58374999999999843681
287 0 1 0.0 6.43125000000000301981 11.57625000000000348166 34.72875000000000511591
288 0 1 0.0 6.43125000000000390799 11.57625000000000348166 39.87375000000000113687
289 0 1 0.0 6.43125000000000390799 11.57625000000000525802 45.01875000000000426326
290 0 1 0.0 6.43125000000000390799 11.57625000000000525802 50.16375000000000028422
291 0 1 0.0 6.43125000000000479616 11.57625000000000525802 55.30875000000000341061
292 0 1 0.0 6.43125000000000479616 11.57625000000000525802 60.45375000000000653699
293 0 1 0.0 6.43125000000000568434 11.57625000000000525802 65.59874999999999545253
294 0 1 0.0 6.43125000000000568434 11.57625000000000525802 70.74375000000000568434
295 0 1 0.0 6.43125000000000568434 11.57625000000000703437 75.88875000000000170530
296 0 1 0.0 6.43125000000000657252 11.57625000000000703437 81.03374999999999772626
297 0 1 0.0 6.43125000000000657252 11.57625000000000703437 86.17875000000000795808
298 0 1 0.0 6.43125000000000657252 11.57625000000000703437 91.32375000000000397904
299 0 1 0.0 6.43125000000000746070 11.57625000000000703437 96.46875000000000000000
300 0 1 0.0 6.43125000000000746070 11.57625000000000881073 101.61375000000001023182
301 0 1 0.0 6.43125000000000746070 11.57625000000000881073 106.75875000000002046363
302 0 1 0.0 6.43125000000000834888 11.57625000000000881073 111.90375000000000227374
303 0 1 0.0 6.43125000000000834888 11.57625000000000881073 117.04874999999999829470
304 0 1 0.0 6.43125000000000834888 11.57625000000000881073 122.19375000000000852651
305 0 1 0.0 6.43125000000000923706 11.57625000000000881073 127.33875000000000454747
306 0 1 0.0 6.43125000000000923706 11.57625000000001058709 132.48375000000001477929
307 0 1 0.0 6.43125000000000923706 11.57625000000001058709 137.62874999999999658939
308 0 1 0.0 6.43125000000001012523 11.57625000000001058709 142.77375000000000682121
309 0 1 0.0 6.43125000000001012523 11.57625000000001058709 147.91875000000001705303
310 0 1 0.0 6.43125000000001101341 11.57625000000001058709 153.06374999999999886313
311 0 1 0.0 6.43125000000001101341 11.57625000000001058709 158.20875000000000909495
312 0 1 0.0 6.43125000000001101341 11.57625000000001236344 163.35374999999999090505
313 0 1 0.0 6.43125000000001190159 11.57625000000001236344 168.49875000000000113687
314 0 1 0.0 6.43125000000001190159 11.57625000000001236344 173.64375000000001136868
315 0 1 0.0 6.43125000000001190159 11.57625000000001236344 178.78875000000002160050
316 0 1 0.0 6.43125000000001278977 11.57625000000001236344 183.93375000000003183231
317 0 1 0.0 6.43125000000001278977 11.57625000000001413980 189.07875000000001364242
318 0 1 0.0 6.43125000000001278977 11.57625000000001413980 194.22374999999999545253
319 0 1 0.0 6.43125000000001367795 11.57625000000001413980 199.36875000000000568434
320 0 1 0.0 6.43125000000001367795 11.57625000000001413980 204.51375000000001591616
321 0 1 0.0 6.43125000000000124345 16.72125000000000127898 3.85875000000000012434
322 0 1 0.0 6.43125000000000213163 16.72125000000000127898 9.00375000000000014211
323 0 1 0.0 6.43125000000000213163 16.72125000000000127898 14.14875000000000149214
324 0 1 0.0 6.43125000000000213163 16.72125000000000127898 19.29375000000000284217
325 0 1 0.0 6.43125000000000301981 16.72125000000000127898 24.43874999999999886313
326 0 1 0.0 6.43125000000000301981 16.72125000000000483169 29.58374999999999843681
327 0 1 0.0 6.43125000000000301981 16.72125000000000483169 34.72875000000000511591
328 0 1 0.0 6.43125000000000390799 16.72125000000000483169 39.87375000000000113687
329 0 1 0.0 6.43125000000000390799 16.72125000000000483169 45.01875000000000426326
330 0 1 0.0 6.43125000000000390799 16.72125000000000483169 50.16375000000000028422
331 0 1 0.0 6.43125000000000479616 16.72125000000000483169 55.30875000000000341061
332 0 1 0.0 6.43125000000000479616 16.72125000000000483169 60.45375000000000653699
333 0 1 0.0 6.43125000000000568434 16.72125000000000483169 65.59874999999999545253
334 0 1 0.0 6.43125000000000568434 16.72125000000000483169 70.74375000000000568434
335 0 1 0.0 6.43125000000000568434 16.72125000000000483169 75.88875000000000170530
336 0 1 0.0 6.43125000000000657252 16.72125000000000483169 81.03374999999999772626
337 0 1 0.0 6.43125000000000657252 16.72125000000000483169 86.17875000000000795808
338 0 1 0.0 6.43125000000000657252 16.72125000000000838440 91.32375000000000397904
339 0 1 0.0 6.43125000000000746070 16.72125000000000838440 96.46875000000000000000
340 0 1 0.0 6.43125000000000746070 16.72125000000000838440 101.61375000000001023182
341 0 1 0.0 6.43125000000000746070 16.72125000000000838440 106.75875000000002046363
342 0 1 0.0 6.43125000000000834888 16.72125000000000838440 111.90375000000000227374
343 0 1 0.0 6.43125000000000834888 16.72125000000000838440 117.04874999999999829470
344 0 1 0.0 6.43125000000000834888 16.72125000000000838440 122.19375000000000852651
345 0 1 0.0 6.43125000000000923706 16.72125000000000838440 127.33875000000000454747
346 0 1 0.0 6.43125000000000923706 16.72125000000000838440 132.48375000000001477929
347 0 1 0.0 6.43125000000000923706 16.72125000000000838440 137.62874999999999658939
348 0 1 0.0 6.43125000000001012523 16.72125000000000838440 142.77375000000000682121
349 0 1 0.0 6.43125000000001012523 16.72125000000001193712 147.91875000000001705303
350 0 1 0.0 6.43125000000001101341 16.72125000000001193712 153.06374999999999886313
351 0 1 0.0 6.43125000000001101341 16.72125000000001193712 158.20875000000000909495
352 0 1 0.0 6.43125000000001101341 16.72125000000001193712 163.35374999999999090505
353 0 1 0.0 6.43125000000001190159 16.72125000000001193712 168.49875000000000113687
354 0 1 0.0 6.43125000000001190159 16.72125000000001193712 173.64375000000001136868
355 0 1 0.0 6.43125000000001190159 16.72125000000001193712 178.78875000000002160050
356 0 1 0.0 6.43125000000001278977 16.72125000000001193712 183.93375000000003183231
357 0 1 0.0 6.43125000000001278977 16.72125000000001193712 189.07875000000001364242
358 0 1 0.0 6.43125000000001278977 16.72125000000001193712 194.22374999999999545253