LAMMPS data file via write_data, version 22 Dec 2022, timestep = 40000

21952 atoms
4 atom types

-0.25016131322325563 50.25016131322336 xlo xhi
-0.5003226264465113 100.50032262644672 ylo yhi
-0.25016131322325563 50.25016131322336 zlo zhi

Masses

1 58.6934
2 91.22
3 92.91
4 26.981539

Atoms # atomic

3 1 1.6127588983912358 0.8788380301480478 -0.03176672644742204 0 0 0
59 1 0.3181856709698897 1.8711888758719852 1.694389679996576 0 0 0
341 1 2.4678072695558995 -0.19213500240739662 2.635382864530546 0 0 0
397 1 2.324147408660802 2.10855281437169 2.895534588751403 0 0 0
338 4 0.3345434791018467 2.45100213734553 4.305774960000088 0 0 0
61 2 1.8979983661080175 3.5756540677623168 0.3436513889359303 0 0 0
8 1 3.465316895597604 1.7439311930698707 0.8745969081407274 0 0 0
395 2 0.8904720260942309 4.284296777108241 2.5250788638739414 0 0 0
339 1 1.0033730382906678 -0.021657407088092273 4.246452872995408 0 0 0
394 2 3.9939483403811087 4.126157052461371 2.235515075777424 0 0 0
399 1 4.528810715594595 2.5058939761837578 4.293798360914452 0 0 0
17900 1 4.457707976389053 0.7201198177671504 2.7840316492314527 0 1 0
344 2 6.755726979642289 1.1603062787374352 3.8069271328360443 0 0 0
342 1 5.885457130392041 2.4061364371433833 1.8546929129270593 0 0 0
345 1 7.800810422780337 0.30915517706422635 1.4395073232685471 0 0 0
401 1 6.7298946997157465 3.6371546420432814 3.4047732851664367 0 0 0
12 1 8.449671134416683 2.375912532944785 2.1244957218396006 0 0 0
7 3 5.413892192379638 0.4860707000506368 0.43650558667990835 0 0 0
67 1 7.649821043686211 4.162931259573679 0.8083537860896919 0 0 0
9 1 7.195469231769925 1.9552603587367332 -0.038214116288674715 0 0 0
346 1 8.366275683354049 2.6736641634831995 4.953168221788641 0 0 0
63 2 5.333159512624547 3.6883901543520574 -0.21678165217766443 0 0 0
402 1 8.991078559594149 4.348836418831267 3.1473916592573805 0 0 0
349 2 9.855794543590719 0.36558730814967244 3.128827922142335 0 0 0
16 1 10.472174004337976 1.0887170019853871 0.892585433491631 0 0 0
71 1 12.15415464433487 2.0519661020028996 2.1024820015807166 0 0 0
405 2 10.647286689310354 2.5064638131674184 4.033920410631803 0 0 0
14 1 13.192454844836291 0.8968057499190751 0.07289093558455412 0 0 0
72 1 10.388837956837527 3.383846251805904 1.5502541177652032 0 0 0
356 2 12.547138859709612 0.1855580175204239 4.240824654141122 0 0 0
69 1 12.228619328332492 2.911284924469638 0.027754418815025994 0 0 0
411 2 13.150131025407612 2.628205522855696 4.409062352454048 0 0 0
350 1 12.240363086754476 -0.38055295194246297 1.8913249669917493 0 0 0
20 1 14.317351082416298 1.470512088694272 2.2461972409893094 0 0 0
18 1 16.59085752920549 1.0462088145085764 3.0878316629897933 0 0 0
75 1 16.35649380849212 3.099181340675404 1.6923233549210408 0 0 0
354 1 15.411515178415067 3.1212904825205827 3.7700431630874016 0 0 0
353 1 15.083843690723862 0.5906010938317001 4.734400996624359 0 0 0
17912 2 16.069438522257315 0.5868211047684608 0.7482516001526561 0 1 0
76 2 13.930886036872833 3.9059781550232673 1.777526345392356 0 0 0
693 1 17.554103366341288 -0.25298749842766743 4.830436898614753 0 0 0
357 2 17.873090674546326 3.3606023141098516 3.4588449790620963 0 0 0
77 1 18.64487474121038 2.1762275888809506 1.2518830072640534 0 0 0
21 2 20.517001160591573 0.30447053483734576 0.9892195945646276 0 0 0
28 1 21.74587188512965 1.225334714733028 3.8758661917727437 0 0 0
417 2 20.5316219543919 3.6140404617251676 4.12420957403018 0 0 0
19 3 19.496138003418313 1.4443071562369403 3.6289270629119605 0 0 0
83 2 21.73570730516232 2.440269966780204 1.6138263208061283 0 0 0
79 1 19.93512160882188 4.206574288739536 1.6963969779839412 0 0 0
88 1 22.621040452429842 4.29118695083393 2.94431501919599 0 0 0
25 4 23.19892792955012 0.21314755571330712 1.1394777198088022 0 0 0
27 2 24.01392199624629 -0.2761511459762709 3.6482445985205656 0 0 0
29 3 25.23785412907614 0.49690500410953775 1.137420584904411 0 0 0
30 4 26.510048896427335 2.1101119695433384 1.080997718339296 0 0 0
32 2 24.12376342283442 2.250937633165396 2.925154367286615 0 0 0
365 1 26.24582063356771 0.8136699306314876 3.389803588272415 0 0 0
423 2 26.282165346428567 3.3527991420726844 3.4472705599531754 0 0 0
85 1 24.065207467137103 2.4590531205493 0.2138975307976414 0 0 0
4455 3 26.667548838040375 2.9735168427017173 -0.16953185862778264 0 0 1
477 1 24.54635424687171 4.630236237638838 1.7485485005643282 0 0 0
366 3 28.154500440668663 2.1673983568633695 1.8572218963713074 0 0 0
36 1 30.75165277889964 2.946430598969659 1.4722417045524183 0 0 0
370 1 28.64917170219202 1.1104070972744053 3.9675202714950872 0 0 0
31 1 30.425177482789103 0.7018186584267774 2.3061716609617227 0 0 0
33 1 29.408961315911156 1.7876000585644896 -0.20240682385489905 0 0 0
18230 2 28.11886029486701 -0.4070250024737303 1.9436754943651913 0 1 0
429 1 30.285779522196826 2.6784260232239387 3.7775386194492446 0 0 0
4404 2 29.454022933519564 4.342216806188005 -0.07698622424852886 0 0 1
89 2 28.804826922761954 4.523243371878737 2.371112490319132 0 0 0
427 1 28.42191693928068 3.5277319858840146 4.753476225395698 0 0 0
373 1 32.536411574600166 1.0066062612812945 3.4429175615036973 0 0 0
35 1 32.64871207676461 1.8006536875145929 1.0559543851004374 0 0 0
40 2 32.65805994104916 3.4718642189397397 3.1431372606144237 0 0 0
95 4 35.219859932524926 3.6742531089047006 3.73892314831648 0 0 0
93 4 34.80083727634164 1.7322639805751692 2.248525193736107 0 0 0
34 1 33.160681177621356 4.04192338055972 0.7054934759418603 0 0 0
94 2 35.79091167551961 3.6202978238697705 0.5143906412754212 0 0 0
39 3 34.8409742475132 1.7240339309271722 4.29014275469508 0 0 0
380 4 36.6371935894644 1.3026120565404125 4.640173880824035 0 0 0
44 2 36.837940465901895 0.2946356373883062 0.8527251862852769 0 0 0
18238 3 36.83924735359312 0.021382252822356285 3.8892687162963213 0 1 0
99 2 37.46978170361463 2.2543370190565066 2.326000476585356 0 0 0
441 3 39.46267347174684 3.8636683625788235 3.6613669189705753 0 0 0
717 1 39.286805884864094 1.2704679858685843 3.714858361154707 0 0 0
377 1 38.8912457466473 -0.30476064234576206 1.9971195477438632 0 0 0
46 1 39.81165256942555 1.6566834278610423 1.23133900332538 0 0 0
437 2 39.30460323898221 4.2155880466702005 1.1101627080501224 0 0 0
43 1 40.4378869906668 -0.30484429873179286 0.073364911253676 0 0 0
774 4 38.648536897947366 3.106141188419281 4.884422983272471 0 0 0
384 3 36.79331569104046 3.5792647972162683 4.757550726530441 0 0 0
48 1 38.14533284054286 2.428787562271351 -0.05027526839792468 0 0 0
382 1 41.251331506402494 0.5274302664701704 2.5871929996031917 0 0 0
383 1 41.30061166922084 2.1200094585428784 4.456934219496531 0 0 0
52 2 41.5321599496057 3.065048617645553 2.2362419633554462 0 0 0
386 1 45.24154138998692 0.6790570345642417 3.5006628939329874 0 0 0
4420 2 44.19893330777907 2.1075182376578994 1.5603252261627516 0 0 1
47 1 42.09743533864146 1.2087774069073436 0.5459507499213383 0 0 0
18246 1 43.614587109157384 -0.1791405818021869 2.1017720523227146 0 1 0
18248 1 42.866965745339044 0.3609031565323644 4.2267275285498025 0 1 0
388 2 43.80843575719233 2.6787675503393644 4.108133289759089 0 0 0
106 2 43.548119061411995 4.3504953749431 1.1160304346451126 0 0 0
50 1 45.600709633818994 3.5921461698905217 -0.21616043489170497 0 0 0
51 1 46.269856411714485 0.8059252072798291 1.1286458741471235 0 0 0
107 2 46.40972062272354 3.0483680089955976 2.2212070482939654 0 0 0
337 3 49.7657902494913 1.579370021269571 3.9827543202925533 -1 0 0
55 1 48.61790474024971 0.5377347788100006 1.622290239059557 0 0 0
56 1 48.89277573318272 3.097713579663963 1.9846835675115142 0 0 0
390 2 47.70530610334653 1.4181679462615473 3.8497838264542024 0 0 0
57 1 49.94619215054328 3.225213244890834 -0.18888660961925718 -1 0 0
54 1 47.733199521898115 2.2451327341357654 0.09153710552550426 0 0 0
112 3 48.04068386098572 4.336216885800185 4.011120317236362 0 0 0
58 1 2.236704885336432 6.18011965874347 1.3793848642568582 0 0 0
115 1 3.142688818746475 8.391507868150985 0.36491162886232376 0 0 0
449 1 1.0777368253240591 7.043695146957169 3.503041620781102 0 0 0
110 1 0.7957661916294916 8.225923875863252 1.4410808990556299 1 0 0
453 1 2.865434623118698 7.996715582051163 2.5892512648733073 0 0 0
400 1 2.7586514895549876 5.505252457714837 3.7288020524387275 0 0 0
64 2 4.7461452714592784 6.3540532543799095 0.7772170053728515 0 0 0
68 1 6.633330572788014 5.458432648009046 2.3145340548402142 0 0 0
119 3 7.371131710619939 8.051868002061024 2.46777496713459 0 0 0
457 2 5.497692573953129 8.63521005648103 3.1132256750915084 0 0 0
62 4 7.63885072994868 7.176832115233958 1.1067503060486255 0 0 0
398 1 4.655852805492121 6.486981282216246 3.1824569570381462 0 0 0
459 4 8.323286545368799 8.817022786567483 4.296420115617021 0 0 0
4487 1 5.643366023780584 8.92747711769998 0.524058291794152 0 0 1
734 1 4.977065183842572 4.784250750699509 4.612571020955052 0 0 0
404 2 7.390610430665018 5.79291608028822 4.757068339374318 0 0 0
409 1 11.781950151086038 4.578913451050436 2.9055303896746394 0 0 0
66 1 9.52095293081284 5.648468714756412 1.348015728000712 0 0 0
123 1 9.522861137028032 6.538526465608691 3.652719999088563 0 0 0
121 1 9.972485987470229 7.564301628635981 0.07067962459630978 0 0 0
70 1 11.616706222822689 5.135049114555496 0.5360878205878337 0 0 0
127 2 12.515831801169282 7.598285621456316 0.3945493508104473 0 0 0
406 1 11.424513669629674 6.900271352636728 2.335947063350561 0 0 0
128 1 9.796116304056762 8.565584428771626 2.2046094575367317 0 0 0
412 1 11.645567086954207 5.951493679078632 4.538273887246073 0 0 0
462 1 11.10759451518401 8.26632028124642 4.244262893484911 0 0 0
181 3 12.6534328601843 9.15611854398436 2.6228697730858057 0 0 0
132 1 13.705406799079968 6.293471109956287 2.2124891493305285 0 0 0
410 1 15.90152956012416 5.501299971884238 2.9979662565777883 0 0 0
131 3 14.943848720747214 8.183767164276688 2.19111964237141 0 0 0
80 1 15.572784500597246 5.542399769717475 0.7255788256793836 0 0 0
126 4 14.40461014550596 9.476706134038839 1.1771202696194005 0 0 0
469 2 17.338073607583503 7.465119291130755 1.9729107934649943 0 0 0
24 1 17.877541105905983 5.049075550946363 1.3983964401708646 0 0 0
187 1 17.503958560334166 9.291820989093198 3.582450451763413 0 0 0
185 1 16.351525521167005 8.729056861878417 -0.07499559800150932 0 0 0
465 1 16.34043777857241 7.377977968509825 4.3777691969872885 0 0 0
746 2 13.93137016201344 5.073534817494372 4.711682339869396 0 0 0
4611 4 15.163167176849484 9.552248850400852 3.73103108865165 0 0 1
521 2 13.506926572857102 7.568084668343921 4.580096719585964 0 0 0
413 3 18.594200885752976 5.793089415053057 3.583922865893745 0 0 0
189 2 19.615393446657286 8.736897028262977 2.6209280536020807 0 0 0
133 1 19.728774063223216 6.541479427377306 1.275879396249107 0 0 0
135 2 21.798006709317253 8.14112655927052 1.373964508715894 0 0 0
414 1 20.89389642563634 6.054322464041765 3.1332169351681816 0 0 0
84 2 21.984450076623816 5.335012857140599 0.7817603218342599 0 0 0
472 1 18.869325836440307 7.6359999093967375 4.730753679608298 0 0 0
471 2 21.437592930055164 7.9261821660996095 4.617297243084085 0 0 0
134 2 18.85066947364862 8.632006834176302 0.14638585966158935 0 0 0
87 1 26.65623198087872 4.870290571867849 1.0123500770254392 0 0 0
473 2 23.44166658001086 6.634733365654395 2.7974950145391966 0 0 0
421 1 24.64885719682095 5.076278447887468 4.25630356429806 0 0 0
139 1 23.849898208701532 6.79779135425391 0.22452251226978392 0 0 0
140 2 24.30436938034783 8.860014311239906 1.7333677705719588 0 0 0
479 3 25.737768761035774 7.629690033809318 4.046363587829853 0 0 0
143 1 25.781242192053305 6.767784147926 1.8004778885084076 0 0 0
142 1 26.883657924298223 8.683606133223314 0.7402624121997015 0 0 0
422 1 26.943871765712323 5.707574709027107 3.456080801812574 0 0 0
476 2 23.836474944258182 9.514997457303481 4.183595541786515 0 0 0
425 1 30.828306776165466 4.884828163882945 3.697673884154463 0 0 0
478 1 27.854107594302356 7.962315718632144 2.937011622466655 0 0 0
92 1 29.862232548289064 6.991700412689037 2.696876953955402 0 0 0
145 1 28.082967597102034 6.6783981555771215 0.9698005779792551 0 0 0
4515 1 30.25381325314404 6.88074531979102 0.08624574134670354 0 0 1
4516 1 29.37001925405914 8.638804088600622 0.8094735792697814 0 0 1
428 1 28.89425469277602 5.880525057223698 4.685388848247006 0 0 0
483 1 31.320413049343262 6.807548979868052 4.662367173698944 0 0 0
149 2 31.924731901723018 5.763749310130418 1.7562246316316648 0 0 0
484 1 27.549782181441238 9.53287486526618 4.819806093738858 0 0 0
201 2 32.15225944148139 8.359910656712842 2.5671689626189367 0 0 0
91 3 34.76508744093326 4.649563382253071 2.6687904525647914 0 0 0
151 2 34.62544949966993 6.877402039082912 1.1595652740405908 0 0 0
430 1 33.69875003404489 6.624448622892966 3.541848461130885 0 0 0
485 1 34.7608123568381 8.881180118108833 2.6202625669460775 0 0 0
433 1 36.32712426919173 6.749441662914929 3.0397094748757763 0 0 0
156 3 34.55570042112184 9.205147791850498 0.07522011167745929 0 0 0
426 4 32.63625182483091 9.341126073617174 0.20000107995438465 0 0 0
821 1 33.582530843284474 9.640043508451631 4.36875843611727 0 0 0
491 1 35.056990063761305 7.934973175001305 4.739752383154201 0 0 0
489 1 36.618668199433685 8.400139434496085 1.327094842571651 0 0 0
378 1 37.330225475926 4.681311538070858 2.6312413985424143 0 0 0
100 1 37.17327453418116 6.030741537816267 0.9281707073249181 0 0 0
104 2 39.095843832842874 6.902697546565375 2.5066560991910363 0 0 0
157 1 38.58802416817434 8.042817082768464 0.24992309625552322 0 0 0
434 1 38.03253047066838 5.808628609584443 4.51400089313926 0 0 0
490 2 37.432969742606716 8.848135690851526 3.7052613309827893 0 0 0
549 1 39.99127519897061 9.367521410831072 2.1218367212799447 0 0 0
155 2 39.69225654492341 8.828133128532604 4.750998490404283 0 0 0
493 3 40.66019396932499 6.008896212286685 4.4688805705036385 0 0 0
98 2 40.062910358188134 6.083384510246453 -0.0643320657612595 0 0 0
4476 1 41.403684561482635 5.8943438385154145 2.0145020836378156 0 0 1
159 1 41.506173665532046 8.081304836188867 0.8773678095932982 0 0 0
442 1 45.31529831232123 4.741846887475828 3.598911421312233 0 0 0
103 3 42.83321298037693 4.956686780583398 3.6894360712020577 0 0 0
494 1 41.644018655538105 7.974200956652501 3.259846625917305 0 0 0
102 1 43.67899832345101 6.839333534017582 1.8659896434588394 0 0 0
108 1 43.666821614994035 8.95423026752942 3.0171486243682426 0 0 0
161 2 43.853451546020565 8.305119615870607 0.08386432249081965 0 0 0
168 1 45.736419802364836 8.010691147981586 1.7597206812724773 0 0 0
499 2 45.462114372151404 7.197908826398183 4.052959099193514 0 0 0
4472 4 43.02850115755153 6.23944315751473 4.31916216742103 0 0 1
4474 1 42.581862178861996 6.149211951975524 -0.10450937130000207 0 0 1
111 4 49.42506734952832 4.6643944523634655 4.106038918081017 0 0 0
163 1 45.77910867275952 5.509140629440347 1.440213265174283 0 0 0
60 2 50.00626013850065 6.064521348539976 1.3945657980183817 -1 0 0
171 1 49.549863903929364 8.047931640803327 3.408652453931991 -1 0 0
167 1 49.10544455671989 8.522637589281512 1.211689732722064 0 0 0
501 2 47.70410169073098 6.469586080201021 2.6246314578814727 0 0 0
502 1 47.32271949112814 8.85986021973896 3.505295174958708 0 0 0
109 3 48.09815751475632 4.6807039346395225 0.522336251984396 0 0 0
165 2 47.26236323990662 7.403278308926504 0.0026565314953273522 0 0 0
120 2 1.069769995629055 9.709746822373619 3.5238946577584747 0 0 0
454 1 3.1859935694172465 9.745376636322083 4.655939311924074 0 0 0
176 2 2.3058516216576446 11.95449618816623 3.2392851079131972 0 0 0
114 2 1.1861463962792969 10.522212693833271 1.1136299549808577 0 0 0
174 1 2.9873933085390285 12.062087184392182 0.5269399448601629 0 0 0
229 1 2.322258031399408 14.123231750882079 1.3502471639447273 0 0 0
172 1 0.6927733729994242 12.674938837829117 0.47367408140518563 0 0 0
118 2 3.8581290787079334 10.357793245057891 2.0812254990870414 0 0 0
227 1 0.6399787305727994 13.63708011454322 2.8337981504060687 0 0 0
231 1 2.8118190666733165 14.483221802232292 3.632795282206125 0 0 0
233 1 4.405312528096468 12.925432070598006 2.320282834642601 0 0 0
175 1 4.629626401902042 11.311059142355681 4.28009747184969 0 0 0
458 1 6.78628661232062 10.740435693541398 3.7384079894385733 0 0 0
124 1 6.385195124543998 10.913537024718792 1.4064359574926597 0 0 0
180 2 5.93116079012164 13.24032392238085 4.311432215953479 0 0 0
4545 4 6.086918298974588 13.508177001487034 0.8958643134741939 0 0 1
235 1 7.841564821773373 12.742471372643033 2.845812654223338 0 0 0
122 1 8.647131916477154 10.586585066483462 2.418855875523204 0 0 0
177 2 8.574339672278523 12.256197011955518 0.5631688741542538 0 0 0
1681 2 48.798735820346565 -0.49794191062528625 17.99482921727494 -1 0 0
4548 3 5.4704756520175835 12.471370170881633 -0.085213260120091 0 0 1
4492 2 8.029535254204735 9.676630906312528 -0.09207797769466528 0 0 1
179 1 10.671593754028878 10.47990331623797 3.469170735437132 0 0 0
178 1 10.140385856227711 12.485190103817157 2.423694636213658 0 0 0
184 1 12.023652631363586 12.381139045446718 4.005025147322422 0 0 0
4547 2 10.765245210505505 10.284878253854625 0.5650790281436536 0 0 1
4607 3 12.471029611213325 12.27150487360439 1.231287148610629 0 0 1
573 1 9.85677620092522 14.025282546841982 4.05082455658139 0 0 0
239 1 11.529354340452706 14.244906683309267 2.430205259687595 0 0 0
182 4 12.724586151774766 11.14957056206545 2.2384345689727065 0 0 0
237 1 9.092234180889701 14.673367414790011 1.8241043914735018 0 0 0
4605 3 11.443460701736432 13.669312267581436 0.11128128865037717 0 0 1
125 3 13.391034663834933 10.06285832001274 0.10436488858125997 0 0 0
522 3 16.282983963333315 10.3835001717487 1.844009758949905 0 0 0
524 3 14.296931219090204 11.321590488436446 3.283494402301445 0 0 0
183 4 16.55812329778893 11.485527936325115 2.906572949383603 0 0 0
243 3 16.350833979863005 13.25990576810391 3.685605926130681 0 0 0
241 1 15.05383653390648 12.645226923738036 1.2407372631281912 0 0 0
245 2 17.31096295817591 13.691131867304884 1.2043412701615201 0 0 0
136 3 17.71899044142342 11.351222392595181 4.4411363349358695 0 0 0
518 2 13.859562336387945 13.852501963489757 3.068624522101535 0 0 0
186 1 18.05964198119552 11.033428461636126 0.29280054994338167 0 0 0
19786 1 42.516296027812274 -0.47538519248146827 19.35877766661674 0 1 0
4560 2 19.74849343035467 12.917940308741052 0.29736167757012033 0 0 1
470 1 21.48984243090671 10.148194537576611 3.223646835544065 0 0 0
192 1 19.012221927290437 11.290890060409017 2.485702500918544 0 0 0
191 1 20.575183839621744 10.493990365586994 0.787409607822436 0 0 0
526 1 21.18939818343771 12.16324045108321 2.3967691647133673 0 0 0
196 1 21.98679508269896 12.308411200068102 0.1972846241344801 0 0 0
581 1 18.69810091061922 13.368629498881154 3.7282400603720665 0 0 0
585 2 21.50404221019799 13.992919596854595 4.368553356011859 0 0 0
530 1 22.63946791547115 11.730482217900688 4.3174362724126585 0 0 0
247 2 22.199210854233574 14.25931130228582 1.7525002066053506 0 0 0
529 1 23.668924144097364 11.265600696025334 2.1931797717814336 0 0 0
144 1 22.916430880033477 10.229600494695518 0.30361961952581984 0 0 0
195 1 23.94087393835941 13.225301215072347 3.0952426240167674 0 0 0
199 1 25.533228641053114 10.637818622761245 0.4896494136704548 0 0 0
255 2 26.20953124476648 12.710798154571561 1.8273139350630676 0 0 0
200 1 25.20595699134034 11.678226397861819 4.1592849764273225 0 0 0
474 2 26.33908473666674 9.977114235179382 2.8324304589125964 0 0 0
194 1 24.24607302505543 12.540607699142699 0.3185481218395676 0 0 0
589 1 25.935495827947403 14.106781907164654 3.9824136007636524 0 0 0
147 3 31.248934774103542 10.132384999951618 0.7729295629365347 0 0 0
148 1 30.46384580516002 12.142078431687466 1.6967021414435715 0 0 0
204 2 28.201392137651172 10.874033594481878 1.2993132274496957 0 0 0
537 2 29.762860124686796 9.707150245254834 3.107886627738226 0 0 0
534 4 28.970838980833204 12.745658606267922 3.4631594853367176 0 0 0
533 3 27.766467040889484 12.148653548344281 4.07924080241076 0 0 0
261 4 28.426021671709236 14.151129932045668 1.4600327641092015 0 0 0
542 3 30.820135608127416 13.904422556268038 3.6559259796838406 0 0 0
541 2 31.446763940454368 11.48881789554747 4.176108717986207 0 0 0
4572 3 28.882859454637497 13.292826629318679 0.2711642022074583 0 0 1
208 3 30.813130359939066 14.654455019633534 1.0406633800977232 0 0 0
205 1 33.76443109289741 11.475978286325237 0.25961363113882996 0 0 0
482 1 33.299514014792365 10.600931065700696 2.259842207527018 0 0 0
486 2 36.044936839862245 10.511736029730585 3.97620183313722 0 0 0
207 2 33.97466994778702 12.179127950074047 3.983252669241259 0 0 0
212 2 35.17424232341344 13.345077406560442 1.929632459551799 0 0 0
4579 1 35.65603260718788 10.77739027211085 1.567433060632529 0 0 1
263 1 32.56549597844388 12.868935387118137 1.8260600320179812 0 0 0
546 3 36.384965053870246 13.27175486299006 4.3446470674198965 0 0 0
211 3 38.82909690989162 11.419593774212467 3.571513962007004 0 0 0
269 4 39.837736188738404 12.529020487257558 3.7496273605602473 0 0 0
4581 1 37.90777376857439 10.328064197521476 1.7261333642965233 0 0 1
213 1 40.365022236496685 11.466113291774601 1.6953718503377257 0 0 0
4577 2 38.04845674781261 12.422028456459179 0.6189045366777979 0 0 1
266 4 37.56790438711201 12.802805409594667 3.3277958286488736 0 0 0
605 2 40.530932872255335 13.913289780395292 1.333767699515143 0 0 0
325 3 38.519202235056156 14.270120453385898 3.0201928143989103 0 0 0
160 1 42.41476636956263 10.219590412993702 1.7637487699158 0 0 0
219 2 44.468640135866906 10.504497958365635 0.4872243371081726 0 0 0
551 1 41.479962172436174 10.298546509527538 3.8909129597405085 0 0 0
216 1 42.249486098505386 12.349291379717528 3.164339104791063 0 0 0
214 1 42.48580055350071 12.3931267587271 0.8971900552780463 0 0 0
550 1 44.384017256269814 12.528767811714328 2.1927307366349904 0 0 0
611 1 44.11220037225989 13.383071560677447 4.3905903229063865 0 0 0
553 1 43.71288692659172 10.999196071901272 4.26489952263842 0 0 0
215 2 45.603401571545916 10.538694619126488 2.8559776927497666 0 0 0
220 1 45.0729343345626 14.223916437327315 0.4719420959915711 0 0 0
945 4 41.579709314905 14.2772939822588 4.364757740976682 0 0 0
561 2 50.044103055869456 11.973930353806182 4.492025103496074 -1 0 0
498 3 47.08802632040806 9.755691462023428 1.2792155389721565 0 0 0
554 1 46.188539473147515 12.220750432673942 0.26153605912758837 0 0 0
505 1 49.02496454985307 10.171579770960683 2.932354232880387 -1 0 0
164 4 48.092707359951305 10.847650618202294 0.9497232390552424 0 0 0
558 1 47.30845439532253 11.23409033325774 4.532363310359021 0 0 0
223 3 49.309134838609964 12.195579656216857 1.705916513351858 0 0 0
613 2 46.82827701459941 13.117106602456046 2.416952284746196 0 0 0
615 1 46.79408909487334 13.738506618492314 4.744691777502267 0 0 0
614 2 49.030409275430884 14.419727479352439 3.965767556405555 0 0 0
277 3 47.617805495799985 14.276156265337216 -0.17133019039590203 0 0 0
222 4 48.42162192246231 13.046488180766232 -0.2029243978164132 0 0 0
232 1 1.6217004145289373 16.338654149792404 2.0413890211275527 0 0 0
621 1 3.030223508275479 16.781364239706594 4.107988468507615 0 0 0
288 2 1.8505181084901934 18.605200695059203 1.0780771568276712 0 0 0
619 2 0.9262686700630338 18.344340335579638 3.6941478542975967 0 0 0
230 2 4.2880320008741375 17.85001856397572 0.8074300193389099 0 0 0
562 1 0.8006698989625403 15.693117563571302 4.024892072744759 0 0 0
4599 2 4.137088355389135 15.629930493765027 1.930086628977012 0 0 1
225 1 0.6275199778628597 16.715454538966636 -0.1762360081681114 0 0 0
234 3 6.574369246840678 14.785733632148329 1.8663527215681222 0 0 0
287 1 4.309595242613191 18.459510144477637 3.1741618774903833 0 0 0
289 3 8.439500687352226 17.182217560052244 1.3272596737049351 0 0 0
236 4 7.847818688087893 18.693124629157992 3.0137873603899688 0 0 0
293 3 6.310997460505344 17.036247193795703 3.1795138549873956 0 0 0
292 2 6.38077458191256 18.708519063227186 -0.019631744496450082 0 0 0
4542 4 6.889829611779409 16.516482182337235 1.7025518677659741 0 0 1
4771 3 7.684743659594812 18.46527805210721 4.577577160545327 0 0 0
291 1 7.6769904654941525 14.923277537528104 4.045187706189346 0 0 0
4612 1 13.488097607692216 14.68055583229658 0.7758883333129725 0 0 1
626 1 8.988214554648629 16.523700377250115 3.9426768017889104 0 0 0
238 1 12.039690931954356 16.323999459008547 0.06681393648494743 0 0 0
240 2 10.736141706248857 16.475689705401752 2.101861088625368 0 0 0
295 1 13.181826340963815 16.301240375612753 3.247766397228126 0 0 0
629 3 10.188106058853702 18.692821409929984 3.8140176166118724 0 0 0
296 3 10.549768874771008 18.96376904616425 1.4369801080348585 0 0 0
4725 4 12.034613194389452 18.80563611224508 1.7375408655359144 0 0 0
636 3 13.441780923579488 18.718582486358383 2.9914770354925 0 0 0
244 2 15.367911038948305 16.517822461770585 4.301745816715267 0 0 0
297 2 14.3269983803298 17.20913550635874 0.7152589405536396 0 0 0
242 1 15.472294835436466 15.394970542626991 1.959664228137954 0 0 0
248 1 17.40171145591786 15.46930980831701 3.0990793394278127 0 0 0
578 2 16.49768366094905 17.864398084938827 2.4788724899353403 0 0 0
298 1 17.978685013150322 18.88199034287949 0.7478056229025655 0 0 0
4667 1 16.701098598105396 16.610473957884544 0.08408105248024272 0 0 1
637 2 15.387898449935333 19.65422537062565 4.316554351993238 0 0 0
641 1 17.730555300597377 19.24217133423541 4.633917387857271 0 0 0
299 1 18.420387562376945 16.714523193534127 1.4001614519219256 0 0 0
246 2 19.745557249483035 14.876659630578116 2.053229158669132 0 0 0
582 1 19.121464873902816 17.554965329276314 3.3380339136913677 0 0 0
252 2 21.45861246378158 16.30106693197148 3.5961504069547403 0 0 0
4620 2 20.811097217427005 17.624734892735077 1.4246625712629055 0 0 1
307 2 21.415447580371573 18.59498324140515 4.368707632388438 0 0 0
190 1 20.752773183302313 15.64871569669485 -0.19329365630996798 0 0 0
305 1 22.209591009342805 19.752033638165802 2.2065642287309073 0 0 0
584 1 19.259309368713463 15.553647137478848 4.6431825615481905 0 0 0
254 1 24.891810307600093 14.705053517371702 1.5308757623194758 0 0 0
4624 1 25.159227062742264 16.8771778180478 0.46959615474631056 0 0 1
250 1 23.13025402623471 16.49021038018314 1.6820592857444183 0 0 0
586 1 23.720806029661645 15.468779311254488 4.048155426701123 0 0 0
256 2 26.114573784942863 18.772148345783137 3.11091862335927 0 0 0
645 1 23.573059722049507 17.747785693969924 3.2611127664487807 0 0 0
590 2 25.843785378843815 16.34613173508998 2.9763349603422693 0 0 0
306 1 23.983477092001127 18.87067537767075 1.172598977751812 0 0 0
310 2 26.548391712208204 18.982706318545606 0.9208431393630607 0 0 0
260 3 27.367374631106983 15.916571498048583 1.1496099457846194 0 0 0
203 3 28.221593876838146 14.67236542325724 3.2543890072987973 0 0 0
597 4 30.300559470336232 15.103284363485873 2.7073715009288644 0 0 0
593 1 28.21020697192767 17.128943268209735 3.341701514349242 0 0 0
311 3 28.80801823391772 18.07829183670691 0.18571746595103628 0 0 0
259 3 30.519767514480254 16.982007128678188 2.4567345684775233 0 0 0
309 4 28.863868122407535 16.61986980638048 0.9901468286633441 0 0 0
4628 4 31.34021314228072 17.13274246586922 0.8106889674887132 0 0 1
315 2 29.087070050974283 19.217772256300584 2.508760798248076 0 0 0
320 1 31.723815216539336 19.036805485111387 2.974131000753034 0 0 0
653 2 32.052694356533735 17.357719918429403 4.6182164813491555 0 0 0
601 2 33.07041001357214 14.880443790070695 4.025190294209181 0 0 0
258 1 32.80293117582971 19.050255574531786 0.9100459265592915 0 0 0
264 1 33.38847883300552 17.259135839217826 2.4788120645927134 0 0 0
262 1 35.211507289926516 15.918103293612617 1.0946797194041475 0 0 0
319 1 35.210119663345736 18.26339397272551 1.7413746506416101 0 0 0
267 1 35.24911875254604 15.567514710981818 3.2747535066577655 0 0 0
4632 1 32.98144919716303 15.254634083764824 1.5082914557149418 0 0 1
598 2 34.25000280725442 18.897440371526077 4.176583653513301 0 0 0
657 1 36.3653185361885 17.73567277580459 3.858821119929714 0 0 0
317 1 33.86321421164435 17.159400586269737 -0.07940213533674204 0 0 0
556 3 40.509086742866515 15.074844919347173 3.812524202259758 0 0 0
324 2 37.874515890577314 18.403844746604705 1.927433082982489 0 0 0
268 1 37.10186417595615 16.058196599079157 2.243123028375327 0 0 0
272 1 38.925008542332904 16.89326516416813 3.7153483579699795 0 0 0
323 2 39.78686632896515 18.666373299444665 1.303998646150877 0 0 0
327 1 39.292788387087384 16.10351066104875 1.4482522698934077 0 0 0
4640 2 37.40532422552157 14.85450506708509 -0.04676675912197409 0 0 1
602 1 37.14071590733221 15.537642141827877 4.706739786078543 0 0 0
663 2 41.044118919379926 18.54169075181588 4.485179007711617 0 0 0
661 2 38.502221071964016 19.399842272439386 4.347315020026573 0 0 0
609 2 43.11252477764073 14.721496195817657 2.0890722126300685 0 0 0
606 1 41.35379120770193 16.828337115863196 2.490024847098102 0 0 0
662 1 41.40015710809803 16.899422829383614 0.21637219520184775 0 0 0
276 4 44.39128053980946 18.08780227899595 2.147412662213414 0 0 0
665 1 42.17878250926596 18.82826824805516 1.3127878674794757 0 0 0
666 3 43.269076811735744 17.818988615196652 3.452628629458556 0 0 0
331 3 43.79420837495611 16.796952248787314 1.1808644045404595 0 0 0
667 1 43.56266027743267 15.790506087841024 4.396772785842335 0 0 0
610 2 45.56634714056109 15.526479778875824 2.8247487248153984 0 0 0
672 1 45.368502758293374 17.560162811852354 4.6665186262505305 0 0 0
336 3 45.45024671593454 18.72733243077034 1.0077847749415385 0 0 0
226 2 50.139123506169454 19.217212827525113 -0.13539820443673659 -1 0 0
279 2 50.009717550067634 14.991308057427391 1.0979929879833885 0 0 0
228 1 49.94625909142141 17.441744474265914 1.8064571332818096 -1 0 0
617 1 49.30441230431421 16.95513734956656 4.078164940565958 -1 0 0
275 1 46.30574711196408 16.370675298535204 0.4774682012639916 0 0 0
669 1 46.96762590744581 17.685219740967167 2.8137354516330264 0 0 0
335 1 48.0360756967799 15.94184279316972 2.0880024016581076 0 0 0
281 1 47.80403041425049 18.49787552064621 0.9244236434499866 -1 0 0
671 1 48.915820043715996 19.031728485674602 3.079504540210714 0 0 0