LAMMPS data file via write_data, version 22 Dec 2022, timestep = 40

4 atoms
2 atom types

0.04962286515884601 3.4550491348411536 xlo xhi
0.04962286515884601 3.4550491348411536 ylo yhi
0.04962286515884601 3.4550491348411536 zlo zhi

Masses

1 58.693
2 28.085

Atoms # atomic

1 2 0.0496228651588467 0.04962286515884683 0.04962286515884659 0 0 0
3 1 1.752335999999999 1.7523359999999992 3.4550491348411527 0 0 -1
4 1 1.752335999999999 3.4550491348411527 1.752335999999999 0 -1 0
2 1 3.4550491348411523 1.752335999999999 1.752335999999999 -1 0 0

Velocities

1 0 0 0
3 0 0 0
4 0 0 0
2 0 0 0
