LAMMPS (22 Dec 2022)
  using 1 OpenMP thread(s) per MPI task
Loaded 1 plugins from C:\Program Files\LAMMPS 64-bit 23Jun2022\plugins
Loaded 0 plugins from C:\Program Files\LAMMPS 64-bit 23Jun2022-MPI\plugins
Loaded 1 plugins from C:\Program Files\LAMMPS 64-bit 22Dec2022-MSMPI\plugins
Loaded 1 plugins from C:\Program Files\LAMMPS 64-bit 28Mar2023-MPI\plugins
# Compute elastic constant tensor for a crystal
#
# Written by Aidan Thompson (Sandia, athomps@sandia.gov)
#
#  This script uses the following three include files.
#
#   init.mod      (must be modified for different crystal structures)
# 	       	  Define units, deformation parameters and initial
#		  configuration of the atoms and simulation cell.
#
#
#   potential.mod    (must be modified for different pair styles)
# 		     Define pair style and other attributes
#		     not stored in restart file
#
#
#   displace.mod    (displace.mod should not need to be modified)
# 		    Perform positive and negative box displacements
# 		    in direction ${dir} and size ${up}.
# 		    It uses the resultant changes
#		    in stress to compute one
# 		    row of the elastic stiffness tensor
#
#		    Inputs variables:
#		    	   dir = the Voigt deformation component
#		    		    (1,2,3,4,5,6)
#		    Global constants:
#       	    	   up = the deformation magnitude (strain units)
#       		   cfac = conversion from LAMMPS pressure units to
#               	   output units for elastic constants
#
#
#  To run this on a different system, it should only be necessary to
#  modify the files init.mod and potential.mod. In order to calculate
#  the elastic constants correctly, care must be taken to specify
#  the correct units in init.mod (units, cfac and cunits). It is also
#  important to verify that the minimization of energy w.r.t atom
#  positions in the deformed cell is fully converged.
#  One indication of this is that the elastic constants are insensitive
#  to the choice of the variable ${up} in init.mod. Another is to check
#  the final max and two-norm forces reported in the log file. If you know
#  that minimization is not required, you can set maxiter = 0.0 in
#  init.mod.
#

include init.mod
# NOTE: This script can be modified for different atomic structures,
# units, etc. See in.elastic for more info.
#

# Define the finite deformation size. Try several values of this
# variable to verify that results do not depend on it.
variable up equal 1.0e-6

# Define the amount of random jiggle for atoms
# This prevents atoms from staying on saddle points
variable atomjiggle equal 1.0e-5

# Uncomment one of these blocks, depending on what units
# you are using in LAMMPS and for output

# metal units, elastic constants in eV/A^3
#units		metal
#variable cfac equal 6.2414e-7
#variable cunits string eV/A^3

# metal units, elastic constants in GPa
units		metal
variable cfac equal 1.0e-4
variable cunits string GPa

# real units, elastic constants in GPa
#units		real
#variable cfac equal 1.01325e-4
#variable cunits string GPa

# Define minimization parameters
variable etol equal 0.0
variable ftol equal 1.0e-10
variable maxiter equal 10000
variable maxeval equal 1000000
variable dmax equal 1.0e-2

# generate the box and atom positions using a diamond lattice

dimension    3
boundary     p p p
read_data    data.in
Reading data file ...
  orthogonal box = (0.049622865 0.049622865 0.049622865) to (3.4550491 3.4550491 3.4550491)
  2 by 1 by 2 MPI processor grid
  reading atoms ...
  4 atoms
  reading velocities ...
  4 velocities
  read_data CPU = 0.001 seconds
#replicate    2 3 4
replicate    2 3 4
Replication is creating a 2x3x4 = 24 times larger system...
  orthogonal box = (0.049622865 0.049622865 0.049622865) to (6.8604754 10.265902 13.671328)
  1 by 2 by 2 MPI processor grid
  96 atoms
  replicate CPU = 0.000 seconds
change_box   all triclinic
Changing box ...
  triclinic box = (0.049622865 0.049622865 0.049622865) to (6.8604754 10.265902 13.671328) with tilt (0 0 0)

# Need to set mass to something, just to satisfy LAMMPS
mass 1 1.0e-20

include potential.mod
# NOTE: This script can be modified for different pair styles
# See in.elastic for more info.

# Choose potential
#-----------------------
#pair_style	sw
#pair_coeff * * Si.sw Si
#-----------------------
#pair_style morse	2.83994742	# D0[eV] a[1/A] r0[A] rc[A], 1NN for BCC
#pair_coeff 1 1	2.1173	1.0202	2.4595	2.6497	#	Fe-Fe
#-----------------------
#pair_style smatb # R0(A)   p       q     A(eV)   xi(eV)  Rcs(A)   Rc(A), 4NN: Rcs=4NN, Rc=(4NN+5NN)/2
#pair_coeff 1 1	2.4802	7.0149	2.3779	0.3144	3.0551	4.033	4.176	#	Co	Co
#-----------------------
#pair_style eam/alloy
#pair_coeff * * AlCrFeCoNi_Zhou04.eam.alloy Fe
#-----------------------
pair_style meam
pair_coeff * * ./../../library.meam Ni Si ./../../NiSi.meam Ni Si
#-----------------------

# Setup neighbor style
neighbor 1.0 nsq
neigh_modify once no every 1 delay 0 check yes

# Setup minimization style
min_style	     cg
min_modify	     dmax ${dmax} line quadratic
min_modify	     dmax 0.01 line quadratic

# Setup output
thermo		1
thermo_style custom step temp pe press pxx pyy pzz pxy pxz pyz lx ly lz vol
thermo_modify norm no

# Compute initial state
fix 3 all box/relax  aniso 0.0
minimize ${etol} ${ftol} ${maxiter} ${maxeval}
minimize 0 ${ftol} ${maxiter} ${maxeval}
minimize 0 1e-10 ${maxiter} ${maxeval}
minimize 0 1e-10 10000 ${maxeval}
minimize 0 1e-10 10000 1000000
Neighbor list info ...
  update: every = 1 steps, delay = 0 steps, check = yes
  max neighbors/atom: 2000, page size: 100000
  master list distance cutoff = 5
  ghost atom cutoff = 5
  2 neighbor lists, perpetual/occasional/extra = 2 0 0
  (1) pair meam, perpetual
      attributes: full, newton on
      pair build: full/nsq
      stencil: none
      bin: none
  (2) pair meam, perpetual, half/full from (1)
      attributes: half, newton on
      pair build: halffull/newton
      stencil: none
      bin: none
Per MPI rank memory allocation (min/avg/max) = 9.765 | 9.771 | 9.779 Mbytes
   Step          Temp          PotEng         Press           Pxx            Pyy            Pzz            Pxy            Pxz            Pyz             Lx             Ly             Lz           Volume    
         0   0             -431.52         4.7480515e-10  5.7539628e-10  3.0064737e-10  5.483718e-10  -1.1635541e-10 -4.3398692e-10  3.1092231e-10  6.8108525      10.216279      13.621705      947.8196     
         1   0             -431.52        -7.0301189e-10 -7.8896476e-10 -5.3410888e-10 -7.8596204e-10 -5.9622765e-10 -4.3905401e-10 -2.771417e-10   6.8108525      10.216279      13.621705      947.8196     
Loop time of 0.000622 on 4 procs for 1 steps with 96 atoms

0.0% CPU use with 4 MPI tasks x 1 OpenMP threads

Minimization stats:
  Stopping criterion = force tolerance
  Energy initial, next-to-last, final = 
     -431.520000019931  -431.520000019931   -431.52000001993
  Force two-norm initial, final = 7.8145575e-13 9.5688444e-13
  Force max component initial, final = 3.4039438e-13 4.6673776e-13
  Final line search alpha, max atom move = 1 4.6673776e-13
  Iterations, force evaluations = 1 2

MPI task timing breakdown:
Section |  min time  |  avg time  |  max time  |%varavg| %total
---------------------------------------------------------------
Pair    | 0.00043    | 0.000458   | 0.000492   |   0.0 | 73.63
Neigh   | 0          | 0          | 0          |   0.0 |  0.00
Comm    | 3.6e-05    | 6.8e-05    | 9.5e-05    |   0.0 | 10.93
Output  | 0          | 0          | 0          |   0.0 |  0.00
Modify  | 0          | 0          | 0          |   0.0 |  0.00
Other   |            | 9.6e-05    |            |       | 15.43

Nlocal:             24 ave          36 max          14 min
Histogram: 1 1 0 0 0 0 1 0 0 1
Nghost:            300 ave         310 max         288 min
Histogram: 1 0 0 1 0 0 0 0 1 1
Neighs:            648 ave         980 max         374 min
Histogram: 1 1 0 0 0 0 1 0 0 1
FullNghs:         1296 ave        1944 max         756 min
Histogram: 1 1 0 0 0 0 1 0 0 1

Total # of neighbors = 5184
Ave neighs/atom = 54
Neighbor list builds = 0
Dangerous builds = 0

variable tmp equal pxx
variable pxx0 equal ${tmp}
variable pxx0 equal -7.88964763319217e-10
variable tmp equal pyy
variable pyy0 equal ${tmp}
variable pyy0 equal -5.3410887640497e-10
variable tmp equal pzz
variable pzz0 equal ${tmp}
variable pzz0 equal -7.85962043002113e-10
variable tmp equal pyz
variable pyz0 equal ${tmp}
variable pyz0 equal -2.77141701767758e-10
variable tmp equal pxz
variable pxz0 equal ${tmp}
variable pxz0 equal -4.39054011366629e-10
variable tmp equal pxy
variable pxy0 equal ${tmp}
variable pxy0 equal -5.9622765296507e-10

variable tmp equal lx
variable lx0 equal ${tmp}
variable lx0 equal 6.81085253936462
variable tmp equal ly
variable ly0 equal ${tmp}
variable ly0 equal 10.2162788090469
variable tmp equal lz
variable lz0 equal ${tmp}
variable lz0 equal 13.6217050787292

# These formulas define the derivatives w.r.t. strain components
# Constants uses $, variables use v_
variable d1 equal -(v_pxx1-${pxx0})/(v_delta/v_len0)*${cfac}
variable d1 equal -(v_pxx1--7.88964763319217e-10)/(v_delta/v_len0)*${cfac}
variable d1 equal -(v_pxx1--7.88964763319217e-10)/(v_delta/v_len0)*0.0001
variable d2 equal -(v_pyy1-${pyy0})/(v_delta/v_len0)*${cfac}
variable d2 equal -(v_pyy1--5.3410887640497e-10)/(v_delta/v_len0)*${cfac}
variable d2 equal -(v_pyy1--5.3410887640497e-10)/(v_delta/v_len0)*0.0001
variable d3 equal -(v_pzz1-${pzz0})/(v_delta/v_len0)*${cfac}
variable d3 equal -(v_pzz1--7.85962043002113e-10)/(v_delta/v_len0)*${cfac}
variable d3 equal -(v_pzz1--7.85962043002113e-10)/(v_delta/v_len0)*0.0001
variable d4 equal -(v_pyz1-${pyz0})/(v_delta/v_len0)*${cfac}
variable d4 equal -(v_pyz1--2.77141701767758e-10)/(v_delta/v_len0)*${cfac}
variable d4 equal -(v_pyz1--2.77141701767758e-10)/(v_delta/v_len0)*0.0001
variable d5 equal -(v_pxz1-${pxz0})/(v_delta/v_len0)*${cfac}
variable d5 equal -(v_pxz1--4.39054011366629e-10)/(v_delta/v_len0)*${cfac}
variable d5 equal -(v_pxz1--4.39054011366629e-10)/(v_delta/v_len0)*0.0001
variable d6 equal -(v_pxy1-${pxy0})/(v_delta/v_len0)*${cfac}
variable d6 equal -(v_pxy1--5.9622765296507e-10)/(v_delta/v_len0)*${cfac}
variable d6 equal -(v_pxy1--5.9622765296507e-10)/(v_delta/v_len0)*0.0001

displace_atoms all random ${atomjiggle} ${atomjiggle} ${atomjiggle} 87287 units box
displace_atoms all random 1e-05 ${atomjiggle} ${atomjiggle} 87287 units box
displace_atoms all random 1e-05 1e-05 ${atomjiggle} 87287 units box
displace_atoms all random 1e-05 1e-05 1e-05 87287 units box
Displacing atoms ...

# Write restart
unfix 3
write_restart restart.equil
System init for write_restart ...

# uxx Perturbation

variable dir equal 1
include displace.mod
# NOTE: This script should not need to be
# modified. See in.elastic for more info.
#
# Find which reference length to use

if "${dir} == 1" then    "variable len0 equal ${lx0}"
variable len0 equal ${lx0}
variable len0 equal 6.81085253936462
if "${dir} == 2" then    "variable len0 equal ${ly0}"
if "${dir} == 3" then    "variable len0 equal ${lz0}"
if "${dir} == 4" then    "variable len0 equal ${lz0}"
if "${dir} == 5" then    "variable len0 equal ${lz0}"
if "${dir} == 6" then    "variable len0 equal ${ly0}"

# Reset box and simulation parameters

clear
  using 1 OpenMP thread(s) per MPI task
Loaded 1 plugins from C:\Program Files\LAMMPS 64-bit 23Jun2022\plugins
Loaded 0 plugins from C:\Program Files\LAMMPS 64-bit 23Jun2022-MPI\plugins
Loaded 1 plugins from C:\Program Files\LAMMPS 64-bit 22Dec2022-MSMPI\plugins
Loaded 1 plugins from C:\Program Files\LAMMPS 64-bit 28Mar2023-MPI\plugins
box tilt large

The 'box' command has been removed and will be ignored

read_restart restart.equil
Reading restart file ...
  restart file = 22 Dec 2022, LAMMPS = 22 Dec 2022
  restoring atom style atomic from restart
  triclinic box = (0.049622865 0.049622865 0.049622865) to (6.8604754 10.265902 13.671328) with tilt (0 0 0)
  1 by 2 by 2 MPI processor grid
  pair style meam stores no restart info
  96 atoms
  read_restart CPU = 0.000 seconds
include potential.mod
# NOTE: This script can be modified for different pair styles
# See in.elastic for more info.

# Choose potential
#-----------------------
#pair_style	sw
#pair_coeff * * Si.sw Si
#-----------------------
#pair_style morse	2.83994742	# D0[eV] a[1/A] r0[A] rc[A], 1NN for BCC
#pair_coeff 1 1	2.1173	1.0202	2.4595	2.6497	#	Fe-Fe
#-----------------------
#pair_style smatb # R0(A)   p       q     A(eV)   xi(eV)  Rcs(A)   Rc(A), 4NN: Rcs=4NN, Rc=(4NN+5NN)/2
#pair_coeff 1 1	2.4802	7.0149	2.3779	0.3144	3.0551	4.033	4.176	#	Co	Co
#-----------------------
#pair_style eam/alloy
#pair_coeff * * AlCrFeCoNi_Zhou04.eam.alloy Fe
#-----------------------
pair_style meam
pair_coeff * * ./../../library.meam Ni Si ./../../NiSi.meam Ni Si
#-----------------------

# Setup neighbor style
neighbor 1.0 nsq
neigh_modify once no every 1 delay 0 check yes

# Setup minimization style
min_style	     cg
min_modify	     dmax ${dmax} line quadratic
min_modify	     dmax 0.01 line quadratic

# Setup output
thermo		1
thermo_style custom step temp pe press pxx pyy pzz pxy pxz pyz lx ly lz vol
thermo_modify norm no

# Negative deformation

variable delta equal -${up}*${len0}
variable delta equal -1e-06*${len0}
variable delta equal -1e-06*6.81085253936462
variable deltaxy equal -${up}*xy
variable deltaxy equal -1e-06*xy
variable deltaxz equal -${up}*xz
variable deltaxz equal -1e-06*xz
variable deltayz equal -${up}*yz
variable deltayz equal -1e-06*yz
if "${dir} == 1" then    "change_box all x delta 0 ${delta} xy delta ${deltaxy} xz delta ${deltaxz} remap units box"
change_box all x delta 0 ${delta} xy delta ${deltaxy} xz delta ${deltaxz} remap units box
change_box all x delta 0 -6.81085253936462e-06 xy delta ${deltaxy} xz delta ${deltaxz} remap units box
change_box all x delta 0 -6.81085253936462e-06 xy delta -0 xz delta ${deltaxz} remap units box
change_box all x delta 0 -6.81085253936462e-06 xy delta -0 xz delta -0 remap units box
Changing box ...
  triclinic box = (0.049622865 0.049622865 0.049622865) to (6.8604686 10.265902 13.671328) with tilt (0 0 0)
  triclinic box = (0.049622865 0.049622865 0.049622865) to (6.8604686 10.265902 13.671328) with tilt (0 0 0)
  triclinic box = (0.049622865 0.049622865 0.049622865) to (6.8604686 10.265902 13.671328) with tilt (0 0 0)
if "${dir} == 2" then    "change_box all y delta 0 ${delta} yz delta ${deltayz} remap units box"
if "${dir} == 3" then    "change_box all z delta 0 ${delta} remap units box"
if "${dir} == 4" then    "change_box all yz delta ${delta} remap units box"
if "${dir} == 5" then    "change_box all xz delta ${delta} remap units box"
if "${dir} == 6" then    "change_box all xy delta ${delta} remap units box"

# Relax atoms positions

minimize ${etol} ${ftol} ${maxiter} ${maxeval}
minimize 0 ${ftol} ${maxiter} ${maxeval}
minimize 0 1e-10 ${maxiter} ${maxeval}
minimize 0 1e-10 10000 ${maxeval}
minimize 0 1e-10 10000 1000000
Neighbor list info ...
  update: every = 1 steps, delay = 0 steps, check = yes
  max neighbors/atom: 2000, page size: 100000
  master list distance cutoff = 5
  ghost atom cutoff = 5
  2 neighbor lists, perpetual/occasional/extra = 2 0 0
  (1) pair meam, perpetual
      attributes: full, newton on
      pair build: full/nsq
      stencil: none
      bin: none
  (2) pair meam, perpetual, half/full from (1)
      attributes: half, newton on
      pair build: halffull/newton
      stencil: none
      bin: none
Per MPI rank memory allocation (min/avg/max) = 9.768 | 9.768 | 9.769 Mbytes
   Step          Temp          PotEng         Press           Pxx            Pyy            Pzz            Pxy            Pxz            Pyz             Lx             Ly             Lz           Volume    
         1   0             -431.52         2.9187066      3.3432397      2.7063946      2.7064854      3.485836e-05   5.1224487e-05  0.00042724973  6.8108457      10.216279      13.621705      947.81866    
         2   0             -431.52         2.91799        3.342533       2.7056973      2.7057397     -4.2918969e-05  0.00012140659  3.4052938e-05  6.8108457      10.216279      13.621705      947.81866    
         3   0             -431.52         2.917891       3.3424388      2.7055918      2.7056424     -2.2906646e-05  4.4676538e-05 -1.701178e-05   6.8108457      10.216279      13.621705      947.81866    
         4   0             -431.52         2.9178466      3.3424072      2.7055588      2.7055737      6.8376962e-06  7.0157504e-06 -9.6280653e-06  6.8108457      10.216279      13.621705      947.81866    
         5   0             -431.52         2.9178133      3.3423736      2.7055347      2.7055315      1.7897058e-05 -1.3511898e-06  4.5979821e-06  6.8108457      10.216279      13.621705      947.81866    
         6   0             -431.52         2.9177929      3.3423546      2.7055136      2.7055106      7.2563596e-06 -1.3833975e-06  5.203684e-06   6.8108457      10.216279      13.621705      947.81866    
         7   0             -431.52         2.9177802      3.3423399      2.7055         2.7055007      6.0534358e-07  3.6286268e-07  2.161992e-06   6.8108457      10.216279      13.621705      947.81866    
         8   0             -431.52         2.9177703      3.3423286      2.7054897      2.7054926     -1.2022661e-06  1.5111379e-06  7.7778466e-07  6.8108457      10.216279      13.621705      947.81866    
         9   0             -431.52         2.9177652      3.3423218      2.7054861      2.7054877     -2.2949454e-06  5.54227e-07    2.9293396e-06  6.8108457      10.216279      13.621705      947.81866    
        10   0             -431.52         2.9177622      3.342318       2.7054845      2.7054842     -8.9791937e-07 -2.4128584e-08  3.3570478e-06  6.8108457      10.216279      13.621705      947.81866    
        11   0             -431.52         2.9177601      3.3423156      2.7054828      2.7054818      1.4735743e-07 -9.6052097e-08  2.7623327e-06  6.8108457      10.216279      13.621705      947.81866    
        12   0             -431.52         2.9177581      3.3423133      2.705481       2.70548        3.8254648e-07  1.1839454e-07  2.1641997e-06  6.8108457      10.216279      13.621705      947.81866    
        13   0             -431.52         2.9177566      3.3423116      2.7054796      2.7054785      7.4749794e-08  2.7312363e-07  1.6588708e-06  6.8108457      10.216279      13.621705      947.81866    
        14   0             -431.52         2.9177555      3.3423105      2.7054785      2.7054774      6.1137323e-09  2.3846966e-07  1.1123882e-06  6.8108457      10.216279      13.621705      947.81866    
        15   0             -431.52         2.9177546      3.3423097      2.7054774      2.7054766      5.9161719e-08  8.896871e-08   6.6828044e-07  6.8108457      10.216279      13.621705      947.81866    
        16   0             -431.52         2.9177541      3.3423093      2.7054767      2.7054761      5.5406532e-08  5.9411382e-08  5.8467874e-07  6.8108457      10.216279      13.621705      947.81866    
        17   0             -431.52         2.9177538      3.3423091      2.7054763      2.7054759      4.2218947e-08  5.7727958e-08  5.5528103e-07  6.8108457      10.216279      13.621705      947.81866    
        18   0             -431.52         2.9177536      3.342309       2.7054761      2.7054757      3.4946069e-09  3.8141005e-08  4.250414e-07   6.8108457      10.216279      13.621705      947.81866    
        19   0             -431.52         2.9177534      3.3423089      2.7054758      2.7054755     -1.0724883e-08  1.9021208e-08  2.8841678e-07  6.8108457      10.216279      13.621705      947.81866    
        20   0             -431.52         2.9177532      3.3423088      2.7054755      2.7054753      9.6359268e-10  7.78912e-10    2.0386316e-07  6.8108457      10.216279      13.621705      947.81866    
        21   0             -431.52         2.9177531      3.3423087      2.7054753      2.7054752      7.2084127e-10 -1.1450547e-08  1.3241764e-07  6.8108457      10.216279      13.621705      947.81866    
        22   0             -431.52         2.917753       3.3423086      2.7054752      2.7054751     -1.4031726e-08  2.1377865e-09  9.0616246e-08  6.8108457      10.216279      13.621705      947.81866    
        23   0             -431.52         2.9177529      3.3423086      2.7054751      2.7054751     -1.2471905e-08  1.3268985e-08  6.8358559e-08  6.8108457      10.216279      13.621705      947.81866    
        24   0             -431.52         2.9177529      3.3423086      2.7054751      2.705475      -5.8860884e-09  1.1128578e-08  4.2232636e-08  6.8108457      10.216279      13.621705      947.81866    
        25   0             -431.52         2.9177529      3.3423086      2.705475       2.705475      -1.6158405e-09  4.0486959e-09  1.4871333e-08  6.8108457      10.216279      13.621705      947.81866    
        26   0             -431.52         2.9177528      3.3423086      2.705475       2.705475       1.1234877e-09  8.5411644e-10  6.6368704e-09  6.8108457      10.216279      13.621705      947.81866    
        27   0             -431.52         2.9177528      3.3423086      2.705475       2.705475       1.1484478e-09  1.8303417e-10  4.0039527e-09  6.8108457      10.216279      13.621705      947.81866    
        28   0             -431.52         2.9177528      3.3423086      2.705475       2.705475       3.9983138e-10 -5.2972848e-11  3.0859668e-09  6.8108457      10.216279      13.621705      947.81866    
        29   0             -431.52         2.9177528      3.3423085      2.705475       2.705475       2.6273829e-10 -1.3221557e-09  1.2674483e-09  6.8108457      10.216279      13.621705      947.81866    
        30   0             -431.52         2.9177528      3.3423085      2.705475       2.705475       9.3656817e-10 -5.6123215e-10  8.9882886e-10  6.8108457      10.216279      13.621705      947.81866    
        31   0             -431.52         2.9177528      3.3423085      2.705475       2.705475       4.6823717e-11 -4.886551e-10   1.7207012e-10  6.8108457      10.216279      13.621705      947.81866    
        32   0             -431.52         2.9177528      3.3423085      2.705475       2.705475       2.1863579e-10 -7.775118e-11   1.3352149e-10  6.8108457      10.216279      13.621705      947.81866    
        33   0             -431.52         2.9177528      3.3423085      2.705475       2.705475       8.7266646e-12 -1.0942493e-10  4.5725993e-10  6.8108457      10.216279      13.621705      947.81866    
        34   0             -431.52         2.9177528      3.3423085      2.705475       2.705475       2.4415894e-10 -5.1580717e-10 -1.8371154e-11  6.8108457      10.216279      13.621705      947.81866    
        35   0             -431.52         2.9177528      3.3423085      2.705475       2.705475      -5.6301062e-11  1.5491443e-10 -1.9567551e-11  6.8108457      10.216279      13.621705      947.81866    
        36   0             -431.52         2.9177528      3.3423085      2.705475       2.705475       4.840953e-10  -1.4267334e-10 -2.3597036e-10  6.8108457      10.216279      13.621705      947.81866    
        37   0             -431.52         2.9177528      3.3423085      2.705475       2.705475      -6.5187247e-10  3.2745079e-10 -4.8557027e-10  6.8108457      10.216279      13.621705      947.81866    
        38   0             -431.52         2.9177528      3.3423085      2.705475       2.705475      -1.8673186e-11 -1.8563956e-10  4.19179e-12    6.8108457      10.216279      13.621705      947.81866    
        39   0             -431.52         2.9177528      3.3423085      2.705475       2.705475      -1.2386234e-11 -5.9840405e-11 -5.9099987e-11  6.8108457      10.216279      13.621705      947.81866    
        40   0             -431.52         2.9177528      3.3423085      2.705475       2.705475      -4.1287446e-12 -2.4384518e-10 -1.0594423e-10  6.8108457      10.216279      13.621705      947.81866    
        41   0             -431.52         2.9177528      3.3423085      2.705475       2.705475      -1.7809903e-10 -2.4130283e-10 -2.5965933e-11  6.8108457      10.216279      13.621705      947.81866    
        42   0             -431.52         2.9177528      3.3423085      2.705475       2.705475       2.7671972e-10  6.7580335e-11 -4.8222446e-10  6.8108457      10.216279      13.621705      947.81866    
        43   0             -431.52         2.9177528      3.3423085      2.705475       2.705475       5.316697e-10  -5.7503325e-11  1.448946e-10   6.8108457      10.216279      13.621705      947.81866    
        44   0             -431.52         2.9177528      3.3423085      2.705475       2.705475       1.0218643e-10 -1.7761079e-10 -2.3310986e-10  6.8108457      10.216279      13.621705      947.81866    
        45   0             -431.52         2.9177528      3.3423085      2.705475       2.705475      -6.0260904e-10  4.3802373e-10 -1.6838709e-10  6.8108457      10.216279      13.621705      947.81866    
        46   0             -431.52         2.9177528      3.3423085      2.705475       2.705475       2.3158504e-10 -5.8495924e-11  8.873282e-12   6.8108457      10.216279      13.621705      947.81866    
        47   0             -431.52         2.9177528      3.3423085      2.705475       2.705475      -4.5988584e-10 -1.0669345e-11  1.0072612e-10  6.8108457      10.216279      13.621705      947.81866    
        48   0             -431.52         2.9177528      3.3423085      2.705475       2.705475       1.1635553e-10 -3.5430816e-10  7.251181e-10   6.8108457      10.216279      13.621705      947.81866    
        49   0             -431.52         2.9177528      3.3423085      2.705475       2.705475       3.4634537e-10  3.898482e-10  -3.6805353e-11  6.8108457      10.216279      13.621705      947.81866    
        50   0             -431.52         2.9177528      3.3423085      2.705475       2.705475      -6.3526365e-11 -1.8085983e-10 -3.43067e-10    6.8108457      10.216279      13.621705      947.81866    
        51   0             -431.52         2.9177528      3.3423085      2.705475       2.705475      -2.2670561e-10 -1.973924e-10   5.2101795e-10  6.8108457      10.216279      13.621705      947.81866    
        52   0             -431.52         2.9177528      3.3423085      2.705475       2.705475      -2.8610323e-10 -3.5762904e-11 -5.864694e-13   6.8108457      10.216279      13.621705      947.81866    
        53   0             -431.52         2.9177528      3.3423085      2.705475       2.705475      -7.4223567e-11  2.3339283e-10 -4.0712706e-11  6.8108457      10.216279      13.621705      947.81866    
        54   0             -431.52         2.9177528      3.3423085      2.705475       2.705475      -1.5933201e-10 -8.8718158e-11 -3.57956e-10    6.8108457      10.216279      13.621705      947.81866    
        55   0             -431.52         2.9177528      3.3423085      2.705475       2.705475       4.047108e-10   3.8925587e-10 -9.0350009e-11  6.8108457      10.216279      13.621705      947.81866    
        56   0             -431.52         2.9177528      3.3423085      2.705475       2.705475       1.4957316e-10 -1.3642744e-11  1.1982156e-10  6.8108457      10.216279      13.621705      947.81866    
        57   0             -431.52         2.9177528      3.3423085      2.705475       2.705475      -2.1234884e-10 -1.9816801e-10  4.3661767e-10  6.8108457      10.216279      13.621705      947.81866    
        58   0             -431.52         2.9177528      3.3423085      2.705475       2.705475       2.1413171e-10 -1.3866482e-10  1.6533452e-10  6.8108457      10.216279      13.621705      947.81866    
        59   0             -431.52         2.9177528      3.3423085      2.705475       2.705475      -1.6120871e-10  8.0095592e-11  2.2797532e-11  6.8108457      10.216279      13.621705      947.81866    
        60   0             -431.52         2.9177528      3.3423085      2.705475       2.705475       8.2387221e-11  1.0368779e-10 -5.3125477e-10  6.8108457      10.216279      13.621705      947.81866    
        61   0             -431.52         2.9177528      3.3423085      2.705475       2.705475       7.3660556e-11 -1.2446347e-10  1.5340573e-11  6.8108457      10.216279      13.621705      947.81866    
        62   0             -431.52         2.9177528      3.3423085      2.705475       2.705475       2.4368976e-10 -3.1137127e-11  1.0677995e-10  6.8108457      10.216279      13.621705      947.81866    
        63   0             -431.52         2.9177528      3.3423085      2.705475       2.705475       5.3392174e-11 -1.5635861e-10  1.4745747e-10  6.8108457      10.216279      13.621705      947.81866    
        64   0             -431.52         2.9177528      3.3423085      2.705475       2.705475       2.2088783e-10 -1.6273793e-10 -1.0010739e-10  6.8108457      10.216279      13.621705      947.81866    
        65   0             -431.52         2.9177528      3.3423085      2.705475       2.705475      -1.5135602e-10  3.8328561e-10 -3.179016e-10   6.8108457      10.216279      13.621705      947.81866    
        66   0             -431.52         2.9177528      3.3423085      2.705475       2.705475       3.2898587e-10 -8.9647712e-11 -1.8557065e-10  6.8108457      10.216279      13.621705      947.81866    
        67   0             -431.52         2.9177528      3.3423085      2.705475       2.705475      -2.6996359e-10  1.9431491e-10 -1.1498759e-10  6.8108457      10.216279      13.621705      947.81866    
        68   0             -431.52         2.9177528      3.3423085      2.705475       2.705475      -8.7078976e-11 -2.0928014e-10 -2.0416466e-10  6.8108457      10.216279      13.621705      947.81866    
Loop time of 0.0169497 on 4 procs for 67 steps with 96 atoms

46.1% CPU use with 4 MPI tasks x 1 OpenMP threads

Minimization stats:
  Stopping criterion = force tolerance
  Energy initial, next-to-last, final = 
      -431.51999977409  -431.520000018941  -431.520000018942
  Force two-norm initial, final = 0.0065096233 9.9249051e-11
  Force max component initial, final = 0.0010771621 1.8762672e-11
  Final line search alpha, max atom move = 1 1.8762672e-11
  Iterations, force evaluations = 67 134

MPI task timing breakdown:
Section |  min time  |  avg time  |  max time  |%varavg| %total
---------------------------------------------------------------
Pair    | 0.01428    | 0.014625   | 0.014897   |   0.2 | 86.28
Neigh   | 0          | 0          | 0          |   0.0 |  0.00
Comm    | 0.000811   | 0.0010888  | 0.001428   |   0.7 |  6.42
Output  | 0.000583   | 0.00061575 | 0.000702   |   0.0 |  3.63
Modify  | 0          | 0          | 0          |   0.0 |  0.00
Other   |            | 0.0006207  |            |       |  3.66

Nlocal:             24 ave          27 max          20 min
Histogram: 1 0 0 0 0 1 0 1 0 1
Nghost:            300 ave         304 max         297 min
Histogram: 1 0 1 0 1 0 0 0 0 1
Neighs:            648 ave         719 max         552 min
Histogram: 1 0 0 0 1 0 0 0 1 1
FullNghs:         1296 ave        1458 max        1080 min
Histogram: 1 0 0 0 0 1 0 1 0 1

Total # of neighbors = 5184
Ave neighs/atom = 54
Neighbor list builds = 0
Dangerous builds = 0

# Obtain new stress tensor

variable tmp equal pxx
variable pxx1 equal ${tmp}
variable pxx1 equal 3.34230854497421
variable tmp equal pyy
variable pyy1 equal ${tmp}
variable pyy1 equal 2.70547497664025
variable tmp equal pzz
variable pzz1 equal ${tmp}
variable pzz1 equal 2.70547497667966
variable tmp equal pxy
variable pxy1 equal ${tmp}
variable pxy1 equal -8.70789762750079e-11
variable tmp equal pxz
variable pxz1 equal ${tmp}
variable pxz1 equal -2.09280138646928e-10
variable tmp equal pyz
variable pyz1 equal ${tmp}
variable pyz1 equal -2.0416465931935e-10

# Compute elastic constant from pressure tensor

variable C1neg equal ${d1}
variable C1neg equal 334.230854576318
variable C2neg equal ${d2}
variable C2neg equal 270.547497717436
variable C3neg equal ${d3}
variable C3neg equal 270.547497746562
variable C4neg equal ${d4}
variable C4neg equal 7.2977042448408e-09
variable C5neg equal ${d5}
variable C5neg equal 2.29773872719701e-08
variable C6neg equal ${d6}
variable C6neg equal 5.09148676690062e-08

# Reset box and simulation parameters

clear
  using 1 OpenMP thread(s) per MPI task
Loaded 1 plugins from C:\Program Files\LAMMPS 64-bit 23Jun2022\plugins
Loaded 0 plugins from C:\Program Files\LAMMPS 64-bit 23Jun2022-MPI\plugins
Loaded 1 plugins from C:\Program Files\LAMMPS 64-bit 22Dec2022-MSMPI\plugins
Loaded 1 plugins from C:\Program Files\LAMMPS 64-bit 28Mar2023-MPI\plugins
box tilt large

The 'box' command has been removed and will be ignored

read_restart restart.equil
Reading restart file ...
  restart file = 22 Dec 2022, LAMMPS = 22 Dec 2022
  restoring atom style atomic from restart
  triclinic box = (0.049622865 0.049622865 0.049622865) to (6.8604754 10.265902 13.671328) with tilt (0 0 0)
  1 by 2 by 2 MPI processor grid
  pair style meam stores no restart info
  96 atoms
  read_restart CPU = 0.000 seconds
include potential.mod
# NOTE: This script can be modified for different pair styles
# See in.elastic for more info.

# Choose potential
#-----------------------
#pair_style	sw
#pair_coeff * * Si.sw Si
#-----------------------
#pair_style morse	2.83994742	# D0[eV] a[1/A] r0[A] rc[A], 1NN for BCC
#pair_coeff 1 1	2.1173	1.0202	2.4595	2.6497	#	Fe-Fe
#-----------------------
#pair_style smatb # R0(A)   p       q     A(eV)   xi(eV)  Rcs(A)   Rc(A), 4NN: Rcs=4NN, Rc=(4NN+5NN)/2
#pair_coeff 1 1	2.4802	7.0149	2.3779	0.3144	3.0551	4.033	4.176	#	Co	Co
#-----------------------
#pair_style eam/alloy
#pair_coeff * * AlCrFeCoNi_Zhou04.eam.alloy Fe
#-----------------------
pair_style meam
pair_coeff * * ./../../library.meam Ni Si ./../../NiSi.meam Ni Si
#-----------------------

# Setup neighbor style
neighbor 1.0 nsq
neigh_modify once no every 1 delay 0 check yes

# Setup minimization style
min_style	     cg
min_modify	     dmax ${dmax} line quadratic
min_modify	     dmax 0.01 line quadratic

# Setup output
thermo		1
thermo_style custom step temp pe press pxx pyy pzz pxy pxz pyz lx ly lz vol
thermo_modify norm no

# Positive deformation

variable delta equal ${up}*${len0}
variable delta equal 1e-06*${len0}
variable delta equal 1e-06*6.81085253936462
variable deltaxy equal ${up}*xy
variable deltaxy equal 1e-06*xy
variable deltaxz equal ${up}*xz
variable deltaxz equal 1e-06*xz
variable deltayz equal ${up}*yz
variable deltayz equal 1e-06*yz
if "${dir} == 1" then    "change_box all x delta 0 ${delta} xy delta ${deltaxy} xz delta ${deltaxz} remap units box"
change_box all x delta 0 ${delta} xy delta ${deltaxy} xz delta ${deltaxz} remap units box
change_box all x delta 0 6.81085253936462e-06 xy delta ${deltaxy} xz delta ${deltaxz} remap units box
change_box all x delta 0 6.81085253936462e-06 xy delta 0 xz delta ${deltaxz} remap units box
change_box all x delta 0 6.81085253936462e-06 xy delta 0 xz delta 0 remap units box
Changing box ...
  triclinic box = (0.049622865 0.049622865 0.049622865) to (6.8604822 10.265902 13.671328) with tilt (0 0 0)
  triclinic box = (0.049622865 0.049622865 0.049622865) to (6.8604822 10.265902 13.671328) with tilt (0 0 0)
  triclinic box = (0.049622865 0.049622865 0.049622865) to (6.8604822 10.265902 13.671328) with tilt (0 0 0)
if "${dir} == 2" then    "change_box all y delta 0 ${delta} yz delta ${deltayz} remap units box"
if "${dir} == 3" then    "change_box all z delta 0 ${delta} remap units box"
if "${dir} == 4" then    "change_box all yz delta ${delta} remap units box"
if "${dir} == 5" then    "change_box all xz delta ${delta} remap units box"
if "${dir} == 6" then    "change_box all xy delta ${delta} remap units box"

# Relax atoms positions

minimize ${etol} ${ftol} ${maxiter} ${maxeval}
minimize 0 ${ftol} ${maxiter} ${maxeval}
minimize 0 1e-10 ${maxiter} ${maxeval}
minimize 0 1e-10 10000 ${maxeval}
minimize 0 1e-10 10000 1000000
Neighbor list info ...
  update: every = 1 steps, delay = 0 steps, check = yes
  max neighbors/atom: 2000, page size: 100000
  master list distance cutoff = 5
  ghost atom cutoff = 5
  2 neighbor lists, perpetual/occasional/extra = 2 0 0
  (1) pair meam, perpetual
      attributes: full, newton on
      pair build: full/nsq
      stencil: none
      bin: none
  (2) pair meam, perpetual, half/full from (1)
      attributes: half, newton on
      pair build: halffull/newton
      stencil: none
      bin: none
Per MPI rank memory allocation (min/avg/max) = 9.768 | 9.768 | 9.769 Mbytes
   Step          Temp          PotEng         Press           Pxx            Pyy            Pzz            Pxy            Pxz            Pyz             Lx             Ly             Lz           Volume    
         1   0             -431.52        -2.91678       -3.341355      -2.7045379     -2.7044471      3.4858226e-05  5.1223763e-05  0.00042724821  6.8108594      10.216279      13.621705      947.82055    
         2   0             -431.52        -2.9174966     -3.3420618     -2.7052351     -2.7051928     -4.29204e-05    0.00012140569  3.4052147e-05  6.8108594      10.216279      13.621705      947.82055    
         3   0             -431.52        -2.9175956     -3.3421559     -2.7053407     -2.7052901     -2.2906968e-05  4.4676776e-05 -1.7012563e-05  6.8108594      10.216279      13.621705      947.82055    
         4   0             -431.52        -2.91764       -3.3421875     -2.7053737     -2.7053588      6.8375901e-06  7.0162467e-06 -9.6282022e-06  6.8108594      10.216279      13.621705      947.82055    
         5   0             -431.52        -2.9176733     -3.3422212     -2.7053978     -2.705401       1.7896974e-05 -1.3508045e-06  4.5981835e-06  6.8108594      10.216279      13.621705      947.82055    
         6   0             -431.52        -2.9176936     -3.3422401     -2.7054189     -2.7054219      7.2567412e-06 -1.3832983e-06  5.2031968e-06  6.8108594      10.216279      13.621705      947.82055    
         7   0             -431.52        -2.9177064     -3.3422549     -2.7054325     -2.7054318      6.0566028e-07  3.6287855e-07  2.1621414e-06  6.8108594      10.216279      13.621705      947.82055    
         8   0             -431.52        -2.9177163     -3.3422661     -2.7054428     -2.7054398     -1.202687e-06   1.5114509e-06  7.7772995e-07  6.8108594      10.216279      13.621705      947.82055    
         9   0             -431.52        -2.9177214     -3.342273      -2.7054464     -2.7054448     -2.295497e-06   5.5435759e-07  2.9294162e-06  6.8108594      10.216279      13.621705      947.82055    
        10   0             -431.52        -2.9177244     -3.3422767     -2.705448      -2.7054483     -8.9859253e-07 -2.4931889e-08  3.3574773e-06  6.8108594      10.216279      13.621705      947.82055    
        11   0             -431.52        -2.9177265     -3.3422792     -2.7054497     -2.7054507      1.4677658e-07 -9.5998497e-08  2.7628837e-06  6.8108594      10.216279      13.621705      947.82055    
        12   0             -431.52        -2.9177284     -3.3422814     -2.7054514     -2.7054525      3.8246661e-07  1.1816857e-07  2.1641392e-06  6.8108594      10.216279      13.621705      947.82055    
        13   0             -431.52        -2.91773       -3.3422831     -2.7054529     -2.705454       7.4736414e-08  2.7309719e-07  1.6581478e-06  6.8108594      10.216279      13.621705      947.82055    
        14   0             -431.52        -2.9177311     -3.3422842     -2.7054539     -2.7054551      6.2791511e-09  2.3806606e-07  1.1122755e-06  6.8108594      10.216279      13.621705      947.82055    
        15   0             -431.52        -2.917732      -3.342285      -2.7054551     -2.7054559      5.9225596e-08  8.8756928e-08  6.6768329e-07  6.8108594      10.216279      13.621705      947.82055    
        16   0             -431.52        -2.9177325     -3.3422854     -2.7054558     -2.7054563      5.5879631e-08  5.9273527e-08  5.8487097e-07  6.8108594      10.216279      13.621705      947.82055    
        17   0             -431.52        -2.9177328     -3.3422856     -2.7054562     -2.7054566      4.2237629e-08  5.7513572e-08  5.552758e-07   6.8108594      10.216279      13.621705      947.82055    
        18   0             -431.52        -2.917733      -3.3422858     -2.7054564     -2.7054568      3.3798398e-09  3.8747335e-08  4.2488865e-07  6.8108594      10.216279      13.621705      947.82055    
        19   0             -431.52        -2.9177332     -3.3422859     -2.7054567     -2.705457      -1.0939368e-08  1.8844268e-08  2.8900967e-07  6.8108594      10.216279      13.621705      947.82055    
        20   0             -431.52        -2.9177334     -3.342286      -2.7054569     -2.7054571      1.0212054e-09  7.7093887e-10  2.0364126e-07  6.8108594      10.216279      13.621705      947.82055    
        21   0             -431.52        -2.9177335     -3.3422861     -2.7054572     -2.7054573      1.0795707e-09 -1.1387219e-08  1.3216063e-07  6.8108594      10.216279      13.621705      947.82055    
        22   0             -431.52        -2.9177336     -3.3422861     -2.7054573     -2.7054574     -1.3780971e-08  1.3786006e-09  9.0334405e-08  6.8108594      10.216279      13.621705      947.82055    
        23   0             -431.52        -2.9177336     -3.3422861     -2.7054574     -2.7054574     -1.2481921e-08  1.3907557e-08  6.8683517e-08  6.8108594      10.216279      13.621705      947.82055    
        24   0             -431.52        -2.9177337     -3.3422862     -2.7054574     -2.7054574     -6.470199e-09   1.1560982e-08  4.1890544e-08  6.8108594      10.216279      13.621705      947.82055    
        25   0             -431.52        -2.9177337     -3.3422862     -2.7054575     -2.7054575     -1.6112393e-09  4.3814572e-09  1.4893167e-08  6.8108594      10.216279      13.621705      947.82055    
        26   0             -431.52        -2.9177337     -3.3422862     -2.7054575     -2.7054575      8.2996983e-10  1.219568e-09   6.9432926e-09  6.8108594      10.216279      13.621705      947.82055    
        27   0             -431.52        -2.9177337     -3.3422862     -2.7054575     -2.7054575      1.3386489e-09 -1.7104492e-10  4.1466309e-09  6.8108594      10.216279      13.621705      947.82055    
        28   0             -431.52        -2.9177337     -3.3422862     -2.7054575     -2.7054575      8.8101603e-10 -5.078331e-10   2.954451e-09   6.8108594      10.216279      13.621705      947.82055    
        29   0             -431.52        -2.9177337     -3.3422862     -2.7054575     -2.7054575      8.4657861e-10 -9.3138045e-10  1.4507508e-09  6.8108594      10.216279      13.621705      947.82055    
        30   0             -431.52        -2.9177337     -3.3422862     -2.7054575     -2.7054575      4.6589036e-10 -3.1075338e-10  3.7341898e-10  6.8108594      10.216279      13.621705      947.82055    
        31   0             -431.52        -2.9177337     -3.3422862     -2.7054575     -2.7054575      3.7008491e-10 -4.8652084e-10  6.8482921e-10  6.8108594      10.216279      13.621705      947.82055    
        32   0             -431.52        -2.9177337     -3.3422862     -2.7054575     -2.7054575     -5.3485902e-12 -4.1857117e-10  4.6135989e-11  6.8108594      10.216279      13.621705      947.82055    
        33   0             -431.52        -2.9177337     -3.3422862     -2.7054575     -2.7054575     -2.7305961e-11 -3.8863343e-10  1.2451307e-10  6.8108594      10.216279      13.621705      947.82055    
        34   0             -431.52        -2.9177337     -3.3422862     -2.7054575     -2.7054575     -8.8486326e-11 -3.4270417e-10 -6.233864e-11   6.8108594      10.216279      13.621705      947.82055    
        35   0             -431.52        -2.9177337     -3.3422862     -2.7054575     -2.7054575     -2.252038e-12   3.0002541e-10  9.7500342e-12  6.8108594      10.216279      13.621705      947.82055    
        36   0             -431.52        -2.9177337     -3.3422862     -2.7054575     -2.7054575      5.53626e-12   -1.116049e-10  -1.04428e-10    6.8108594      10.216279      13.621705      947.82055    
        37   0             -431.52        -2.9177337     -3.3422862     -2.7054575     -2.7054575      1.2967985e-10  3.5046022e-10 -6.0659875e-11  6.8108594      10.216279      13.621705      947.82055    
        38   0             -431.52        -2.9177337     -3.3422862     -2.7054575     -2.7054575     -4.2976392e-11  1.3560025e-10  1.2924294e-10  6.8108594      10.216279      13.621705      947.82055    
        39   0             -431.52        -2.9177337     -3.3422862     -2.7054575     -2.7054575     -3.9889223e-10 -1.8023195e-10 -1.3563397e-10  6.8108594      10.216279      13.621705      947.82055    
        40   0             -431.52        -2.9177337     -3.3422862     -2.7054575     -2.7054575     -5.92849e-10    6.4356091e-10 -2.9791853e-10  6.8108594      10.216279      13.621705      947.82055    
        41   0             -431.52        -2.9177337     -3.3422862     -2.7054575     -2.7054575      7.6287787e-11 -1.6089902e-10 -1.8483426e-10  6.8108594      10.216279      13.621705      947.82055    
        42   0             -431.52        -2.9177337     -3.3422862     -2.7054575     -2.7054575      7.272206e-11   4.1286337e-10 -3.3096161e-10  6.8108594      10.216279      13.621705      947.82055    
        43   0             -431.52        -2.9177337     -3.3422862     -2.7054575     -2.7054575     -8.914317e-11   2.397746e-10  -1.2264224e-10  6.8108594      10.216279      13.621705      947.82055    
        44   0             -431.52        -2.9177337     -3.3422862     -2.7054575     -2.7054575      2.1628948e-10 -2.9014049e-11 -4.6450776e-10  6.8108594      10.216279      13.621705      947.82055    
        45   0             -431.52        -2.9177337     -3.3422862     -2.7054575     -2.7054575      7.1502206e-11  1.6996289e-10 -1.470745e-10   6.8108594      10.216279      13.621705      947.82055    
        46   0             -431.52        -2.9177337     -3.3422862     -2.7054575     -2.7054575      2.2604831e-10 -3.2167782e-11 -1.0238269e-10  6.8108594      10.216279      13.621705      947.82055    
        47   0             -431.52        -2.9177337     -3.3422862     -2.7054575     -2.7054575      2.1704016e-10  8.6244551e-11  3.7250996e-11  6.8108594      10.216279      13.621705      947.82055    
        48   0             -431.52        -2.9177337     -3.3422862     -2.7054575     -2.7054575      1.3418393e-10 -4.1850959e-10  1.7517806e-11  6.8108594      10.216279      13.621705      947.82055    
        49   0             -431.52        -2.9177337     -3.3422862     -2.7054575     -2.7054575      2.0258958e-10  2.8406908e-10 -1.3758251e-10  6.8108594      10.216279      13.621705      947.82055    
        50   0             -431.52        -2.9177337     -3.3422862     -2.7054575     -2.7054575      1.3146272e-10 -1.5352272e-11  6.8591857e-11  6.8108594      10.216279      13.621705      947.82055    
        51   0             -431.52        -2.9177337     -3.3422862     -2.7054575     -2.7054575      1.0612729e-10 -3.2839142e-10  1.750637e-10   6.8108594      10.216279      13.621705      947.82055    
        52   0             -431.52        -2.9177337     -3.3422862     -2.7054575     -2.7054575      2.4209408e-11  2.1396707e-10 -1.7268264e-10  6.8108594      10.216279      13.621705      947.82055    
        53   0             -431.52        -2.9177337     -3.3422862     -2.7054575     -2.7054575     -9.3365741e-11  1.2623289e-10  1.655028e-10   6.8108594      10.216279      13.621705      947.82055    
        54   0             -431.52        -2.9177337     -3.3422862     -2.7054575     -2.7054575     -2.867595e-10  -5.2628192e-11  1.8046654e-10  6.8108594      10.216279      13.621705      947.82055    
        55   0             -431.52        -2.9177337     -3.3422862     -2.7054575     -2.7054575     -1.244251e-10  -6.7606884e-10 -1.1493458e-10  6.8108594      10.216279      13.621705      947.82055    
        56   0             -431.52        -2.9177337     -3.3422862     -2.7054575     -2.7054575     -3.8078209e-10 -4.9808893e-10  1.1051407e-10  6.8108594      10.216279      13.621705      947.82055    
        57   0             -431.52        -2.9177337     -3.3422862     -2.7054575     -2.7054575     -1.5013587e-10  3.1483374e-10  6.416109e-11   6.8108594      10.216279      13.621705      947.82055    
        58   0             -431.52        -2.9177337     -3.3422862     -2.7054575     -2.7054575      4.3802139e-10 -2.1503884e-10  3.693269e-10   6.8108594      10.216279      13.621705      947.82055    
        59   0             -431.52        -2.9177337     -3.3422862     -2.7054575     -2.7054575     -6.5684441e-11 -1.6880608e-10  5.028965e-13   6.8108594      10.216279      13.621705      947.82055    
        60   0             -431.52        -2.9177337     -3.3422862     -2.7054575     -2.7054575     -6.4464587e-11 -7.8646855e-11  1.3136888e-11  6.8108594      10.216279      13.621705      947.82055    
        61   0             -431.52        -2.9177337     -3.3422862     -2.7054575     -2.7054575     -1.0378142e-10 -1.2950685e-11 -4.1170803e-10  6.8108594      10.216279      13.621705      947.82055    
        62   0             -431.52        -2.9177337     -3.3422862     -2.7054575     -2.7054575     -6.2681724e-11  3.3016695e-11  2.893385e-10   6.8108594      10.216279      13.621705      947.82055    
        63   0             -431.52        -2.9177337     -3.3422862     -2.7054575     -2.7054575     -4.958237e-10  -1.4759646e-10 -2.5174149e-11  6.8108594      10.216279      13.621705      947.82055    
        64   0             -431.52        -2.9177337     -3.3422862     -2.7054575     -2.7054575     -8.7923316e-11 -1.0745564e-11 -3.0207952e-10  6.8108594      10.216279      13.621705      947.82055    
        65   0             -431.52        -2.9177337     -3.3422862     -2.7054575     -2.7054575      2.1544497e-10 -7.7912304e-11 -3.032334e-11   6.8108594      10.216279      13.621705      947.82055    
        66   0             -431.52        -2.9177337     -3.3422862     -2.7054575     -2.7054575     -2.9867654e-10 -2.7476183e-10 -1.9214312e-10  6.8108594      10.216279      13.621705      947.82055    
        67   0             -431.52        -2.9177337     -3.3422862     -2.7054575     -2.7054575     -2.4584748e-11  4.3156731e-11  1.6658923e-10  6.8108594      10.216279      13.621705      947.82055    
        68   0             -431.52        -2.9177337     -3.3422862     -2.7054575     -2.7054575     -2.8112941e-10 -9.9539786e-11 -2.4617297e-10  6.8108594      10.216279      13.621705      947.82055    
Loop time of 0.0217978 on 4 procs for 67 steps with 96 atoms

53.8% CPU use with 4 MPI tasks x 1 OpenMP threads

Minimization stats:
  Stopping criterion = force tolerance
  Energy initial, next-to-last, final = 
     -431.519999774093  -431.520000018942  -431.520000018941
  Force two-norm initial, final = 0.0065095944 7.0009945e-11
  Force max component initial, final = 0.0010771604 1.5544785e-11
  Final line search alpha, max atom move = 1 1.5544785e-11
  Iterations, force evaluations = 67 134

MPI task timing breakdown:
Section |  min time  |  avg time  |  max time  |%varavg| %total
---------------------------------------------------------------
Pair    | 0.017325   | 0.018248   | 0.018997   |   0.5 | 83.71
Neigh   | 0          | 0          | 0          |   0.0 |  0.00
Comm    | 0.001305   | 0.0020588  | 0.002979   |   1.5 |  9.44
Output  | 0.000654   | 0.000733   | 0.000761   |   0.0 |  3.36
Modify  | 0          | 0          | 0          |   0.0 |  0.00
Other   |            | 0.0007583  |            |       |  3.48

Nlocal:             24 ave          27 max          20 min
Histogram: 1 0 0 0 0 1 0 1 0 1
Nghost:            300 ave         304 max         297 min
Histogram: 1 0 1 0 1 0 0 0 0 1
Neighs:            648 ave         719 max         552 min
Histogram: 1 0 0 0 1 0 0 0 1 1
FullNghs:         1296 ave        1458 max        1080 min
Histogram: 1 0 0 0 0 1 0 1 0 1

Total # of neighbors = 5184
Ave neighs/atom = 54
Neighbor list builds = 0
Dangerous builds = 0

# Obtain new stress tensor

variable tmp equal pe
variable e1 equal ${tmp}
variable e1 equal -431.520000018941
variable tmp equal press
variable p1 equal ${tmp}
variable p1 equal -2.91773374021413
variable tmp equal pxx
variable pxx1 equal ${tmp}
variable pxx1 equal -3.34228619666078
variable tmp equal pyy
variable pyy1 equal ${tmp}
variable pyy1 equal -2.70545751196453
variable tmp equal pzz
variable pzz1 equal ${tmp}
variable pzz1 equal -2.70545751201708
variable tmp equal pxy
variable pxy1 equal ${tmp}
variable pxy1 equal -2.81129408559504e-10
variable tmp equal pxz
variable pxz1 equal ${tmp}
variable pxz1 equal -9.95397857378237e-11
variable tmp equal pyz
variable pyz1 equal ${tmp}
variable pyz1 equal -2.46172969980588e-10

# Compute elastic constant from pressure tensor

variable C1pos equal ${d1}
variable C1pos equal 334.228619587182
variable C2pos equal ${d2}
variable C2pos equal 270.545751143042
variable C3pos equal ${d3}
variable C3pos equal 270.545751123112
variable C4pos equal ${d4}
variable C4pos equal -3.096873178717e-09
variable C5pos equal ${d5}
variable C5pos equal -3.39514225628805e-08
variable C6pos equal ${d6}
variable C6pos equal -3.15098244405566e-08

# Combine positive and negative

variable C1${dir} equal 0.5*(${C1neg}+${C1pos})
variable C11 equal 0.5*(${C1neg}+${C1pos})
variable C11 equal 0.5*(334.230854576318+${C1pos})
variable C11 equal 0.5*(334.230854576318+334.228619587182)
variable C2${dir} equal 0.5*(${C2neg}+${C2pos})
variable C21 equal 0.5*(${C2neg}+${C2pos})
variable C21 equal 0.5*(270.547497717436+${C2pos})
variable C21 equal 0.5*(270.547497717436+270.545751143042)
variable C3${dir} equal 0.5*(${C3neg}+${C3pos})
variable C31 equal 0.5*(${C3neg}+${C3pos})
variable C31 equal 0.5*(270.547497746562+${C3pos})
variable C31 equal 0.5*(270.547497746562+270.545751123112)
variable C4${dir} equal 0.5*(${C4neg}+${C4pos})
variable C41 equal 0.5*(${C4neg}+${C4pos})
variable C41 equal 0.5*(7.2977042448408e-09+${C4pos})
variable C41 equal 0.5*(7.2977042448408e-09+-3.096873178717e-09)
variable C5${dir} equal 0.5*(${C5neg}+${C5pos})
variable C51 equal 0.5*(${C5neg}+${C5pos})
variable C51 equal 0.5*(2.29773872719701e-08+${C5pos})
variable C51 equal 0.5*(2.29773872719701e-08+-3.39514225628805e-08)
variable C6${dir} equal 0.5*(${C6neg}+${C6pos})
variable C61 equal 0.5*(${C6neg}+${C6pos})
variable C61 equal 0.5*(5.09148676690062e-08+${C6pos})
variable C61 equal 0.5*(5.09148676690062e-08+-3.15098244405566e-08)

# Delete dir to make sure it is not reused

variable dir delete

# uyy Perturbation

variable dir equal 2
include displace.mod
# NOTE: This script should not need to be
# modified. See in.elastic for more info.
#
# Find which reference length to use

if "${dir} == 1" then    "variable len0 equal ${lx0}"
if "${dir} == 2" then    "variable len0 equal ${ly0}"
variable len0 equal ${ly0}
variable len0 equal 10.2162788090469
if "${dir} == 3" then    "variable len0 equal ${lz0}"
if "${dir} == 4" then    "variable len0 equal ${lz0}"
if "${dir} == 5" then    "variable len0 equal ${lz0}"
if "${dir} == 6" then    "variable len0 equal ${ly0}"

# Reset box and simulation parameters

clear
  using 1 OpenMP thread(s) per MPI task
Loaded 1 plugins from C:\Program Files\LAMMPS 64-bit 23Jun2022\plugins
Loaded 0 plugins from C:\Program Files\LAMMPS 64-bit 23Jun2022-MPI\plugins
Loaded 1 plugins from C:\Program Files\LAMMPS 64-bit 22Dec2022-MSMPI\plugins
Loaded 1 plugins from C:\Program Files\LAMMPS 64-bit 28Mar2023-MPI\plugins
box tilt large

The 'box' command has been removed and will be ignored

read_restart restart.equil
Reading restart file ...
  restart file = 22 Dec 2022, LAMMPS = 22 Dec 2022
  restoring atom style atomic from restart
  triclinic box = (0.049622865 0.049622865 0.049622865) to (6.8604754 10.265902 13.671328) with tilt (0 0 0)
  1 by 2 by 2 MPI processor grid
  pair style meam stores no restart info
  96 atoms
  read_restart CPU = 0.000 seconds
include potential.mod
# NOTE: This script can be modified for different pair styles
# See in.elastic for more info.

# Choose potential
#-----------------------
#pair_style	sw
#pair_coeff * * Si.sw Si
#-----------------------
#pair_style morse	2.83994742	# D0[eV] a[1/A] r0[A] rc[A], 1NN for BCC
#pair_coeff 1 1	2.1173	1.0202	2.4595	2.6497	#	Fe-Fe
#-----------------------
#pair_style smatb # R0(A)   p       q     A(eV)   xi(eV)  Rcs(A)   Rc(A), 4NN: Rcs=4NN, Rc=(4NN+5NN)/2
#pair_coeff 1 1	2.4802	7.0149	2.3779	0.3144	3.0551	4.033	4.176	#	Co	Co
#-----------------------
#pair_style eam/alloy
#pair_coeff * * AlCrFeCoNi_Zhou04.eam.alloy Fe
#-----------------------
pair_style meam
pair_coeff * * ./../../library.meam Ni Si ./../../NiSi.meam Ni Si
#-----------------------

# Setup neighbor style
neighbor 1.0 nsq
neigh_modify once no every 1 delay 0 check yes

# Setup minimization style
min_style	     cg
min_modify	     dmax ${dmax} line quadratic
min_modify	     dmax 0.01 line quadratic

# Setup output
thermo		1
thermo_style custom step temp pe press pxx pyy pzz pxy pxz pyz lx ly lz vol
thermo_modify norm no

# Negative deformation

variable delta equal -${up}*${len0}
variable delta equal -1e-06*${len0}
variable delta equal -1e-06*10.2162788090469
variable deltaxy equal -${up}*xy
variable deltaxy equal -1e-06*xy
variable deltaxz equal -${up}*xz
variable deltaxz equal -1e-06*xz
variable deltayz equal -${up}*yz
variable deltayz equal -1e-06*yz
if "${dir} == 1" then    "change_box all x delta 0 ${delta} xy delta ${deltaxy} xz delta ${deltaxz} remap units box"
if "${dir} == 2" then    "change_box all y delta 0 ${delta} yz delta ${deltayz} remap units box"
change_box all y delta 0 ${delta} yz delta ${deltayz} remap units box
change_box all y delta 0 -1.02162788090469e-05 yz delta ${deltayz} remap units box
change_box all y delta 0 -1.02162788090469e-05 yz delta -0 remap units box
Changing box ...
  triclinic box = (0.049622865 0.049622865 0.049622865) to (6.8604754 10.265891 13.671328) with tilt (0 0 0)
  triclinic box = (0.049622865 0.049622865 0.049622865) to (6.8604754 10.265891 13.671328) with tilt (0 0 0)
if "${dir} == 3" then    "change_box all z delta 0 ${delta} remap units box"
if "${dir} == 4" then    "change_box all yz delta ${delta} remap units box"
if "${dir} == 5" then    "change_box all xz delta ${delta} remap units box"
if "${dir} == 6" then    "change_box all xy delta ${delta} remap units box"

# Relax atoms positions

minimize ${etol} ${ftol} ${maxiter} ${maxeval}
minimize 0 ${ftol} ${maxiter} ${maxeval}
minimize 0 1e-10 ${maxiter} ${maxeval}
minimize 0 1e-10 10000 ${maxeval}
minimize 0 1e-10 10000 1000000
Neighbor list info ...
  update: every = 1 steps, delay = 0 steps, check = yes
  max neighbors/atom: 2000, page size: 100000
  master list distance cutoff = 5
  ghost atom cutoff = 5
  2 neighbor lists, perpetual/occasional/extra = 2 0 0
  (1) pair meam, perpetual
      attributes: full, newton on
      pair build: full/nsq
      stencil: none
      bin: none
  (2) pair meam, perpetual, half/full from (1)
      attributes: half, newton on
      pair build: halffull/newton
      stencil: none
      bin: none
Per MPI rank memory allocation (min/avg/max) = 9.768 | 9.768 | 9.769 Mbytes
   Step          Temp          PotEng         Press           Pxx            Pyy            Pzz            Pxy            Pxz            Pyz             Lx             Ly             Lz           Volume    
         1   0             -431.52         2.9187066      2.7064062      3.3432281      2.7064854      3.4858145e-05  5.1224455e-05  0.00042725079  6.8108525      10.216269      13.621705      947.81866    
         2   0             -431.52         2.91799        2.7056994      3.3425309      2.7057397     -4.2919928e-05  0.00012140543  3.4052145e-05  6.8108525      10.216269      13.621705      947.81866    
         3   0             -431.52         2.917891       2.7056053      3.3424254      2.7056424     -2.2906865e-05  4.4676704e-05 -1.701214e-05   6.8108525      10.216269      13.621705      947.81866    
         4   0             -431.52         2.9178466      2.7055736      3.3423924      2.7055737      6.8372462e-06  7.0157288e-06 -9.6276652e-06  6.8108525      10.216269      13.621705      947.81866    
         5   0             -431.52         2.9178133      2.70554        3.3423683      2.7055315      1.7896726e-05 -1.3510354e-06  4.5980294e-06  6.8108525      10.216269      13.621705      947.81866    
         6   0             -431.52         2.9177929      2.7055211      3.3423472      2.7055106      7.256286e-06  -1.3838016e-06  5.2036988e-06  6.8108525      10.216269      13.621705      947.81866    
         7   0             -431.52         2.9177802      2.7055063      3.3423335      2.7055007      6.0561495e-07  3.6285354e-07  2.1622185e-06  6.8108525      10.216269      13.621705      947.81866    
         8   0             -431.52         2.9177703      2.7054951      3.3423233      2.7054926     -1.2021543e-06  1.5112769e-06  7.7789182e-07  6.8108525      10.216269      13.621705      947.81866    
         9   0             -431.52         2.9177652      2.7054882      3.3423197      2.7054877     -2.2947069e-06  5.5402099e-07  2.9293868e-06  6.8108525      10.216269      13.621705      947.81866    
        10   0             -431.52         2.9177622      2.7054844      3.342318       2.7054842     -8.9893448e-07 -2.4832057e-08  3.3570168e-06  6.8108525      10.216269      13.621705      947.81866    
        11   0             -431.52         2.9177601      2.705482       3.3423164      2.7054818      1.4695056e-07 -9.5987769e-08  2.7626488e-06  6.8108525      10.216269      13.621705      947.81866    
        12   0             -431.52         2.9177581      2.7054798      3.3423146      2.70548        3.8248971e-07  1.1783916e-07  2.1641559e-06  6.8108525      10.216269      13.621705      947.81866    
        13   0             -431.52         2.9177566      2.705478       3.3423132      2.7054785      7.4793334e-08  2.7275118e-07  1.6585235e-06  6.8108525      10.216269      13.621705      947.81866    
        14   0             -431.52         2.9177555      2.7054769      3.3423121      2.7054774      6.6145303e-09  2.3793877e-07  1.1121318e-06  6.8108525      10.216269      13.621705      947.81866    
        15   0             -431.52         2.9177546      2.7054761      3.342311       2.7054766      5.894496e-08   8.8856357e-08  6.679304e-07   6.8108525      10.216269      13.621705      947.81866    
        16   0             -431.52         2.9177541      2.7054758      3.3423103      2.7054761      5.5640088e-08  5.9781462e-08  5.8485981e-07  6.8108525      10.216269      13.621705      947.81866    
        17   0             -431.52         2.9177538      2.7054756      3.3423099      2.7054759      4.2353975e-08  5.7103647e-08  5.5506909e-07  6.8108525      10.216269      13.621705      947.81866    
        18   0             -431.52         2.9177536      2.7054754      3.3423096      2.7054757      3.3243901e-09  3.8654947e-08  4.2506909e-07  6.8108525      10.216269      13.621705      947.81866    
        19   0             -431.52         2.9177534      2.7054753      3.3423093      2.7054755     -1.046862e-08   1.8873848e-08  2.8860662e-07  6.8108525      10.216269      13.621705      947.81866    
        20   0             -431.52         2.9177532      2.7054752      3.3423091      2.7054753      1.0861413e-09  6.9965359e-10  2.0346609e-07  6.8108525      10.216269      13.621705      947.81866    
        21   0             -431.52         2.9177531      2.7054751      3.3423089      2.7054752      9.0222452e-10 -1.1205537e-08  1.3230882e-07  6.8108525      10.216269      13.621705      947.81866    
        22   0             -431.52         2.917753       2.7054751      3.3423088      2.7054751     -1.4570152e-08  1.8843834e-09  9.0044472e-08  6.8108525      10.216269      13.621705      947.81866    
        23   0             -431.52         2.9177529      2.705475       3.3423087      2.7054751     -1.2279731e-08  1.3806214e-08  6.8584434e-08  6.8108525      10.216269      13.621705      947.81866    
        24   0             -431.52         2.9177529      2.705475       3.3423086      2.705475      -6.0811716e-09  1.1457065e-08  4.2144302e-08  6.8108525      10.216269      13.621705      947.81866    
        25   0             -431.52         2.9177529      2.705475       3.3423086      2.705475      -1.556349e-09   4.184251e-09   1.4778939e-08  6.8108525      10.216269      13.621705      947.81866    
        26   0             -431.52         2.9177528      2.705475       3.3423086      2.705475       1.2694951e-09  1.167294e-09   6.6326331e-09  6.8108525      10.216269      13.621705      947.81866    
        27   0             -431.52         2.9177528      2.705475       3.3423086      2.705475       5.193773e-10  -1.6563362e-10  4.173435e-09   6.8108525      10.216269      13.621705      947.81866    
        28   0             -431.52         2.9177528      2.705475       3.3423086      2.705475       1.0785407e-09 -5.4274077e-10  2.9826719e-09  6.8108525      10.216269      13.621705      947.81866    
        29   0             -431.52         2.9177528      2.705475       3.3423085      2.705475       9.1554911e-10 -6.8853707e-10  1.3262023e-09  6.8108525      10.216269      13.621705      947.81866    
        30   0             -431.52         2.9177528      2.705475       3.3423085      2.705475       5.1355952e-10 -3.1733273e-10  6.5779581e-10  6.8108525      10.216269      13.621705      947.81866    
        31   0             -431.52         2.9177528      2.705475       3.3423085      2.705475       7.1117625e-10  1.1952246e-10  6.2752226e-13  6.8108525      10.216269      13.621705      947.81866    
        32   0             -431.52         2.9177528      2.705475       3.3423085      2.705475      -1.9461401e-10 -2.8248472e-10  1.5626477e-10  6.8108525      10.216269      13.621705      947.81866    
        33   0             -431.52         2.9177528      2.705475       3.3423085      2.705475      -2.1816662e-10 -4.9930099e-10  6.7668452e-10  6.8108525      10.216269      13.621705      947.81866    
        34   0             -431.52         2.9177528      2.705475       3.3423085      2.705475      -3.5741791e-10 -3.6119771e-10 -4.603125e-10   6.8108525      10.216269      13.621705      947.81866    
        35   0             -431.52         2.9177528      2.705475       3.3423085      2.705475      -2.8901212e-10 -1.3133982e-11  1.8512346e-10  6.8108525      10.216269      13.621705      947.81866    
        36   0             -431.52         2.9177528      2.705475       3.3423085      2.705475      -4.0011288e-10 -1.6018385e-10  7.9234948e-11  6.8108525      10.216269      13.621705      947.81866    
        37   0             -431.52         2.9177528      2.705475       3.3423085      2.705475      -3.2063455e-10  9.1242909e-11  8.2897449e-12  6.8108525      10.216269      13.621705      947.81866    
        38   0             -431.52         2.9177528      2.705475       3.3423085      2.705475      -4.0480464e-10 -1.5859599e-11  3.7474661e-10  6.8108525      10.216269      13.621705      947.81866    
        39   0             -431.52         2.9177528      2.705475       3.3423085      2.705475      -4.025526e-10  -3.528889e-10  -2.316994e-11   6.8108525      10.216269      13.621705      947.81866    
        40   0             -431.52         2.9177528      2.705475       3.3423085      2.705475      -2.3289873e-10  2.0818784e-10 -2.1698341e-10  6.8108525      10.216269      13.621705      947.81866    
        41   0             -431.52         2.9177528      2.705475       3.3423085      2.705475      -1.1541718e-11  4.7674097e-11  1.9265813e-10  6.8108525      10.216269      13.621705      947.81866    
        42   0             -431.52         2.9177528      2.705475       3.3423085      2.705475       1.1429116e-10  2.1332091e-10  3.3297533e-10  6.8108525      10.216269      13.621705      947.81866    
        43   0             -431.52         2.9177528      2.705475       3.3423085      2.705475       3.8190887e-11 -7.7962309e-11  3.2393637e-10  6.8108525      10.216269      13.621705      947.81866    
        44   0             -431.52         2.9177528      2.705475       3.3423085      2.705475       1.0012206e-10 -4.9574258e-11 -4.2222864e-11  6.8108525      10.216269      13.621705      947.81866    
        45   0             -431.52         2.9177528      2.705475       3.3423085      2.705475       4.5979201e-12  1.1279273e-11  2.9905541e-11  6.8108525      10.216269      13.621705      947.81866    
        46   0             -431.52         2.9177528      2.705475       3.3423085      2.705475       1.804449e-10   1.1823956e-10  3.3399432e-12  6.8108525      10.216269      13.621705      947.81866    
        47   0             -431.52         2.9177528      2.705475       3.3423085      2.705475       1.9611537e-11  1.8912758e-10 -4.6687363e-11  6.8108525      10.216269      13.621705      947.81866    
        48   0             -431.52         2.9177528      2.705475       3.3423085      2.705475       3.5075562e-10  2.6358427e-10 -1.278298e-10   6.8108525      10.216269      13.621705      947.81866    
        49   0             -431.52         2.9177528      2.705475       3.3423085      2.705475      -1.766915e-10  -1.9475769e-10 -4.0709187e-10  6.8108525      10.216269      13.621705      947.81866    
        50   0             -431.52         2.9177528      2.705475       3.3423085      2.705475      -2.2548575e-10  7.188502e-11   1.3588349e-10  6.8108525      10.216269      13.621705      947.81866    
        51   0             -431.52         2.9177528      2.705475       3.3423085      2.705475      -1.1316514e-10  1.3833054e-10  3.3949687e-10  6.8108525      10.216269      13.621705      947.81866    
        52   0             -431.52         2.9177528      2.705475       3.3423085      2.705475       1.1335281e-10  1.4551772e-10  1.2121443e-10  6.8108525      10.216269      13.621705      947.81866    
        53   0             -431.52         2.9177528      2.705475       3.3423085      2.705475      -6.286952e-12  -1.0466866e-10  2.7137845e-10  6.8108525      10.216269      13.621705      947.81866    
        54   0             -431.52         2.9177528      2.705475       3.3423085      2.705475       2.3618296e-10 -1.4846033e-10 -1.5650229e-10  6.8108525      10.216269      13.621705      947.81866    
        55   0             -431.52         2.9177528      2.705475       3.3423085      2.705475      -6.1180488e-11  6.126142e-10  -4.7273832e-10  6.8108525      10.216269      13.621705      947.81866    
        56   0             -431.52         2.9177528      2.705475       3.3423085      2.705475       3.2373111e-10  6.8215188e-11 -3.1147243e-10  6.8108525      10.216269      13.621705      947.81866    
        57   0             -431.52         2.9177528      2.705475       3.3423085      2.705475      -1.7012304e-10  2.1952576e-10 -1.2017491e-10  6.8108525      10.216269      13.621705      947.81866    
        58   0             -431.52         2.9177528      2.705475       3.3423085      2.705475      -1.9649071e-10 -5.564275e-11   7.4604772e-11  6.8108525      10.216269      13.621705      947.81866    
        59   0             -431.52         2.9177528      2.705475       3.3423085      2.705475      -1.3146298e-10  2.6003027e-10 -3.2646112e-10  6.8108525      10.216269      13.621705      947.81866    
        60   0             -431.52         2.9177528      2.705475       3.3423085      2.705475      -9.3928939e-11 -6.5570211e-11  7.6372977e-12  6.8108525      10.216269      13.621705      947.81866    
        61   0             -431.52         2.9177528      2.705475       3.3423085      2.705475       2.7296632e-10  2.3910651e-10  4.5567499e-10  6.8108525      10.216269      13.621705      947.81866    
        62   0             -431.52         2.9177528      2.705475       3.3423085      2.705475      -1.2958628e-10 -9.1138811e-11  9.7381777e-11  6.8108525      10.216269      13.621705      947.81866    
        63   0             -431.52         2.9177528      2.705475       3.3423085      2.705475       2.8797993e-10  2.8891975e-10  1.9200568e-10  6.8108525      10.216269      13.621705      947.81866    
        64   0             -431.52         2.9177528      2.705475       3.3423085      2.705475      -1.8485515e-11  3.192109e-10  -4.6761258e-10  6.8108525      10.216269      13.621705      947.81866    
        65   0             -431.52         2.9177528      2.705475       3.3423085      2.705475       1.9114211e-10 -1.0204421e-10 -3.0239095e-10  6.8108525      10.216269      13.621705      947.81866    
        66   0             -431.52         2.9177528      2.705475       3.3423085      2.705475      -8.2199551e-11  1.794699e-10   2.2763223e-10  6.8108525      10.216269      13.621705      947.81866    
        67   0             -431.52         2.9177528      2.705475       3.3423085      2.705475       2.0737558e-11 -4.9488487e-10 -2.7526088e-10  6.8108525      10.216269      13.621705      947.81866    
        68   0             -431.52         2.9177528      2.705475       3.3423085      2.705475       2.2633027e-10 -5.5622224e-11  3.5740911e-10  6.8108525      10.216269      13.621705      947.81866    
Loop time of 0.0172852 on 4 procs for 67 steps with 96 atoms

22.6% CPU use with 4 MPI tasks x 1 OpenMP threads

Minimization stats:
  Stopping criterion = force tolerance
  Energy initial, next-to-last, final = 
     -431.519999774091   -431.52000001894  -431.520000018942
  Force two-norm initial, final = 0.0065096237 9.4993106e-11
  Force max component initial, final = 0.0010771649 2.10017e-11
  Final line search alpha, max atom move = 1 2.10017e-11
  Iterations, force evaluations = 67 134

MPI task timing breakdown:
Section |  min time  |  avg time  |  max time  |%varavg| %total
---------------------------------------------------------------
Pair    | 0.014631   | 0.014912   | 0.015127   |   0.2 | 86.27
Neigh   | 0          | 0          | 0          |   0.0 |  0.00
Comm    | 0.000853   | 0.0010705  | 0.001341   |   0.6 |  6.19
Output  | 0.000597   | 0.000639   | 0.000759   |   0.0 |  3.70
Modify  | 0          | 0          | 0          |   0.0 |  0.00
Other   |            | 0.000664   |            |       |  3.84

Nlocal:             24 ave          27 max          20 min
Histogram: 1 0 0 0 0 1 0 1 0 1
Nghost:            300 ave         304 max         297 min
Histogram: 1 0 1 0 1 0 0 0 0 1
Neighs:            648 ave         719 max         552 min
Histogram: 1 0 0 0 1 0 0 0 1 1
FullNghs:         1296 ave        1458 max        1080 min
Histogram: 1 0 0 0 0 1 0 1 0 1

Total # of neighbors = 5184
Ave neighs/atom = 54
Neighbor list builds = 0
Dangerous builds = 0

# Obtain new stress tensor

variable tmp equal pxx
variable pxx1 equal ${tmp}
variable pxx1 equal 2.70547497702647
variable tmp equal pyy
variable pyy1 equal ${tmp}
variable pyy1 equal 3.34230854556162
variable tmp equal pzz
variable pzz1 equal ${tmp}
variable pzz1 equal 2.70547497715409
variable tmp equal pxy
variable pxy1 equal ${tmp}
variable pxy1 equal 2.26330270232025e-10
variable tmp equal pxz
variable pxz1 equal ${tmp}
variable pxz1 equal -5.56222239181198e-11
variable tmp equal pyz
variable pyz1 equal ${tmp}
variable pyz1 equal 3.57409113122284e-10

# Compute elastic constant from pressure tensor

variable C1neg equal ${d1}
variable C1neg equal 270.547497781544
variable C2neg equal ${d2}
variable C2neg equal 334.230854609573
variable C3neg equal ${d3}
variable C3neg equal 270.547497794005
variable C4neg equal ${d4}
variable C4neg equal 6.34550814890042e-08
variable C5neg equal ${d5}
variable C5neg equal 3.83431787448509e-08
variable C6neg equal ${d6}
variable C6neg equal 8.22557923197095e-08

# Reset box and simulation parameters

clear
  using 1 OpenMP thread(s) per MPI task
Loaded 1 plugins from C:\Program Files\LAMMPS 64-bit 23Jun2022\plugins
Loaded 0 plugins from C:\Program Files\LAMMPS 64-bit 23Jun2022-MPI\plugins
Loaded 1 plugins from C:\Program Files\LAMMPS 64-bit 22Dec2022-MSMPI\plugins
Loaded 1 plugins from C:\Program Files\LAMMPS 64-bit 28Mar2023-MPI\plugins
box tilt large

The 'box' command has been removed and will be ignored

read_restart restart.equil
Reading restart file ...
  restart file = 22 Dec 2022, LAMMPS = 22 Dec 2022
  restoring atom style atomic from restart
  triclinic box = (0.049622865 0.049622865 0.049622865) to (6.8604754 10.265902 13.671328) with tilt (0 0 0)
  1 by 2 by 2 MPI processor grid
  pair style meam stores no restart info
  96 atoms
  read_restart CPU = 0.000 seconds
include potential.mod
# NOTE: This script can be modified for different pair styles
# See in.elastic for more info.

# Choose potential
#-----------------------
#pair_style	sw
#pair_coeff * * Si.sw Si
#-----------------------
#pair_style morse	2.83994742	# D0[eV] a[1/A] r0[A] rc[A], 1NN for BCC
#pair_coeff 1 1	2.1173	1.0202	2.4595	2.6497	#	Fe-Fe
#-----------------------
#pair_style smatb # R0(A)   p       q     A(eV)   xi(eV)  Rcs(A)   Rc(A), 4NN: Rcs=4NN, Rc=(4NN+5NN)/2
#pair_coeff 1 1	2.4802	7.0149	2.3779	0.3144	3.0551	4.033	4.176	#	Co	Co
#-----------------------
#pair_style eam/alloy
#pair_coeff * * AlCrFeCoNi_Zhou04.eam.alloy Fe
#-----------------------
pair_style meam
pair_coeff * * ./../../library.meam Ni Si ./../../NiSi.meam Ni Si
#-----------------------

# Setup neighbor style
neighbor 1.0 nsq
neigh_modify once no every 1 delay 0 check yes

# Setup minimization style
min_style	     cg
min_modify	     dmax ${dmax} line quadratic
min_modify	     dmax 0.01 line quadratic

# Setup output
thermo		1
thermo_style custom step temp pe press pxx pyy pzz pxy pxz pyz lx ly lz vol
thermo_modify norm no

# Positive deformation

variable delta equal ${up}*${len0}
variable delta equal 1e-06*${len0}
variable delta equal 1e-06*10.2162788090469
variable deltaxy equal ${up}*xy
variable deltaxy equal 1e-06*xy
variable deltaxz equal ${up}*xz
variable deltaxz equal 1e-06*xz
variable deltayz equal ${up}*yz
variable deltayz equal 1e-06*yz
if "${dir} == 1" then    "change_box all x delta 0 ${delta} xy delta ${deltaxy} xz delta ${deltaxz} remap units box"
[...]
        32   0             -431.52         8.0313879e-06  1.2403677e-05  2.2773688e-05 -1.1083201e-05 -5.3446789     -3.8610321e-10  1.6061328e-10  6.8108525      10.216279      13.621705      947.8196     
        33   0             -431.52         8.0319678e-06  1.2404018e-05  2.2774526e-05 -1.108264e-05  -5.3446789     -3.5136813e-10 -4.4768097e-11  6.8108525      10.216279      13.621705      947.8196     
        34   0             -431.52         8.0315836e-06  1.2403791e-05  2.2773912e-05 -1.1082952e-05 -5.3446789     -5.700037e-10   2.5361257e-10  6.8108525      10.216279      13.621705      947.8196     
        35   0             -431.52         8.0308128e-06  1.2402576e-05  2.2773332e-05 -1.108347e-05  -5.3446789     -2.7207021e-10 -4.7986051e-10  6.8108525      10.216279      13.621705      947.8196     
        36   0             -431.52         8.0314267e-06  1.2402902e-05  2.2773902e-05 -1.1082524e-05 -5.3446789     -6.0189734e-10 -6.4385479e-11  6.8108525      10.216279      13.621705      947.8196     
        37   0             -431.52         8.0312086e-06  1.2402873e-05  2.2773845e-05 -1.1083092e-05 -5.3446789     -2.5029169e-10  1.197628e-10   6.8108525      10.216279      13.621705      947.8196     
        38   0             -431.52         8.0303941e-06  1.2402136e-05  2.2772863e-05 -1.1083816e-05 -5.3446789      1.4200463e-10 -3.0570273e-10  6.8108525      10.216279      13.621705      947.8196     
        39   0             -431.52         8.0305932e-06  1.2402183e-05  2.2773309e-05 -1.1083713e-05 -5.3446789      2.9975887e-11 -2.2828299e-11  6.8108525      10.216279      13.621705      947.8196     
        40   0             -431.52         8.0305385e-06  1.2401951e-05  2.2773339e-05 -1.1083675e-05 -5.3446789      3.0356505e-10  1.4933402e-10  6.8108525      10.216279      13.621705      947.8196     
        41   0             -431.52         8.0301917e-06  1.2401744e-05  2.277307e-05  -1.1084239e-05 -5.3446789      1.1109919e-10 -1.847758e-10   6.8108525      10.216279      13.621705      947.8196     
        42   0             -431.52         8.0306745e-06  1.2402341e-05  2.2773371e-05 -1.1083689e-05 -5.3446789     -5.5227035e-10  1.0477852e-10  6.8108525      10.216279      13.621705      947.8196     
        43   0             -431.52         8.0304605e-06  1.2401818e-05  2.2772963e-05 -1.10834e-05   -5.3446789     -6.8753205e-11  3.8047018e-10  6.8108525      10.216279      13.621705      947.8196     
        44   0             -431.52         8.0312375e-06  1.2403193e-05  2.2773877e-05 -1.1083358e-05 -5.3446789      1.577821e-10   4.1007219e-10  6.8108525      10.216279      13.621705      947.8196     
        45   0             -431.52         8.0308338e-06  1.240236e-05   2.2773512e-05 -1.1083371e-05 -5.3446789     -8.9382245e-11  1.5912072e-10  6.8108525      10.216279      13.621705      947.8196     
        46   0             -431.52         8.0306598e-06  1.2402212e-05  2.2773308e-05 -1.108354e-05  -5.3446789     -6.2807877e-11 -5.6482371e-10  6.8108525      10.216279      13.621705      947.8196     
        47   0             -431.52         8.0306553e-06  1.2402179e-05  2.2773306e-05 -1.108352e-05  -5.3446789      5.1423638e-10  1.5585702e-10  6.8108525      10.216279      13.621705      947.8196     
        48   0             -431.52         8.0311959e-06  1.2402633e-05  2.2773903e-05 -1.1082949e-05 -5.3446789      8.7809043e-12  1.4967124e-10  6.8108525      10.216279      13.621705      947.8196     
        49   0             -431.52         8.0304376e-06  1.2401688e-05  2.2773115e-05 -1.108349e-05  -5.3446789     -1.04541e-10   -8.9564051e-11  6.8108525      10.216279      13.621705      947.8196     
        50   0             -431.52         8.0297436e-06  1.240128e-05   2.2772506e-05 -1.1084556e-05 -5.3446789      1.9297756e-11 -1.8444884e-10  6.8108525      10.216279      13.621705      947.8196     
        51   0             -431.52         8.0306356e-06  1.2402176e-05  2.2773184e-05 -1.1083453e-05 -5.3446789      1.2506008e-10 -3.8265624e-11  6.8108525      10.216279      13.621705      947.8196     
        52   0             -431.52         8.0314017e-06  1.2402615e-05  2.2774113e-05 -1.1082523e-05 -5.3446789      3.2825832e-10 -3.1422999e-11  6.8108525      10.216279      13.621705      947.8196     
        53   0             -431.52         8.031223e-06   1.240266e-05   2.2773623e-05 -1.1082614e-05 -5.3446789     -7.1672207e-10 -9.4377494e-12  6.8108525      10.216279      13.621705      947.8196     
        54   0             -431.52         8.0310185e-06  1.2402663e-05  2.2773435e-05 -1.1083043e-05 -5.3446789     -1.030455e-10   1.5243351e-10  6.8108525      10.216279      13.621705      947.8196     
        55   0             -431.52         8.0314795e-06  1.2403053e-05  2.2774054e-05 -1.1082668e-05 -5.3446789     -1.3784949e-11 -1.9064782e-10  6.8108525      10.216279      13.621705      947.8196     
        56   0             -431.52         8.0311924e-06  1.240294e-05   2.2773805e-05 -1.1083168e-05 -5.3446789      3.8816171e-10 -1.1585985e-10  6.8108525      10.216279      13.621705      947.8196     
        57   0             -431.52         8.0315197e-06  1.2402956e-05  2.2774099e-05 -1.1082496e-05 -5.3446789     -1.6861418e-10 -1.6036403e-10  6.8108525      10.216279      13.621705      947.8196     
        58   0             -431.52         8.0317299e-06  1.2403595e-05  2.2774309e-05 -1.1082715e-05 -5.3446789     -9.3563768e-11  2.139057e-10   6.8108525      10.216279      13.621705      947.8196     
        59   0             -431.52         8.0314331e-06  1.2403121e-05  2.2774203e-05 -1.1083025e-05 -5.3446789      2.3134728e-10 -7.3145856e-11  6.8108525      10.216279      13.621705      947.8196     
        60   0             -431.52         8.0311469e-06  1.2402746e-05  2.2773768e-05 -1.1083073e-05 -5.3446789      9.8321496e-12  1.4894402e-10  6.8108525      10.216279      13.621705      947.8196     
        61   0             -431.52         8.031079e-06   1.2402337e-05  2.2773742e-05 -1.1082842e-05 -5.3446789      3.4850909e-12  4.9913921e-10  6.8108525      10.216279      13.621705      947.8196     
        62   0             -431.52         8.0310669e-06  1.2402694e-05  2.2773618e-05 -1.1083111e-05 -5.3446789     -1.4776375e-10 -1.8779611e-10  6.8108525      10.216279      13.621705      947.8196     
        63   0             -431.52         8.0319997e-06  1.2403666e-05  2.2774515e-05 -1.1082183e-05 -5.3446789      1.3902683e-10  4.4952834e-10  6.8108525      10.216279      13.621705      947.8196     
        64   0             -431.52         8.0318478e-06  1.240322e-05   2.2774508e-05 -1.1082184e-05 -5.3446789      3.215022e-11  -1.090832e-10   6.8108525      10.216279      13.621705      947.8196     
        65   0             -431.52         8.0313435e-06  1.2402686e-05  2.2774047e-05 -1.1082702e-05 -5.3446789     -2.4545626e-10  3.907583e-10   6.8108525      10.216279      13.621705      947.8196     
        66   0             -431.52         8.0317427e-06  1.2403368e-05  2.2774454e-05 -1.1082594e-05 -5.3446789     -9.6129569e-11 -1.3628949e-10  6.8108525      10.216279      13.621705      947.8196     
        67   0             -431.52         8.032016e-06   1.2403197e-05  2.2774647e-05 -1.1081796e-05 -5.3446789     -7.3656084e-11 -1.6364532e-10  6.8108525      10.216279      13.621705      947.8196     
        68   0             -431.52         8.0318695e-06  1.2403101e-05  2.2774765e-05 -1.1082258e-05 -5.3446789     -1.6018223e-10 -2.9951989e-10  6.8108525      10.216279      13.621705      947.8196     
Loop time of 0.017374 on 4 procs for 67 steps with 96 atoms

67.4% CPU use with 4 MPI tasks x 1 OpenMP threads

Minimization stats:
  Stopping criterion = force tolerance
  Energy initial, next-to-last, final = 
     -431.519999773501   -431.52000001835  -431.520000018349
  Force two-norm initial, final = 0.0065096073 8.7065487e-11
  Force max component initial, final = 0.0010771605 1.9494388e-11
  Final line search alpha, max atom move = 1 1.9494388e-11
  Iterations, force evaluations = 67 134

MPI task timing breakdown:
Section |  min time  |  avg time  |  max time  |%varavg| %total
---------------------------------------------------------------
Pair    | 0.01452    | 0.014631   | 0.014759   |   0.1 | 84.21
Neigh   | 0          | 0          | 0          |   0.0 |  0.00
Comm    | 0.001114   | 0.0012275  | 0.001329   |   0.2 |  7.07
Output  | 0.000819   | 0.00085225 | 0.000932   |   0.0 |  4.91
Modify  | 0          | 0          | 0          |   0.0 |  0.00
Other   |            | 0.0006633  |            |       |  3.82

Nlocal:             24 ave          27 max          20 min
Histogram: 1 0 0 0 0 1 0 1 0 1
Nghost:            300 ave         304 max         297 min
Histogram: 1 0 1 0 1 0 0 0 0 1
Neighs:            648 ave         719 max         552 min
Histogram: 1 0 0 0 1 0 0 0 1 1
FullNghs:         1296 ave        1458 max        1080 min
Histogram: 1 0 0 0 0 1 0 1 0 1

Total # of neighbors = 5184
Ave neighs/atom = 54
Neighbor list builds = 0
Dangerous builds = 0

# Obtain new stress tensor

variable tmp equal pe
variable e1 equal ${tmp}
variable e1 equal -431.520000018349
variable tmp equal press
variable p1 equal ${tmp}
variable p1 equal 8.03186947919829e-06
variable tmp equal pxx
variable pxx1 equal ${tmp}
variable pxx1 equal 1.24031007249788e-05
variable tmp equal pyy
variable pyy1 equal ${tmp}
variable pyy1 equal 2.27747654437262e-05
variable tmp equal pzz
variable pzz1 equal ${tmp}
variable pzz1 equal -1.10822577311102e-05
variable tmp equal pxy
variable pxy1 equal ${tmp}
variable pxy1 equal -5.34467888515566
variable tmp equal pxz
variable pxz1 equal ${tmp}
variable pxz1 equal -1.60182226603665e-10
variable tmp equal pyz
variable pyz1 equal ${tmp}
variable pyz1 equal -2.99519885459148e-10

# Compute elastic constant from pressure tensor

variable C1pos equal ${d1}
variable C1pos equal -0.00124038896897421
variable C2pos equal ${d2}
variable C2pos equal -0.00227752995526026
variable C3pos equal ${d3}
variable C3pos equal 0.00110814717690672
variable C4pos equal ${d4}
variable C4pos equal 2.237818369139e-09
variable C5pos equal ${d5}
variable C5pos equal -2.78871784762964e-08
variable C6pos equal ${d6}
variable C6pos equal 534.467888455943

# Combine positive and negative

variable C1${dir} equal 0.5*(${C1neg}+${C1pos})
variable C16 equal 0.5*(${C1neg}+${C1pos})
variable C16 equal 0.5*(0.00124032790114976+${C1pos})
variable C16 equal 0.5*(0.00124032790114976+-0.00124038896897421)
variable C2${dir} equal 0.5*(${C2neg}+${C2pos})
variable C26 equal 0.5*(${C2neg}+${C2pos})
variable C26 equal 0.5*(0.00227742403430108+${C2pos})
variable C26 equal 0.5*(0.00227742403430108+-0.00227752995526026)
variable C3${dir} equal 0.5*(${C3neg}+${C3pos})
variable C36 equal 0.5*(${C3neg}+${C3pos})
variable C36 equal 0.5*(-0.00110824679215324+${C3pos})
variable C36 equal 0.5*(-0.00110824679215324+0.00110814717690672)
variable C4${dir} equal 0.5*(${C4neg}+${C4pos})
variable C46 equal 0.5*(${C4neg}+${C4pos})
variable C46 equal 0.5*(5.36157118730651e-08+${C4pos})
variable C46 equal 0.5*(5.36157118730651e-08+2.237818369139e-09)
variable C5${dir} equal 0.5*(${C5neg}+${C5pos})
variable C56 equal 0.5*(${C5neg}+${C5pos})
variable C56 equal 0.5*(1.64220064373833e-08+${C5pos})
variable C56 equal 0.5*(1.64220064373833e-08+-2.78871784762964e-08)
variable C6${dir} equal 0.5*(${C6neg}+${C6pos})
variable C66 equal 0.5*(${C6neg}+${C6pos})
variable C66 equal 0.5*(534.467888567869+${C6pos})
variable C66 equal 0.5*(534.467888567869+534.467888455943)

# Delete dir to make sure it is not reused

variable dir delete

# Output final values

variable C11all equal ${C11}
variable C11all equal 334.22973708175
variable C22all equal ${C22}
variable C22all equal 334.229737118852
variable C33all equal ${C33}
variable C33all equal 334.229737115587

variable C12all equal 0.5*(${C12}+${C21})
variable C12all equal 0.5*(270.546624454223+${C21})
variable C12all equal 0.5*(270.546624454223+270.546624430239)
variable C13all equal 0.5*(${C13}+${C31})
variable C13all equal 0.5*(270.546624470025+${C31})
variable C13all equal 0.5*(270.546624470025+270.546624434837)
variable C23all equal 0.5*(${C23}+${C32})
variable C23all equal 0.5*(270.546624460961+${C32})
variable C23all equal 0.5*(270.546624460961+270.546624453379)

variable C44all equal ${C44}
variable C44all equal 534.467888471607
variable C55all equal ${C55}
variable C55all equal 534.467888493597
variable C66all equal ${C66}
variable C66all equal 534.467888511906

variable C14all equal 0.5*(${C14}+${C41})
variable C14all equal 0.5*(1.1391570200049e-08+${C41})
variable C14all equal 0.5*(1.1391570200049e-08+2.1004155330619e-09)
variable C15all equal 0.5*(${C15}+${C51})
variable C15all equal 0.5*(-4.39147846006353e-09+${C51})
variable C15all equal 0.5*(-4.39147846006353e-09+-5.4870176454552e-09)
variable C16all equal 0.5*(${C16}+${C61})
variable C16all equal 0.5*(-3.0533912225017e-08+${C61})
variable C16all equal 0.5*(-3.0533912225017e-08+9.7025216142248e-09)

variable C24all equal 0.5*(${C24}+${C42})
variable C24all equal 0.5*(1.13540362000524e-08+${C42})
variable C24all equal 0.5*(1.13540362000524e-08+1.3033045806884e-08)
variable C25all equal 0.5*(${C25}+${C52})
variable C25all equal 0.5*(1.98179540950548e-08+${C52})
variable C25all equal 0.5*(1.98179540950548e-08+-2.61182946748283e-08)
variable C26all equal 0.5*(${C26}+${C62})
variable C26all equal 0.5*(-5.29604795901275e-08+${C62})
variable C26all equal 0.5*(-5.29604795901275e-08+1.3892281957849e-08)

variable C34all equal 0.5*(${C34}+${C43})
variable C34all equal 0.5*(1.52388056099632e-08+${C43})
variable C34all equal 0.5*(1.52388056099632e-08+-2.8312571351363e-09)
variable C35all equal 0.5*(${C35}+${C53})
variable C35all equal 0.5*(-4.57914848010429e-09+${C53})
variable C35all equal 0.5*(-4.57914848010429e-09+-5.7880724953696e-09)
variable C36all equal 0.5*(${C36}+${C63})
variable C36all equal 0.5*(-4.98076232599478e-08+${C63})
variable C36all equal 0.5*(-4.98076232599478e-08+2.3927751304802e-09)

variable C45all equal 0.5*(${C45}+${C54})
variable C45all equal 0.5*(-8.427190284491e-09+${C54})
variable C45all equal 0.5*(-8.427190284491e-09+1.4298769412376e-08)
variable C46all equal 0.5*(${C46}+${C64})
variable C46all equal 0.5*(2.79267651211021e-08+${C64})
variable C46all equal 0.5*(2.79267651211021e-08+-1.01201058187414e-08)
variable C56all equal 0.5*(${C56}+${C65})
variable C56all equal 0.5*(-5.73258601945655e-09+${C65})
variable C56all equal 0.5*(-5.73258601945655e-09+-1.73641685837561e-08)

# Average moduli for cubic crystals

variable C11cubic equal (${C11all}+${C22all}+${C33all})/3.0
variable C11cubic equal (334.22973708175+${C22all}+${C33all})/3.0
variable C11cubic equal (334.22973708175+334.229737118852+${C33all})/3.0
variable C11cubic equal (334.22973708175+334.229737118852+334.229737115587)/3.0
variable C12cubic equal (${C12all}+${C13all}+${C23all})/3.0
variable C12cubic equal (270.546624442231+${C13all}+${C23all})/3.0
variable C12cubic equal (270.546624442231+270.546624452431+${C23all})/3.0
variable C12cubic equal (270.546624442231+270.546624452431+270.54662445717)/3.0
variable C44cubic equal (${C44all}+${C55all}+${C66all})/3.0
variable C44cubic equal (534.467888471607+${C55all}+${C66all})/3.0
variable C44cubic equal (534.467888471607+534.467888493597+${C66all})/3.0
variable C44cubic equal (534.467888471607+534.467888493597+534.467888511906)/3.0

variable bulkmodulus equal (${C11cubic}+2*${C12cubic})/3.0
variable bulkmodulus equal (334.229737105396+2*${C12cubic})/3.0
variable bulkmodulus equal (334.229737105396+2*270.546624450611)/3.0
variable shearmodulus1 equal ${C44cubic}
variable shearmodulus1 equal 534.46788849237
variable shearmodulus2 equal (${C11cubic}-${C12cubic})/2.0
variable shearmodulus2 equal (334.229737105396-${C12cubic})/2.0
variable shearmodulus2 equal (334.229737105396-270.546624450611)/2.0
variable poissonratio equal 1.0/(1.0+${C11cubic}/${C12cubic})
variable poissonratio equal 1.0/(1.0+334.229737105396/${C12cubic})
variable poissonratio equal 1.0/(1.0+334.229737105396/270.546624450611)

# For Stillinger-Weber silicon, the analytical results
# are known to be (E. R. Cowley, 1988):
#               C11 = 151.4 GPa
#               C12 = 76.4 GPa
#               C44 = 56.4 GPa

print "========================================="
=========================================
print "Components of the Elastic Constant Tensor"
Components of the Elastic Constant Tensor
print "========================================="
=========================================

print "Elastic Constant C11all = ${C11all} ${cunits}"
Elastic Constant C11all = 334.22973708175 GPa
print "Elastic Constant C22all = ${C22all} ${cunits}"
Elastic Constant C22all = 334.229737118852 GPa
print "Elastic Constant C33all = ${C33all} ${cunits}"
Elastic Constant C33all = 334.229737115587 GPa

print "Elastic Constant C12all = ${C12all} ${cunits}"
Elastic Constant C12all = 270.546624442231 GPa
print "Elastic Constant C13all = ${C13all} ${cunits}"
Elastic Constant C13all = 270.546624452431 GPa
print "Elastic Constant C23all = ${C23all} ${cunits}"
Elastic Constant C23all = 270.54662445717 GPa

print "Elastic Constant C44all = ${C44all} ${cunits}"
Elastic Constant C44all = 534.467888471607 GPa
print "Elastic Constant C55all = ${C55all} ${cunits}"
Elastic Constant C55all = 534.467888493597 GPa
print "Elastic Constant C66all = ${C66all} ${cunits}"
Elastic Constant C66all = 534.467888511906 GPa

print "Elastic Constant C14all = ${C14all} ${cunits}"
Elastic Constant C14all = 6.74599286655545e-09 GPa
print "Elastic Constant C15all = ${C15all} ${cunits}"
Elastic Constant C15all = -4.93924805275936e-09 GPa
print "Elastic Constant C16all = ${C16all} ${cunits}"
Elastic Constant C16all = -1.04156953053961e-08 GPa

print "Elastic Constant C24all = ${C24all} ${cunits}"
Elastic Constant C24all = 1.21935410034682e-08 GPa
print "Elastic Constant C25all = ${C25all} ${cunits}"
Elastic Constant C25all = -3.15017028988675e-09 GPa
print "Elastic Constant C26all = ${C26all} ${cunits}"
Elastic Constant C26all = -1.95340988161392e-08 GPa

print "Elastic Constant C34all = ${C34all} ${cunits}"
Elastic Constant C34all = 6.20377423741345e-09 GPa
print "Elastic Constant C35all = ${C35all} ${cunits}"
Elastic Constant C35all = -5.18361048773695e-09 GPa
print "Elastic Constant C36all = ${C36all} ${cunits}"
Elastic Constant C36all = -2.37074240647338e-08 GPa

print "Elastic Constant C45all = ${C45all} ${cunits}"
Elastic Constant C45all = 2.9357895639425e-09 GPa
print "Elastic Constant C46all = ${C46all} ${cunits}"
Elastic Constant C46all = 8.90332965118035e-09 GPa
print "Elastic Constant C56all = ${C56all} ${cunits}"
Elastic Constant C56all = -1.15483773016063e-08 GPa

print "========================================="
=========================================
print "Average properties for a cubic crystal"
Average properties for a cubic crystal
print "========================================="
=========================================

print "Bulk Modulus = ${bulkmodulus} ${cunits}"
Bulk Modulus = 291.774328668873 GPa
print "Shear Modulus 1 = ${shearmodulus1} ${cunits}"
Shear Modulus 1 = 534.46788849237 GPa
print "Shear Modulus 2 = ${shearmodulus2} ${cunits}"
Shear Modulus 2 = 31.8415563273925 GPa
print "Poisson Ratio = ${poissonratio}"
Poisson Ratio = 0.447349866245651
Total wall time: 0:00:00
