Siesta Version:                                        siesta-trunk-411
Architecture  : x86_64-unknown-linux-gnu--Intel
Compiler flags: mpif90 -shared-intel -O2
PARALLEL version

* Running on   72 nodes in parallel
>> Start of run:  26-MAR-2014  20:55:46

                           ***********************       
                           *  WELCOME TO SIESTA  *       
                           ***********************       

reinit: Reading from standard input
************************** Dump of input data file ****************************
# Final relaxed coordinates
SystemLabel      ssy_andrew_dimer_c_i
NumberOfAtoms    78
NumberOfSpecies  6
%block ChemicalSpeciesLabel
    1    6  C
    2   11  Na
    3   16  S
    4    7  N
    5    8  O
    6    1  H
%endblock ChemicalSpeciesLabel
LatticeConstant 1.0 Ang
%block LatticeParameters
  35.000000  24.000000  24.000000  90.000000  90.000000  90.000000
%endblock LatticeParameters
AtomicCoordinatesFormat NotScaledCartesianAng
%block AtomicCoordinatesAndAtomicSpecies
   26.79278747    9.10124436   10.31951832   2       1  Na
   26.96219635   15.72340412   13.72848399   2       2  Na
   10.21226136    9.62920447   10.79303795   2       3  Na
   10.36551535   16.17849759   14.25247853   2       4  Na
   12.17080333    9.52609259    9.79515339   5       5  O
   10.93186828   11.66973994   10.24592979   5       6  O
   11.87713675   10.33674629   12.14617193   5       7  O
   12.14040660   10.80243039   10.68192981   3       8  S
   18.64155445   15.90572306   11.19864467   5       9  O
   17.54037872   15.26993380   11.06416286   1      10  C
   16.25206464   17.01619795   11.42804883   6      11  H
   16.22854049   15.94524849   11.20752445   1      12  C
   14.07758832   15.76063841   11.25139494   6      13  H
   15.03391751   15.25033682   11.09706386   1      14  C
   14.98792261   13.80163951   10.82555436   1      15  C
   12.79484203   13.66342917   10.94318951   6      16  H
   13.72552164   13.11439475   10.77550419   1      17  C
   13.71956693   11.71837438   10.55957988   1      18  C
   14.86663114    9.88689332   10.20810207   6      19  H
   14.92078794   10.96458751   10.37663196   1      20  C
   17.09100048   11.07803580   10.29600479   6      21  H
   16.16269271   11.63818125   10.42256350   1      22  C
   16.22317555   13.05721087   10.65517046   1      23  C
   17.52254117   13.78867857   10.75477733   1      24  C
   18.63825952   13.04883373   10.55934046   4      25  N
   19.85388832   14.66095584   10.87617268   6      26  H
   19.84422363   13.64243747   10.63958865   4      27  N
   22.15600597    9.66793589    9.82959214   6      28  H
   22.17295937   10.73900774   10.04070807   1      29  C
   20.00282552   10.99032693   10.03107148   6      30  H
   20.97142100   11.47732186   10.14793119   1      31  C
   21.03050349   12.88007981   10.44691969   1      32  C
   22.32829096   14.61536140   10.81545874   6      33  H
   22.29134896   13.54646962   10.58790705   1      34  C
   24.46040692   13.29757463   10.64914163   6      35  H
   23.49791266   12.80567789   10.48910059   1      36  C
   23.41703734   11.40872660   10.23061840   1      37  C
   24.83834987    9.18874534    9.31784920   5      38  O
   26.20009665   11.20595381    9.95852293   5      39  O
   24.93000878   10.38668774   10.30381580   3      40  S
   25.13484513    9.78715480   11.73034868   5      41  O
   25.02367288   15.78751267   14.77166777   5      42  O
   26.25231461   13.65656990   14.22794240   5      43  O
   25.28446597   15.05830331   12.39137506   5      44  O
   25.03983931   14.54151238   13.84253157   3      45  S
   18.55275228    9.41206474   13.36638775   5      46  O
   19.65180108   10.05222850   13.49911272   1      47  C
   20.94443911    8.30782129   13.14686831   6      48  H
   20.96542807    9.38038536   13.35981477   1      49  C
   23.11487845    9.57002857   13.30953865   6      50  H
   22.15804369   10.07927540   13.46429754   1      51  C
   22.19973047   11.53058170   13.72441515   1      52  C
   24.39288931   11.67666060   13.60238852   6      53  H
   23.45970840   12.22334576   13.76379898   1      54  C
   23.46214220   13.62159371   13.96544608   1      55  C
   22.30838891   15.45089571   14.30971607   6      56  H
   22.25885650   14.37203694   14.14828063   1      57  C
   20.08959867   14.25089536   14.24065922   6      58  H
   21.01943752   13.69308866   14.11434219   1      59  C
   20.96253602   12.27185390   13.89376625   1      60  C
   19.66533004   11.53484990   13.80298521   1      61  C
   18.54723085   12.27122194   13.99680944   4      62  N
   17.33857590   10.65335209   13.68394942   6      63  H
   17.34360748   11.67265369   13.91866171   4      64  N
   15.01750951   15.63908826   14.73368901   6      65  H
   15.00392769   14.56936625   14.51553297   1      66  C
   17.17442460   14.32030262   14.53774411   6      67  H
   16.20753907   13.83323444   14.41103975   1      68  C
   16.15426452   12.43242821   14.10348879   1      69  C
   14.86235729   10.69814654   13.70813925   6      70  H
   14.89550079   11.76518783   13.94699195   1      71  C
   12.72765402   12.00860370   13.87300180   6      72  H
   13.68697731   12.50280521   14.04471356   1      73  C
   13.76265276   13.89838925   14.31493112   1      74  C
   12.36178761   16.16028726   15.16411885   5      75  O
   10.99246654   14.10417711   14.69034341   5      76  O
   12.24102968   14.91044360   14.24734685   3      77  S
   11.97232704   15.43220435   12.80139212   5      78  O
%endblock AtomicCoordinatesAndAtomicSpecies
PAO.SplitNorm         0.15
PAO.SplitNormH        0.5
PAO.EnergyShift  0.001 Ry
PAO.BasisSize  TZP
%block PAO.Basis                                   # Define Basis set
C     2
n=2    0    3
 9.0 2.7 3.6
 1.0 1.0 1.0
n=2    1    3  P 1
 9.0 2.5 3.6
 1.0 1.0 1.0
N     2
n=2    0    3
 9.0 2.5 4.3
 1.0 1.0 1.0
n=2    1    3  P 1
 9.0 2.4 3.8
 1.0 1.0 1.0
O     2
n=2    0    3
 8.5 2.5 5.0
 1.0 1.0 1.0
n=2    1 3 P 1
 9.0 2.4 5.4
 1.0 1.0 1.0
H  1
n=1  0  3 P 1
 8.0 1.8 4.1
 1.0 1.0 1.0
S     2
n=3    0    3
 8.5 2.5 5.0
 1.0 1.0 1.0
n=3    1    3  P 1
 8.5 2.4 5.4
 1.0 1.0 1.0
%endblock PAO.Basis
MD.TypeOfRun    CG
MD.NumCGSteps   0
#MD.Variable-cell True
MD.MaxForceTol  0.01 eV/Ang
#MD.MaxStressTol  200 bar
MaxSCFIterations  500
SolutionMethod diagon
DM.NumberPulay 5
DM.MixingWeight 0.25
DM.Tolerance         1.d-4
XC.Functional VDW
XC.Authors LMKLL
LongOutput true
UseSaveData true
WriteXML false
MeshCutoff  300.0 Ry
************************** End of input data file *****************************
 Processed:          148  lines.
 Processed:          148  lines.
 Processed:          148  lines.

reinit: -----------------------------------------------------------------------
reinit: System Name: 
reinit: -----------------------------------------------------------------------
reinit: System Label: ssy_andrew_dimer_c_i                                        
reinit: -----------------------------------------------------------------------
 Processed:          148  lines.
 Processed:          148  lines.
 Processed:          148  lines.
 Processed:          148  lines.
 Processed:          148  lines.
 Processed:          148  lines.
 Processed:          148  lines.
 Processed:          148  lines.
 Processed:          148  lines.
 Processed:          148  lines.
 Processed:          148  lines.
 Processed:          148  lines.
 Processed:          148  lines.
 Processed:          148  lines.
 Processed:          148  lines.
 Processed:          148  lines.
 Processed:          148  lines.
 Processed:          148  lines.
 Processed:          148  lines.
 Processed:          148  lines.
 Processed:          148  lines.
 Processed:          148  lines.
 Processed:          148  lines.
 Processed:          148  lines.
 Processed:          148  lines.
 Processed:          148  lines.
 Processed:          148  lines.
 Processed:          148  lines.
 Processed:          148  lines.
 Processed:          148  lines.
 Processed:          148  lines.
 Processed:          148  lines.
 Processed:          148  lines.
 Processed:          148  lines.
 Processed:          148  lines.
 Processed:          148  lines.
 Processed:          148  lines.
 Processed:          148  lines.
 Processed:          148  lines.
 Processed:          148  lines.
 Processed:          148  lines.
 Processed:          148  lines.
 Processed:          148  lines.
 Processed:          148  lines.
 Processed:          148  lines.
 Processed:          148  lines.
 Processed:          148  lines.
 Processed:          148  lines.
 Processed:          148  lines.
 Processed:          148  lines.
 Processed:          148  lines.
 Processed:          148  lines.
 Processed:          148  lines.
 Processed:          148  lines.
 Processed:          148  lines.
 Processed:          148  lines.
 Processed:          148  lines.
 Processed:          148  lines.
 Processed:          148  lines.
 Processed:          148  lines.
 Processed:          148  lines.
 Processed:          148  lines.
 Processed:          148  lines.
 Processed:          148  lines.
 Processed:          148  lines.
 Processed:          148  lines.
 Processed:          148  lines.
 Processed:          148  lines.

initatom: Reading input for the pseudopotentials and atomic orbitals ----------
 Species number:            1  Label: C Atomic number:           6
 Species number:            2  Label: Na Atomic number:          11
 Species number:            3  Label: S Atomic number:          16
 Species number:            4  Label: N Atomic number:           7
 Species number:            5  Label: O Atomic number:           8
 Species number:            6  Label: H Atomic number:           1
Ground state valence configuration:   2s02  2p02
Reading pseudopotential information in formatted form from C.psf

Valence configuration for pseudopotential generation:
2s( 2.00) rc: 1.56
2p( 2.00) rc: 1.56
3d( 0.00) rc: 1.56
4f( 0.00) rc: 1.56
Ground state valence configuration:   3s01
Reading pseudopotential information in formatted form from Na.psf

Valence configuration for pseudopotential generation:
3s( 1.00) rc: 2.94
3p( 0.00) rc: 3.50
3d( 0.00) rc: 2.94
Ground state valence configuration:   3s02  3p04
Reading pseudopotential information in formatted form from S.psf

Valence configuration for pseudopotential generation:
3s( 2.00) rc: 1.61
3p( 4.00) rc: 1.72
3d( 0.00) rc: 1.90
4f( 0.00) rc: 1.90
Ground state valence configuration:   2s02  2p03
Reading pseudopotential information in formatted form from N.psf

Valence configuration for pseudopotential generation:
2s( 2.00) rc: 1.48
2p( 3.00) rc: 1.48
3d( 0.00) rc: 1.48
4f( 0.00) rc: 1.48
Ground state valence configuration:   2s02  2p04
Reading pseudopotential information in formatted form from O.psf

Valence configuration for pseudopotential generation:
2s( 2.00) rc: 1.47
2p( 4.00) rc: 1.47
3d( 0.00) rc: 1.47
4f( 0.00) rc: 1.47
Ground state valence configuration:   1s01
Reading pseudopotential information in formatted form from H.psf

Valence configuration for pseudopotential generation:
1s( 1.00) rc: 1.25
2p( 0.00) rc: 1.25
3d( 0.00) rc: 1.25
4f( 0.00) rc: 1.25
For C, standard SIESTA heuristics set lmxkb to 3
 (one more than the basis l, including polarization orbitals).
Use PS.lmax or PS.KBprojectors blocks to override.
For Na, standard SIESTA heuristics set lmxkb to 2
 (one more than the basis l, including polarization orbitals).
Use PS.lmax or PS.KBprojectors blocks to override.
For S, standard SIESTA heuristics set lmxkb to 3
 (one more than the basis l, including polarization orbitals).
Use PS.lmax or PS.KBprojectors blocks to override.
For N, standard SIESTA heuristics set lmxkb to 3
 (one more than the basis l, including polarization orbitals).
Use PS.lmax or PS.KBprojectors blocks to override.
For O, standard SIESTA heuristics set lmxkb to 3
 (one more than the basis l, including polarization orbitals).
Use PS.lmax or PS.KBprojectors blocks to override.
For H, standard SIESTA heuristics set lmxkb to 2
 (one more than the basis l, including polarization orbitals).
Use PS.lmax or PS.KBprojectors blocks to override.

<basis_specs>
===============================================================================
C                    Z=   6    Mass=  12.010        Charge= 0.17977+309
Lmxo=1 Lmxkb= 3    BasisType=split      Semic=F
L=0  Nsemic=0  Cnfigmx=2
          n=1  nzeta=3  polorb=0
            splnorm:   0.15000    
               vcte:    0.0000    
               rinn:    0.0000    
                rcs:    9.0000      2.7000      3.6000    
            lambdas:    1.0000      1.0000      1.0000    
L=1  Nsemic=0  Cnfigmx=2
          n=1  nzeta=3  polorb=1
            splnorm:   0.15000    
               vcte:    0.0000    
               rinn:    0.0000    
                rcs:    9.0000      2.5000      3.6000    
            lambdas:    1.0000      1.0000      1.0000    
-------------------------------------------------------------------------------
L=0  Nkbl=1  erefs: 0.17977+309
L=1  Nkbl=1  erefs: 0.17977+309
L=2  Nkbl=1  erefs: 0.17977+309
L=3  Nkbl=1  erefs: 0.17977+309
===============================================================================
</basis_specs>

atom: Called for C                     (Z =   6)

read_vps: Pseudopotential generation method:
read_vps: ATM3.3    Troullier-Martins                       
Total valence charge:    4.00000

xc_check: Exchange-correlation functional:
xc_check: VDW LMKLL
xc_check: WARNING: Pseudopotential generated with Unknown atomic XC code functional
V l=0 = -2*Zval/r beyond r=  5.3157
V l=1 = -2*Zval/r beyond r=  5.3157
V l=2 = -2*Zval/r beyond r=  5.3157
V l=3 = -2*Zval/r beyond r=  5.3157
All V_l potentials equal beyond r=  1.5418
This should be close to max(r_c) in ps generation
All pots = -2*Zval/r beyond r=  5.3157
Using large-core scheme for Vlocal

atom: Estimated core radius    5.31569

atom: Including non-local core corrections could be a good idea
atom: Maximum radius for 4*pi*r*r*local-pseudopot. charge    5.72973
atom: Maximum radius for r*vlocal+2*Zval:    5.38256
GHOST: No ghost state for L =  0
GHOST: No ghost state for L =  1
GHOST: No ghost state for L =  2
GHOST: No ghost state for L =  3

KBgen: Kleinman-Bylander projectors: 
   l= 0   rc=  1.600766   el= -1.028746   Ekb=  4.362799   kbcos=  0.292106
   l= 1   rc=  1.600766   el= -0.417779   Ekb= -4.642779   kbcos= -0.389769
   l= 2   rc=  1.600766   el=  0.000137   Ekb= -1.256278   kbcos= -0.011586
   l= 3   rc=  1.600766   el=  0.001231   Ekb= -0.552397   kbcos= -0.001665

KBgen: Total number of  Kleinman-Bylander projectors:   16
atom: -------------------------------------------------------------------------

atom: SANKEY-TYPE ORBITALS:
atom: Selected multiple-zeta basis: split     

SPLIT: Orbitals with angular momentum L= 0

SPLIT: Basis orbitals for state 2s

   izeta = 1
                 lambda =    1.000000
                     rc =    9.099279
                 energy =   -1.028782
                kinetic =    0.818365
    potential(screened) =   -1.847147
       potential(ionic) =   -5.384555

   izeta = 2
                 rmatch =    2.740361
              splitnorm =    0.376993
                 energy =   -0.589586
                kinetic =    1.807161
    potential(screened) =   -2.396748
       potential(ionic) =   -6.344602

   izeta = 3
                 rmatch =    3.607901
              splitnorm =    0.134907
                 energy =   -0.911262
                kinetic =    1.252630
    potential(screened) =   -2.163892
       potential(ionic) =   -5.956700

SPLIT: Orbitals with angular momentum L= 1

SPLIT: Basis orbitals for state 2p

   izeta = 1
                 lambda =    1.000000
                     rc =    9.099279
                 energy =   -0.417701
                kinetic =    2.341737
    potential(screened) =   -2.759439
       potential(ionic) =   -6.120003

   izeta = 2
                 rmatch =    2.542323
              splitnorm =    0.421681
                 energy =    0.194476
                kinetic =    5.514744
    potential(screened) =   -5.320268
       potential(ionic) =   -9.401931

   izeta = 3
                 rmatch =    3.607901
              splitnorm =    0.186223
                 energy =   -0.262948
                kinetic =    3.720245
    potential(screened) =   -3.983193
       potential(ionic) =   -7.803234

POLgen: Perturbative polarization orbital with L=  2

POLgen: Polarization orbital for state 2p

   izeta = 1
                     rc =    9.099279
                 energy =    0.851019
                kinetic =    1.874696
    potential(screened) =   -1.023677
       potential(ionic) =   -3.588173
atom: Total number of Sankey-type orbitals: 17

atm_pop: Valence configuration (for local Pseudopot. screening):
 2s( 2.00)                                                            
 2p( 2.00)                                                            
Vna: chval, zval:    4.00000   4.00000

Vna:  Cut-off radius for the neutral-atom potential:   9.099279

atom: _________________________________________________________________________

<basis_specs>
===============================================================================
Na                   Z=  11    Mass=  22.990        Charge= 0.17977+309
Lmxo=0 Lmxkb= 2    BasisType=split      Semic=F
L=0  Nsemic=0  Cnfigmx=3
          n=1  nzeta=3  polorb=1
            splnorm:   0.15000    
               vcte:    0.0000    
               rinn:    0.0000    
                rcs:    0.0000      0.0000      0.0000    
            lambdas:    1.0000      1.0000      1.0000    
-------------------------------------------------------------------------------
L=0  Nkbl=1  erefs: 0.17977+309
L=1  Nkbl=1  erefs: 0.17977+309
L=2  Nkbl=1  erefs: 0.17977+309
===============================================================================
</basis_specs>

atom: Called for Na                    (Z =  11)

read_vps: Pseudopotential generation method:
read_vps: ATM3.3    Troullier-Martins                       
Total valence charge:    1.00000

xc_check: Exchange-correlation functional:
xc_check: VDW LMKLL
xc_check: WARNING: Pseudopotential generated with Unknown atomic XC code functional
V l=0 = -2*Zval/r beyond r= 10.7734
V l=1 = -2*Zval/r beyond r= 10.7734
V l=2 = -2*Zval/r beyond r= 10.7734
All V_l potentials equal beyond r=  3.2447
This should be close to max(r_c) in ps generation
All pots = -2*Zval/r beyond r= 10.7734
Using large-core scheme for Vlocal

atom: Estimated core radius   10.77344

atom: Including non-local core corrections could be a good idea
atom: Maximum radius for 4*pi*r*r*local-pseudopot. charge   11.32582
atom: Maximum radius for r*vlocal+2*Zval:   10.90896
GHOST: No ghost state for L =  0
GHOST: No ghost state for L =  1
GHOST: No ghost state for L =  2

KBgen: Kleinman-Bylander projectors: 
   l= 0   rc=  3.326887   el= -0.223037   Ekb=  0.939964   kbcos=  0.286137
   l= 1   rc=  3.497472   el= -0.067121   Ekb=  0.240696   kbcos=  0.324664
   l= 2   rc=  3.368737   el=  0.000162   Ekb= -1.792814   kbcos= -0.038461

KBgen: Total number of  Kleinman-Bylander projectors:    9
atom: -------------------------------------------------------------------------

atom: SANKEY-TYPE ORBITALS:
atom: Selected multiple-zeta basis: split     

SPLIT: Orbitals with angular momentum L= 0

SPLIT: Basis orbitals for state 3s

SPLIT: PAO cut-off radius determined from an
SPLIT: energy shift=  0.001000 Ry

   izeta = 1
                 lambda =    1.000000
                     rc =   11.612537
                 energy =   -0.222079
                kinetic =    0.147697
    potential(screened) =   -0.369777
       potential(ionic) =   -0.537811

   izeta = 2
                 rmatch =    8.710933
              splitnorm =    0.150000
                 energy =   -0.200365
                kinetic =    0.229153
    potential(screened) =   -0.429518
       potential(ionic) =   -0.594738

   izeta = 3
                 rmatch =    9.748190
              splitnorm =    0.075000
                 energy =   -0.210516
                kinetic =    0.202428
    potential(screened) =   -0.412944
       potential(ionic) =   -0.579751

POLgen: Perturbative polarization orbital with L=  1

POLgen: Polarization orbital for state 3s

   izeta = 1
                     rc =   11.612537
                 energy =   -0.044013
                kinetic =    0.282735
    potential(screened) =   -0.326748
       potential(ionic) =   -0.491619
atom: Total number of Sankey-type orbitals:  6

atm_pop: Valence configuration (for local Pseudopot. screening):
 3s( 1.00)                                                            
Vna: chval, zval:    1.00000   1.00000

Vna:  Cut-off radius for the neutral-atom potential:  11.612537

atom: _________________________________________________________________________

<basis_specs>
===============================================================================
S                    Z=  16    Mass=  32.070        Charge= 0.17977+309
Lmxo=1 Lmxkb= 3    BasisType=split      Semic=F
L=0  Nsemic=0  Cnfigmx=3
          n=1  nzeta=3  polorb=0
            splnorm:   0.15000    
               vcte:    0.0000    
               rinn:    0.0000    
                rcs:    8.5000      2.5000      5.0000    
            lambdas:    1.0000      1.0000      1.0000    
L=1  Nsemic=0  Cnfigmx=3
          n=1  nzeta=3  polorb=1
            splnorm:   0.15000    
               vcte:    0.0000    
               rinn:    0.0000    
                rcs:    8.5000      2.4000      5.4000    
            lambdas:    1.0000      1.0000      1.0000    
-------------------------------------------------------------------------------
L=0  Nkbl=1  erefs: 0.17977+309
L=1  Nkbl=1  erefs: 0.17977+309
L=2  Nkbl=1  erefs: 0.17977+309
L=3  Nkbl=1  erefs: 0.17977+309
===============================================================================
</basis_specs>

atom: Called for S                     (Z =  16)

read_vps: Pseudopotential generation method:
read_vps: ATM3.3    Troullier-Martins                       
Total valence charge:    6.00000

xc_check: Exchange-correlation functional:
xc_check: VDW LMKLL
xc_check: WARNING: Pseudopotential generated with Unknown atomic XC code functional
V l=0 = -2*Zval/r beyond r=  6.0641
V l=1 = -2*Zval/r beyond r=  6.0641
V l=2 = -2*Zval/r beyond r=  6.0641
V l=3 = -2*Zval/r beyond r=  6.0641
All V_l potentials equal beyond r=  1.8726
This should be close to max(r_c) in ps generation
All pots = -2*Zval/r beyond r=  6.0641
Using large-core scheme for Vlocal

atom: Estimated core radius    6.06410

atom: Including non-local core corrections could be a good idea
atom: Maximum radius for 4*pi*r*r*local-pseudopot. charge    2.55960
atom: Maximum radius for r*vlocal+2*Zval:    6.14038
GHOST: No ghost state for L =  0
GHOST: No ghost state for L =  1
GHOST: No ghost state for L =  2
GHOST: No ghost state for L =  3

KBgen: Kleinman-Bylander projectors: 
   l= 0   rc=  1.944163   el= -1.280897   Ekb=  6.395246   kbcos=  0.283459
   l= 1   rc=  1.944163   el= -0.534686   Ekb=  1.645939   kbcos=  0.250402
   l= 2   rc=  1.944163   el=  0.000165   Ekb= -3.764048   kbcos= -0.059734
   l= 3   rc=  1.944163   el=  0.001272   Ekb= -1.091229   kbcos= -0.004621

KBgen: Total number of  Kleinman-Bylander projectors:   16
atom: -------------------------------------------------------------------------

atom: SANKEY-TYPE ORBITALS:
atom: Selected multiple-zeta basis: split     

SPLIT: Orbitals with angular momentum L= 0

SPLIT: Basis orbitals for state 3s

   izeta = 1
                 lambda =    1.000000
                     rc =    8.605429
                 energy =   -1.280962
                kinetic =    0.826070
    potential(screened) =   -2.107032
       potential(ionic) =   -7.040627

   izeta = 2
                 rmatch =    2.527802
              splitnorm =    0.583939
                 energy =    0.038605
                kinetic =    3.083455
    potential(screened) =   -3.044850
       potential(ionic) =   -8.363708

   izeta = 3
                 rmatch =    5.090524
              splitnorm =    0.013701
                 energy =   -1.269004
* WARNING: effective split_norm is quite small. Orbitals will be very similar.
                kinetic =    0.936613
    potential(screened) =   -2.205617
       potential(ionic) =   -7.226785

SPLIT: Orbitals with angular momentum L= 1

SPLIT: Basis orbitals for state 3p

   izeta = 1
                 lambda =    1.000000
                     rc =    8.605429
                 energy =   -0.534578
                kinetic =    1.389438
    potential(screened) =   -1.924015
       potential(ionic) =   -6.449639

   izeta = 2
                 rmatch =    2.404512
              splitnorm =    0.643930
                 energy =    0.750024
                kinetic =    4.180831
    potential(screened) =   -3.430807
       potential(ionic) =   -8.937179

   izeta = 3
                 rmatch =    5.487008
              splitnorm =    0.036903
                 energy =   -0.510885
* WARNING: effective split_norm is quite small. Orbitals will be very similar.
                kinetic =    1.634978
    potential(screened) =   -2.145863
       potential(ionic) =   -6.883370

POLgen: Perturbative polarization orbital with L=  2

POLgen: Polarization orbital for state 3p

   izeta = 1
                     rc =    8.605429
                 energy =    0.525734
                kinetic =    1.769545
    potential(screened) =   -1.243810
       potential(ionic) =   -5.158576
atom: Total number of Sankey-type orbitals: 17

atm_pop: Valence configuration (for local Pseudopot. screening):
 3s( 2.00)                                                            
 3p( 4.00)                                                            
Vna: chval, zval:    6.00000   6.00000

Vna:  Cut-off radius for the neutral-atom potential:   8.605429

atom: _________________________________________________________________________

<basis_specs>
===============================================================================
N                    Z=   7    Mass=  14.010        Charge= 0.17977+309
Lmxo=1 Lmxkb= 3    BasisType=split      Semic=F
L=0  Nsemic=0  Cnfigmx=2
          n=1  nzeta=3  polorb=0
            splnorm:   0.15000    
               vcte:    0.0000    
               rinn:    0.0000    
                rcs:    9.0000      2.5000      4.3000    
            lambdas:    1.0000      1.0000      1.0000    
L=1  Nsemic=0  Cnfigmx=2
          n=1  nzeta=3  polorb=1
            splnorm:   0.15000    
               vcte:    0.0000    
               rinn:    0.0000    
                rcs:    9.0000      2.4000      3.8000    
            lambdas:    1.0000      1.0000      1.0000    
-------------------------------------------------------------------------------
L=0  Nkbl=1  erefs: 0.17977+309
L=1  Nkbl=1  erefs: 0.17977+309
L=2  Nkbl=1  erefs: 0.17977+309
L=3  Nkbl=1  erefs: 0.17977+309
===============================================================================
</basis_specs>

atom: Called for N                     (Z =   7)

read_vps: Pseudopotential generation method:
read_vps: ATM3.3    Troullier-Martins                       
Total valence charge:    5.00000

xc_check: Exchange-correlation functional:
xc_check: VDW LMKLL
xc_check: WARNING: Pseudopotential generated with Unknown atomic XC code functional
V l=0 = -2*Zval/r beyond r=  4.3886
V l=1 = -2*Zval/r beyond r=  4.3886
V l=2 = -2*Zval/r beyond r=  4.3886
V l=3 = -2*Zval/r beyond r=  4.3886
All V_l potentials equal beyond r=  1.4606
This should be close to max(r_c) in ps generation
All pots = -2*Zval/r beyond r=  4.3886
Using large-core scheme for Vlocal

atom: Estimated core radius    4.38860

atom: Including non-local core corrections could be a good idea
atom: Maximum radius for 4*pi*r*r*local-pseudopot. charge    4.78993
atom: Maximum radius for r*vlocal+2*Zval:    4.44380
GHOST: No ghost state for L =  0
GHOST: No ghost state for L =  1
GHOST: No ghost state for L =  2
GHOST: No ghost state for L =  3

KBgen: Kleinman-Bylander projectors: 
   l= 0   rc=  1.516426   el= -1.384037   Ekb=  5.003330   kbcos=  0.248027
   l= 1   rc=  1.516426   el= -0.553554   Ekb= -6.239124   kbcos= -0.455113
   l= 2   rc=  1.516426   el=  0.000157   Ekb= -1.621527   kbcos= -0.009557
   l= 3   rc=  1.516426   el=  0.001260   Ekb= -0.721831   kbcos= -0.001322

KBgen: Total number of  Kleinman-Bylander projectors:   16
atom: -------------------------------------------------------------------------

atom: SANKEY-TYPE ORBITALS:
atom: Selected multiple-zeta basis: split     

SPLIT: Orbitals with angular momentum L= 0

SPLIT: Basis orbitals for state 2s

   izeta = 1
                 lambda =    1.000000
                     rc =    9.061646
                 energy =   -1.384083
                kinetic =    1.138478
    potential(screened) =   -2.522561
       potential(ionic) =   -8.023340

   izeta = 2
                 rmatch =    2.531849
              splitnorm =    0.279302
                 energy =   -0.984788
                kinetic =    2.167047
    potential(screened) =   -3.151835
       potential(ionic) =   -9.249578

   izeta = 3
                 rmatch =    4.280232
              splitnorm =    0.017802
                 energy =   -1.364927
* WARNING: effective split_norm is quite small. Orbitals will be very similar.
                kinetic =    1.305680
    potential(screened) =   -2.670607
       potential(ionic) =   -8.325817

SPLIT: Orbitals with angular momentum L= 1

SPLIT: Basis orbitals for state 2p

   izeta = 1
                 lambda =    1.000000
                     rc =    9.061646
                 energy =   -0.553581
                kinetic =    3.375830
    potential(screened) =   -3.929411
       potential(ionic) =   -9.175051

   izeta = 2
                 rmatch =    2.408352
              splitnorm =    0.319803
                 energy =   -0.019422
                kinetic =    6.675109
    potential(screened) =   -6.694530
       potential(ionic) =  -12.919528

   izeta = 3
                 rmatch =    3.777250
              splitnorm =    0.083818
                 energy =   -0.477376
                kinetic =    4.399373
    potential(screened) =   -4.876748
       potential(ionic) =  -10.589170

POLgen: Perturbative polarization orbital with L=  2

POLgen: Polarization orbital for state 2p

   izeta = 1
                     rc =    9.061646
                 energy =    1.274251
                kinetic =    2.706331
    potential(screened) =   -1.432079
       potential(ionic) =   -5.376240
atom: Total number of Sankey-type orbitals: 17

atm_pop: Valence configuration (for local Pseudopot. screening):
 2s( 2.00)                                                            
 2p( 3.00)                                                            
Vna: chval, zval:    5.00000   5.00000

Vna:  Cut-off radius for the neutral-atom potential:   9.061646

atom: _________________________________________________________________________

<basis_specs>
===============================================================================
O                    Z=   8    Mass=  16.000        Charge= 0.17977+309
Lmxo=1 Lmxkb= 3    BasisType=split      Semic=F
L=0  Nsemic=0  Cnfigmx=2
          n=1  nzeta=3  polorb=0
            splnorm:   0.15000    
               vcte:    0.0000    
               rinn:    0.0000    
                rcs:    8.5000      2.5000      5.0000    
            lambdas:    1.0000      1.0000      1.0000    
L=1  Nsemic=0  Cnfigmx=2
          n=1  nzeta=3  polorb=1
            splnorm:   0.15000    
               vcte:    0.0000    
               rinn:    0.0000    
                rcs:    9.0000      2.4000      5.4000    
            lambdas:    1.0000      1.0000      1.0000    
-------------------------------------------------------------------------------
L=0  Nkbl=1  erefs: 0.17977+309
L=1  Nkbl=1  erefs: 0.17977+309
L=2  Nkbl=1  erefs: 0.17977+309
L=3  Nkbl=1  erefs: 0.17977+309
===============================================================================
</basis_specs>

atom: Called for O                     (Z =   8)

read_vps: Pseudopotential generation method:
read_vps: ATM3.3    Troullier-Martins                       
Total valence charge:    6.00000

xc_check: Exchange-correlation functional:
xc_check: VDW LMKLL
xc_check: WARNING: Pseudopotential generated with Unknown atomic XC code functional
V l=0 = -2*Zval/r beyond r=  2.6723
V l=1 = -2*Zval/r beyond r=  2.6723
V l=2 = -2*Zval/r beyond r=  2.6723
V l=3 = -2*Zval/r beyond r=  2.6723
All V_l potentials equal beyond r=  1.4482
This should be close to max(r_c) in ps generation
All pots = -2*Zval/r beyond r=  2.6723
Using large-core scheme for Vlocal

atom: Estimated core radius    2.67231

atom: Including non-local core corrections could be a good idea
atom: Maximum radius for 4*pi*r*r*local-pseudopot. charge    3.14389
atom: Maximum radius for r*vlocal+2*Zval:    2.70593
GHOST: No ghost state for L =  0
GHOST: No ghost state for L =  1
GHOST: No ghost state for L =  2
GHOST: No ghost state for L =  3

KBgen: Kleinman-Bylander projectors: 
   l= 0   rc=  1.503585   el= -1.779675   Ekb= -9.464596   kbcos= -0.084701
   l= 1   rc=  1.503585   el= -0.699088   Ekb= -8.000316   kbcos= -0.523182
   l= 2   rc=  1.503585   el=  0.000197   Ekb= -1.973137   kbcos= -0.008602
   l= 3   rc=  1.503585   el=  0.001319   Ekb= -0.877897   kbcos= -0.001222

KBgen: Total number of  Kleinman-Bylander projectors:   16
atom: -------------------------------------------------------------------------

atom: SANKEY-TYPE ORBITALS:
atom: Selected multiple-zeta basis: split     

SPLIT: Orbitals with angular momentum L= 0

SPLIT: Basis orbitals for state 2s

   izeta = 1
                 lambda =    1.000000
                     rc =    8.546503
                 energy =   -1.779728
                kinetic =    1.517373
    potential(screened) =   -3.297102
       potential(ionic) =  -11.177458

   izeta = 2
                 rmatch =    2.510382
              splitnorm =    0.165477
                 energy =   -1.504871
                kinetic =    2.431996
    potential(screened) =   -3.936867
       potential(ionic) =  -12.514426

   izeta = 3
                 rmatch =    5.055603
              splitnorm =    0.001104
                 energy =   -1.778115
* WARNING: effective split_norm is quite small. Orbitals will be very similar.
                kinetic =    1.561881
    potential(screened) =   -3.339996
       potential(ionic) =  -11.273025

SPLIT: Orbitals with angular momentum L= 1

SPLIT: Basis orbitals for state 2p

   izeta = 1
                 lambda =    1.000000
                     rc =    8.984708
                 energy =   -0.699155
                kinetic =    4.481222
    potential(screened) =   -5.180377
       potential(ionic) =  -12.692538

   izeta = 2
                 rmatch =    2.387934
              splitnorm =    0.223278
                 energy =   -0.294690
                kinetic =    7.512089
    potential(screened) =   -7.806779
       potential(ionic) =  -16.470490

   izeta = 3
                 rmatch =    5.449379
              splitnorm =    0.004964
                 energy =   -0.694858
* WARNING: effective split_norm is quite small. Orbitals will be very similar.
                kinetic =    4.668557
    potential(screened) =   -5.363415
       potential(ionic) =  -13.004195

POLgen: Perturbative polarization orbital with L=  2

POLgen: Polarization orbital for state 2p

   izeta = 1
                     rc =    8.984708
                 energy =    1.782562
                kinetic =    3.710549
    potential(screened) =   -1.927987
       potential(ionic) =   -7.553219
atom: Total number of Sankey-type orbitals: 17

atm_pop: Valence configuration (for local Pseudopot. screening):
 2s( 2.00)                                                            
 2p( 4.00)                                                            
Vna: chval, zval:    6.00000   6.00000

Vna:  Cut-off radius for the neutral-atom potential:   8.984708

atom: _________________________________________________________________________

<basis_specs>
===============================================================================
H                    Z=   1    Mass=  1.0100        Charge= 0.17977+309
Lmxo=0 Lmxkb= 2    BasisType=split      Semic=F
L=0  Nsemic=0  Cnfigmx=1
          n=1  nzeta=3  polorb=1
            splnorm:   0.50000    
               vcte:    0.0000    
               rinn:    0.0000    
                rcs:    8.0000      1.8000      4.1000    
            lambdas:    1.0000      1.0000      1.0000    
-------------------------------------------------------------------------------
L=0  Nkbl=1  erefs: 0.17977+309
L=1  Nkbl=1  erefs: 0.17977+309
L=2  Nkbl=1  erefs: 0.17977+309
===============================================================================
</basis_specs>

atom: Called for H                     (Z =   1)

read_vps: Pseudopotential generation method:
read_vps: ATM3.3    Troullier-Martins                       
Total valence charge:    1.00000

xc_check: Exchange-correlation functional:
xc_check: VDW LMKLL
xc_check: WARNING: Pseudopotential generated with Unknown atomic XC code functional
V l=0 = -2*Zval/r beyond r=  1.3644
V l=1 = -2*Zval/r beyond r=  1.3474
V l=2 = -2*Zval/r beyond r=  1.3474
All V_l potentials equal beyond r=  1.2343
This should be close to max(r_c) in ps generation
All pots = -2*Zval/r beyond r=  1.3644

VLOCAL1: 99.0% of the norm of Vloc inside     28.493 Ry
VLOCAL1: 99.9% of the norm of Vloc inside     64.935 Ry
atom: Maximum radius for 4*pi*r*r*local-pseudopot. charge    1.45251
atom: Maximum radius for r*vlocal+2*Zval:    1.21892
GHOST: No ghost state for L =  0
GHOST: No ghost state for L =  1
GHOST: No ghost state for L =  2

KBgen: Kleinman-Bylander projectors: 
   l= 0   rc=  1.625762   el= -0.519992   Ekb= -2.047279   kbcos= -0.354363
   l= 1   rc=  2.519390   el= -0.000771   Ekb= -0.506821   kbcos= -0.022580
   l= 2   rc=  2.927514   el=  0.000176   Ekb= -0.221733   kbcos= -0.002090

KBgen: Total number of  Kleinman-Bylander projectors:    9
atom: -------------------------------------------------------------------------

atom: SANKEY-TYPE ORBITALS:
atom: Selected multiple-zeta basis: split     

SPLIT: Orbitals with angular momentum L= 0

SPLIT: Basis orbitals for state 1s

   izeta = 1
                 lambda =    1.000000
                     rc =    7.962068
                 energy =   -0.519774
                kinetic =    0.910189
    potential(screened) =   -1.429963
       potential(ionic) =   -1.906963

   izeta = 2
                 rmatch =    1.819640
              splitnorm =    0.711859
                 energy =    1.124022
                kinetic =    4.644871
    potential(screened) =   -3.520849
       potential(ionic) =   -3.960301

   izeta = 3
                 rmatch =    4.155379
              splitnorm =    0.140914
                 energy =   -0.434175
                kinetic =    1.462160
    potential(screened) =   -1.896335
       potential(ionic) =   -2.393173

POLgen: Perturbative polarization orbital with L=  1

POLgen: Polarization orbital for state 1s

   izeta = 1
                     rc =    7.962068
                 energy =    0.477749
                kinetic =    1.090716
    potential(screened) =   -0.612967
       potential(ionic) =   -1.043837
atom: Total number of Sankey-type orbitals:  6

atm_pop: Valence configuration (for local Pseudopot. screening):
 1s( 1.00)                                                            
Vna: chval, zval:    1.00000   1.00000

Vna:  Cut-off radius for the neutral-atom potential:   7.962068

atom: _________________________________________________________________________

prinput: Basis input ----------------------------------------------------------

PAO.BasisType split     

%block ChemicalSpeciesLabel
    1    6 C                       # Species index, atomic number, species label
    2   11 Na                      # Species index, atomic number, species label
    3   16 S                       # Species index, atomic number, species label
    4    7 N                       # Species index, atomic number, species label
    5    8 O                       # Species index, atomic number, species label
    6    1 H                       # Species index, atomic number, species label
%endblock ChemicalSpeciesLabel

%block PAO.Basis                 # Define Basis set
C                     2                    # Species label, number of l-shells
 n=2   0   3                         # n, l, Nzeta 
   9.099      2.740      3.608   
   1.000      1.000      1.000   
 n=2   1   3 P   1                   # n, l, Nzeta, Polarization, NzetaPol
   9.099      2.542      3.608   
   1.000      1.000      1.000   
Na                    1                    # Species label, number of l-shells
 n=3   0   3 P   1                   # n, l, Nzeta, Polarization, NzetaPol
  11.613      8.711      9.748   
   1.000      1.000      1.000   
S                     2                    # Species label, number of l-shells
 n=3   0   3                         # n, l, Nzeta 
   8.605      2.528      5.091   
   1.000      1.000      1.000   
 n=3   1   3 P   1                   # n, l, Nzeta, Polarization, NzetaPol
   8.605      2.405      5.487   
   1.000      1.000      1.000   
N                     2                    # Species label, number of l-shells
 n=2   0   3                         # n, l, Nzeta 
   9.062      2.532      4.280   
   1.000      1.000      1.000   
 n=2   1   3 P   1                   # n, l, Nzeta, Polarization, NzetaPol
   9.062      2.408      3.777   
   1.000      1.000      1.000   
O                     2                    # Species label, number of l-shells
 n=2   0   3                         # n, l, Nzeta 
   8.547      2.510      5.056   
   1.000      1.000      1.000   
 n=2   1   3 P   1                   # n, l, Nzeta, Polarization, NzetaPol
   8.985      2.388      5.449   
   1.000      1.000      1.000   
H                     1                    # Species label, number of l-shells
 n=1   0   3 P   1                   # n, l, Nzeta, Polarization, NzetaPol
   7.962      1.820      4.155   
   1.000      1.000      1.000   
%endblock PAO.Basis

prinput: ----------------------------------------------------------------------

coor:   Atomic-coordinates input format  =     Cartesian coordinates
coor:                                          (in Angstroms)

siesta: WARNING: XV file not found

siesta: Atomic coordinates (Bohr) and species
siesta:     50.63105  17.19887  19.50107  2        1
siesta:     50.95119  29.71294  25.94309  2        2
siesta:     19.29838  18.19657  20.39589  2        3
siesta:     19.58799  30.57294  26.93329  2        4
siesta:     22.99949  18.00171  18.51016  5        5
siesta:     20.65825  22.05262  19.36201  5        6
siesta:     22.44454  19.53363  22.95295  5        7
siesta:     22.94205  20.41364  20.18593  3        8
siesta:     35.22745  30.05747  21.16238  5        9
siesta:     33.14653  28.85600  20.90825  1       10
siesta:     30.71196  32.15597  21.59589  6       11
siesta:     30.66751  30.13216  21.17916  1       12
siesta:     26.60280  29.78330  21.26206  6       13
siesta:     28.41000  28.81897  20.97042  1       14
siesta:     28.32308  26.08133  20.45734  1       15
siesta:     24.17876  25.82015  20.67964  6       16
siesta:     25.93749  24.78262  20.36276  1       17
siesta:     25.92623  22.14453  19.95472  1       18
siesta:     28.09387  18.68353  19.29052  6       19
siesta:     28.19621  20.72008  19.60900  1       20
siesta:     32.29732  20.93446  19.45664  6       21
siesta:     30.54307  21.99298  19.69580  1       22
siesta:     30.65737  24.67456  20.13536  1       23
siesta:     33.11282  26.05684  20.32359  1       24
siesta:     35.22122  24.65873  19.95427  4       25
siesta:     37.51843  27.70520  20.55300  6       26
siesta:     37.50016  25.78048  20.10592  4       27
siesta:     41.86880  18.26976  18.57524  6       28
siesta:     41.90084  20.29379  18.97420  1       29
siesta:     37.79988  20.76872  18.95599  6       30
siesta:     39.63026  21.68900  19.17682  1       31
siesta:     39.74191  24.33983  19.74182  1       32
siesta:     42.19437  27.61904  20.43826  6       33
siesta:     42.12456  25.59913  20.00825  1       34
siesta:     46.22349  25.12878  20.12397  6       35
siesta:     44.40464  24.19923  19.82154  1       36
siesta:     44.25180  21.55938  19.33307  1       37
siesta:     46.93770  17.36422  17.60819  5       38
siesta:     49.51103  21.17619  18.81889  5       39
siesta:     47.11091  19.62800  19.47140  3       40
siesta:     47.49799  18.49505  22.16716  5       41
siesta:     47.28791  29.83409  27.91442  5       42
siesta:     49.60970  25.80719  26.88693  5       43
siesta:     47.78073  28.45608  23.41631  5       44
siesta:     47.31846  27.47949  26.15860  3       45
siesta:     35.05963  17.78623  25.25882  5       46
siesta:     37.13654  18.99597  25.50964  1       47
siesta:     39.57927  15.69951  24.84399  6       48
siesta:     39.61893  17.72637  25.24640  1       49
siesta:     43.68081  18.08474  25.15139  6       50
siesta:     41.87265  19.04708  25.44384  1       51
siesta:     41.95143  21.78965  25.93540  1       52
siesta:     46.09590  22.06570  25.70480  6       53
siesta:     44.33244  23.09879  26.00982  1       54
siesta:     44.33704  25.74109  26.39088  1       55
siesta:     42.15676  29.19797  27.04146  6       56
siesta:     42.06316  27.15922  26.73639  1       57
siesta:     37.96385  26.93030  26.91096  6       58
siesta:     39.72100  25.87620  26.67225  1       59
siesta:     39.61347  23.19045  26.25542  1       60
siesta:     37.16210  21.79772  26.08387  1       61
siesta:     35.04920  23.18926  26.45015  4       62
siesta:     32.76517  20.13193  25.85893  6       63
siesta:     32.77468  22.05813  26.30247  4       64
siesta:     28.37899  29.55361  27.84265  6       65
siesta:     28.35333  27.53212  27.43039  1       66
siesta:     32.45497  27.06146  27.47237  6       67
siesta:     30.62782  26.14103  27.23293  1       68
siesta:     30.52715  23.49389  26.65174  1       69
siesta:     28.08580  20.21658  25.90464  6       70
siesta:     28.14843  22.23299  26.35601  1       71
siesta:     24.05179  22.69298  26.21618  6       72
siesta:     25.86465  23.62689  26.54067  1       73
siesta:     26.00765  26.26416  27.05131  1       74
siesta:     23.36040  30.53853  28.65604  5       75
siesta:     20.77276  26.65304  27.76074  5       76
siesta:     23.13220  28.17667  26.92359  3       77
siesta:     22.62443  29.16265  24.19113  5       78

siesta: System type = molecule  

initatomlists: Number of atoms, orbitals, and projectors:     78  1062  1080

siesta: ******************** Simulation parameters ****************************
siesta:
siesta: The following are some of the parameters of the simulation.
siesta: A complete list of the parameters used, including default values,
siesta: can be found in file out.fdf
siesta:
redata: Non-Collinear-spin run           =     F
redata: SpinPolarized (Up/Down) run      =     F
redata: Number of spin components        =     1
redata: Long output                      =     T
redata: Number of Atomic Species         =        6
redata: Charge density info will appear in .RHO file
redata: Write Mulliken Pop.              =     Atomic and Orbital charges
redata: Mesh Cutoff                      =   300.0000  Ry
redata: Net charge of the system         =     0.0000 |e|
redata: Max. number of SCF Iter          =      500
redata: Performing Pulay mixing using    =     5 iterations
redata: Mix DM in first SCF step ?       =     F
redata: Write Pulay info on disk?        =     F
redata: Discard 1st Pulay DM after  kick =     F
redata: New DM Mixing Weight             =     0.2500
redata: New DM Occupancy tolerance       = 0.000000000001
redata: No kicks to SCF
redata: DM Mixing Weight for Kicks       =     0.5000
redata: DM Tolerance for SCF             =     0.000100
redata: Require Energy convergence for SCF =     F
redata: DM Energy tolerance for SCF      =     0.000100 eV
redata: Require Harris convergence for SCF =     F
redata: DM Harris energy tolerance for SCF =     0.000100 eV
redata: Using Saved Data (generic)   =     T
redata: Use continuation files for DM    =     T
redata: Neglect nonoverlap interactions  =     F
redata: Method of Calculation            =     Diagonalization
redata: Divide and Conquer               =     T
redata: Electronic Temperature           =     0.0019  Ry
redata: Fix the spin of the system       =     F
redata: Dynamics option                  =     CG coord. optimization
redata: Variable cell                    =     F
redata: Use continuation files for CG    =     T
redata: Max atomic displ per move        =     0.2000  Bohr
redata: Maximum number of CG moves       =        0
redata: Force tolerance                  =     0.0004  Ry/Bohr
redata: ***********************************************************************
Total number of electrons:   280.000000
Total ionic charge:   280.000000

* ProcessorY, Blocksize:    8  15

 Kpoints in:            1 . Kpoints trimmed:            1

siesta: k-point coordinates (Bohr**-1) and weights:
siesta:    1    0.000000    0.000000    0.000000       1.000000

siesta: k-grid: Number of k-points =     1
siesta: k-grid: Cutoff (effective) =    12.000 Ang
siesta: k-grid: Supercell and displacements
siesta: k-grid:    1   0   0      0.000
siesta: k-grid:    0   1   0      0.000
siesta: k-grid:    0   0   1      0.000

siesta:                 ==============================
                            Begin CG move =      0
                        ==============================

outcoor: Atomic coordinates (Ang):                          
   26.79278747    9.10124436   10.31951832   2       1  Na
   26.96219635   15.72340412   13.72848399   2       2  Na
   10.21226136    9.62920447   10.79303795   2       3  Na
   10.36551535   16.17849759   14.25247853   2       4  Na
   12.17080333    9.52609259    9.79515339   5       5  O
   10.93186828   11.66973994   10.24592979   5       6  O
   11.87713675   10.33674629   12.14617193   5       7  O
   12.14040660   10.80243039   10.68192981   3       8  S
   18.64155445   15.90572306   11.19864467   5       9  O
   17.54037872   15.26993380   11.06416286   1      10  C
   16.25206464   17.01619795   11.42804883   6      11  H
   16.22854049   15.94524849   11.20752445   1      12  C
   14.07758832   15.76063841   11.25139494   6      13  H
   15.03391751   15.25033682   11.09706386   1      14  C
   14.98792261   13.80163951   10.82555436   1      15  C
   12.79484203   13.66342917   10.94318951   6      16  H
   13.72552164   13.11439475   10.77550419   1      17  C
   13.71956693   11.71837438   10.55957988   1      18  C
   14.86663114    9.88689332   10.20810207   6      19  H
   14.92078794   10.96458751   10.37663196   1      20  C
   17.09100048   11.07803580   10.29600479   6      21  H
   16.16269271   11.63818125   10.42256350   1      22  C
   16.22317555   13.05721087   10.65517046   1      23  C
   17.52254117   13.78867857   10.75477733   1      24  C
   18.63825952   13.04883373   10.55934046   4      25  N
   19.85388832   14.66095584   10.87617268   6      26  H
   19.84422363   13.64243747   10.63958865   4      27  N
   22.15600597    9.66793589    9.82959214   6      28  H
   22.17295937   10.73900774   10.04070807   1      29  C
   20.00282552   10.99032693   10.03107148   6      30  H
   20.97142100   11.47732186   10.14793119   1      31  C
   21.03050349   12.88007981   10.44691969   1      32  C
   22.32829096   14.61536140   10.81545874   6      33  H
   22.29134896   13.54646962   10.58790705   1      34  C
   24.46040692   13.29757463   10.64914163   6      35  H
   23.49791266   12.80567789   10.48910059   1      36  C
   23.41703734   11.40872660   10.23061840   1      37  C
   24.83834987    9.18874534    9.31784920   5      38  O
   26.20009665   11.20595381    9.95852293   5      39  O
   24.93000878   10.38668774   10.30381580   3      40  S
   25.13484513    9.78715480   11.73034868   5      41  O
   25.02367288   15.78751267   14.77166777   5      42  O
   26.25231461   13.65656990   14.22794240   5      43  O
   25.28446597   15.05830331   12.39137506   5      44  O
   25.03983931   14.54151238   13.84253157   3      45  S
   18.55275228    9.41206474   13.36638775   5      46  O
   19.65180108   10.05222850   13.49911272   1      47  C
   20.94443911    8.30782129   13.14686831   6      48  H
   20.96542807    9.38038536   13.35981477   1      49  C
   23.11487845    9.57002857   13.30953865   6      50  H
   22.15804369   10.07927540   13.46429754   1      51  C
   22.19973047   11.53058170   13.72441515   1      52  C
   24.39288931   11.67666060   13.60238852   6      53  H
   23.45970840   12.22334576   13.76379898   1      54  C
   23.46214220   13.62159371   13.96544608   1      55  C
   22.30838891   15.45089571   14.30971607   6      56  H
   22.25885650   14.37203694   14.14828063   1      57  C
   20.08959867   14.25089536   14.24065922   6      58  H
   21.01943752   13.69308866   14.11434219   1      59  C
   20.96253602   12.27185390   13.89376625   1      60  C
   19.66533004   11.53484990   13.80298521   1      61  C
   18.54723085   12.27122194   13.99680944   4      62  N
   17.33857590   10.65335209   13.68394942   6      63  H
   17.34360748   11.67265369   13.91866171   4      64  N
   15.01750951   15.63908826   14.73368901   6      65  H
   15.00392769   14.56936625   14.51553297   1      66  C
   17.17442460   14.32030262   14.53774411   6      67  H
   16.20753907   13.83323444   14.41103975   1      68  C
   16.15426452   12.43242821   14.10348879   1      69  C
   14.86235729   10.69814654   13.70813925   6      70  H
   14.89550079   11.76518783   13.94699195   1      71  C
   12.72765402   12.00860370   13.87300180   6      72  H
   13.68697731   12.50280521   14.04471356   1      73  C
   13.76265276   13.89838925   14.31493112   1      74  C
   12.36178761   16.16028726   15.16411885   5      75  O
   10.99246654   14.10417711   14.69034341   5      76  O
   12.24102968   14.91044360   14.24734685   3      77  S
   11.97232704   15.43220435   12.80139212   5      78  O

outcell: Unit cell vectors (Ang):
       35.000000    0.000000    0.000000
        0.000000   24.000000    0.000000
        0.000000    0.000000   24.000000

outcell: Cell vector modules (Ang)   :   35.000000   24.000000   24.000000
outcell: Cell angles (23,13,12) (deg):     90.0000     90.0000     90.0000
outcell: Cell volume (Ang**3)        :  20160.0000
New_DM. Step:     1
Initializing Density Matrix...
New grid distribution:   1
           1       1:  192    1:   16    1:   15
           2       1:  192    1:   16   16:   30
           3       1:  192    1:   16   31:   44
           4       1:  192    1:   16   45:   58
           5       1:  192    1:   16   59:   72
           6       1:  192    1:   16   73:   86
           7       1:  192    1:   16   87:  100
           8       1:  192    1:   16  101:  114
           9       1:  192    1:   16  115:  128
          10       1:  192   17:   32    1:   15
          11       1:  192   17:   32   16:   30
          12       1:  192   17:   32   31:   44
          13       1:  192   17:   32   45:   58
          14       1:  192   17:   32   59:   72
          15       1:  192   17:   32   73:   86
          16       1:  192   17:   32   87:  100
          17       1:  192   17:   32  101:  114
          18       1:  192   17:   32  115:  128
          19       1:  192   33:   48    1:   15
          20       1:  192   33:   48   16:   30
          21       1:  192   33:   48   31:   44
          22       1:  192   33:   48   45:   58
          23       1:  192   33:   48   59:   72
          24       1:  192   33:   48   73:   86
          25       1:  192   33:   48   87:  100
          26       1:  192   33:   48  101:  114
          27       1:  192   33:   48  115:  128
          28       1:  192   49:   64    1:   15
          29       1:  192   49:   64   16:   30
          30       1:  192   49:   64   31:   44
          31       1:  192   49:   64   45:   58
          32       1:  192   49:   64   59:   72
          33       1:  192   49:   64   73:   86
          34       1:  192   49:   64   87:  100
          35       1:  192   49:   64  101:  114
          36       1:  192   49:   64  115:  128
          37       1:  192   65:   80    1:   15
          38       1:  192   65:   80   16:   30
          39       1:  192   65:   80   31:   44
          40       1:  192   65:   80   45:   58
          41       1:  192   65:   80   59:   72
          42       1:  192   65:   80   73:   86
          43       1:  192   65:   80   87:  100
          44       1:  192   65:   80  101:  114
          45       1:  192   65:   80  115:  128
          46       1:  192   81:   96    1:   15
          47       1:  192   81:   96   16:   30
          48       1:  192   81:   96   31:   44
          49       1:  192   81:   96   45:   58
          50       1:  192   81:   96   59:   72
          51       1:  192   81:   96   73:   86
          52       1:  192   81:   96   87:  100
          53       1:  192   81:   96  101:  114
          54       1:  192   81:   96  115:  128
          55       1:  192   97:  112    1:   15
          56       1:  192   97:  112   16:   30
          57       1:  192   97:  112   31:   44
          58       1:  192   97:  112   45:   58
          59       1:  192   97:  112   59:   72
          60       1:  192   97:  112   73:   86
          61       1:  192   97:  112   87:  100
          62       1:  192   97:  112  101:  114
          63       1:  192   97:  112  115:  128
          64       1:  192  113:  128    1:   15
          65       1:  192  113:  128   16:   30
          66       1:  192  113:  128   31:   44
          67       1:  192  113:  128   45:   58
          68       1:  192  113:  128   59:   72
          69       1:  192  113:  128   73:   86
          70       1:  192  113:  128   87:  100
          71       1:  192  113:  128  101:  114
          72       1:  192  113:  128  115:  128

InitMesh: MESH =   384 x   256 x   256 =    25165824
InitMesh: (bp) =   192 x   128 x   128 =     3145728
InitMesh: Mesh cutoff (required, used) =   300.000   314.455 Ry
ExtMesh (bp) on 0 =   328 x   148 x   147 =     7135968
New grid distribution:   2
           1       1:   81    1:   59    1:   57
           2     119:  192   66:   72    1:   57
           3     103:  121    1:   57   59:   66
           4       1:   82   70:   77   60:   66
           5     122:  192    1:   53   56:   66
           6     103:  118   66:   74    1:   58
           7       1:   82    1:   63   74:  128
           8     120:  192   68:   75   67:   73
           9     120:  192    1:   56   73:  128
          10       1:   82   78:  128   60:   66
          11     103:  119   60:   67   75:  128
          12     120:  192   59:   67   67:   72
          13     103:  119   68:   75   75:  128
          14       1:   82    1:   62   67:   73
          15      83:  102    1:   58   73:  128
          16      82:   92   58:   69   57:   66
          17      82:  102    1:   57   57:   66
          18      83:  102    1:   61   67:   72
          19     122:  192    1:   56    1:   55
          20     122:  131   54:   65   56:   66
          21      82:  102    1:   61    1:   56
          22     103:  119   59:   67   67:   74
          23     120:  192    1:   58   67:   72
          24     103:  119    1:   58   67:   74
          25      82:  102   62:   69    1:   56
          26     103:  118   75:  128   59:   66
          27     103:  121   58:   65   59:   66
          28     103:  121    1:   57    1:   58
          29       1:   81   60:   69    1:   57
          30     122:  192   57:   65    1:   55
          31     103:  121   58:   65    1:   58
          32       1:   82   63:   70   67:   73
          33     131:  192   57:   67   73:  128
          34     103:  119    1:   59   75:  128
          35      83:   93   59:   70   73:  128
          36      93:  102   58:   69   57:   66
          37       1:   81    1:   61   58:   66
          38       1:   82   70:   76    1:   59
          39      83:  102   70:   77    1:   56
          40     119:  192   66:   71   58:   66
          41     132:  192   54:   65   56:   66
          42       1:   80   71:   78   67:   75
          43       1:   80   71:   80   76:  128
          44       1:   82   64:   70   74:  128
          45     120:  192   68:   73   74:  128
          46       1:   82   77:  128    1:   59
          47     120:  130   57:   67   73:  128
          48      83:  102   70:   75   57:   66
          49     119:  129   72:  128   58:   66
          50     103:  119   76:  128   67:   74
          51      90:  102   76:  128   73:  128
          52       1:   80   81:  128   76:  128
          53     120:  131   74:  128   74:  128
          54      81:  102   79:  128   67:   72
          55     119:  192   73:  128    1:   57
          56     103:  118   66:   74   59:   66
          57     103:  118   75:  128    1:   58
          58      81:  102   71:   75   73:  128
          59       1:   80   79:  128   67:   75
          60     103:  119   68:   75   67:   74
          61     132:  192   74:  128   74:  128
          62      81:   89   76:  128   73:  128
          63      94:  102   59:   70   73:  128
          64      83:  102   62:   70   67:   72
          65      83:  102   78:  128    1:   56
          66       1:   81   62:   69   58:   66
          67      83:   91   76:  128   57:   66
          68     130:  192   72:  128   58:   66
          69     120:  192   76:  128   67:   73
          70     103:  119   76:  128   75:  128
          71      92:  102   76:  128   57:   66
          72      81:  102   71:   78   67:   72
New grid distribution:   3
           1       1:   58    1:   46    1:   50
           2      84:  102   53:   76   79:  128
           3     131:  192   49:   73   66:   74
           4       1:   58    1:   44   51:   66
           5       1:   64    1:   51   67:   78
           6      65:  102    1:   52   67:   78
           7       1:   64    1:   62   79:  128
           8     141:  192   74:   92   66:   78
           9     131:  192    1:   50   75:  128
          10      67:  102   63:   79    1:   48
          11      65:   83   53:   76   79:  128
          12     103:  133   60:   83   51:   65
          13     141:  192    1:   34   45:   65
          14     103:  140    1:   42   50:   65
          15      67:  102   63:   79   49:   66
          16      65:  102    1:   52   79:  128
          17      59:  102   49:   62    1:   46
          18      59:  102   95:  128   67:   79
          19     141:  192    1:   43    1:   44
          20      65:  102   53:   76   67:   78
          21      59:  102    1:   48    1:   46
          22      59:  102    1:   39   47:   66
          23     161:  192   35:   59   45:   65
          24     103:  130    1:   48   66:   80
          25     103:  140    1:   46    1:   49
          26       1:   64   52:   76   67:   78
          27     103:  140   74:   91   66:   81
          28       1:   58   47:   62    1:   50
          29      74:  102   87:  128   80:  128
          30     141:  192   44:   59    1:   44
          31     103:  140   47:   59    1:   49
          32       1:   58   45:   62   51:   66
          33     131:  192    1:   48   66:   74
          34     103:  130    1:   54   81:  128
          35     103:  130   55:   73   81:  128
          36     141:  160   35:   59   45:   65
          37       1:   66   63:   75    1:   55
          38     134:  192   60:   72    1:   50
          39     103:  133   60:   76    1:   50
          40     134:  192   60:   76   51:   65
          41      86:  102   80:  128   49:   66
          42     131:  149   51:   73   75:  128
          43     150:  192   51:   73   75:  128
          44       1:   64   63:   76   79:  128
          45     141:  192   74:   85   79:  128
          46       1:   66   76:  128    1:   55
          47       1:   58   77:   94   67:   83
          48     103:  130   49:   73   66:   80
          49     154:  192   77:  128   51:   65
          50     134:  153   77:  128   51:   65
          51      59:  102   77:   86   80:  128
          52     103:  140   88:  128   82:  128
          53       1:   58   77:   92   84:  128
          54     103:  140   74:   87   82:  128
          55     134:  192   73:  128    1:   50
          56     103:  140   43:   59   50:   65
          57     103:  133   77:  128    1:   50
          58      67:   85   80:  128   49:   66
          59     141:  192   93:  128   66:   78
          60       1:   58   95:  128   67:   83
          61       1:   58   93:  128   84:  128
          62     141:  155   86:  128   79:  128
          63       1:   66   63:   86   56:   66
          64      59:  102   77:   94   67:   79
          65      67:  102   80:  128    1:   48
          66      59:   80   40:   62   47:   66
          67     103:  133   84:  128   51:   65
          68       1:   66   87:  128   56:   66
          69     103:  140   92:  128   66:   81
          70     156:  192   86:  128   79:  128
          71      59:   73   87:  128   80:  128
          72      81:  102   40:   62   47:   66
Setting up quadratic distribution...
ExtMesh (bp) on 0 =   217 x   191 x   189 =     7833483
PhiOnMesh: Number of (b)points on node 0 =               272403
PhiOnMesh: nlist on node 0 =              1333921

stepf: Fermi-Dirac step function

siesta: Program's energy decomposition (eV):
siesta: Ebs     =     -4841.045534
siesta: Eions   =     18316.795456
siesta: Ena     =      2204.391112
siesta: Ekin    =      8067.495154
siesta: Enl     =     -2124.877724
siesta: DEna    =         0.000005
siesta: DUscf   =         0.000000
siesta: DUext   =         0.000000
siesta: Exc     =     -3536.098355
siesta: eta*DQ  =         0.000000
siesta: Emadel  =         0.000000
siesta: Emeta   =         0.000000
siesta: Emolmec =         0.000000
siesta: Ekinion =         0.000000
siesta: Eharris =    -13741.403889
siesta: Etot    =    -13705.885263
siesta: FreeEng =    -13705.885263

siesta: iscf   Eharris(eV)      E_KS(eV)   FreeEng(eV)   dDmax  Ef(eV)
siesta:    1   -13741.4039   -13705.8853   -13705.8853 11.1801 -8.2982
timer: Routine,Calls,Time,% =    IterSCF     1      33.674  54.64
siesta:    2   -13827.1014   -13621.3443   -13621.3443 45.0504 -1.4076
siesta:    3   -13707.7947   -13715.1739   -13715.3171 18.1657 -7.7674
siesta:    4   -13715.9281   -13676.7896   -13676.7896  9.6144 -6.7363
siesta:    5   -13711.0911   -13573.9371   -13573.9371 11.7767 -3.3937
siesta:    6   -13697.9424   -13586.2202   -13586.2894 16.2884 -6.1066
siesta:    7   -13724.8020   -13558.9800   -13558.9800 11.6576 -2.1041
siesta:    8   -13691.5573   -13660.1393   -13660.1569  3.9867 -4.6938
siesta:    9   -13690.3353   -13662.7940   -13662.7940  2.0349 -4.2840
siesta:   10   -13689.8634   -13671.0226   -13671.0226  0.8674 -4.1994
siesta:   11   -13689.3809   -13685.4435   -13685.4435  2.2141 -5.1571
siesta:   12   -13689.2906   -13685.0233   -13685.0233  1.6553 -4.8811
siesta:   13   -13689.2829   -13687.6430   -13687.6430  0.8790 -4.7874
siesta:   14   -13689.2588   -13687.7051   -13687.7051  0.9759 -4.7747
siesta:   15   -13689.2615   -13687.5739   -13687.5739  0.7088 -4.7982
siesta:   16   -13689.2628   -13688.0840   -13688.0840  0.6023 -4.8384
siesta:   17   -13689.2676   -13689.1604   -13689.1604  0.2756 -4.8577
siesta:   18   -13689.2694   -13690.0278   -13690.0278  0.2157 -4.8422
siesta:   19   -13689.2753   -13690.1035   -13690.1035  0.1345 -4.8368
siesta:   20   -13689.2772   -13689.8912   -13689.8912  0.1468 -4.8395
siesta:   21   -13689.2830   -13689.4785   -13689.4785  0.0667 -4.8643
siesta:   22   -13689.2829   -13689.4334   -13689.4334  0.0288 -4.8607
siesta:   23   -13689.2830   -13689.3551   -13689.3551  0.0410 -4.8577
siesta:   24   -13689.2831   -13689.3246   -13689.3246  0.0125 -4.8600
siesta:   25   -13689.2831   -13689.3258   -13689.3258  0.0038 -4.8631
siesta:   26   -13689.2831   -13689.3147   -13689.3147  0.0030 -4.8631
siesta:   27   -13689.2831   -13689.3008   -13689.3008  0.0031 -4.8625
siesta:   28   -13689.2831   -13689.2884   -13689.2884  0.0023 -4.8629
siesta:   29   -13689.2831   -13689.2821   -13689.2821  0.0009 -4.8632
siesta:   30   -13689.2831   -13689.2821   -13689.2821  0.0005 -4.8631
siesta:   31   -13689.2831   -13689.2838   -13689.2838  0.0002 -4.8629
siesta:   32   -13689.2831   -13689.2837   -13689.2837  0.0001 -4.8629
siesta:   33   -13689.2831   -13689.2835   -13689.2835  0.0001 -4.8629

siesta: E_KS(eV) =           -13689.2833

siesta: E_KS - E_eggbox =    -13689.2833

siesta: Atomic forces (eV/Ang):
     1    0.068959   -0.046445    0.006632
     2    0.078841    0.050390   -0.001718
     3   -0.075223   -0.052256    0.008320
     4   -0.069838    0.044885   -0.010900
     5   -0.027440    0.260817    0.196258
     6    0.249996   -0.197052    0.107613
     7    0.030378    0.080544   -0.314416
     8   -0.015540    0.006675   -0.052821
     9   -0.588392   -0.316767   -0.054913
    10    0.009089    0.135271    0.023072
    11   -0.011238   -0.351770   -0.069097
    12   -0.175612   -0.345379   -0.056758
    13    0.313460   -0.149479   -0.057011
    14    0.423790   -0.007173   -0.010598
    15   -0.090821   -0.043954    0.012111
    16    0.299028   -0.180633   -0.058495
    17    0.328518   -0.277135   -0.058855
    18    0.397994    0.265243    0.039264
    19    0.030131    0.357342    0.058173
    20    0.038814    0.389871    0.057685
    21   -0.307090    0.173077    0.039324
    22   -0.342141    0.144413    0.035315
    23   -0.064742   -0.086405   -0.008886
    24    0.034745   -0.083622   -0.028803
    25    0.006839    0.625315    0.119059
    26    0.008903   -0.384653   -0.091306
    27   -0.146262   -0.148430   -0.018527
    28   -0.006127    0.340329    0.073868
    29   -0.005332    0.393611    0.077646
    30    0.322161    0.149054    0.034363
    31    0.364734    0.153931    0.047840
    32    0.236991   -0.138018   -0.037788
    33   -0.014125   -0.327332   -0.072877
    34    0.022320   -0.380015   -0.060530
    35   -0.319798   -0.168090   -0.052292
    36   -0.366802   -0.178886   -0.046529
    37   -0.390895    0.238301    0.042885
    38    0.034827    0.235026    0.218293
    39   -0.266320   -0.196467    0.086705
    40    0.032820    0.014252   -0.038923
    41   -0.016212    0.102827   -0.316137
    42    0.021885   -0.252473   -0.209599
    43   -0.253505    0.202245   -0.098927
    44   -0.025917   -0.095925    0.312347
    45    0.018082   -0.013125    0.047559
    46    0.585650    0.314480    0.057314
    47   -0.007660   -0.134816   -0.017155
    48    0.014167    0.352035    0.064248
    49    0.170168    0.348066    0.052456
    50   -0.315123    0.157947    0.058831
    51   -0.416721    0.001367    0.011318
    52    0.092814    0.041567   -0.015448
    53   -0.305125    0.179238    0.052791
    54   -0.324891    0.281052    0.058119
    55   -0.391851   -0.272430   -0.031888
    56   -0.026746   -0.347609   -0.059881
    57   -0.045587   -0.387747   -0.052832
    58    0.309150   -0.171060   -0.039982
    59    0.337155   -0.132886   -0.035549
    60    0.065258    0.079893    0.008731
    61   -0.033404    0.086393    0.022961
    62   -0.003829   -0.627646   -0.117931
    63   -0.015282    0.389314    0.089479
    64    0.141743    0.149583    0.011850
    65    0.004535   -0.343285   -0.075058
    66    0.004564   -0.390177   -0.080355
    67   -0.311804   -0.137769   -0.034214
    68   -0.360016   -0.157308   -0.050019
    69   -0.248287    0.138993    0.039596
    70    0.012360    0.340067    0.086730
    71   -0.026171    0.374039    0.065367
    72    0.318566    0.173011    0.057606
    73    0.370355    0.176880    0.050396
    74    0.386170   -0.238181   -0.040611
    75   -0.043006   -0.251570   -0.207430
    76    0.255302    0.194565   -0.112023
    77   -0.031925   -0.005419    0.035086
    78    0.029749   -0.091925    0.322034
----------------------------------------
   Tot   -0.015790    0.030599   -0.007840
----------------------------------------
   Max    0.627646
   Res    0.204306    sqrt( Sum f_i^2 / 3N )
----------------------------------------
   Max    0.627646    constrained

Stress-tensor-Voigt (kbar):        1.97        1.97        0.23        0.09        0.33       -0.01
(Free)E + p*V (eV/cell)   -13706.7967
Target enthalpy (eV/cell)   -13689.2833
 
mulliken: Atomic and Orbital Populations:

Species: C                   
Atom  Qatom  Qorb
               2s      2s      2s      2py     2pz     2px     2py     2pz     
               2px     2py     2pz     2px     2Pdxy   2Pdyz   2Pdz2   2Pdxz   
               2Pdx2-y2
  10  3.817   0.983   0.148  -0.018   0.415   0.517   0.392   0.146   0.034
              0.187   0.251   0.224   0.194   0.093   0.041   0.014   0.070

              0.126
  12  3.947   0.965   0.117   0.053   0.425   0.720   0.511   0.160   0.012
              0.147   0.284   0.201   0.193   0.040   0.013   0.004   0.032

              0.069
  14  3.887   0.971   0.121   0.042   0.489   0.637   0.416   0.142   0.012
              0.177   0.227   0.194   0.276   0.059   0.035   0.008   0.024

              0.055
  15  3.923   0.999   0.106   0.036   0.424   0.665   0.471   0.137   0.009
              0.145   0.242   0.237   0.219   0.072   0.037   0.008   0.042

              0.076
  17  3.918   0.963   0.122   0.048   0.465   0.664   0.452   0.157   0.011
              0.164   0.225   0.199   0.276   0.060   0.037   0.008   0.022

              0.047
  18  3.597   0.680   0.118   0.252   0.296   0.673   0.045   0.148   0.009
              0.142   0.317   0.280   0.437   0.077   0.036   0.008   0.024

              0.057
  20  3.914   0.943   0.127   0.053   0.388   0.684   0.498   0.174   0.010
              0.153   0.298   0.201   0.208   0.041   0.012   0.006   0.045

              0.074
  22  3.919   0.962   0.123   0.040   0.493   0.708   0.404   0.150   0.011
              0.168   0.218   0.190   0.279   0.065   0.030   0.006   0.021

              0.051
  23  3.923   1.012   0.105   0.038   0.433   0.668   0.439   0.144   0.008
              0.135   0.238   0.223   0.249   0.075   0.040   0.009   0.045

              0.062
  24  3.924   0.938   0.122   0.045   0.463   0.681   0.430   0.126   0.017
              0.146   0.233   0.242   0.232   0.077   0.036   0.010   0.044

              0.081
  29  3.907   0.937   0.127   0.057   0.390   0.668   0.497   0.172   0.013
              0.154   0.300   0.206   0.207   0.039   0.013   0.007   0.047

              0.074
  31  3.914   0.941   0.123   0.049   0.493   0.720   0.398   0.146   0.012
              0.171   0.214   0.196   0.285   0.055   0.030   0.007   0.019

              0.056
  32  3.837   0.900   0.136   0.042   0.471   0.656   0.362   0.152   0.020
              0.150   0.203   0.241   0.226   0.090   0.048   0.014   0.056

              0.071
  34  3.907   0.932   0.118   0.064   0.428   0.695   0.476   0.162   0.013
              0.150   0.279   0.211   0.212   0.038   0.014   0.005   0.040

              0.071
  36  3.904   0.928   0.128   0.062   0.480   0.659   0.428   0.152   0.014
              0.172   0.219   0.200   0.286   0.057   0.037   0.008   0.021

              0.054
  37  3.594   0.671   0.117   0.259   0.266   0.684   0.076   0.144   0.009
              0.142   0.330   0.277   0.420   0.080   0.033   0.008   0.026

              0.053
  47  3.817   0.983   0.148  -0.018   0.415   0.517   0.392   0.146   0.033
              0.187   0.251   0.224   0.195   0.092   0.041   0.014   0.070

              0.127
  49  3.947   0.965   0.117   0.053   0.424   0.721   0.511   0.161   0.012
              0.147   0.284   0.201   0.193   0.040   0.013   0.004   0.032

              0.070
  51  3.886   0.972   0.121   0.042   0.488   0.637   0.417   0.142   0.012
              0.177   0.227   0.193   0.277   0.059   0.035   0.008   0.024

              0.056
  52  3.924   1.000   0.106   0.036   0.423   0.666   0.471   0.137   0.008
              0.145   0.242   0.236   0.218   0.072   0.038   0.008   0.042

              0.076
  54  3.917   0.962   0.122   0.048   0.464   0.666   0.450   0.158   0.010
              0.164   0.224   0.198   0.277   0.060   0.038   0.008   0.022

              0.048
  55  3.598   0.682   0.118   0.250   0.292   0.674   0.047   0.148   0.009
              0.141   0.318   0.280   0.436   0.077   0.036   0.008   0.025

              0.057
  57  3.914   0.943   0.127   0.053   0.387   0.684   0.498   0.174   0.010
              0.153   0.298   0.201   0.209   0.040   0.012   0.006   0.045

              0.074
  59  3.919   0.962   0.123   0.040   0.493   0.708   0.404   0.151   0.011
              0.168   0.218   0.190   0.279   0.065   0.030   0.006   0.021

              0.051
  60  3.924   1.013   0.105   0.038   0.433   0.669   0.440   0.144   0.007
              0.135   0.238   0.223   0.248   0.075   0.040   0.009   0.044

              0.062
  61  3.924   0.938   0.122   0.046   0.463   0.681   0.430   0.126   0.017
              0.146   0.233   0.242   0.231   0.077   0.036   0.010   0.044

              0.081
  66  3.907   0.936   0.127   0.057   0.391   0.667   0.499   0.171   0.014
              0.154   0.299   0.206   0.205   0.039   0.013   0.007   0.047

              0.074
  68  3.914   0.940   0.123   0.050   0.493   0.719   0.398   0.146   0.013
              0.170   0.214   0.196   0.285   0.055   0.030   0.007   0.019

              0.056
  69  3.837   0.900   0.136   0.042   0.471   0.657   0.361   0.152   0.020
              0.150   0.203   0.241   0.226   0.090   0.047   0.014   0.056

              0.071
  71  3.907   0.932   0.118   0.064   0.429   0.694   0.477   0.162   0.013
              0.150   0.278   0.211   0.212   0.038   0.014   0.005   0.040

              0.071
  73  3.904   0.927   0.127   0.062   0.479   0.656   0.430   0.151   0.015
              0.172   0.221   0.200   0.285   0.057   0.037   0.009   0.022

              0.053
  74  3.596   0.672   0.117   0.258   0.273   0.684   0.071   0.143   0.009
              0.142   0.327   0.276   0.422   0.080   0.033   0.009   0.026

              0.053

Species: Na                  
Atom  Qatom  Qorb
               3s      3s      3s      3Ppy    3Ppz    3Ppx    
   1  0.185   0.029   0.072   0.036   0.015   0.016   0.018
   2  0.184   0.021   0.052   0.063   0.015   0.016   0.018
   3  0.184   0.021   0.054   0.060   0.015   0.016   0.018
   4  0.186   0.028   0.068   0.040   0.015   0.016   0.018

Species: S                   
Atom  Qatom  Qorb
               3s      3s      3s      3py     3pz     3px     3py     3pz     
               3px     3py     3pz     3px     3Pdxy   3Pdyz   3Pdz2   3Pdxz   
               3Pdx2-y2
   8  6.144   0.885   0.065   0.437   0.373   0.425   0.486   0.033   0.041
              0.020   0.618   0.518   0.604   0.352   0.323   0.351   0.315

              0.300
  40  6.146   0.913   0.064   0.411   0.406   0.418   0.473   0.031   0.041
              0.021   0.596   0.523   0.607   0.366   0.315   0.352   0.320

              0.289
  45  6.143   0.886   0.065   0.436   0.380   0.421   0.476   0.033   0.041
              0.020   0.610   0.521   0.614   0.351   0.321   0.351   0.315

              0.302
  77  6.143   0.906   0.064   0.417   0.389   0.422   0.484   0.031   0.040
              0.021   0.613   0.519   0.595   0.365   0.318   0.352   0.317

              0.288

Species: N                   
Atom  Qatom  Qorb
               2s      2s      2s      2py     2pz     2px     2py     2pz     
               2px     2py     2pz     2px     2Pdxy   2Pdyz   2Pdz2   2Pdxz   
               2Pdx2-y2
  25  5.166   1.307   0.116   0.080   1.464   0.884   0.669   0.044   0.016
              0.170  -0.019   0.196   0.084   0.043   0.016   0.012   0.047

              0.036
  27  4.863   0.667   0.197   0.417   0.470   0.932   0.458   0.185   0.019
              0.183   0.438   0.414   0.317   0.050   0.011   0.009   0.040

              0.056
  62  5.166   1.306   0.117   0.081   1.465   0.883   0.670   0.044   0.016
              0.170  -0.019   0.196   0.084   0.044   0.016   0.012   0.047

              0.036
  64  4.863   0.669   0.197   0.416   0.469   0.933   0.458   0.185   0.019
              0.183   0.437   0.414   0.317   0.050   0.011   0.009   0.040

              0.056

Species: O                   
Atom  Qatom  Qorb
               2s      2s      2s      2py     2pz     2px     2py     2pz     
               2px     2py     2pz     2px     2Pdxy   2Pdyz   2Pdz2   2Pdxz   
               2Pdx2-y2
   5  6.397   1.835  -0.020  -0.002   1.577   1.860   1.594   0.102   0.028
             -0.050  -0.345  -0.343   0.130   0.003   0.013   0.003   0.003

              0.009
   6  6.389   1.926  -0.013  -0.101   1.582   2.009   1.484   0.019  -0.017
              0.092  -0.060  -0.321  -0.242   0.011   0.002   0.003   0.007

              0.009
   7  6.384   1.704  -0.020   0.135   1.652   1.228   1.450  -0.024   0.136
             -0.042   0.015  -0.117   0.237  -0.001   0.008   0.014   0.008

              0.001
   9  6.363   1.455   0.041   0.272   1.817   1.164   1.217  -0.007  -0.010
              0.094  -0.132   0.275   0.129   0.015   0.005   0.004   0.012

              0.012
  38  6.401   1.862  -0.020  -0.029   1.609   1.835   1.664   0.085   0.044
             -0.049  -0.320  -0.375   0.063   0.002   0.014   0.003   0.004

              0.008
  39  6.387   1.888  -0.013  -0.065   1.554   2.005   1.444   0.011  -0.024
              0.107  -0.009  -0.296  -0.248   0.011   0.001   0.003   0.007

              0.010
  41  6.378   1.712  -0.021   0.130   1.687   1.255   1.042  -0.013   0.123
             -0.043  -0.062  -0.104   0.642  -0.001   0.009   0.012   0.008

              0.002
  42  6.397   1.832  -0.020   0.000   1.599   1.835   1.614   0.096   0.035
             -0.049  -0.344  -0.342   0.109   0.003   0.014   0.003   0.004

              0.008
  43  6.386   1.960  -0.012  -0.136   1.570   2.004   1.479   0.023  -0.020
              0.094  -0.060  -0.305  -0.242   0.012   0.002   0.003   0.007

              0.009
  44  6.390   1.701  -0.020   0.139   1.694   1.280   1.457  -0.021   0.131
             -0.044  -0.039  -0.154   0.234  -0.001   0.009   0.014   0.008

              0.001
  46  6.364   1.455   0.040   0.272   1.818   1.165   1.218  -0.007  -0.010
              0.093  -0.134   0.274   0.130   0.015   0.005   0.004   0.012

              0.012
  75  6.401   1.885  -0.020  -0.052   1.577   1.881   1.614   0.096   0.033
             -0.050  -0.327  -0.380   0.112   0.003   0.013   0.003   0.004

              0.009
  76  6.391   1.856  -0.014  -0.030   1.592   2.007   1.460   0.008  -0.017
              0.101  -0.037  -0.321  -0.244   0.011   0.002   0.003   0.007

              0.009
  78  6.377   1.723  -0.020   0.117   1.656   1.223   1.103  -0.020   0.129
             -0.040  -0.008  -0.090   0.572  -0.001   0.008   0.013   0.008

              0.001

Species: H                   
Atom  Qatom  Qorb
               1s      1s      1s      1Ppy    1Ppz    1Ppx    
  11  1.114   0.632   0.065   0.326   0.035   0.032   0.023
  13  1.073   0.542   0.067   0.366   0.026   0.033   0.039
  16  1.074   0.560   0.067   0.345   0.032   0.033   0.037
  19  1.087   0.591   0.066   0.338   0.034   0.032   0.027
  21  1.100   0.594   0.066   0.341   0.028   0.032   0.039
  26  0.991   0.485   0.075   0.256   0.087   0.053   0.036
  28  1.083   0.590   0.066   0.337   0.034   0.031   0.026
  30  1.096   0.581   0.067   0.347   0.028   0.034   0.039
  33  1.097   0.603   0.066   0.335   0.034   0.033   0.025
  35  1.061   0.541   0.068   0.351   0.032   0.033   0.037
  48  1.114   0.633   0.065   0.326   0.035   0.032   0.023
  50  1.073   0.539   0.067   0.368   0.026   0.034   0.040
  53  1.075   0.565   0.067   0.342   0.032   0.032   0.037
  56  1.087   0.591   0.066   0.338   0.034   0.032   0.026
  58  1.100   0.594   0.066   0.340   0.028   0.033   0.039
  63  0.991   0.484   0.075   0.256   0.087   0.053   0.036
  65  1.084   0.590   0.066   0.336   0.034   0.031   0.027
  67  1.096   0.581   0.067   0.347   0.028   0.034   0.039
  70  1.097   0.605   0.065   0.335   0.034   0.033   0.025
  72  1.060   0.538   0.068   0.352   0.032   0.034   0.037

mulliken: Qtot =      280.000

siesta: Eigenvalues (eV):
  ik is    eps
   1  1 -27.54 -27.53 -27.49 -27.49 -26.31 -26.29 -25.45 -25.44 -23.98 -23.96
        -23.93 -23.92 -23.87 -23.86 -23.83 -23.81 -22.30 -22.23 -21.83 -21.73
        -21.08 -21.05 -20.38 -20.36 -19.47 -19.42 -19.08 -19.07 -18.80 -18.79
        -18.67 -18.66 -17.58 -17.56 -16.48 -16.46 -16.39 -16.38 -16.17 -16.16
        -15.79 -15.78 -15.17 -15.13 -14.85 -14.84 -14.68 -14.68 -14.05 -14.01
        -13.70 -13.66 -13.06 -13.02 -12.75 -12.71 -12.51 -12.50 -12.30 -12.25
        -11.91 -11.85 -11.84 -11.82 -11.64 -11.62 -11.58 -11.35 -11.34 -11.30
        -11.29 -11.26 -11.26 -11.22 -11.22 -11.19 -11.16 -11.12 -11.01 -10.99
        -10.86 -10.85 -10.79 -10.78 -10.54 -10.52 -10.50 -10.20 -10.19 -10.03
         -9.82  -9.66  -9.64  -9.55  -9.46  -9.45  -9.32  -9.22  -9.17  -9.13
         -8.36  -8.27  -8.20  -8.17  -8.14  -8.14  -8.12  -8.12  -8.10  -8.08
         -8.05  -8.00  -7.98  -7.91  -7.91  -7.85  -7.85  -7.79  -7.47  -7.32
         -7.21  -7.20  -7.15  -7.14  -7.11  -7.08  -6.99  -6.98  -6.79  -6.61
         -6.35  -6.32  -6.25  -6.24  -6.13  -6.12  -6.07  -6.07  -5.83  -5.76
         -4.10  -4.00  -2.69  -2.69  -2.20  -2.19  -2.15  -2.11  -2.01  -1.91
         -1.81  -1.80  -1.69  -1.69  -0.95  -0.87  -0.52  -0.43  -0.40  -0.23
         -0.04  -0.03  -0.02   0.00   0.04   0.07   0.12   0.14   0.28   0.30
          0.40   0.43   0.50   0.68   0.69   0.73   0.76   0.84   0.90   0.91
          0.99   1.02   1.09   1.10   1.15   1.31   1.40   1.45   1.53   1.58
          1.75   1.86   1.88   1.97   2.01   2.04   2.07   2.10   2.13   2.14
          2.26   2.34   2.37   2.40   2.43   2.47   2.53   2.72   2.74   2.76
          2.84   2.85   2.89   2.94   3.03   3.04   3.08   3.13   3.26   3.37
          3.40   3.48   3.49   3.56   3.67   3.74   3.78   3.83   3.92   3.93
          3.97   4.05   4.12   4.18   4.21   4.26   4.36   4.43   4.46   4.53
          4.70   4.72   4.74   4.79   5.00   5.01   5.09   5.16   5.28   5.29
          5.31   5.33   5.48   5.53   5.59   5.61   5.68   5.70   5.80   5.83
          5.85   5.94   6.03   6.10   6.12   6.24   6.27   6.33   6.34   6.41
          6.43   6.45   6.50   6.52   6.59   6.61   6.71   6.78   6.84   6.87
          6.93   6.96   6.98   7.03   7.09   7.11   7.15   7.22   7.24   7.33
          7.38   7.46   7.54   7.55   7.61   7.71   7.72   7.81   7.85   7.89
          7.92   7.97   8.07   8.12   8.16   8.24   8.36   8.37   8.47   8.50
          8.56   8.60   8.61   8.63   8.73   8.80   8.85   8.87   8.94   9.01
          9.05   9.07   9.17   9.20   9.22   9.28   9.44   9.49   9.62   9.66
          9.72   9.80   9.85   9.96   9.99  10.07  10.13  10.17  10.22  10.26
         10.37  10.46  10.62  10.70  10.72  10.78  10.84  10.95  11.02  11.03
         11.10  11.16  11.28  11.31  11.47  11.47  11.65  11.71  11.93  12.06
         12.19  12.30  12.39  12.55  12.63  12.74  12.76  12.95  13.00  13.03
         13.16  13.24  13.25  13.26  13.34  13.40  13.49  13.58  13.63  13.78
         13.87  13.97  13.99  14.02  14.11  14.13  14.16  14.20  14.46  14.53
         14.62  14.74  14.77  14.91  14.94  15.02  15.05  15.20  15.22  15.35
         15.50  15.61  15.66  15.76  15.80  15.91  16.05  16.13  16.16  16.28
         16.36  16.40  16.46  16.48  16.71  16.79  16.84  17.08  17.10  17.20
         17.22  17.26  17.36  17.44  17.50  17.64  17.72  17.78  17.88  17.92
         17.99  18.03  18.07  18.20  18.32  18.37  18.41  18.59  18.69  18.76
         18.80  18.81  18.91  18.93  19.09  19.10  19.44  19.49  19.65  19.69
         19.83  19.85  19.98  20.07  20.14  20.25  20.28  20.56  20.69  20.72
         20.92  20.93  21.02  21.17  21.32  21.33  21.55  21.73  21.78  21.90
         21.93  21.97  22.06  22.27  22.33  22.34  22.48  22.65  22.68  22.76
         22.81  23.17  23.21  23.28  23.45  23.46  23.74  23.77  23.85  23.98
         24.16  24.41  24.46  24.51  24.56  24.82  24.97  25.13  25.14  25.18
         25.23  25.37  25.55  25.62  25.66  25.78  25.87  25.92  26.02  26.04
         26.07  26.25  26.29  26.33  26.48  26.62  26.71  26.78  27.03  27.06
         27.25  27.34  27.47  27.59  27.71  27.92  27.98  28.15  28.24  28.46
         28.61  28.65  28.77  28.79  28.80  28.85  28.89  28.94  29.06  29.08
         29.16  29.24  29.28  29.34  29.43  29.53  29.60  29.63  29.67  29.73
         29.86  29.91  29.97  30.17  30.20  30.26  30.30  30.32  30.41  30.53
         30.59  30.62  30.68  30.71  30.85  30.91  31.00  31.05  31.11  31.31
         31.47  31.60  31.67  31.73  31.78  31.85  32.06  32.07  32.15  32.21
         32.37  32.42  32.73  32.77  32.78  32.88  32.91  33.00  33.12  33.32
         33.53  33.60  33.74  33.79  33.88  33.91  34.11  34.12  34.25  34.31
         34.45  34.58  34.72  34.75  34.95  35.05  35.10  35.18  35.22  35.36
         35.44  35.48  35.64  35.73  35.82  35.96  35.99  36.04  36.19  36.29
         36.45  36.50  36.53  36.64  36.72  36.84  36.97  36.98  37.15  37.25
         37.31  37.33  37.39  37.58  37.64  37.65  37.70  37.92  37.94  38.08
         38.16  38.22  38.38  38.51  38.59  38.61  38.77  38.87  38.95  39.03
         39.40  39.44  39.56  39.71  39.80  39.90  40.01  40.05  40.24  40.29
         40.48  40.51  40.60  40.66  40.72  40.90  40.94  41.00  41.12  41.23
         41.32  41.33  41.46  41.57  41.63  41.77  41.82  41.87  42.12  42.22
         42.40  42.47  42.49  42.62  42.82  42.93  42.98  43.01  43.13  43.14
         43.25  43.34  43.54  43.56  43.71  43.81  43.84  43.89  44.05  44.10
         44.20  44.27  44.42  44.51  44.60  44.71  44.89  45.03  45.10  45.48
         45.63  45.78  45.79  45.83  45.97  46.13  46.16  46.21  46.24  46.32
         46.49  46.54  46.68  46.73  46.88  46.98  47.21  47.28  47.38  47.49
         47.56  47.64  47.77  47.80  47.96  48.00  48.12  48.15  48.25  48.28
         48.29  48.37  48.50  48.53  48.59  48.61  48.68  48.72  48.89  49.00
         49.18  49.23  49.26  49.35  49.46  49.59  49.66  49.69  49.75  49.86
         49.86  50.08  50.24  50.37  50.41  50.44  50.60  50.67  50.90  50.95
         51.18  51.23  51.45  51.57  51.63  51.70  51.87  52.21  52.26  52.28
         52.43  52.58  52.66  52.75  52.88  52.90  53.21  53.23  53.54  53.58
         53.77  53.84  54.07  54.23  54.32  54.45  54.49  54.52  54.70  54.96
         54.97  55.34  55.39  55.41  55.73  55.80  55.98  56.03  56.49  56.51
         56.68  56.98  57.07  57.65  57.66  57.84  57.91  58.13  58.28  58.30
         58.56  58.72  58.96  59.07  59.11  59.18  59.30  59.45  59.47  59.57
         59.61  59.84  59.99  60.00  60.10  60.34  60.45  60.54  60.84  60.86
         61.09  61.12  61.23  61.45  61.56  61.58  62.01  62.07  62.24  62.31
         62.44  62.50  62.62  62.78  62.83  62.88  63.02  63.11  63.34  63.47
         63.73  63.79  64.00  64.26  64.38  64.50  64.59  64.69  64.90  64.96
         65.24  65.28  65.61  65.65  65.76  65.81  65.92  66.10  66.48  66.53
         66.71  66.73  66.96  67.20  67.25  67.64  67.76  67.86  68.08  68.35
         68.41  68.50  68.63  68.73  68.89  68.90  68.98  69.20  69.28  69.73
         69.77  69.97  70.11  70.21  70.26  70.42  70.59  70.71  70.89  70.91
         70.93  71.18  71.55  71.73  71.76  71.76  71.92  72.14  72.24  72.32
         72.66  72.74  72.92  73.11  73.47  73.55  73.59  73.69  74.12  74.26
         74.48  74.55  74.59  74.70  74.90  74.92  75.19  75.42  75.68  75.74
         76.08  76.26  76.54  76.62  77.02  77.51  77.84  78.04  78.22  78.25
         78.32  78.91  79.18  79.49  79.93  80.36  81.50  82.25  82.59  82.65
         84.55  85.18  86.00  86.12  86.63  86.95  88.06  88.16  88.82  89.34
         89.61  89.65  90.47  90.59  90.81  90.93  90.96  91.25  91.43  92.16
         92.23  92.47  93.51  93.99  94.69  95.53  96.40  96.57  96.68  97.03
         97.24  97.36  97.63  97.76  97.95  98.65  98.70  98.95  99.18  99.33
         99.87 100.44 100.66 100.76 100.93 101.23 102.04 102.64 102.84 103.69
        104.28 104.77 105.03 105.16 105.46 105.84 106.61 107.34 107.57 107.65
        107.99 108.51 108.77 109.19 110.15 110.99 111.33 111.48 111.61 111.95
        113.15 113.20 115.12 115.37 115.85 116.78 117.25 117.38 118.20 118.33
        118.48 118.72 119.33 119.44 119.91 120.24 120.51 121.31 121.81 122.00
        125.24 125.60 128.54 128.72 130.94 131.75 132.21 133.33 134.99 135.62
        138.97 139.04
siesta: Fermi energy =      -4.862907 eV

siesta: Program's energy decomposition (eV):
siesta: Ebs     =     -3714.166318
siesta: Eions   =     18316.795456
siesta: Ena     =      2204.391112
siesta: Ekin    =      9267.307056
siesta: Enl     =     -2883.348911
siesta: DEna    =      -295.732884
siesta: DUscf   =        45.280704
siesta: DUext   =         0.000000
siesta: Exc     =     -3710.384915
siesta: eta*DQ  =         0.000000
siesta: Emadel  =         0.000000
siesta: Emeta   =         0.000000
siesta: Emolmec =         0.000000
siesta: Ekinion =         0.000000
siesta: Eharris =    -13689.283054
siesta: Etot    =    -13689.283294
siesta: FreeEng =    -13689.283294

siesta: Final energy (eV):
siesta:  Band Struct. =   -3714.166318
siesta:       Kinetic =    9267.307056
siesta:       Hartree =   61359.297441
siesta:    Ext. field =       0.000000
siesta:   Exch.-corr. =   -3710.384915
siesta:  Ion-electron = -130946.586835
siesta:       Ion-ion =   50341.083959
siesta:       Ekinion =       0.000000
siesta:         Total =  -13689.283294

siesta: Atomic forces (eV/Ang):
siesta:      1    0.068959   -0.046445    0.006632
siesta:      2    0.078841    0.050390   -0.001718
siesta:      3   -0.075223   -0.052256    0.008320
siesta:      4   -0.069838    0.044885   -0.010900
siesta:      5   -0.027440    0.260817    0.196258
siesta:      6    0.249996   -0.197052    0.107613
siesta:      7    0.030378    0.080544   -0.314416
siesta:      8   -0.015540    0.006675   -0.052821
siesta:      9   -0.588392   -0.316767   -0.054913
siesta:     10    0.009089    0.135271    0.023072
siesta:     11   -0.011238   -0.351770   -0.069097
siesta:     12   -0.175612   -0.345379   -0.056758
siesta:     13    0.313460   -0.149479   -0.057011
siesta:     14    0.423790   -0.007173   -0.010598
siesta:     15   -0.090821   -0.043954    0.012111
siesta:     16    0.299028   -0.180633   -0.058495
siesta:     17    0.328518   -0.277135   -0.058855
siesta:     18    0.397994    0.265243    0.039264
siesta:     19    0.030131    0.357342    0.058173
siesta:     20    0.038814    0.389871    0.057685
siesta:     21   -0.307090    0.173077    0.039324
siesta:     22   -0.342141    0.144413    0.035315
siesta:     23   -0.064742   -0.086405   -0.008886
siesta:     24    0.034745   -0.083622   -0.028803
siesta:     25    0.006839    0.625315    0.119059
siesta:     26    0.008903   -0.384653   -0.091306
siesta:     27   -0.146262   -0.148430   -0.018527
siesta:     28   -0.006127    0.340329    0.073868
siesta:     29   -0.005332    0.393611    0.077646
siesta:     30    0.322161    0.149054    0.034363
siesta:     31    0.364734    0.153931    0.047840
siesta:     32    0.236991   -0.138018   -0.037788
siesta:     33   -0.014125   -0.327332   -0.072877
siesta:     34    0.022320   -0.380015   -0.060530
siesta:     35   -0.319798   -0.168090   -0.052292
siesta:     36   -0.366802   -0.178886   -0.046529
siesta:     37   -0.390895    0.238301    0.042885
siesta:     38    0.034827    0.235026    0.218293
siesta:     39   -0.266320   -0.196467    0.086705
siesta:     40    0.032820    0.014252   -0.038923
siesta:     41   -0.016212    0.102827   -0.316137
siesta:     42    0.021885   -0.252473   -0.209599
siesta:     43   -0.253505    0.202245   -0.098927
siesta:     44   -0.025917   -0.095925    0.312347
siesta:     45    0.018082   -0.013125    0.047559
siesta:     46    0.585650    0.314480    0.057314
siesta:     47   -0.007660   -0.134816   -0.017155
siesta:     48    0.014167    0.352035    0.064248
siesta:     49    0.170168    0.348066    0.052456
siesta:     50   -0.315123    0.157947    0.058831
siesta:     51   -0.416721    0.001367    0.011318
siesta:     52    0.092814    0.041567   -0.015448
siesta:     53   -0.305125    0.179238    0.052791
siesta:     54   -0.324891    0.281052    0.058119
siesta:     55   -0.391851   -0.272430   -0.031888
siesta:     56   -0.026746   -0.347609   -0.059881
siesta:     57   -0.045587   -0.387747   -0.052832
siesta:     58    0.309150   -0.171060   -0.039982
siesta:     59    0.337155   -0.132886   -0.035549
siesta:     60    0.065258    0.079893    0.008731
siesta:     61   -0.033404    0.086393    0.022961
siesta:     62   -0.003829   -0.627646   -0.117931
siesta:     63   -0.015282    0.389314    0.089479
siesta:     64    0.141743    0.149583    0.011850
siesta:     65    0.004535   -0.343285   -0.075058
siesta:     66    0.004564   -0.390177   -0.080355
siesta:     67   -0.311804   -0.137769   -0.034214
siesta:     68   -0.360016   -0.157308   -0.050019
siesta:     69   -0.248287    0.138993    0.039596
siesta:     70    0.012360    0.340067    0.086730
siesta:     71   -0.026171    0.374039    0.065367
siesta:     72    0.318566    0.173011    0.057606
siesta:     73    0.370355    0.176880    0.050396
siesta:     74    0.386170   -0.238181   -0.040611
siesta:     75   -0.043006   -0.251570   -0.207430
siesta:     76    0.255302    0.194565   -0.112023
siesta:     77   -0.031925   -0.005419    0.035086
siesta:     78    0.029749   -0.091925    0.322034
siesta: ----------------------------------------
siesta:    Tot   -0.015790    0.030599   -0.007840

siesta: Stress tensor (static) (eV/Ang**3):
siesta:     0.001230    0.000059   -0.000005
siesta:     0.000059    0.001230    0.000204
siesta:    -0.000005    0.000204    0.000146

siesta: Cell volume =      20160.000000 Ang**3

siesta: Pressure (static):
siesta:                Solid            Molecule  Units
siesta:          -0.00000946         -0.00000002  Ry/Bohr**3
siesta:          -0.00086872         -0.00000170  eV/Ang**3
siesta:          -1.39185939         -0.00272223  kBar
(Free)E+ p_basis*V_orbitals  =      -13558.176231
(Free)Eharris+ p_basis*V_orbitals  =      -13558.175810

siesta: Electric dipole (a.u.)  =   -0.011894   -0.010459    0.006388
siesta: Electric dipole (Debye) =   -0.030233   -0.026583    0.016236
>> End of run:  26-MAR-2014  21:14:28
