# LAMMPS data file written by OVITO Basic 3.8.4

4 atoms
2 atom types

0.0 2.70971013 xlo xhi
0.0 2.3466778095 ylo yhi
0.0 4.402034 zlo zhi
-1.354855065 0.0 0.0 xy xz yz

Masses

1 9.012182  # Be
2 15.9994  # O

Atoms  # atomic

1 1 1.3548550785 0.7822259287 1.84885428e-04
2 1 -1.3548550282e-08 1.5644518808 2.2012018854
3 2 1.3548550785 0.7822259287 2.7392008728
4 2 -1.3548550282e-08 1.5644518808 0.5381838728
