LAMMPS description

 12540      atoms    
  8386      bonds    
  4282      angles   
   176      dihedrals
    32      impropers

    13      atom types    
    16      bond types    
    24      angle types   
    33      dihedral types
     9      improper types


       0  49.843000     xlo xhi
       0  49.843000     ylo yhi
       0  49.843000     zlo zhi

 Atoms

      1      1     12      0.0000000     40.1830000      5.1570000     33.8110000
      2      1     13      0.0000000     41.0970000      5.5890000     34.0540000
      3      1     13      0.0000000     40.1350000      5.2450000     32.8400000
      4      2     12      0.0000000      1.9550000     25.7940000      6.1360000
      5      2     13      0.0000000      1.9770000     24.7600000      5.9440000
      6      2     13      0.0000000      2.4790000     25.9470000      7.0160000
      7      3     12      0.0000000     21.9440000     49.1650000     36.6580000
      8      3     13      0.0000000     22.3190000     48.5470000     35.9010000
      9      3     13      0.0000000     21.0500000     49.4090000     36.1810000
     10      4     12      0.0000000     19.6280000     39.2840000     39.9460000
     11      4     13      0.0000000     19.7530000     38.4320000     39.3620000
     12      4     13      0.0000000     20.4400000     39.8770000     39.8650000
     13      5     12      0.0000000     49.6250000     14.6960000     25.0260000
     14      5     13      0.0000000     50.6880000     14.5630000     25.0990000
     15      5     13      0.0000000     49.3320000     14.7130000     26.0260000
     16      6     12      0.0000000     28.8250000      5.4650000     40.5580000
     17      6     13      0.0000000     27.9530000      4.9160000     40.6470000
     18      6     13      0.0000000     28.6630000      6.4120000     40.9740000
     19      7     12      0.0000000     42.1230000     28.3740000     19.6580000
     20      7     13      0.0000000     41.6550000     29.2020000     20.0230000
     21      7     13      0.0000000     42.3190000     28.5340000     18.6560000
     22      8     12      0.0000000     22.9590000     43.2380000     42.4440000
     23      8     13      0.0000000     22.1630000     43.8760000     42.2010000
     24      8     13      0.0000000     23.7390000     43.8910000     42.7620000
     25      9     12      0.0000000      8.7460000     24.2340000     46.7460000
     26      9     13      0.0000000      8.9230000     24.7050000     45.8140000
     27      9     13      0.0000000      8.1190000     23.4200000     46.6830000
     28     10     12      0.0000000     10.0180000     31.0200000     15.4810000
     29     10     13      0.0000000     10.7930000     31.6970000     15.2560000
     30     10     13      0.0000000     10.3250000     30.4020000     16.2020000
     31     11     12      0.0000000      4.3430000      3.3440000     18.6450000
     32     11     13      0.0000000      5.0950000      3.8330000     19.2190000
     33     11     13      0.0000000      3.5100000      3.8360000     18.7990000
     34     12     12      0.0000000     31.7630000     48.0690000     23.6130000
     35     12     13      0.0000000     31.6830000     48.4760000     24.5310000
     36     12     13      0.0000000     32.3010000     48.5710000     22.9280000
     37     13     12      0.0000000      8.3980000     33.9770000     26.5210000
     38     13     13      0.0000000      8.7350000     33.4160000     25.7360000
     39     13     13      0.0000000      7.9530000     34.8090000     26.1180000
     40     14     12      0.0000000     42.0520000     41.4420000     47.7150000
     41     14     13      0.0000000     42.5050000     42.1690000     47.0930000
     42     14     13      0.0000000     41.4550000     40.9450000     47.0930000
     43     15     12      0.0000000     24.1800000     15.4600000     43.8350000
     44     15     13      0.0000000     25.1400000     15.2420000     43.8750000
     45     15     13      0.0000000     23.8650000     15.0800000     42.9060000
     46     16     12      0.0000000     44.5760000     14.5380000     19.9070000
     47     16     13      0.0000000     45.6110000     14.6810000     19.7440000
     48     16     13      0.0000000     44.2110000     13.6590000     19.6420000
     49     17     12      0.0000000     13.9860000      3.8640000     22.0780000
     50     17     13      0.0000000     13.9570000      3.7290000     21.0730000
     51     17     13      0.0000000     14.4470000      4.7650000     22.2530000
     52     18     12      0.0000000      3.8370000      6.8810000     17.4260000
     53     18     13      0.0000000      3.4970000      5.9410000     17.2620000
     54     18     13      0.0000000      3.9130000      7.2900000     16.4340000
     55     19     12      0.0000000     40.1630000     14.7520000     11.0510000
     56     19     13      0.0000000     39.5800000     15.1050000     11.7710000
     57     19     13      0.0000000     39.8690000     13.7840000     11.0830000
     58     20     12      0.0000000     11.4750000      1.5940000     32.4600000
     59     20     13      0.0000000     10.5950000      1.9920000     32.8350000
     60     20     13      0.0000000     11.2850000      0.6140000     32.3100000
     61     21     12      0.0000000     39.8340000     24.5100000     30.0110000
     62     21     13      0.0000000     40.0820000     24.0880000     29.1720000
     63     21     13      0.0000000     39.2510000     23.8980000     30.5430000
     64     22     12      0.0000000     28.7240000     12.4610000     30.8670000
     65     22     13      0.0000000     29.5060000     12.7740000     31.4380000
     66     22     13      0.0000000     28.5970000     13.1910000     30.1440000
     67     23     12      0.0000000     46.6020000      0.4010000     19.0590000
     68     23     13      0.0000000     47.1470000     -0.3190000     19.5500000
     69     23     13      0.0000000     46.1990000     -0.0640000     18.2380000
     70     24     12      0.0000000     18.8030000     16.7350000     35.8250000
     71     24     13      0.0000000     19.1010000     16.5630000     34.8560000
     72     24     13      0.0000000     18.2210000     15.9450000     36.0030000
     73     25     12      0.0000000     17.1760000     26.7450000     44.9690000
     74     25     13      0.0000000     18.0390000     26.1590000     44.9260000
     75     25     13      0.0000000     16.6520000     26.1720000     45.6630000
     76     26     12      0.0000000     44.7950000     11.3360000     24.0940000
     77     26     13      0.0000000     45.1540000     12.2510000     23.6560000
     78     26     13      0.0000000     45.1510000     10.5790000     23.4630000
     79     27     12      0.0000000     19.3600000     25.4710000     20.4240000
     80     27     13      0.0000000     19.1750000     25.2480000     19.3810000
     81     27     13      0.0000000     18.6110000     25.0240000     21.0380000
     82     28     12      0.0000000     43.4070000      9.0260000     24.8150000
     83     28     13      0.0000000     43.7520000      9.9630000     24.6030000
     84     28     13      0.0000000     42.7090000      8.9500000     25.5450000
     85     29     12      0.0000000     11.3080000      4.2610000      5.9220000
     86     29     13      0.0000000     11.2850000      5.2320000      5.6000000
     87     29     13      0.0000000     11.2470000      4.2770000      6.9250000
     88     30     12      0.0000000     42.5660000     38.1440000      8.8490000
     89     30     13      0.0000000     42.8760000     37.7480000      9.7840000
     90     30     13      0.0000000     42.0950000     39.1050000      8.9600000
     91     31     12      0.0000000     39.6640000     48.9180000     23.7690000
     92     31     13      0.0000000     40.4390000     48.9710000     24.4880000
     93     31     13      0.0000000     40.0280000     49.3750000     22.8960000
     94     32     12      0.0000000     50.1600000      5.2180000     40.6430000
     95     32     13      0.0000000     50.6680000      4.9630000     41.5060000
     96     32     13      0.0000000     49.4610000      5.9480000     40.6980000
     97     33     12      0.0000000     20.5250000     40.2220000     15.5920000
     98     33     13      0.0000000     20.4310000     39.3570000     16.1820000
     99     33     13      0.0000000     21.4760000     40.6440000     15.5380000
    100     34     12      0.0000000     46.7470000     30.3370000     13.0370000
    101     34     13      0.0000000     47.3370000     29.5550000     13.3740000
    102     34     13      0.0000000     46.5610000     30.1040000     12.0070000
    103     35     12      0.0000000      0.8050000     12.5430000      6.7790000
    104     35     13      0.0000000      0.9190000     12.2770000      5.7840000
    105     35     13      0.0000000      0.7910000     13.5970000      6.7700000
    106     36     12      0.0000000     16.6000000     17.7440000     24.4810000
    107     36     13      0.0000000     16.0660000     18.1100000     25.3270000
    108     36     13      0.0000000     17.5460000     17.5100000     24.8510000
    109     37     12      0.0000000      6.3050000     26.9770000     39.1450000
    110     37     13      0.0000000      5.6760000     26.8710000     40.0000000
    111     37     13      0.0000000      6.4140000     26.0030000     38.9450000
    112     38     12      0.0000000     43.6660000      4.5000000     31.4850000
    113     38     13      0.0000000     44.1390000      3.5910000     31.5840000
    114     38     13      0.0000000     44.3050000      5.1020000     30.9290000
    115     39     12      0.0000000     18.4450000     24.4960000     49.7620000
    116     39     13      0.0000000     17.8140000     25.3100000     49.5880000
    117     39     13      0.0000000     17.8490000     23.6760000     49.9080000
    118     40     12      0.0000000     29.5730000     39.1510000      6.4370000
    119     40     13      0.0000000     30.3450000     39.7840000      6.5600000
    120     40     13      0.0000000     28.7730000     39.6990000      6.0930000
    121     41     12      0.0000000     32.8290000     43.0690000     40.2210000
    122     41     13      0.0000000     32.0640000     43.6770000     40.1340000
    123     41     13      0.0000000     33.6790000     43.5980000     40.1630000
    124     42     12      0.0000000      4.2630000     11.5800000     43.4070000
    125     42     13      0.0000000      4.0150000     12.5360000     43.1980000
    126     42     13      0.0000000      3.4500000     11.2000000     43.9290000
    127     43     12      0.0000000     29.6750000     36.6730000      7.7250000
    128     43     13      0.0000000     29.5380000     37.5210000      7.1610000
    129     43     13      0.0000000     30.2110000     37.0180000      8.5400000
    130     44     12      0.0000000     37.9480000     19.3400000     48.2250000
    131     44     13      0.0000000     38.4790000     18.7400000     47.6090000
    132     44     13      0.0000000     38.5430000     20.1870000     48.3060000
    133     45     12      0.0000000     20.0840000     30.3560000     32.5500000
    134     45     13      0.0000000     19.6060000     31.0620000     32.0230000
    135     45     13      0.0000000     20.5210000     30.9080000     33.3390000
    136     46     12      0.0000000     33.0820000     22.9300000      2.9180000
    137     46     13      0.0000000     32.4010000     23.4760000      2.4180000
    138     46     13      0.0000000     32.5500000     22.4210000      3.6430000
    139     47     12      0.0000000     20.0660000     10.4740000     28.5410000
    140     47     13      0.0000000     19.2690000     10.0870000     29.1730000
    141     47     13      0.0000000     20.9330000     10.7990000     29.0510000
    142     48     12      0.0000000     31.2810000     41.0740000     31.6590000
    143     48     13      0.0000000     31.1230000     41.1510000     30.6780000
    144     48     13      0.0000000     31.3190000     40.0620000     31.8750000
    145     49     12      0.0000000      6.2160000     43.2710000      7.1480000
    146     49     13      0.0000000      6.6950000     43.9120000      6.4450000
    147     49     13      0.0000000      5.3890000     43.7320000      7.6640000
    148     50     12      0.0000000     19.4120000     40.7140000     13.1920000
    149     50     13      0.0000000     19.4380000     39.8220000     12.7360000
    150     50     13      0.0000000     19.8700000     40.6610000     14.1420000
    151     51     12      0.0000000      1.8830000      3.9170000     22.1580000
    152     51     13      0.0000000      1.1080000      3.5690000     22.6730000
    153     51     13      0.0000000      2.8060000      3.7410000     22.5400000
    154     52     12      0.0000000      1.7290000     13.4010000     29.2120000
    155     52     13      0.0000000      1.5640000     13.2840000     28.1910000
    156     52     13      0.0000000      0.9230000     13.9810000     29.5010000
    157     53     12      0.0000000     37.9230000     34.3750000     36.0960000
    158     53     13      0.0000000     37.9420000     34.5800000     35.0850000
    159     53     13      0.0000000     38.8980000     34.1990000     36.3850000
    160     54     12      0.0000000     43.6170000      2.9170000     14.6760000
    161     54     13      0.0000000     42.8290000      3.0300000     14.0650000
    162     54     13      0.0000000     43.3530000      2.6690000     15.6280000
    163     55     12      0.0000000     38.1630000      9.4660000      6.6650000
    164     55     13      0.0000000     38.6380000     10.0890000      7.3640000
    165     55     13      0.0000000     38.6600000      8.5690000      6.6000000
    166     56     12      0.0000000      8.4490000     10.4940000     27.3650000
    167     56     13      0.0000000      7.4990000     10.2740000     26.9900000
    168     56     13      0.0000000      8.6050000      9.6770000     28.0240000
    169     57     12      0.0000000     20.2480000     33.1950000     15.5260000
    170     57     13      0.0000000     19.7930000     33.2890000     16.4560000
    171     57     13      0.0000000     21.2540000     33.0390000     15.6130000
    172     58     12      0.0000000     42.4730000     30.0470000     28.1350000
    173     58     13      0.0000000     43.3910000     29.6560000     28.2640000
    174     58     13      0.0000000     42.4300000     30.0360000     27.1260000
    175     59     12      0.0000000      8.7270000     44.5610000     43.2350000
    176     59     13      0.0000000      9.3650000     44.8480000     43.9540000
    177     59     13      0.0000000      8.0120000     45.2900000     43.1880000
    178     60     12      0.0000000     36.7140000     29.1670000     35.8310000
    179     60     13      0.0000000     37.3690000     29.8760000     35.7310000
    180     60     13      0.0000000     36.7950000     28.7190000     36.7760000
    181     61     12      0.0000000     45.6270000     22.4970000     13.0010000
    182     61     13      0.0000000     44.9320000     21.7800000     12.8400000
    183     61     13      0.0000000     46.5980000     22.1480000     12.9620000
    184     62     12      0.0000000     34.2090000     34.8060000     46.9270000
    185     62     13      0.0000000     33.5190000     35.5040000     47.2560000
    186     62     13      0.0000000     35.1670000     35.1370000     46.7400000
    187     63     12      0.0000000     46.5140000     32.9850000     27.7910000
    188     63     13      0.0000000     47.4420000     32.6410000     28.1180000
    189     63     13      0.0000000     46.2240000     32.3450000     27.0810000
    190     64     12      0.0000000     49.2490000      0.7130000     38.6770000
    191     64     13      0.0000000     48.5950000      1.3300000     38.2440000
    192     64     13      0.0000000     49.4160000     -0.0900000     37.9970000
    193     65     12      0.0000000     30.4770000     14.5590000     22.0140000
    194     65     13      0.0000000     29.6630000     15.0550000     22.4150000
    195     65     13      0.0000000     30.6570000     13.7150000     22.6230000
    196     66     12      0.0000000     30.9880000     49.0830000     26.0850000
    197     66     13      0.0000000     30.6290000     48.1460000     26.4430000
    198     66     13      0.0000000     30.4630000     49.8440000     26.5420000
    199     67     12      0.0000000     42.3170000     47.7390000     49.9970000
    200     67     13      0.0000000     41.9880000     47.0570000     49.3540000
    201     67     13      0.0000000     43.3500000     47.5850000     50.0440000
    202     68     12      0.0000000     14.0850000      4.2220000     16.1970000
    203     68     13      0.0000000     14.7110000      3.4530000     16.0080000
    204     68     13      0.0000000     14.5870000      4.9840000     16.5770000
    205     69     12      0.0000000     11.3460000     45.1740000      6.6860000
    206     69     13      0.0000000     10.7900000     45.0470000      7.5370000
    207     69     13      0.0000000     12.1640000     45.6800000      6.9440000
    208     70     12      0.0000000     29.9080000     18.0970000     31.6640000
    209     70     13      0.0000000     29.2800000     17.2920000     31.9060000
    210     70     13      0.0000000     29.7040000     18.5480000     30.6830000
    211     71     12      0.0000000     22.9370000     23.3320000     11.8270000
    212     71     13      0.0000000     23.4470000     23.1150000     11.0060000
    213     71     13      0.0000000     22.0950000     23.7330000     11.4060000
    214     72     12      0.0000000     40.4380000      6.7710000     37.4790000
    215     72     13      0.0000000     40.6590000      7.1040000     36.5690000
    216     72     13      0.0000000     40.8680000      5.8330000     37.6020000
    217     73     12      0.0000000     20.3470000     15.3630000     48.1790000
    218     73     13      0.0000000     20.9810000     15.9530000     48.6960000
    219     73     13      0.0000000     19.9680000     14.6740000     48.8100000
    220     74     12      0.0000000      1.4730000     20.7470000      9.5030000
    221     74     13      0.0000000      1.3400000     19.9330000      8.8700000
    222     74     13      0.0000000      0.9800000     21.6250000      9.2650000
    223     75     12      0.0000000     15.1430000     45.7430000     39.3170000
    224     75     13      0.0000000     16.0790000     45.7390000     39.7580000
    225     75     13      0.0000000     14.5140000     45.0860000     39.9320000
    226     76     12      0.0000000     29.8080000     30.8560000     40.7420000
    227     76     13      0.0000000     29.8730000     30.4490000     39.8070000
    228     76     13      0.0000000     30.7630000     30.9020000     41.0690000
    229     77     12      0.0000000      4.7100000     42.5330000     44.1890000
    230     77     13      0.0000000      3.9410000     41.9680000     44.4680000
    231     77     13      0.0000000      5.1870000     42.8660000     45.0630000
    232     78     12      0.0000000     46.8320000     19.4310000      3.6260000
    233     78     13      0.0000000     46.3250000     18.9080000      2.8770000
    234     78     13      0.0000000     47.6430000     19.8030000      3.0840000
    235     79     12      0.0000000     27.9380000     32.7660000     41.6290000
    236     79     13      0.0000000     28.7280000     32.2520000     41.2510000
    237     79     13      0.0000000     27.4920000     33.4340000     40.9600000
    238     80     12      0.0000000     40.5780000      5.7640000     23.0850000
    239     80     13      0.0000000     40.3120000      4.7390000     23.0110000
    240     80     13      0.0000000     41.5510000      5.8470000     22.8360000
    241     81     12      0.0000000     36.4660000     43.6910000     32.6170000
    242     81     13      0.0000000     36.0800000     42.7540000     32.6900000
    243     81     13      0.0000000     37.3100000     43.8280000     31.9740000
    244     82     12      0.0000000     15.5230000     41.5750000     37.3750000
    245     82     13      0.0000000     16.2290000     41.3480000     38.0630000
    246     82     13      0.0000000     15.6150000     42.5280000     37.0190000
    247     83     12      0.0000000     21.9220000     17.0700000     26.4110000
    248     83     13      0.0000000     22.9090000     17.2020000     26.1250000
    249     83     13      0.0000000     21.6620000     16.0850000     26.3360000
    250     84     12      0.0000000     46.0360000     12.4460000     10.5300000
    251     84     13      0.0000000     47.0340000     12.6560000     10.8420000
    252     84     13      0.0000000     45.5860000     11.8140000     11.2850000
    253     85     12      0.0000000     21.4460000     33.7720000     10.6120000
    254     85     13      0.0000000     22.3190000     33.8520000     11.0770000
    255     85     13      0.0000000     20.7280000     33.5090000     11.2770000
    256     86     12      0.0000000     38.4820000      8.8480000     36.3060000
    257     86     13      0.0000000     38.6710000      8.9230000     37.2790000
    258     86     13      0.0000000     37.4850000      8.6710000     36.1390000
    259     87     12      0.0000000     20.1800000     28.5010000     44.8710000
    260     87     13      0.0000000     20.7870000     28.8600000     45.6590000
    261     87     13      0.0000000     19.5070000     27.8220000     45.2850000
    262     88     12      0.0000000     23.3140000     31.8610000     28.3380000
    263     88     13      0.0000000     23.4700000     31.5110000     27.3980000
    264     88     13      0.0000000     23.0490000     31.0260000     28.8250000
    265     89     12      0.0000000     13.9840000     22.1670000      1.1780000
    266     89     13      0.0000000     14.1860000     21.6230000      2.0230000
    267     89     13      0.0000000     13.5640000     22.9890000      1.5990000
    268     90     12      0.0000000     37.8540000     21.0070000     11.1350000
    269     90     13      0.0000000     38.0080000     21.5090000     12.0130000
    270     90     13      0.0000000     37.0830000     20.3640000     11.2010000
    271     91     12      0.0000000     33.3370000      9.0720000     21.2070000
    272     91     13      0.0000000     33.2710000      8.4920000     20.3690000
    273     91     13      0.0000000     33.7510000      9.9530000     20.8720000
    274     92     12      0.0000000     15.5380000     40.1900000     49.9220000
    275     92     13      0.0000000     14.6110000     39.8300000     50.1840000
    276     92     13      0.0000000     15.4900000     40.5600000     49.0100000
    277     93     12      0.0000000     47.4870000     37.6010000     21.7240000
    278     93     13      0.0000000     47.4680000     37.3950000     22.6850000
    279     93     13      0.0000000     46.5160000     37.7290000     21.3540000
    280     94     12      0.0000000     48.3490000     19.9130000     25.3770000
    281     94     13      0.0000000     47.3280000     20.0610000     25.7260000
    282     94     13      0.0000000     48.4120000     18.9060000     25.0630000
    283     95     12      0.0000000     21.5830000     10.1270000     23.7910000
    284     95     13      0.0000000     21.6920000     10.8470000     24.5690000
    285     95     13      0.0000000     21.2070000     10.6810000     23.0000000
    286     96     12      0.0000000     46.4820000     35.8850000      9.3190000
    287     96     13      0.0000000     45.6490000     36.1570000      8.7350000
    288     96     13      0.0000000     46.9930000     36.7860000      9.5810000
    289     97     12      0.0000000      5.8550000      4.1370000     11.6540000
    290     97     13      0.0000000      6.5140000      3.9170000     12.4110000
    291     97     13      0.0000000      6.3150000      4.5850000     10.9060000
    292     98     12      0.0000000     37.1980000     15.4580000     46.5660000
    293     98     13      0.0000000     37.7320000     15.8960000     47.2510000
    294     98     13      0.0000000     37.0580000     16.1620000     45.8410000
    295     99     12      0.0000000     45.3420000     24.6870000     37.5220000
    296     99     13      0.0000000     45.9350000     25.4660000     37.3760000
    297     99     13      0.0000000     44.3650000     24.9320000     37.2920000
    298    100     12      0.0000000     32.1390000     21.0280000     48.6050000
    299    100     13      0.0000000     32.4490000     20.4300000     49.3770000
    300    100     13      0.0000000     31.1650000     21.2890000     48.6890000
    301    101     12      0.0000000     47.5370000     39.7370000     25.7590000
    302    101     13      0.0000000     48.5000000     39.7660000     26.1020000
    303    101     13      0.0000000     47.4440000     38.7650000     25.5330000
    304    102     12      0.0000000     43.0970000     36.8790000     44.9340000
    305    102     13      0.0000000     43.7970000     36.1220000     45.0010000
    306    102     13      0.0000000     43.4700000     37.7590000     45.3390000
    307    103     12      0.0000000     28.2860000     40.6090000      9.1340000
    308    103     13      0.0000000     29.0520000     41.1820000      9.4250000
    309    103     13      0.0000000     28.0520000     40.7970000      8.1560000
    310    104     12      0.0000000     28.1000000     21.6070000     15.4400000
    311    104     13      0.0000000     27.3860000     20.9130000     15.5280000
    312    104     13      0.0000000     27.6750000     22.2620000     14.7530000
    313    105     12      0.0000000      7.0590000     12.9020000     48.0180000
    314    105     13      0.0000000      6.9850000     12.7670000     49.0740000
    315    105     13      0.0000000      7.7720000     13.6490000     47.7370000
    316    106     12      0.0000000     16.6000000     37.3730000     29.0400000
    317    106     13      0.0000000     16.7670000     38.1870000     28.4200000
    318    106     13      0.0000000     16.4440000     37.7130000     30.0160000
    319    107     12      0.0000000     22.1130000     45.0120000      5.4770000
    320    107     13      0.0000000     21.7820000     45.4230000      6.3620000
    321    107     13      0.0000000     22.5550000     44.0820000      5.6980000
    322    108     12      0.0000000     25.2610000     17.0580000     39.0950000
    323    108     13      0.0000000     24.8700000     17.2480000     38.1780000
    324    108     13      0.0000000     26.1040000     17.5860000     39.2040000
    325    109     12      0.0000000      7.9790000     43.0250000     46.4960000
    326    109     13      0.0000000      8.2260000     44.0170000     46.4870000
    327    109     13      0.0000000      6.9670000     43.0010000     46.6320000
    328    110     12      0.0000000     12.7220000     23.1390000     32.1160000
    329    110     13      0.0000000     12.8410000     24.0420000     32.6390000
    330    110     13      0.0000000     11.7240000     23.0290000     31.7740000
    331    111     12      0.0000000     49.9640000     39.6100000      7.3370000
    332    111     13      0.0000000     50.3680000     39.9270000      6.4690000
    333    111     13      0.0000000     50.5050000     39.7260000      8.1560000
    334    112     12      0.0000000     45.2530000     22.2760000     44.5790000
    335    112     13      0.0000000     44.3950000     21.9750000     44.0740000
    336    112     13      0.0000000     45.0860000     22.1600000     45.5590000
    337    113     12      0.0000000     46.7220000     24.9960000      6.3040000
    338    113     13      0.0000000     46.2030000     25.7060000      5.6930000
    339    113     13      0.0000000     47.7370000     25.2100000      6.3740000
    340    114     12      0.0000000      1.6980000      1.5500000     39.9880000
    341    114     13      0.0000000      1.0110000      1.4030000     39.3080000
    342    114     13      0.0000000      2.6340000      1.8420000     39.4970000
    343    115     12      0.0000000     48.1800000     39.3980000     37.6020000
    344    115     13      0.0000000     48.9310000     40.0030000     37.1750000
    345    115     13      0.0000000     47.8970000     39.8440000     38.4820000
    346    116     12      0.0000000     14.0240000     17.2260000     44.2540000
    347    116     13      0.0000000     13.6820000     16.6950000     43.4160000
    348    116     13      0.0000000     14.4640000     18.1910000     44.1530000
    349    117     12      0.0000000     21.6250000     26.5260000     14.3880000
    350    117     13      0.0000000     21.6250000     25.6010000     14.8720000
    351    117     13      0.0000000     21.1840000     26.4290000     13.4650000
    352    118     12      0.0000000     27.1080000     41.9210000     17.0120000
    353    118     13      0.0000000     26.7340000     42.8330000     16.7500000
    354    118     13      0.0000000     27.7760000     42.1570000     17.8190000
    355    119     12      0.0000000     18.8460000      3.6170000     40.7760000
    356    119     13      0.0000000     19.7580000      3.9230000     40.4730000
    357    119     13      0.0000000     18.5270000      2.9330000     40.0470000
    358    120     12      0.0000000      1.5880000     42.1910000     40.5620000
    359    120     13      0.0000000      1.1840000     42.8930000     39.8950000
    360    120     13      0.0000000      2.5600000     42.1130000     40.2770000
    361    121     12      0.0000000      6.4890000     47.1830000     41.2610000