ITEM: TIMESTEP
0
ITEM: NUMBER OF ATOMS
9000
ITEM: BOX BOUNDS pp pp pp
-4.1382406092375312e-01 1.8387824060923915e+01
-4.2682619885029283e-01 1.8400826198850442e+01
-4.1182248191730082e+00 3.1506222481918655e+02
ITEM: ATOMS id type x y z c_peratom fx fy fz 
362 3 3.16257 3.506 0.818105 -29.0249 -0.160729 -0.881852 2.38066 
422 3 3.3437 7.17586 0.94501 -29.6398 0.293322 -0.066437 1.08445 
662 2 7.01042 3.69898 0.845628 -23.8319 -1.34507 -2.64543 1.20234 
722 3 6.85363 7.36458 1.17433 -29.9164 0.292018 0.219428 -0.302948 
1501 3 1.27183 1.68915 -1.74987 -28.7907 0.921292 0.0496444 0.406975 
1561 3 1.44128 5.5169 -1.58144 -29.0947 -0.288188 -0.118273 -2.02723 
1801 3 5.2874 1.63511 -1.54608 -29.0233 -0.431489 -2.24847 -1.66179 
1861 3 5.01207 5.32722 -1.82053 -28.7366 -0.580313 2.87557 -0.831279 
3601 1 7.22989 1.83916 -2.58264 -7.94048 -0.560413 -0.615714 1.55505 
4801 1 3.71439 1.60089 -0.21724 -7.34396 0.343296 0.890368 1.31478 
4861 1 3.17593 5.32685 0.0191188 -7.43204 -1.03134 -1.59346 -1.51563 
6061 1 3.23656 1.25285 -2.66756 -7.19783 -1.73898 1.29777 0.0012708 
7561 1 1.468 2.81899 -0.0282408 -7.09444 0.244781 2.0405 -1.60562 
7621 1 1.67224 7.94541 0.0434622 -7.59716 -1.00311 -0.598672 1.71429 
7861 1 5.21413 3.05286 -3.89575 -6.91698 3.53688 -0.846626 2.59221 
3661 1 6.9738 4.88885 -2.4531 -7.78894 -0.320881 -0.715738 1.23353 
6421 1 2.91675 4.20948 -2.48287 -8.01512 -0.307184 0.51838 2.79777 
7801 1 5.07479 3.54825 -0.904029 -8.64232 2.2116 1.29016 1.32417 
5641 1 7.52823 5.65295 0.168768 -7.14285 -0.782593 0.0185472 -2.41398 
3602 1 6.74476 1.41807 0.206963 -7.4749 0.049437 3.12896 -0.890321 
122 3 -0.37805 7.19243 1.24455 -29.8256 -0.105001 -1.61005 -2.94125 
6301 1 5.44901 0.0463362 -3.05026 -7.42711 0.078364 -1.81428 0.178633 
3722 1 5.15374 6.57175 0.170806 -6.86223 0.416157 -0.353544 -0.119106 
7680 1 2.82304 6.99245 -2.1476 -7.50883 -0.742293 -0.936378 -0.333922 
4201 1 -0.333333 1.20536 -2.96024 -8.27768 0.488088 -1.09016 0.427597 
3542 1 1.7375 -0.207032 -0.641705 -7.72051 -1.06216 0.261653 -0.00500752 
5102 1 8.33701 -0.306864 2.3021 -8.05834 1.42835 0.227533 0.83982 
3361 1 -0.126229 4.039 -2.32644 -6.63734 0.555788 0.117889 2.80884 
4561 1 0.589619 5.56075 0.117745 -7.23126 -2.1403 -1.47196 -0.178976 
3061 1 -0.318088 7.14288 -2.1699 -7.39808 0.710176 -0.625385 1.77519 
8221 1 6.9114 8.40978 -0.570348 -6.14563 -1.37476 1.04603 -1.77202 
5161 1 5.36545 7.37051 -2.79886 -7.71563 2.63909 1.13043 -0.473414 
5101 1 8.81949 3.27329 -0.333012 -7.89079 -2.81621 -1.5383 -1.69273 
2161 3 8.82192 5.03439 -1.56371 -28.5109 -0.174763 0.736362 -0.132615 
5461 1 8.81845 8.25049 0.728556 -7.03017 2.51774 0.0596362 0.202828 
8161 1 8.65395 7.09051 -2.7138 -8.48756 1.16783 -0.413539 1.28983 
2101 3 8.83738 1.32362 -1.42955 -28.971 1.20541 1.06492 -2.30103 
7141 1 8.38411 -0.338221 -0.526459 -7.86191 0.30731 -2.32747 0.435313 
6302 1 5.35491 0.0841615 2.15584 -7.8968 -0.362314 -0.794693 1.30161 
302 2 3.42769 -0.187655 0.894434 -25.1998 -1.64747 0.187475 0.887007 
3782 1 1.46462 -0.218135 2.16509 -7.82562 -0.323931 -0.274144 1.117 
6362 1 5.12797 3.34444 2.31136 -8.06225 1.64074 1.14509 -2.09258 
6062 1 1.29375 3.47452 2.40808 -7.42556 -0.00208022 1.25136 1.28023 
3122 1 -0.276226 8.71339 2.23744 -7.01121 -0.433051 4.53301 1.71986 
3422 1 3.47963 8.78514 2.4655 -8.30931 -2.99496 1.58087 -1.0581 
361 3 3.49575 3.39277 -4.04238 -29.2261 -2.51115 -0.290148 -3.44181 
661 3 7.38171 3.20438 -4.0806 -29.6678 -1.62999 1.48078 -2.41055 
62 2 18.2394 3.60801 1.2439 -24.355 1.111 -0.803101 -2.88637 
2 2 18.3319 -0.18683 1.19955 -24.676 0.655868 -1.99788 -0.894413 
1261 3 14.6073 3.28801 -4.10212 -29.4129 -1.70043 -1.4874 -0.170609 
4501 1 18.2807 1.45852 -0.232714 -7.91256 -1.55414 -0.648046 0.0195527 
5460 1 16.1786 2.40437 -3.46607 -7.107 2.54744 -0.0576663 2.85587 
5760 1 14.1104 1.31613 -2.84479 -7.45541 0.12267 -1.70743 -1.46102 
962 2 10.3957 3.24417 1.35317 -24.791 -1.20523 0.0618474 2.65992 
1022 2 10.5214 7.08368 1.41684 -25.1588 -1.61205 -0.922211 2.79541 
1262 3 14.3893 3.03522 1.2915 -27.8122 -0.610226 2.32244 0.340508 
1322 2 14.7405 6.89506 1.26889 -25.3008 -0.304275 -0.581306 -2.59584 
2401 2 12.6413 1.50556 -1.45476 -24.2463 -2.52079 0.463246 1.27649 
2461 3 12.3898 5.10955 -1.15617 -28.7396 0.448145 0.212175 -0.799479 
2701 2 16.4652 1.32743 -1.51639 -24.7377 -0.476477 1.41624 -1.76972 
2761 3 16.6216 5.08579 -1.77814 -28.9084 0.549967 0.985609 -0.864485 
3901 1 10.9591 1.24127 -2.75683 -7.54596 0.449965 0.0248605 -0.187343 
5401 1 11.836 3.09791 -0.111204 -8.12379 3.62097 0.732771 -1.15568 
5701 1 14.5733 1.69344 -0.254577 -8.87088 -0.524562 -0.862688 1.22702 
5761 1 13.9195 4.88484 0.184982 -7.55444 0.149622 -0.253582 -0.115927 
6961 1 11.849 6.87396 -0.104266 -7.31794 1.73035 -0.806813 -2.00048 
8761 1 16.6023 3.51877 -0.54543 -8.00927 0.224688 -0.851204 1.66137 
6901 1 12.495 3.58092 -2.61567 -7.34469 1.70741 -1.41842 0.1974 
6661 1 9.93467 5.20303 0.260071 -6.91709 2.54659 1.78064 -1.05437 
4261 1 15.8271 6.99936 -2.75117 -7.87647 5.34129 2.1548 2.87564 
8101 1 10.1091 1.26749 0.179815 -7.33428 1.53472 -0.651278 -0.228222 
3961 1 10.6747 5.11036 -2.66861 -7.75366 -1.59376 3.6876 1.64669 
2521 3 12.5082 8.79249 -1.74735 -28.6093 2.97203 1.01047 2.67523 
7322 1 16.5739 6.25003 0.0457424 -7.35607 0.280729 -0.733707 0.576062 
7021 1 12.3837 6.93933 -2.70593 -8.94251 1.2856 0.553372 -2.59748 
902 3 10.2557 -0.356058 1.26008 -28.5159 1.85308 -1.99826 0.0236578 
4800 1 16.2452 -0.401058 -3.01785 -7.47816 2.97292 1.96484 -0.182023 
8220 1 9.17394 3.28501 -3.05575 -7.48213 -1.25589 -0.284717 1.34196 
1021 3 10.6543 7.21273 -3.85784 -26.4834 -1.38794 -3.07607 -3.05529 
4621 1 17.2216 8.9166 0.249226 -6.31184 1.09255 -1.60585 -1.51267 
8880 1 14.7761 4.76375 -2.57317 -6.95889 -0.262797 -0.547802 0.636237 
7321 1 14.2342 7.93669 -0.573045 -6.87501 0.987339 0.56612 -0.645635 
3721 1 10.495 8.91106 -3.02266 -8.62887 2.61386 -1.06775 -0.400129 
4322 1 14.6124 8.92633 1.9876 -8.39459 -0.827662 2.85279 2.23938 
3062 1 18.3262 5.49064 2.42842 -7.76027 -2.70203 -3.45801 1.1594 
7202 1 16.3705 -0.210729 2.06084 -7.35119 -0.00356904 1.75759 1.49191 
8461 1 10.8739 8.98418 2.41167 -7.42075 -0.16648 -0.402435 -0.937673 
961 3 10.9207 3.49415 -3.99573 -29.6447 -0.511932 -2.26845 -0.629873 
6121 1 3.72849 9.31587 -2.79121 -6.99507 1.31001 -1.04055 -1.33347 
7921 1 7.27721 9.53849 -2.88379 -8.36597 -1.92718 -1.37344 -1.68654 
7981 1 4.17451 9.18608 -0.0209501 -6.80117 -1.5479 -0.406985 0.0465613 
1621 2 1.83116 9.0854 -1.7076 -25.5991 0.714706 0.427295 -1.73695 
6542 1 5.2733 18.1504 -0.331073 -8.44585 -0.600422 -0.774801 -1.44165 
602 3 6.92772 18.1655 0.893642 -28.6505 -0.879375 2.40487 0.979077 
1921 3 5.53703 9.40931 -1.8243 -29.1562 -1.52579 -2.4494 2.54685 
6541 1 5.37238 14.4163 -2.70407 -7.42307 0.394576 0.989668 -0.495843 
5041 1 3.62969 16.4087 -3.24567 -6.95159 3.57336 2.58101 2.66255 
6181 1 2.54212 11.3303 -2.49292 -7.49134 -2.05423 0.696655 -2.36979 
7501 1 3.16359 16.469 -0.471202 -8.19449 2.07667 0.341773 1.2479 
3841 1 6.95054 16.555 -2.52729 -8.55832 -0.0656778 0.10409 -1.11196 
482 3 3.28403 10.8354 1.27459 -28.6892 0.885193 -1.05176 -0.993145 
542 3 3.09275 14.9234 1.00275 -27.8042 2.17752 -1.10707 -0.115924 
782 3 7.10109 11.3519 0.778522 -27.8236 -0.704505 -1.6896 2.90245 
842 3 6.89463 14.6717 1.01545 -27.9266 -0.527605 -2.08182 3.31875 
1681 3 1.76738 12.5856 -1.21246 -28.6745 -3.92112 0.460527 0.598157 
1741 3 1.6994 16.6944 -1.45315 -29.1176 -4.62578 -0.99099 -4.43308 
1981 3 4.92251 12.6544 -1.79984 -28.3435 1.03763 0.949863 1.22989 
2041 3 5.28852 16.441 -1.39447 -27.9388 -1.34427 -0.122997 -2.99486 
3481 1 3.56923 12.1375 -0.203142 -7.47587 1.35235 1.90824 0.0532355 
4981 1 5.74008 11.0432 -0.673319 -7.84349 1.31251 0.784838 -0.649523 
5281 1 5.06267 11.3625 -3.34937 -8.71332 1.87929 0.365139 -0.216227 
6241 1 1.31943 15.3551 -3.27524 -6.04598 0.115361 -1.63484 3.00679 
6481 1 7.31029 12.8814 -2.94266 -7.91064 0.338433 -1.0924 -0.0128129 
7681 1 1.49197 10.669 0.0422897 -7.49147 0.375136 0.0639651 -1.60097 
6242 1 5.11011 15.0608 -0.140086 -7.9958 -0.675168 -2.49455 1.99868 
8341 1 7.08189 13.1649 -0.3105 -8.46476 0.0212929 -0.146331 0.595423 
4741 1 0.998758 14.7459 -0.511428 -7.32246 2.40821 -1.46735 0.967228 
6841 1 7.36153 16.2468 0.142059 -8.40761 1.40013 0.780423 -2.47099 
4081 1 8.53832 10.7346 -0.437997 -8.13322 0.543878 0.736363 0.203355 
3181 1 -0.238583 12.8649 -2.9478 -7.34212 -0.386463 0.817816 -0.0863974 
6002 1 -0.412571 16.8041 -0.202433 -7.43345 0.829548 1.58333 1.74572 
242 3 -0.366476 14.8764 1.20572 -28.8773 -0.992248 0.742646 -2.00006 
7381 1 -0.0109765 10.2262 -2.06006 -7.29153 -0.240269 -1.14597 0.511429 
4682 1 -0.236998 13.1201 2.39564 -8.07015 0.897009 -0.637659 -2.99569 
6001 1 1.61449 17.9089 -3.3667 -6.78335 -1.78407 2.51745 1.69996 
8281 1 7.26854 12.6733 2.51096 -7.44363 0.231235 -0.454076 -1.95318 
5040 1 3.13364 13.8133 -2.03188 -7.80948 -0.646178 0.0536858 0.385576 
2341 2 8.98032 16.5172 -1.46866 -25.0956 2.13357 0.137692 -1.75083 
2281 2 8.95969 12.6455 -1.59871 -24.7683 0.450516 0.561096 0.387231 
6842 1 8.85327 14.7337 2.48529 -8.6006 -0.228062 0.942568 -0.2404 
8041 1 5.2407 14.3133 2.4426 -7.23846 -1.18919 0.258208 -1.34241 
6782 1 2.44627 13.0289 1.76828 -7.9483 0.00761712 1.35788 0.53889 
3842 1 6.65279 16.6299 2.39505 -8.1093 -0.400508 -1.50349 0.603653 
4022 1 6.90995 9.41153 2.27343 -7.84607 -0.7422 0.474288 -1.6201 
3182 1 1.62667 15.6934 1.87581 -7.63405 -3.37069 -1.39314 1.32666 
6182 1 1.41191 10.7118 2.40472 -8.50716 0.184372 0.467698 3.77372 
3482 1 3.65334 16.8702 2.2059 -7.97592 1.11269 -0.466709 -0.462705 
541 3 3.32419 14.6199 -3.89387 -29.6658 -0.496391 2.64619 -1.52171 
841 3 7.1938 14.6994 -3.9953 -29.6623 -1.0131 -0.653642 -2.08008 
241 3 18.3869 14.7804 -3.93388 -30.2125 -0.403667 0.0940636 -2.2246 
1202 3 14.5724 18.1902 1.09872 -28.8026 -0.265284 -0.326615 0.380549 
6601 1 9.02456 18.398 -2.99901 -6.86026 -1.15654 -0.556444 1.20979 
8401 1 12.814 17.6509 1.81257 -6.79961 -1.37754 1.61501 0.6304 
4381 1 16.2719 10.8856 -2.82242 -8.37048 1.2422 -1.31001 -1.50163 
7741 1 18.3367 12.5421 -0.455458 -7.42591 0.284759 -0.502939 2.22588 
182 2 18.2931 10.8652 0.979329 -24.785 -0.537802 -1.71274 -0.723102 
3242 1 17.9376 16.5772 -2.76272 -7.4578 0.898389 0.0213053 -0.758018 
7082 1 12.429 10.9277 2.52306 -7.94649 3.72352 0.0502187 0.377636 
2821 3 16.0897 9.08448 -1.65163 -28.4738 0.203132 -0.922837 2.38699 
8400 1 9.10364 15.2063 -3.31946 -7.47676 -0.0900317 0.0272684 2.95689 
5341 1 9.47348 14.389 -0.281001 -7.17153 -3.53544 2.06506 -1.26209 
7081 1 14.5004 12.5636 -3.04956 -7.14427 -0.85117 -0.885224 -0.407409 
2221 3 9.1738 9.03233 -1.59512 -28.5815 -4.57512 0.670593 2.46385 
8222 1 9.45984 11.1158 2.38317 -6.95088 -2.32988 -0.744151 -2.4172 
8941 1 16.2984 18.2728 -0.356712 -8.16944 -1.04515 1.84963 0.143856 
4141 1 12.5207 18.293 -0.727222 -7.207 2.10601 1.23634 -0.434544 
5581 1 11.052 9.25919 -0.645994 -7.71553 -2.5474 1.0858 1.87084 
5221 1 9.21532 10.9411 -3.06793 -7.26065 -0.691532 1.33975 1.59478 
8521 1 16.0755 10.8475 -0.156057 -7.4093 -0.889725 3.11737 0.0600659 
8701 1 14.5224 16.8592 -2.97995 -6.52005 -2.30042 -0.150691 1.35249 
7441 1 14.3021 13.0578 -0.315912 -7.42795 1.42378 1.03918 -1.01043 
3781 1 11.3211 16.8562 -2.7388 -6.86524 0.0624534 -0.169843 1.03606 
5821 1 14.16 9.15652 -2.91901 -8.13667 2.35002 -2.07194 -1.51768 
4681 1 14.5195 16.2977 -0.236698 -8.4042 0.651743 -0.504009 -0.254753 
8881 1 13.1579 10.6034 -0.196321 -6.83842 -0.462997 1.02891 1.21365 
8641 1 10.7049 12.3242 -0.27526 -7.64591 2.05944 -2.79583 -0.265511 
8581 1 12.4651 10.8086 -2.88473 -7.88153 -2.24725 0.878287 -0.705276 
5881 1 12.9029 14.6329 -2.99791 -6.25338 0.0695697 -0.374354 4.05932 
1082 3 11.1606 10.8629 1.08159 -29.0442 -1.25929 -0.761432 -0.165723 
1142 3 10.8954 14.5452 1.14617 -28.8426 -0.868134 1.98035 -0.935548 
1382 3 14.6865 11.0187 1.53897 -27.4162 -1.50248 -1.85023 -4.45943 
1442 3 14.4882 14.5704 1.23418 -28.9098 0.947044 1.89656 -0.63277 
2581 2 12.5102 12.7011 -1.69025 -25.6684 2.76305 0.104475 0.734107 
2641 3 13.0485 16.2103 -1.41159 -29.0708 -3.10864 0.746751 -3.12507 
2881 2 16.3908 12.7332 -1.5278 -25.5371 -0.809677 1.2143 -0.251548 
2941 3 16.5597 16.7191 -1.43645 -28.9086 -1.26713 -3.35242 -1.01271 
4142 1 10.4886 16.7678 0.165241 -7.44476 -1.24547 -0.426979 0.460624 
5941 1 16.7498 14.6953 -0.160439 -7.32752 -1.0889 -0.285713 -0.971287 
6781 1 10.7485 13.0736 -2.90474 -7.7334 -1.00183 -0.589268 0.908836 
7142 1 12.149 14.5548 -0.383761 -7.66101 2.43345 1.05782 -0.204869 
7500 1 15.9843 14.6485 -2.98467 -7.13238 2.60855 -0.382547 2.24255 
6902 1 14.973 16.459 2.26556 -6.78381 0.82431 -0.49166 1.02047 
181 3 18.361 10.8562 -3.81381 -28.0686 -0.488416 0.713778 -0.903065 
4382 1 14.2845 12.7736 2.12556 -8.06978 -0.322165 -0.0876348 1.30503 
7201 1 16.4319 14.4302 2.38904 -7.75301 -0.145091 1.17166 -0.00168846 
5222 1 10.9523 13.0434 2.28458 -7.63229 1.56164 0.833623 2.39534 
4082 1 12.7622 15.0538 2.26866 -7.85452 -1.47784 -1.04212 1.08135 
6122 1 1.33914 6.97026 2.73894 -6.74996 1.71443 1.77891 1.22137 
6422 1 5.34869 7.16345 2.85797 -7.67471 0.670314 0.720133 -0.985976 
3962 1 8.44743 2.78621 2.56063 -8.25514 0.421751 0.635593 -0.512383 
3302 1 3.20602 1.70973 2.64594 -6.98581 -2.5646 -0.341295 -2.28468 
3662 1 7.2795 5.15503 2.56748 -7.82439 -3.08786 -1.02865 -1.08354 
3362 1 3.18414 5.3846 2.66285 -7.0046 1.97216 -1.2397 0.536688 
363 2 3.19617 3.46794 6.46198 -24.3989 0.685978 2.19998 -0.534288 
423 3 3.14193 7.33015 7.15602 -28.8821 -0.0559257 -0.658198 -3.43241 
663 3 6.9511 3.41711 6.39517 -28.0639 -1.83068 -0.876016 2.14903 
723 3 7.13824 7.31732 6.16791 -28.5318 -2.58809 1.71336 2.06266 
1502 3 1.16248 1.89456 3.7613 -28.1321 2.3962 -2.48509 0.0602064 
1562 3 1.34763 5.30327 4.07447 -29.1103 1.77951 1.92946 -1.55698 
1802 2 4.90769 1.41622 3.78701 -24.6232 2.17768 2.27962 0.622527 
1862 2 5.19371 5.17639 3.65847 -24.5695 -3.71322 -0.560196 -0.554679 
3303 1 3.04902 1.87097 7.99032 -8.80382 0.862127 -0.840688 -3.06961 
3363 1 5.89795 7.23275 8.47058 -7.48431 0.338466 2.9078 -0.859286 
3603 1 7.10818 1.407 5.00902 -7.97036 -0.227906 0.333162 -1.37404 
4802 1 3.17839 1.39388 5.17155 -7.99594 -1.62097 0.554056 2.69501 
4862 1 3.43821 5.56779 5.53274 -7.15074 0.0761953 -2.24386 -0.982644 
5162 1 6.63355 5.93377 4.95101 -8.00354 2.56602 -3.1262 2.08524 
6423 1 5.03194 7.84983 6.03605 -7.01296 -0.601094 1.17639 -0.259941 
7562 1 1.34376 3.43552 5.0699 -8.55403 1.00539 -0.408378 0.500495 
7622 1 1.36115 7.07326 5.76338 -6.58858 -1.46831 -0.255175 -0.593797 
7862 1 5.06773 3.33503 4.99085 -8.36652 0.721744 0.690053 0.250279 
6663 1 7.10121 4.92287 8.00567 -7.27907 3.18551 1.40712 -0.215519 
6123 1 1.23922 7.25665 8.26015 -7.75154 0.170742 -0.596299 1.17191 
3663 1 5.27299 3.50938 7.57344 -7.35532 -3.61336 -0.98898 -0.319711 
6063 1 3.3641 5.75627 8.22262 -7.38079 1.01831 -1.24776 0.111715 
3063 1 1.20354 3.86919 7.65869 -8.37788 0.841607 -1.09821 0.116334 
6603 1 7.17361 1.67828 7.56472 -6.85616 -0.774692 0.0288748 -0.708086 
6723 1 8.86118 7.1602 2.9861 -7.10458 -0.520735 0.812638 0.101497 
4562 1 -0.36851 5.32743 5.13444 -7.75204 -0.815922 -1.04606 1.09388 
6303 1 5.08164 -0.107848 7.85401 -8.49246 -1.33125 0.208188 -1.16002 
7802 1 5.07631 -0.340299 5.04878 -8.31866 0.214758 -1.67473 0.362354 
4922 1 2.7655 8.93742 5.01574 -8.26699 2.60955 3.87465 1.54363 
303 3 3.06667 -0.368212 6.51093 -27.3121 0.46294 0.715438 -1.78418 
2162 3 8.68162 4.95856 3.74359 -28.6804 4.01483 1.55466 1.19174 
8223 1 8.74719 7.08706 7.01183 -7.67936 2.13861 -0.619328 0.835903 
6662 1 8.59076 3.7592 5.50884 -8.30663 -2.55318 0.497848 0.423453 
3843 1 8.87191 -0.170788 8.12426 -6.98063 -0.905409 -1.69394 -2.25778 
1622 3 1.45477 8.82841 3.61662 -28.2438 -0.569795 -1.64885 -1.22326 
7502 1 1.05502 -0.269132 5.00813 -8.15564 1.0446 1.06451 -1.4657 
7922 1 7.37246 8.69402 4.77252 -7.51255 0.33158 1.55846 0.323389 
1503 3 1.48777 1.48271 8.9448 -27.7289 -2.01299 0.0626331 3.33076 
1803 2 5.09984 1.84413 9.09772 -25.1758 3.31342 0.509004 -0.867012 
2703 3 16.3946 1.7202 9.11791 -28.3222 -0.332776 -1.67398 0.563018 
6722 1 10.6557 5.16116 2.66012 -7.20164 0.599935 -1.01408 -1.27672 
3902 1 10.9229 0.949913 2.6149 -8.00954 0.350016 1.72532 1.87434 
7022 1 12.5362 7.07754 2.8564 -7.99572 0.787654 0.0838357 -2.16263 
5521 1 16.4314 7.21519 2.76451 -7.59913 -0.754652 0.416426 -2.22862 
2163 3 9.05818 5.31049 9.0476 -28.1982 -2.14827 0.583186 -0.00934354 
2823 3 16.4111 8.98619 9.05696 -28.8482 0.580045 1.24811 1.47438 
3002 1 18.2577 1.70548 2.64446 -8.83988 -0.546649 -0.488261 -0.0846255 
4502 1 18.248 1.84461 8.20848 -8.19357 2.06497 0.476846 0.949891 
63 3 18.1084 3.29108 6.72562 -28.3316 0.290109 1.40086 -1.95561 
123 3 18.1891 7.09775 6.6196 -28.773 2.51066 -0.804783 0.507705 
7263 1 18.0127 5.38654 8.01368 -8.1793 1.45845 0.133002 0.285658 
8702 1 18.1129 1.57216 5.48317 -7.87942 1.07575 -0.926192 -0.737855 
8823 1 18.2116 8.92617 7.41663 -7.77883 -0.905119 1.28388 -1.70707 
6962 1 12.7612 3.38666 2.67992 -7.88568 -0.687732 2.00045 -3.02736 
7262 1 16.0236 3.2285 2.58484 -8.32044 2.04326 1.47098 -2.80093 
4202 1 14.1737 1.23217 2.54123 -7.81945 0.128133 -0.350189 -0.367107 
5462 1 10.5083 3.07887 4.2979 -6.95312 1.71882 0.399929 -3.08837 
4262 1 14.4752 5.28844 2.68924 -7.42958 1.04976 0.712753 1.27498 
5463 1 9.33904 3.27718 8.34299 -7.94492 0.997233 2.68306 -1.9181 
2102 2 9.2601 1.3664 4.27034 -24.2086 -1.78635 1.6592 -2.63998 
3243 1 16.6165 -0.148178 7.4769 -7.19505 -1.44736 -0.650188 -1.88027 
7023 1 10.7956 5.40853 7.63276 -8.59525 0.0926057 3.21443 0.606178 
8162 1 10.0635 5.84637 4.97897 -6.90976 1.55868 1.17195 2.73017 
963 2 10.5874 3.74875 6.48971 -24.243 0.0299772 -1.32557 -1.93432 
1023 3 10.8154 7.51919 6.31253 -28.0108 -0.525141 -2.15459 -0.634306 
1263 2 14.4403 3.71188 6.96507 -23.4731 1.6294 -1.98702 -3.82516 
1323 3 14.611 7.08672 6.49903 -27.5606 0.0845009 1.04338 -0.0872821 
2402 2 12.6114 1.97442 4.12381 -24.2719 -0.384242 -4.00438 1.72643 
2462 3 12.6611 5.37752 3.89936 -28.7687 -0.976428 -1.55485 -0.0237227 
2702 2 16.3449 1.53025 3.84185 -24.7282 -1.28265 1.40184 0.550328 
2762 2 16.6095 5.37703 3.84634 -24.903 -2.22959 -2.06466 1.9519 
4203 1 16.3649 3.55612 7.94336 -8.90377 -1.22748 -0.696304 1.17712 
5402 1 10.5158 1.61679 6.23398 -7.61042 0.466472 -0.565501 -0.173924 
5702 1 14.5643 1.58381 5.30203 -7.85028 -1.16345 0.685081 -0.0972128 
5762 1 12.7204 6.96111 5.39691 -8.40409 -0.309672 -0.00714189 1.33858 
6963 1 12.7181 3.61157 8.14897 -8.67556 -1.52024 -0.96298 0.0112785 
7323 1 14.7447 5.30392 5.44335 -8.20997 0.502519 1.20301 0.447233 
8462 1 12.5698 3.82147 5.44789 -8.52889 1.65579 0.518906 1.09495 
8762 1 16.5445 3.42978 5.15174 -7.12407 0.209033 1.12071 0.566583 
8822 1 16.8165 7.24903 5.18509 -7.89532 -1.20397 1.17217 1.90714 
3123 1 14.49 5.56488 8.29285 -8.53015 -0.195141 -1.8705 -0.397682 
4023 1 12.6534 7.27009 8.13693 -8.48982 -0.0130918 1.47335 -1.99466 
6124 1 16.256 7.0971 7.90242 -8.13639 0.96589 1.70225 -0.729203 
7203 1 14.4112 1.50015 7.89883 -8.06763 0.767766 1.94925 1.49769 
5942 1 16.3279 -0.371742 4.65721 -8.17178 2.9223 -0.576452 2.79978 
6903 1 12.7359 -0.354376 7.60172 -8.00521 -0.0806302 -1.55789 1.95573 
1203 3 14.3839 -0.322008 6.38954 -29.0913 0.869108 1.08141 -1.5436 
2522 3 12.8108 8.84985 3.65038 -28.8157 -1.30438 1.71061 0.914354 
5822 1 14.6778 8.77629 4.79403 -7.83418 1.82677 -2.1098 0.732173 
8402 1 12.3768 -0.146867 4.9598 -7.73571 0.132413 1.33961 -0.893534 
3903 1 11.0211 1.12064 8.80868 -7.21704 -1.69537 -0.501585 1.30418 
2463 3 12.4873 5.50476 8.98015 -28.1743 0.452689 -0.57484 3.65173 
2283 3 8.98138 13.1789 8.94791 -29.4584 1.5025 -1.44887 1.76225 
6843 1 8.63704 14.8065 7.88171 -7.56791 1.14935 0.177697 -1.34122 
6003 1 1.24996 18.3836 7.67463 -8.51662 1.24071 1.77875 0.687804 
603 2 6.90888 18.3981 6.39751 -24.7758 1.5916 2.61055 -0.307756 
6482 1 5.04235 11.1652 2.53496 -7.85601 -1.99885 -0.150379 -0.996148 
4622 1 -0.157228 9.37129 4.59467 -8.1547 -1.66273 1.05896 2.30675 
3723 1 7.59455 9.34148 7.62521 -8.32305 -1.13045 1.19417 -0.276206 
3423 1 3.49963 9.05715 8.29841 -7.56764 -1.62899 -1.47806 -4.02074 
1922 2 4.8956 9.10457 3.98454 -24.4933 3.19223 -2.64335 -0.151518 
6484 1 5.09283 10.9783 8.03516 -7.05924 -0.0341565 0.467987 -1.12237 
8043 1 4.9089 14.571 7.83037 -8.49115 1.7201 0.473255 -0.39618 
483 2 3.16616 10.884 6.40197 -24.3989 0.493437 -0.285437 1.60126 
543 2 3.26644 14.7612 6.23997 -24.3198 -1.72555 0.990334 -0.301178 
783 3 7.54549 11.0294 6.40757 -27.6158 -1.33633 -1.08802 -1.50353 
843 2 7.00685 14.5044 6.35164 -23.8854 -0.367611 3.54901 1.20865 
1682 3 1.30481 12.5984 3.4888 -27.8384 1.10875 1.18637 2.16548 
1742 3 1.30329 16.7834 3.88598 -27.7758 0.372113 -0.2814 -2.83095 
1982 3 5.3383 12.6616 4.00781 -28.3401 1.33527 1.11814 -3.532 
2042 3 4.92483 16.7688 3.57078 -27.7972 2.08275 -1.16778 2.09175 
3483 1 1.378 10.7819 8.00255 -7.81639 0.00864023 -2.27538 0.581515 
3543 1 3.23397 16.6735 7.58881 -8.61543 1.10528 0.364028 0.943383 
3783 1 6.99518 12.6338 7.61364 -8.43591 0.355154 0.280848 -0.261373 
4982 1 3.50411 12.4902 4.43282 -8.09402 -2.53682 -0.818326 0.957464 
5042 1 3.06553 16.9066 4.88172 -8.56512 0.303158 -1.36384 0.65313 
5282 1 7.0963 12.8061 5.03272 -8.6723 0.367248 -0.815491 0.817701 
5342 1 7.00059 16.5736 4.92746 -8.1787 0.474654 -0.269025 0.918497 
6243 1 1.21806 14.8865 7.54638 -7.24402 0.75085 0.243548 -0.959325 
6483 1 2.84775 12.9041 7.21965 -7.46837 1.28472 -1.04026 0.608285 
6543 1 6.87442 16.7153 7.7258 -8.30935 1.28257 -1.54898 -1.42252 
7682 1 1.10383 11.4365 5.54481 -7.75071 1.86178 0.172924 -3.00078 
7742 1 1.60959 14.638 4.55139 -8.45721 -0.246919 0.490742 0.755404 
7982 1 5.35136 10.7241 5.21294 -8.59347 0.022243 1.43131 2.04005 
8042 1 5.07135 14.7847 4.94541 -8.46645 -0.261541 -0.178325 1.86284 
4683 1 -0.393831 12.7146 7.75137 -8.05195 -1.34358 0.300256 -3.67157 
4742 1 -0.40748 16.6036 5.36041 -8.53242 0.321375 -3.98275 -3.54264 
2222 3 8.63167 9.274 3.05731 -28.9561 2.81478 0.235388 1.81376 
2342 3 8.48884 16.4827 3.49994 -27.5841 1.0142 1.33395 1.43139 
1683 2 1.18314 12.7106 9.07339 -24.7981 6.44689 1.11004 -0.451189 
2223 3 8.92632 9.3778 9.02359 -27.5562 0.640604 0.454153 0.46562 
1983 3 5.33242 12.9225 9.02654 -27.8692 -1.49971 -1.72478 -0.361152 
2043 2 5.26957 16.8334 9.03167 -24.1103 -3.7717 -0.671793 3.27952 
1743 2 1.48429 16.6561 9.16923 -24.8834 -3.09359 -0.464759 -1.32506 
2583 2 12.863 12.976 8.90505 -24.9071 1.87892 -2.50783 3.36873 
1083 3 11.1372 10.9665 6.47486 -27.4499 -2.05352 -0.833409 -1.60221 
7382 1 16.5306 11.3388 2.58183 -9.7017 0.357792 -3.29729 0.0804278 
4442 1 14.4632 17.0197 4.80766 -6.72911 -2.25553 -0.997373 -1.37719 
3 3 18.1479 18.2474 6.00416 -27.8249 -0.958862 4.09333 5.27685 
5582 1 11.2401 12.6102 5.05108 -9.14535 -1.83618 -0.068248 1.71961 
8102 1 9.17099 18.3697 5.20056 -8.07927 -2.73999 -3.02861 0.149255 
7083 1 12.7524 10.8606 7.74533 -9.67618 0.118848 0.520607 -0.110061 
903 2 10.7619 18.3466 6.67639 -25.4235 0.232899 -0.889591 1.253 
4323 1 14.7633 9.10558 7.70197 -9.04304 -1.47758 -1.01931 0.376293 
8522 1 11.1821 9.14973 5.1011 -7.3831 -1.49993 -1.11734 0.979373 
6183 1 16.599 11.0038 7.96118 -7.53081 -0.35451 -2.8622 -1.29519 
8942 1 16.265 15.0477 5.13875 -8.23579 0.619769 -0.833372 -1.14021 
7442 1 18.1582 16.7479 2.75879 -8.42832 0.312962 -0.541568 0.0967301 
3183 1 18.1093 13.171 4.71236 -8.04702 -0.201541 -0.329348 2.99777 
243 3 18.3761 14.6575 6.23742 -28.5428 -0.881195 -0.353727 2.17686 
8342 1 9.0517 14.5185 5.35915 -8.57183 0.854762 0.179716 -0.862329 
183 3 18.2615 10.8328 6.31843 -28.2788 -0.123272 0.0296728 2.06254 
7443 1 18.0874 16.5722 7.76421 -6.66947 -0.340668 -0.239675 0.953229 
7383 1 14.5568 12.854 7.14921 -7.79286 -3.02776 -3.16098 0.0106816 
6602 1 10.3677 16.9418 2.90321 -7.75707 0.461036 -0.897127 -0.580845 
8582 1 13.1817 10.4528 4.93537 -7.62319 -0.3656 5.17853 1.9441 
8643 1 12.7429 14.895 8.02532 -8.52799 -0.0174923 0.713467 -2.52423 
5522 1 10.7241 9.04555 7.61572 -8.76871 -0.0472354 0.893966 1.36135 
2882 3 16.4797 13.0178 3.61536 -27.4664 -0.607316 0.646584 1.95313 
1383 3 14.5363 10.6571 6.54296 -27.4755 1.92391 1.87198 -1.34197 
4083 1 11.0241 13.0325 7.68963 -8.00822 0.243636 0.343454 -2.77396 
1143 3 10.923 14.6194 6.60952 -27.8982 -0.217325 3.18045 -1.84886 
2642 3 12.4938 16.8304 3.61438 -29.5689 0.251207 -0.672994 1.84659 
7143 1 12.7302 14.7979 5.28693 -7.16452 1.21845 -2.2313 -0.314561 
6783 1 9.30764 11.3832 7.45417 -8.22929 -1.00705 -1.30525 0.236966 
2822 2 16.6213 9.16845 3.77612 -23.9709 -0.504814 -0.905167 -0.154151 
4443 1 14.5433 16.6661 7.2092 -8.00704 1.4023 -1.05184 3.02375 
2942 3 16.3264 16.6371 3.94144 -28.511 -1.29827 -1.06086 -3.15138 
4383 1 16.3825 14.4471 7.57828 -6.74273 1.17112 1.43021 -0.19155 
5642 1 11.0852 16.4685 5.49303 -6.68474 -1.08967 0.111947 0.974315 
2582 3 12.7187 12.6419 3.94466 -27.4404 0.418232 0.366726 -3.44043 
5882 1 14.4667 13.0201 4.51115 -8.07814 2.26899 -0.457614 1.50999 
8282 1 9.05275 10.8975 4.79493 -7.59348 -1.0204 0.129975 2.27299 
2282 2 9.18308 12.9479 3.83986 -24.9032 -0.604934 -2.76522 -2.3314 
1443 3 14.6107 14.5399 6.34669 -28.8782 -0.100277 2.88808 -0.960689 
8642 1 10.5983 16.746 8.23647 -8.11964 0.887983 -1.27526 -0.217973 
8882 1 16.36 10.9064 5.45067 -8.7084 0.25645 -0.474089 -2.28313 
2943 2 16.1899 16.682 8.81679 -25.2877 1.33188 -0.967891 0.641044 
2643 3 12.6109 16.6101 8.97041 -28.1613 0.0430882 1.15968 2.10303 
2883 3 16.7919 12.596 8.95939 -29.5889 -1.92307 3.80396 1.65739 
364 3 3.2844 3.54157 11.789 -29.557 0.565638 -0.793501 -1.64539 
424 2 3.25354 7.10144 12.1452 -24.5141 -0.941189 0.00162951 -2.35579 
664 3 7.05191 3.65228 11.6398 -29.1302 -2.12947 0.478012 0.879014 
724 3 6.79403 7.25088 12.0187 -27.3555 0.522944 -1.05017 -1.29065 
1504 3 1.40806 1.78018 14.2725 -28.7225 0.94122 -0.767137 2.3152 
1564 3 1.01847 5.54589 14.6011 -28.1657 1.70828 -1.88537 2.59281 
1804 3 5.29306 1.81403 14.5519 -28.1247 -0.654131 -1.58567 -1.64444 
1864 3 5.37331 5.65171 14.6507 -28.1535 -0.0144476 -1.33975 0.888873 
3364 1 1.47442 7.60246 11.1233 -7.00598 -2.5677 0.325194 -1.36286 
3604 1 5.134 2.76939 12.213 -7.25739 -0.356157 -0.542728 3.25079 
4803 1 5.15121 4.00224 10.2023 -7.21891 -0.504547 -1.9793 -0.733149 
4863 1 4.95198 6.85313 10.8512 -8.00912 1.50022 2.47865 1.34287 
5103 1 7.13536 5.54729 10.8044 -7.16094 2.53617 2.54096 -3.6332 
7623 1 1.12678 7.1309 13.6302 -7.98899 0.442583 1.07746 -2.72603 
7863 1 2.72185 5.35765 10.7497 -6.76891 -0.702141 -0.451782 0.561539 
7923 1 5.58242 7.35674 13.6268 -8.89966 -2.30767 1.98798 -0.167175 
3064 1 3.62576 5.39071 13.2847 -8.24346 0.802722 -1.07208 1.79475 
6724 1 5.27179 3.79533 15.314 -7.87927 -1.27145 -0.791989 -0.246399 
6065 1 1.53632 3.71174 13.0086 -8.57259 -1.71827 0.529293 0.711693 
6364 1 6.63602 5.16931 13.0127 -7.02573 -1.29588 0.382027 3.08788 
7563 1 1.64695 3.13855 10.3287 -7.81752 -3.1422 0.611121 -0.537497 
8103 1 7.23901 1.68324 10.0744 -7.75651 -3.65912 2.32343 2.26711 
6604 1 7.11449 1.65945 13.1004 -8.69051 0.156071 1.18701 0.644454 
4563 1 -0.381702 5.35532 10.7489 -9.03619 1.03545 1.45185 -1.98899 
64 2 -0.380433 3.61876 11.9375 -23.7112 -2.17135 -3.50808 0.614347 
304 3 3.03869 -0.317662 12.0589 -29.8277 1.02358 -0.710404 -2.07845 
604 3 6.96579 0.314541 11.6091 -28.8957 2.07687 -2.69569 1.8659 
7503 1 3.62585 1.36176 10.4041 -6.29079 -1.64916 -0.14516 0.951088 
3304 1 2.61092 1.39338 12.712 -6.84261 -0.614868 3.62001 1.68912 
7803 1 5.53459 -0.217904 10.5507 -7.05841 -1.92185 -1.12877 -0.686203 
7924 1 6.77785 8.75417 15.6918 -7.25003 0.678471 -0.880416 0.64503 
3004 1 -0.388716 1.37015 13.5471 -8.13271 0.189951 1.44042 -0.765554 
4743 1 1.26984 0.233126 10.507 -7.2384 -1.65243 -1.78914 -2.28726 
1863 3 5.3754 5.65834 9.24032 -29.2551 -0.537396 -2.776 -0.434457 
2104 3 8.79583 1.93094 14.2006 -28.1163 1.5872 -1.32354 1.40764 
6363 1 8.717 3.59285 10.7323 -7.46981 1.8331 1.5186 -1.18227 
3664 1 8.70318 7.21877 12.9095 -9.32083 -0.841997 0.620416 0.412301 
3904 1 8.67116 3.87456 13.3007 -8.31907 2.31293 -1.55594 2.1041 
8403 1 8.76356 -0.182537 10.6176 -7.21653 2.55963 -0.969863 0.535169 
4804 1 4.24452 -0.212357 13.7192 -6.9643 0.881731 -0.264653 -0.165799 
7504 1 1.51726 -0.0179359 15.355 -7.50939 -0.290823 -0.96124 -0.595112 
7984 1 3.23975 8.98338 13.2048 -9.32433 0.446795 1.22634 2.36275 
1563 3 1.05043 5.14018 9.28828 -28.0729 3.48417 1.7848 -0.684749 
7804 1 1.39666 3.54149 15.6442 -7.70296 -0.908876 -0.160288 0.479598 
3305 1 3.45992 1.83561 15.4361 -8.12183 0.139101 0.177539 1.29479 
5404 1 8.91162 0.199145 15.6972 -8.21894 0.608007 0.32256 1.08778 
2103 3 8.93676 1.64301 9.19259 -29.751 0.965055 -2.05994 0.111313 
6064 1 17.9413 5.24409 13.383 -8.4461 1.39562 0.345312 0.969037 
4 3 18.2252 -0.185445 11.8459 -28.7133 1.40684 0.00177398 -0.390768 
4623 1 18.2045 8.62557 9.90241 -7.20908 0.803897 -0.242755 0.816638 
3003 1 17.7414 1.63137 10.9624 -7.80578 0.672104 1.97339 -0.647952 
2164 3 9.06871 5.67164 14.4345 -27.2176 -0.81375 -1.88927 -0.628245 
5523 1 9.24777 7.43873 9.83808 -8.43369 -2.52992 0.152579 -1.07116 
5644 1 9.07939 -0.138681 13.161 -7.00965 1.18893 1.89577 -0.270054 
5163 1 10.3182 1.89742 11.5947 -7.00859 -0.605556 -3.45825 1.09309 
124 2 18.2037 7.39926 11.9194 -24.8927 0.416227 -1.10106 -1.26637 
7264 1 16.3461 7.36248 13.1749 -8.9138 -0.773492 -0.493756 2.32888 
4503 1 16.1918 4.1097 10.7309 -8.15501 1.17641 -0.389226 -1.83299 
964 3 10.6576 3.7758 11.7247 -29.3381 0.669764 0.314943 0.34797 
1024 2 10.4544 7.51214 11.5555 -24.1841 3.42843 -1.72586 0.781923 
1264 2 14.5453 3.63052 11.9603 -24.838 -3.38806 1.41608 2.55593 
1324 3 14.4242 7.32858 12.0165 -28.5625 -0.553527 -0.754515 -1.10551 
2404 3 12.6628 1.71591 14.5254 -29.0958 -1.03873 1.27903 2.2065 
2464 3 12.4105 5.4001 14.589 -28.7987 3.31404 -0.988881 -1.92044 