LAMMPS DATA file generated by GEO Finder

216 atoms
10584 bonds
25920 angles
0 dihedrals
0 impropers

1 atom types
98 bond types
8 angle types

0.0 16.416000 xlo xhi
0.0 16.416000 ylo yhi
0.0 16.416000 zlo zhi

Masses

1 28

Atoms

1 1 1 10.944000 0.000000 0.000000 0 0 0
2 1 1 13.680000 2.736000 0.000000 0 0 0
3 1 1 13.680000 0.000000 2.736000 0 0 0
4 1 1 5.472000 0.000000 0.000000 0 0 0
5 1 1 8.208000 2.736000 0.000000 0 0 0
6 1 1 10.944000 5.472000 0.000000 0 0 0
7 1 1 13.680000 8.208000 0.000000 0 0 0
8 1 1 8.208000 0.000000 2.736000 0 0 0
9 1 1 10.944000 2.736000 2.736000 0 0 0
10 1 1 13.680000 5.472000 2.736000 0 0 0
11 1 1 10.944000 0.000000 5.472000 0 0 0
12 1 1 13.680000 2.736000 5.472000 0 0 0
13 1 1 13.680000 0.000000 8.208000 0 0 0
14 1 1 0.000000 0.000000 0.000000 0 0 0
15 1 1 2.736000 2.736000 0.000000 0 0 0
16 1 1 5.472000 5.472000 0.000000 0 0 0
17 1 1 8.208000 8.208000 0.000000 0 0 0
18 1 1 10.944000 10.944000 0.000000 0 0 0
19 1 1 13.680000 13.680000 0.000000 0 0 0
20 1 1 2.736000 0.000000 2.736000 0 0 0
21 1 1 5.472000 2.736000 2.736000 0 0 0
22 1 1 8.208000 5.472000 2.736000 0 0 0
23 1 1 10.944000 8.208000 2.736000 0 0 0
24 1 1 13.680000 10.944000 2.736000 0 0 0
25 1 1 5.472000 0.000000 5.472000 0 0 0
26 1 1 8.208000 2.736000 5.472000 0 0 0
27 1 1 10.944000 5.472000 5.472000 0 0 0
28 1 1 13.680000 8.208000 5.472000 0 0 0
29 1 1 8.208000 0.000000 8.208000 0 0 0
30 1 1 10.944000 2.736000 8.208000 0 0 0
31 1 1 13.680000 5.472000 8.208000 0 0 0
32 1 1 10.944000 0.000000 10.944000 0 0 0
33 1 1 13.680000 2.736000 10.944000 0 0 0
34 1 1 13.680000 0.000000 13.680000 0 0 0
35 1 1 0.000000 5.472000 0.000000 0 0 0
36 1 1 2.736000 8.208000 0.000000 0 0 0
37 1 1 5.472000 10.944000 0.000000 0 0 0
38 1 1 8.208000 13.680000 0.000000 0 0 0
39 1 1 0.000000 2.736000 2.736000 0 0 0
40 1 1 2.736000 5.472000 2.736000 0 0 0
41 1 1 5.472000 8.208000 2.736000 0 0 0
42 1 1 8.208000 10.944000 2.736000 0 0 0
43 1 1 10.944000 13.680000 2.736000 0 0 0
44 1 1 0.000000 0.000000 5.472000 0 0 0
45 1 1 2.736000 2.736000 5.472000 0 0 0
46 1 1 5.472000 5.472000 5.472000 0 0 0
47 1 1 8.208000 8.208000 5.472000 0 0 0
48 1 1 10.944000 10.944000 5.472000 0 0 0
49 1 1 13.680000 13.680000 5.472000 0 0 0
50 1 1 2.736000 0.000000 8.208000 0 0 0
51 1 1 5.472000 2.736000 8.208000 0 0 0
52 1 1 8.208000 5.472000 8.208000 0 0 0
53 1 1 10.944000 8.208000 8.208000 0 0 0
54 1 1 13.680000 10.944000 8.208000 0 0 0
55 1 1 5.472000 0.000000 10.944000 0 0 0
56 1 1 8.208000 2.736000 10.944000 0 0 0
57 1 1 10.944000 5.472000 10.944000 0 0 0
58 1 1 13.680000 8.208000 10.944000 0 0 0
59 1 1 8.208000 0.000000 13.680000 0 0 0
60 1 1 10.944000 2.736000 13.680000 0 0 0
61 1 1 13.680000 5.472000 13.680000 0 0 0
62 1 1 0.000000 10.944000 0.000000 0 0 0
63 1 1 2.736000 13.680000 0.000000 0 0 0
64 1 1 0.000000 8.208000 2.736000 0 0 0
65 1 1 2.736000 10.944000 2.736000 0 0 0
66 1 1 5.472000 13.680000 2.736000 0 0 0
67 1 1 0.000000 5.472000 5.472000 0 0 0
68 1 1 2.736000 8.208000 5.472000 0 0 0
69 1 1 5.472000 10.944000 5.472000 0 0 0
70 1 1 8.208000 13.680000 5.472000 0 0 0
71 1 1 0.000000 2.736000 8.208000 0 0 0
72 1 1 2.736000 5.472000 8.208000 0 0 0
73 1 1 5.472000 8.208000 8.208000 0 0 0
74 1 1 8.208000 10.944000 8.208000 0 0 0
75 1 1 10.944000 13.680000 8.208000 0 0 0
76 1 1 0.000000 0.000000 10.944000 0 0 0
77 1 1 2.736000 2.736000 10.944000 0 0 0
78 1 1 5.472000 5.472000 10.944000 0 0 0
79 1 1 8.208000 8.208000 10.944000 0 0 0
80 1 1 10.944000 10.944000 10.944000 0 0 0
81 1 1 13.680000 13.680000 10.944000 0 0 0
82 1 1 2.736000 0.000000 13.680000 0 0 0
83 1 1 5.472000 2.736000 13.680000 0 0 0
84 1 1 8.208000 5.472000 13.680000 0 0 0
85 1 1 10.944000 8.208000 13.680000 0 0 0
86 1 1 13.680000 10.944000 13.680000 0 0 0
87 1 1 0.000000 13.680000 2.736000 0 0 0
88 1 1 0.000000 10.944000 5.472000 0 0 0
89 1 1 2.736000 13.680000 5.472000 0 0 0
90 1 1 0.000000 8.208000 8.208000 0 0 0
91 1 1 2.736000 10.944000 8.208000 0 0 0
92 1 1 5.472000 13.680000 8.208000 0 0 0
93 1 1 0.000000 5.472000 10.944000 0 0 0
94 1 1 2.736000 8.208000 10.944000 0 0 0
95 1 1 5.472000 10.944000 10.944000 0 0 0
96 1 1 8.208000 13.680000 10.944000 0 0 0
97 1 1 0.000000 2.736000 13.680000 0 0 0
98 1 1 2.736000 5.472000 13.680000 0 0 0
99 1 1 5.472000 8.208000 13.680000 0 0 0
100 1 1 8.208000 10.944000 13.680000 0 0 0
101 1 1 10.944000 13.680000 13.680000 0 0 0
102 1 1 0.000000 13.680000 8.208000 0 0 0
103 1 1 0.000000 10.944000 10.944000 0 0 0
104 1 1 2.736000 13.680000 10.944000 0 0 0
105 1 1 0.000000 8.208000 13.680000 0 0 0
106 1 1 2.736000 10.944000 13.680000 0 0 0
107 1 1 5.472000 13.680000 13.680000 0 0 0
108 1 1 0.000000 13.680000 13.680000 0 0 0
109 1 1 12.312000 1.368000 1.368000 0 0 0
110 1 1 15.048000 4.104000 1.368000 0 0 0
111 1 1 15.048000 1.368000 4.104000 0 0 0
112 1 1 6.840000 1.368000 1.368000 0 0 0
113 1 1 9.576000 4.104000 1.368000 0 0 0
114 1 1 12.312000 6.840000 1.368000 0 0 0
115 1 1 15.048000 9.576000 1.368000 0 0 0
116 1 1 9.576000 1.368000 4.104000 0 0 0
117 1 1 12.312000 4.104000 4.104000 0 0 0
118 1 1 15.048000 6.840000 4.104000 0 0 0
119 1 1 12.312000 1.368000 6.840000 0 0 0
120 1 1 15.048000 4.104000 6.840000 0 0 0
121 1 1 15.048000 1.368000 9.576000 0 0 0
122 1 1 1.368000 1.368000 1.368000 0 0 0
123 1 1 4.104000 4.104000 1.368000 0 0 0
124 1 1 6.840000 6.840000 1.368000 0 0 0
125 1 1 9.576000 9.576000 1.368000 0 0 0
126 1 1 12.312000 12.312000 1.368000 0 0 0
127 1 1 15.048000 15.048000 1.368000 0 0 0
128 1 1 4.104000 1.368000 4.104000 0 0 0
129 1 1 6.840000 4.104000 4.104000 0 0 0
130 1 1 9.576000 6.840000 4.104000 0 0 0
131 1 1 12.312000 9.576000 4.104000 0 0 0
132 1 1 15.048000 12.312000 4.104000 0 0 0
133 1 1 6.840000 1.368000 6.840000 0 0 0
134 1 1 9.576000 4.104000 6.840000 0 0 0
135 1 1 12.312000 6.840000 6.840000 0 0 0
136 1 1 15.048000 9.576000 6.840000 0 0 0
137 1 1 9.576000 1.368000 9.576000 0 0 0
138 1 1 12.312000 4.104000 9.576000 0 0 0
139 1 1 15.048000 6.840000 9.576000 0 0 0
140 1 1 12.312000 1.368000 12.312000 0 0 0
141 1 1 15.048000 4.104000 12.312000 0 0 0
142 1 1 15.048000 1.368000 15.048000 0 0 0
143 1 1 1.368000 6.840000 1.368000 0 0 0
144 1 1 4.104000 9.576000 1.368000 0 0 0
145 1 1 6.840000 12.312000 1.368000 0 0 0
146 1 1 9.576000 15.048000 1.368000 0 0 0
147 1 1 1.368000 4.104000 4.104000 0 0 0
148 1 1 4.104000 6.840000 4.104000 0 0 0
149 1 1 6.840000 9.576000 4.104000 0 0 0
150 1 1 9.576000 12.312000 4.104000 0 0 0
151 1 1 12.312000 15.048000 4.104000 0 0 0
152 1 1 1.368000 1.368000 6.840000 0 0 0
153 1 1 4.104000 4.104000 6.840000 0 0 0
154 1 1 6.840000 6.840000 6.840000 0 0 0
155 1 1 9.576000 9.576000 6.840000 0 0 0
156 1 1 12.312000 12.312000 6.840000 0 0 0
157 1 1 15.048000 15.048000 6.840000 0 0 0
158 1 1 4.104000 1.368000 9.576000 0 0 0
159 1 1 6.840000 4.104000 9.576000 0 0 0
160 1 1 9.576000 6.840000 9.576000 0 0 0
161 1 1 12.312000 9.576000 9.576000 0 0 0
162 1 1 15.048000 12.312000 9.576000 0 0 0
163 1 1 6.840000 1.368000 12.312000 0 0 0
164 1 1 9.576000 4.104000 12.312000 0 0 0
165 1 1 12.312000 6.840000 12.312000 0 0 0
166 1 1 15.048000 9.576000 12.312000 0 0 0
167 1 1 9.576000 1.368000 15.048000 0 0 0
168 1 1 12.312000 4.104000 15.048000 0 0 0
169 1 1 15.048000 6.840000 15.048000 0 0 0
170 1 1 1.368000 12.312000 1.368000 0 0 0
171 1 1 4.104000 15.048000 1.368000 0 0 0
172 1 1 1.368000 9.576000 4.104000 0 0 0
173 1 1 4.104000 12.312000 4.104000 0 0 0
174 1 1 6.840000 15.048000 4.104000 0 0 0
175 1 1 1.368000 6.840000 6.840000 0 0 0
176 1 1 4.104000 9.576000 6.840000 0 0 0
177 1 1 6.840000 12.312000 6.840000 0 0 0
178 1 1 9.576000 15.048000 6.840000 0 0 0
179 1 1 1.368000 4.104000 9.576000 0 0 0
180 1 1 4.104000 6.840000 9.576000 0 0 0
181 1 1 6.840000 9.576000 9.576000 0 0 0
182 1 1 9.576000 12.312000 9.576000 0 0 0
183 1 1 12.312000 15.048000 9.576000 0 0 0
184 1 1 1.368000 1.368000 12.312000 0 0 0
185 1 1 4.104000 4.104000 12.312000 0 0 0
186 1 1 6.840000 6.840000 12.312000 0 0 0
187 1 1 9.576000 9.576000 12.312000 0 0 0
188 1 1 12.312000 12.312000 12.312000 0 0 0
189 1 1 15.048000 15.048000 12.312000 0 0 0
190 1 1 4.104000 1.368000 15.048000 0 0 0
191 1 1 6.840000 4.104000 15.048000 0 0 0
192 1 1 9.576000 6.840000 15.048000 0 0 0
193 1 1 12.312000 9.576000 15.048000 0 0 0
194 1 1 15.048000 12.312000 15.048000 0 0 0
195 1 1 1.368000 15.048000 4.104000 0 0 0
196 1 1 1.368000 12.312000 6.840000 0 0 0
197 1 1 4.104000 15.048000 6.840000 0 0 0
198 1 1 1.368000 9.576000 9.576000 0 0 0
199 1 1 4.104000 12.312000 9.576000 0 0 0
200 1 1 6.840000 15.048000 9.576000 0 0 0
201 1 1 1.368000 6.840000 12.312000 0 0 0
202 1 1 4.104000 9.576000 12.312000 0 0 0
203 1 1 6.840000 12.312000 12.312000 0 0 0
204 1 1 9.576000 15.048000 12.312000 0 0 0
205 1 1 1.368000 4.104000 15.048000 0 0 0
206 1 1 4.104000 6.840000 15.048000 0 0 0
207 1 1 6.840000 9.576000 15.048000 0 0 0
208 1 1 9.576000 12.312000 15.048000 0 0 0
209 1 1 12.312000 15.048000 15.048000 0 0 0
210 1 1 1.368000 15.048000 9.576000 0 0 0
211 1 1 1.368000 12.312000 12.312000 0 0 0
212 1 1 4.104000 15.048000 12.312000 0 0 0
213 1 1 1.368000 9.576000 15.048000 0 0 0
214 1 1 4.104000 12.312000 15.048000 0 0 0
215 1 1 6.840000 15.048000 15.048000 0 0 0
216 1 1 1.368000 15.048000 15.048000 0 0 0

Bonds

1 1 1 145
2 2 1 42
3 3 1 125
4 4 1 126
5 5 1 24
6 6 1 66
7 7 1 171
8 8 1 43
9 9 1 146
10 10 1 127
11 11 1 87
12 12 1 21
13 13 1 112
14 14 1 5
15 15 1 8
16 16 1 9
17 17 1 109
18 18 1 2
19 19 1 3
20 20 1 14
21 21 1 39
22 22 1 122
23 23 1 16
24 24 1 6
25 25 1 22
26 26 1 113
27 27 1 114
28 28 1 10
29 29 1 110
30 30 1 35
31 31 1 48
32 32 1 150
33 33 1 132
34 34 1 174
35 35 1 70
36 36 1 151
37 37 1 178
38 38 1 49
39 39 1 25
40 40 1 11
41 41 1 26
42 42 1 116
43 43 1 119
44 44 1 12
45 45 1 111
46 46 1 44
47 47 1 129
48 48 1 27
49 49 1 117
50 3 2 126
51 2 2 43
52 1 2 146
53 4 2 127
54 5 2 87
55 7 2 112
56 6 2 8
57 15 2 9
58 9 2 109
59 8 2 3
60 20 2 15
61 11 2 20
62 19 2 39
63 10 2 122
64 14 2 6
65 12 2 22
66 13 2 113
67 26 2 114
68 16 2 10
69 17 2 110
70 18 2 35
71 21 2 40
72 22 2 123
73 29 2 143
74 23 2 17
75 25 2 23
76 24 2 7
77 27 2 115
78 30 2 36
79 28 2 64
80 32 2 151
81 31 2 49
82 33 2 195
83 35 2 11
84 39 2 26
85 34 2 116
86 37 2 119
87 40 2 12
88 36 2 111
89 38 2 44
90 46 2 45
91 41 2 27
92 42 2 117
93 47 2 130
94 49 2 118
95 43 2 120
96 44 2 67
97 45 2 147
98 48 2 28
99 14 3 9
100 20 3 20
101 18 3 39
102 23 3 22
103 24 3 10
104 30 3 40
105 2 3 48
106 3 3 131
107 1 3 150
108 32 3 156
109 4 3 132
110 5 3 88
111 33 3 196
112 7 3 174
113 6 3 70
114 9 3 151
115 34 3 178
116 8 3 49
117 36 3 157
118 11 3 89
119 10 3 195
120 15 3 11
121 12 3 26
122 13 3 116
123 42 3 119
124 16 3 12
125 17 3 111
126 19 3 44
127 21 3 45
128 22 3 128
129 45 3 152
130 25 3 27
131 26 3 117
132 47 3 134
133 27 3 118
134 49 3 120
135 28 3 67
136 29 3 147
137 31 3 54
138 35 3 75
139 37 3 183
140 38 3 102
141 39 3 29
142 41 3 30
143 40 3 13
144 43 3 121
145 46 3 50
146 44 3 71
147 48 3 31
148 2 4 65
149 1 4 170
150 3 4 144
151 4 4 145
152 5 4 42
153 7 4 127
154 6 4 87
155 8 4 66
156 9 4 171
157 11 4 43
158 10 4 146
159 14 4 15
160 15 4 20
161 12 4 39
162 13 4 122
163 16 4 21
164 17 4 112
165 20 4 1
166 18 4 5
167 19 4 8
168 21 4 9
169 22 4 109
170 23 4 35
171 25 4 40
172 24 4 16
173 26 4 123
174 27 4 124
175 30 4 6
176 28 4 22
177 29 4 113
178 31 4 69
179 32 4 173
180 33 4 150
181 35 4 89
182 34 4 195
183 36 4 174
184 37 4 197
185 38 4 70
186 39 4 44
187 41 4 45
188 40 4 25
189 42 4 128
190 43 4 133
191 46 4 11
192 44 4 26
193 45 4 116
194 47 4 147
195 48 4 46
196 49 4 129
197 3 5 145
198 2 5 66
199 1 5 171
200 5 5 43
201 4 5 146
202 6 5 20
203 7 5 122
204 15 5 21
205 9 5 112
206 8 5 8
207 19 5 9
208 10 5 109
209 20 5 2
210 11 5 3
211 12 5 40
212 14 5 16
213 13 5 123
214 26 5 124
215 18 5 6
216 16 5 22
217 17 5 113
218 29 5 114
219 21 5 10
220 22 5 110
221 23 5 36
222 25 5 41
223 24 5 17
224 28 5 23
225 27 5 125
226 30 5 7
227 32 5 174
228 31 5 70
229 33 5 151
230 39 5 45
231 35 5 25
232 34 5 128
233 37 5 133
234 38 5 11
235 40 5 26
236 36 5 116
237 46 5 12
238 41 5 46
239 42 5 129
240 47 5 148
241 44 5 27
242 45 5 117
243 49 5 130
244 43 5 134
245 48 5 47
246 3 6 146
247 6 6 21
248 1 6 112
249 2 6 8
250 8 6 9
251 4 6 109
252 5 6 3
253 11 6 39
254 7 6 123
255 13 6 124
256 15 6 22
257 9 6 113
258 17 6 114
259 19 6 10
260 10 6 110
261 20 6 35
262 22 6 143
263 23 6 37
264 12 6 41
265 14 6 17
266 24 6 18
267 16 6 23
268 25 6 42
269 26 6 125
270 27 6 126
271 18 6 7
272 28 6 24
273 29 6 115
274 30 6 62
275 21 6 64
276 31 6 11
277 35 6 26
278 32 6 116
279 38 6 12
280 33 6 111
281 39 6 46
282 34 6 129
283 40 6 27
284 36 6 117
285 42 6 130
286 37 6 134
287 43 6 135
288 45 6 118
289 46 6 67
290 47 6 149
291 41 6 47
292 48 6 48
293 49 6 131
294 44 6 28
295 2 7 9
296 3 7 109
297 5 7 39
298 7 7 124
299 6 7 22
300 1 7 113
301 9 7 114
302 8 7 10
303 4 7 110
304 11 7 40
305 10 7 143
306 14 7 18
307 15 7 23
308 12 7 42
309 13 7 125
310 26 7 126
311 16 7 24
312 17 7 115
313 20 7 36
314 18 7 62
315 19 7 64
316 21 7 65
317 22 7 144
318 29 7 170
319 23 7 38
320 25 7 43
321 24 7 19
322 27 7 127
323 30 7 63
324 28 7 87
325 31 7 12
326 35 7 27
327 32 7 117
328 34 7 130
329 37 7 135
330 36 7 118
331 38 7 67
332 33 7 147
333 39 7 47
334 41 7 48
335 42 7 131
336 47 7 150
337 40 7 28
338 49 7 132
339 43 7 136
340 46 7 68
341 44 7 88
342 45 7 172
343 48 7 49
344 14 8 21
345 18 8 9
346 20 8 3
347 23 8 40
348 24 8 22
349 30 8 10
350 2 8 69
351 3 8 149
352 1 8 173
353 32 8 177
354 5 8 48
355 4 8 150
356 33 8 156
357 6 8 89
358 7 8 195
359 9 8 174
360 34 8 197
361 8 8 70
362 10 8 151
363 36 8 178
364 11 8 49
365 12 8 45
366 15 8 25
367 13 8 128
368 42 8 133
369 19 8 11
370 16 8 26
371 17 8 116
372 45 8 119
373 21 8 12
374 22 8 111
375 25 8 46
376 26 8 129
377 47 8 153
378 28 8 27
379 29 8 117
380 27 8 130
381 49 8 134
382 31 8 74
383 35 8 92
384 37 8 200
385 38 8 75
386 39 8 50
387 41 8 51
388 40 8 29
389 44 8 30
390 43 8 137
391 46 8 13
392 48 8 52
393 20 9 39
394 14 9 22
395 18 9 10
396 23 9 41
397 24 9 23
398 30 9 64
399 3 9 150
400 1 9 174
401 2 9 70
402 4 9 151
403 32 9 178
404 5 9 49
405 33 9 157
406 6 9 25
407 7 9 128
408 34 9 133
409 8 9 11
410 15 9 26
411 9 9 116
412 36 9 119
413 19 9 12
414 10 9 111
415 11 9 44
416 12 9 46
417 13 9 129
418 47 9 154
419 16 9 27
420 17 9 117
421 26 9 130
422 42 9 134
423 49 9 135
424 29 9 118
425 45 9 120
426 21 9 67
427 22 9 147
428 25 9 47
429 27 9 131
430 28 9 28
431 31 9 75
432 39 9 51
433 35 9 29
434 40 9 30
435 37 9 137
436 38 9 13
437 46 9 71
438 41 9 52
439 43 9 138
440 44 9 31
441 48 9 53
442 20 10 40
443 14 10 23
444 23 10 42
445 24 10 24
446 18 10 64
447 30 10 65
448 3 10 151
449 2 10 11
450 6 10 26
451 1 10 116
452 32 10 119
453 8 10 12
454 4 10 111
455 5 10 44
456 11 10 45
457 33 10 152
458 7 10 129
459 15 10 27
460 9 10 117
461 13 10 130
462 34 10 134
463 42 10 135
464 17 10 118
465 36 10 120
466 19 10 67
467 10 10 147
468 22 10 148
469 45 10 175
470 12 10 47
471 25 10 48
472 26 10 131
473 47 10 155
474 16 10 28
475 27 10 132
476 49 10 136
477 21 10 68
478 28 10 88
479 29 10 172
480 35 10 30
481 31 10 13
482 38 10 71
483 39 10 52
484 37 10 138
485 40 10 31
486 43 10 139
487 46 10 72
488 41 10 53
489 48 10 54
490 44 10 90
491 1 11 177
492 3 11 155
493 4 11 156
494 7 11 197
495 9 11 178
496 10 11 157
497 13 11 133
498 14 11 26
499 17 11 119
500 18 11 12
501 20 11 44
502 22 11 152
503 23 11 46
504 24 11 27
505 26 11 134
506 27 11 135
507 29 11 120
508 30 11 67
509 2 11 74
510 31 11 80
511 32 11 182
512 5 11 54
513 33 11 162
514 6 11 92
515 34 11 200
516 8 11 75
517 35 11 96
518 36 11 183
519 37 11 204
520 38 11 81
521 11 11 102
522 12 11 51
523 39 11 55
524 15 11 29
525 16 11 30
526 40 11 32
527 41 11 56
528 42 11 137
529 43 11 140
530 19 11 13
531 44 11 33
532 45 11 121
533 21 11 71
534 46 11 76
535 47 11 159
536 25 11 52
537 48 11 57
538 49 11 138
539 28 11 31
540 3 12 156
541 1 12 178
542 4 12 157
543 7 12 133
544 9 12 119
545 20 12 45
546 10 12 152
547 14 12 27
548 13 12 134
549 26 12 135
550 17 12 120
551 18 12 67
552 22 12 153
553 29 12 175
554 23 12 47
555 24 12 28
556 27 12 136
557 30 12 68
558 2 12 75
559 32 12 183
560 31 12 81
561 5 12 102
562 33 12 210
563 6 12 29
564 15 12 30
565 35 12 32
566 39 12 56
567 34 12 137
568 37 12 140
569 8 12 13
570 40 12 33
571 36 12 121
572 11 12 50
573 19 12 71
574 38 12 76
575 46 12 77
576 12 12 52
577 41 12 57
578 42 12 138
579 47 12 160
580 16 12 31
581 49 12 139
582 43 12 141
583 21 12 72
584 44 12 93
585 45 12 179
586 25 12 53
587 48 12 58
588 28 12 90
589 2 13 80
590 3 13 161
591 1 13 182
592 32 13 188
593 4 13 162
594 5 13 103
595 33 13 211
596 7 13 200
597 6 13 96
598 9 13 183
599 34 13 204
600 8 13 81
601 36 13 189
602 11 13 104
603 10 13 210
604 14 13 30
605 15 13 32
606 12 13 56
607 13 13 137
608 42 13 140
609 16 13 33
610 17 13 121
611 20 13 50
612 18 13 71
613 19 13 76
614 21 13 77
615 22 13 158
616 45 13 184
617 23 13 52
618 25 13 57
619 26 13 138
620 47 13 164
621 24 13 31
622 27 13 139
623 49 13 141
624 30 13 72
625 28 13 93
626 29 13 179
627 31 13 86
628 35 13 101
629 37 13 209
630 38 13 108
631 39 13 59
632 41 13 60
633 40 13 34
634 43 13 142
635 46 13 82
636 44 13 97
637 48 13 61
638 1 14 126
639 2 14 24
640 3 14 115
641 5 14 65
642 4 14 170
643 6 14 43
644 7 14 146
645 9 14 127
646 8 14 87
647 11 14 66
648 10 14 171
649 12 14 9
650 13 14 109
651 14 14 2
652 15 14 3
653 18 14 15
654 19 14 20
655 16 14 39
656 17 14 122
657 20 14 4
658 21 14 21
659 22 14 112
660 23 14 6
661 25 14 10
662 26 14 110
663 24 14 35
664 28 14 40
665 27 14 143
666 30 14 16
667 29 14 123
668 32 14 132
669 31 14 88
670 33 14 173
671 34 14 151
672 35 14 49
673 37 14 157
674 38 14 89
675 36 14 195
676 39 14 11
677 41 14 12
678 42 14 111
679 40 14 44
680 44 14 45
681 43 14 152
682 46 14 25
683 45 14 128
684 47 14 117
685 48 14 67
686 49 14 147
687 3 15 170
688 1 15 127
689 2 15 87
690 5 15 66
691 4 15 171
692 7 15 109
693 6 15 3
694 8 15 20
695 15 15 39
696 9 15 122
697 19 15 21
698 10 15 112
699 20 15 5
700 11 15 8
701 12 15 10
702 13 15 110
703 14 15 35
704 16 15 40
705 26 15 143
706 18 15 16
707 17 15 123
708 29 15 124
709 21 15 22
710 22 15 113
711 23 15 7
712 24 15 36
713 25 15 64
714 28 15 41
715 27 15 144
716 30 15 17
717 31 15 89
718 32 15 195
719 33 15 174
720 39 15 12
721 34 15 111
722 35 15 44
723 40 15 45
724 37 15 152
725 38 15 25
726 36 15 128
727 46 15 26
728 47 15 118
729 41 15 67
730 42 15 147
731 44 15 46
732 45 15 129
733 49 15 148
734 43 15 153
735 48 15 68
736 3 16 171
737 2 16 20
738 6 16 39
739 1 16 122
740 8 16 21
741 4 16 112
742 5 16 8
743 11 16 9
744 7 16 110
745 15 16 40
746 13 16 143
747 9 16 123
748 17 16 124
749 20 16 6
750 19 16 22
751 10 16 113
752 22 16 114
753 14 16 36
754 23 16 62
755 12 16 64
756 25 16 65
757 24 16 37
758 16 16 41
759 26 16 144
760 27 16 145
761 18 16 17
762 30 16 18
763 21 16 23
764 28 16 42
765 29 16 125
766 35 16 45
767 31 16 25
768 32 16 128
769 38 16 26
770 33 16 116
771 39 16 67
772 34 16 147
773 40 16 46
774 36 16 129
775 42 16 148
776 37 16 153
777 43 16 154
778 46 16 27
779 45 16 130
780 41 16 68
781 47 16 172
782 48 16 69
783 49 16 149
784 44 16 47
785 2 17 21
786 3 17 112
787 5 17 9
788 6 17 40
789 7 17 143
790 1 17 123
791 9 17 124
792 8 17 22
793 4 17 113
794 10 17 114
795 11 17 10
796 12 17 65
797 14 17 37
798 15 17 41
799 13 17 144
800 26 17 145
801 18 17 18
802 19 17 23
803 16 17 42
804 17 17 125
805 29 17 126
806 20 17 7
807 21 17 24
808 22 17 115
809 23 17 63
810 25 17 66
811 24 17 38
812 28 17 43
813 27 17 146
814 30 17 19
815 31 17 26
816 35 17 46
817 32 17 129
818 34 17 148
819 37 17 154
820 38 17 27
821 33 17 117
822 36 17 130
823 39 17 68
824 41 17 69
825 42 17 149
826 47 17 173
827 40 17 47
828 44 17 48
829 45 17 131
830 49 17 150
831 43 17 155
832 46 17 28
833 48 17 70
834 1 18 124
835 2 18 22
836 3 18 113
837 4 18 114
838 5 18 10
839 6 18 41
840 7 18 144
841 13 18 145
842 8 18 23
843 15 18 42
844 9 18 125
845 17 18 126
846 19 18 24
847 10 18 115
848 20 18 62
849 11 18 64
850 22 18 170
851 12 18 66
852 14 18 38
853 16 18 43
854 26 18 146
855 18 18 19
856 29 18 127
857 21 18 87
858 23 18 4
859 24 18 1
860 25 18 8
861 27 18 109
862 28 18 3
863 30 18 14
864 31 18 27
865 32 18 130
866 33 18 118
867 39 18 69
868 34 18 149
869 35 18 47
870 40 18 48
871 36 18 131
872 42 18 150
873 37 18 155
874 43 18 156
875 38 18 28
876 45 18 132
877 46 18 88
878 47 18 174
879 41 18 70
880 49 18 151
881 44 18 49
882 48 18 11
883 3 19 114
884 7 19 145
885 2 19 23
886 6 19 42
887 1 19 125
888 9 19 126
889 8 19 24
890 4 19 115
891 5 19 64
892 11 19 65
893 10 19 170
894 15 19 43
895 13 19 146
896 17 19 127
897 20 19 63
898 19 19 87
899 22 19 171
900 14 19 1
901 23 19 5
902 12 19 8
903 25 19 9
904 26 19 109
905 24 19 2
906 16 19 3
907 27 19 110
908 18 19 14
909 30 19 15
910 21 19 20
911 28 19 39
912 29 19 122
913 35 19 48
914 32 19 131
915 34 19 150
916 37 19 156
917 31 19 28
918 36 19 132
919 38 19 88
920 33 19 172
921 39 19 70
922 42 19 151
923 40 19 49
924 43 19 157
925 46 19 89
926 45 19 195
927 41 19 11
928 47 19 116
929 48 19 12
930 49 19 111
931 44 19 44
932 14 20 39
933 18 20 21
934 20 20 8
935 23 20 10
936 24 20 40
937 30 20 22
938 1 20 132
939 2 20 88
940 3 20 172
941 32 20 196
942 5 20 69
943 4 20 173
944 33 20 177
945 7 20 151
946 6 20 49
947 34 20 157
948 8 20 89
949 9 20 195
950 10 20 174
951 36 20 197
952 11 20 70
953 12 20 12
954 13 20 111
955 15 20 44
956 16 20 45
957 42 20 152
958 19 20 25
959 17 20 128
960 45 20 133
961 21 20 26
962 22 20 116
963 47 20 120
964 25 20 67
965 26 20 147
966 28 20 46
967 29 20 129
968 27 20 148
969 49 20 153
970 31 20 91
971 35 20 102
972 37 20 210
973 38 20 92
974 39 20 13
975 40 20 50
976 41 20 71
977 44 20 51
978 43 20 158
979 46 20 29
980 48 20 72
981 20 21 9
982 14 21 40
983 18 21 22
984 23 21 64
985 24 21 41
986 30 21 23
987 3 21 173
988 2 21 89
989 1 21 195
990 4 21 174
991 32 21 197
992 5 21 70
993 33 21 178
994 7 21 111
995 6 21 44
996 15 21 45
997 34 21 152
998 8 21 25
999 9 21 128
1000 36 21 133
1001 11 21 11
1002 19 21 26
1003 10 21 116
1004 12 21 67
1005 13 21 147
1006 47 21 175
1007 16 21 46
1008 17 21 129
1009 26 21 148
1010 42 21 153
1011 49 21 154
1012 21 21 27
1013 22 21 117
1014 29 21 130
1015 45 21 134
1016 25 21 68
1017 27 21 149
1018 28 21 47
1019 31 21 92
1020 35 21 50
1021 39 21 71
1022 40 21 51
1023 37 21 158
1024 38 21 29
1025 46 21 30
1026 41 21 72
1027 43 21 159
1028 44 21 52
1029 48 21 73
1030 20 22 10
1031 23 22 65
1032 14 22 41
1033 18 22 23
1034 24 22 42
1035 30 22 24
1036 3 22 174
1037 6 22 45
1038 2 22 25
1039 1 22 128
1040 32 22 133
1041 5 22 11
1042 8 22 26
1043 4 22 116
1044 33 22 119
1045 11 22 12
1046 7 22 147
1047 15 22 46
1048 9 22 129
1049 13 22 148
1050 34 22 153
1051 42 22 154
1052 19 22 27
1053 10 22 117
1054 17 22 130
1055 36 22 134
1056 45 22 135
1057 22 22 118
1058 12 22 68
1059 25 22 69
1060 26 22 149
1061 47 22 176
1062 16 22 47
1063 28 22 48
1064 29 22 131
1065 27 22 150
1066 49 22 155
1067 21 22 28
1068 35 22 51
1069 31 22 29
1070 38 22 30
1071 39 22 72
1072 37 22 159
1073 40 22 52
1074 43 22 160
1075 46 22 31
1076 41 22 73
1077 44 22 53
1078 48 22 74
1079 14 23 42
1080 18 23 24
1081 20 23 64
1082 23 23 66
1083 24 23 43
1084 30 23 87
1085 2 23 26
1086 3 23 116
1087 5 23 12
1088 6 23 46
1089 1 23 129
1090 7 23 148
1091 34 23 154
1092 8 23 27
1093 4 23 117
1094 9 23 130
1095 32 23 134
1096 36 23 135
1097 10 23 118
1098 33 23 120
1099 11 23 67
1100 12 23 69
1101 13 23 149
1102 47 23 177
1103 15 23 47
1104 16 23 48
1105 17 23 131
1106 26 23 150
1107 42 23 155
1108 49 23 156
1109 19 23 28
1110 29 23 132
1111 45 23 136
1112 21 23 88
1113 22 23 172
1114 25 23 70
1115 27 23 151
1116 28 23 49
1117 31 23 30
1118 35 23 52
1119 37 23 160
1120 38 23 31
1121 39 23 73
1122 40 23 53
1123 41 23 74
1124 43 23 161
1125 44 23 54
1126 46 23 90
1127 48 23 75
1128 20 24 65
1129 14 24 43
1130 18 24 87
1131 23 24 8
1132 24 24 3
1133 30 24 20
1134 2 24 27
1135 3 24 117
1136 1 24 130
1137 32 24 135
1138 4 24 118
1139 5 24 67
1140 33 24 175
1141 7 24 149
1142 6 24 47
1143 15 24 48
1144 9 24 131
1145 13 24 150
1146 34 24 155
1147 42 24 156
1148 8 24 28
1149 17 24 132
1150 36 24 136
1151 11 24 68
1152 19 24 88
1153 10 24 172
1154 22 24 173
1155 45 24 196
1156 12 24 70
1157 26 24 151
1158 47 24 178
1159 16 24 49
1160 49 24 157
1161 21 24 89
1162 29 24 195
1163 25 24 11
1164 27 24 111
1165 28 24 44
1166 31 24 31
1167 35 24 53
1168 39 24 74
1169 37 24 161
1170 40 24 54
1171 43 24 162
1172 38 24 90
1173 46 24 91
1174 41 24 75
1175 44 24 102
1176 48 24 13
1177 1 25 196
1178 3 25 176
1179 4 25 177
1180 7 25 157
1181 9 25 197
1182 10 25 178
1183 14 25 45
1184 13 25 152
1185 17 25 133
1186 20 25 11
1187 18 25 26
1188 22 25 119
1189 23 25 67
1190 24 25 46
1191 26 25 153
1192 27 25 154
1193 30 25 27
1194 29 25 134
1195 2 25 91
1196 31 25 95
1197 32 25 199
1198 5 25 74
1199 33 25 182
1200 6 25 102
1201 35 25 104
1202 34 25 210
1203 8 25 92
1204 36 25 200
1205 37 25 212
1206 11 25 75
1207 38 25 96
1208 15 25 50
1209 12 25 71
1210 39 25 76
1211 41 25 77
1212 16 25 51
1213 40 25 55
1214 42 25 158
1215 43 25 163
1216 19 25 29
1217 21 25 30
1218 46 25 32
1219 44 25 56
1220 45 25 137
1221 25 25 72
1222 47 25 179
1223 48 25 78
1224 49 25 159
1225 28 25 52
1226 3 26 177
1227 1 26 197
1228 4 26 178
1229 7 26 152
1230 9 26 133
1231 10 26 119
1232 20 26 12
1233 14 26 46
1234 13 26 153
1235 26 26 154
1236 18 26 27
1237 17 26 134
1238 29 26 135
1239 22 26 120
1240 23 26 68
1241 24 26 47
1242 27 26 155
1243 30 26 28
1244 2 26 92
1245 32 26 200
1246 5 26 75
1247 31 26 96
1248 33 26 183
1249 6 26 50
1250 39 26 77
1251 15 26 51
1252 35 26 55
1253 34 26 158
1254 37 26 163
1255 8 26 29
1256 19 26 30
1257 38 26 32
1258 40 26 56
1259 36 26 137
1260 11 26 13
1261 46 26 33
1262 12 26 72
1263 41 26 78
1264 42 26 159
1265 47 26 180
1266 16 26 52
1267 44 26 57
1268 45 26 138
1269 49 26 160
1270 43 26 164
1271 21 26 31
1272 25 26 73
1273 28 26 53
1274 48 26 79
1275 3 27 178
1276 1 27 133
1277 4 27 119
1278 7 27 153
1279 13 27 154
1280 9 27 134
1281 17 27 135
1282 10 27 120
1283 20 27 67
1284 22 27 175
1285 23 27 69
1286 14 27 47
1287 24 27 48
1288 26 27 155
1289 27 27 156
1290 18 27 28
1291 29 27 136
1292 30 27 88
1293 6 27 51
1294 2 27 29
1295 8 27 30
1296 31 27 32
1297 35 27 56
1298 32 27 137
1299 5 27 13
1300 38 27 33
1301 33 27 121
1302 11 27 71
1303 39 27 78
1304 34 27 159
1305 15 27 52
1306 40 27 57
1307 36 27 138
1308 42 27 160
1309 37 27 164
1310 43 27 165
1311 19 27 31
1312 45 27 139
1313 46 27 93
1314 12 27 73
1315 47 27 181
1316 16 27 53
1317 25 27 74
1318 41 27 79
1319 48 27 80
1320 49 27 161
1321 28 27 54
1322 44 27 58
1323 21 27 90
1324 3 28 119
1325 7 28 154
1326 1 28 134
1327 9 28 135
1328 4 28 120
1329 10 28 175
1330 14 28 48
1331 13 28 155
1332 26 28 156
1333 17 28 136
1334 20 28 68
1335 18 28 88
1336 22 28 176
1337 29 28 196
1338 23 28 70
1339 24 28 49
1340 27 28 157
1341 30 28 89
1342 2 28 30
1343 31 28 33
1344 5 28 71
1345 6 28 52
1346 35 28 57
1347 32 28 138
1348 34 28 160
1349 37 28 165
1350 8 28 31
1351 36 28 139
1352 11 28 72
1353 38 28 93
1354 33 28 179
1355 15 28 53
1356 12 28 74
1357 39 28 79
1358 41 28 80
1359 42 28 161
1360 47 28 182
1361 16 28 54
1362 40 28 58
1363 49 28 162
1364 43 28 166
1365 19 28 90
1366 21 28 91
1367 46 28 94
1368 44 28 103
1369 45 28 198
1370 25 28 75
1371 48 28 81
1372 28 28 102
1373 2 29 95
1374 3 29 181
1375 1 29 199
1376 32 29 203
1377 5 29 80
1378 4 29 182
1379 33 29 188
1380 6 29 104
1381 7 29 210
1382 9 29 200
1383 34 29 212
1384 8 29 96
1385 10 29 183
1386 36 29 204
1387 11 29 81
1388 12 29 77
1389 14 29 51
1390 15 29 55
1391 13 29 158
1392 42 29 163
1393 18 29 30
1394 19 29 32
1395 16 29 56
1396 17 29 137
1397 45 29 140
1398 20 29 13
1399 21 29 33
1400 22 29 121
1401 23 29 72
1402 25 29 78
1403 26 29 159
1404 47 29 185
1405 24 29 52
1406 28 29 57
1407 29 29 138
1408 27 29 160
1409 49 29 164
1410 30 29 31
1411 31 29 100
1412 35 29 107
1413 37 29 215
1414 38 29 101
1415 39 29 82
1416 41 29 83
1417 40 29 59
1418 44 29 60
1419 43 29 167
1420 46 29 34
1421 48 29 84
1422 3 30 182
1423 1 30 200
1424 2 30 96
1425 4 30 183
1426 32 30 204
1427 5 30 81
1428 33 30 189
1429 6 30 55
1430 7 30 158
1431 34 30 163
1432 8 30 32
1433 15 30 56
1434 9 30 137
1435 36 30 140
1436 19 30 33
1437 10 30 121
1438 20 30 71
1439 11 30 76
1440 12 30 78
1441 13 30 159
1442 47 30 186
1443 14 30 52
1444 16 30 57
1445 17 30 138
1446 26 30 160
1447 42 30 164
1448 49 30 165
1449 18 30 31
1450 29 30 139
1451 45 30 141
1452 21 30 93
1453 22 30 179
1454 23 30 73
1455 24 30 53
1456 25 30 79
1457 27 30 161
1458 28 30 58
1459 30 30 90
1460 31 30 101
1461 39 30 83
1462 35 30 59
1463 40 30 60
1464 37 30 167
1465 38 30 34
1466 46 30 97
1467 41 30 84
1468 43 30 168
1469 44 30 61
1470 48 30 85
1471 3 31 183
1472 2 31 32
1473 6 31 56
1474 1 31 137
1475 32 31 140
1476 8 31 33
1477 4 31 121
1478 5 31 76
1479 11 31 77
1480 33 31 184
1481 7 31 159
1482 15 31 57
1483 9 31 138
1484 13 31 160
1485 34 31 164
1486 42 31 165
1487 17 31 139
1488 36 31 141
1489 20 31 72
1490 19 31 93
1491 10 31 179
1492 22 31 180
1493 45 31 201
1494 14 31 53
1495 23 31 74
1496 12 31 79
1497 25 31 80
1498 26 31 161
1499 47 31 187
1500 24 31 54
1501 16 31 58
1502 27 31 162
1503 49 31 166
1504 18 31 90
1505 30 31 91
1506 21 31 94
1507 28 31 103
1508 29 31 198
1509 35 31 60
1510 31 31 34
1511 38 31 97
1512 39 31 84
1513 37 31 168
1514 40 31 61
1515 43 31 169
1516 46 31 98
1517 41 31 85
1518 48 31 86
1519 44 31 105
1520 1 32 203
1521 3 32 187
1522 4 32 188
1523 7 32 212
1524 9 32 204
1525 10 32 189
1526 13 32 163
1527 14 32 56
1528 17 32 140
1529 18 32 33
1530 20 32 76
1531 22 32 184
1532 23 32 78
1533 24 32 57
1534 26 32 164
1535 27 32 165
1536 29 32 141
1537 30 32 93
1538 2 32 100
1539 32 32 208
1540 5 32 86
1541 33 32 194
1542 6 32 107
1543 34 32 215
1544 8 32 101
1545 36 32 209
1546 11 32 108
1547 12 32 83
1548 15 32 59
1549 16 32 60
1550 42 32 167
1551 19 32 34
1552 45 32 142
1553 21 32 97
1554 47 32 191
1555 25 32 84
1556 49 32 168
1557 28 32 61
1558 31 32 18
1559 35 32 38
1560 37 32 146
1561 38 32 19
1562 39 32 4
1563 40 32 1
1564 41 32 5
1565 43 32 109
1566 44 32 2
1567 46 32 14
1568 48 32 6
1569 3 33 188