LAMMPS data file via write_data, version 22 Dec 2022, timestep = 25

8 atoms
3 atom types

0.005572152220749666 3.06351533777925 xlo xhi
0.00482562537696481 2.6530821074230353 ylo yhi
0.024939374508326652 13.711426625491676 zlo zhi
-1.5289715927792504 0 0 xy xz yz

Masses

1 47.88
2 26.982
3 12.011

Atoms # atomic

2 1 0.005572149871940297 1.7703299480879124 1.3234417672929097 0 0 0
8 3 3.0635153377662236 0.004825625376965131 0.024939374508326652 -1 0 0
5 2 1.5345437517405347 0.8875777821467273 3.446561187254163 0 0 0
3 1 0.005572149871940519 1.7703299480879124 5.569680607215416 0 0 0
7 3 3.0635153377662236 0.004825625376964946 6.868182999999999 -1 0 0
1 1 1.534543747316069 0.8875777847120888 8.166685392784585 0 0 0
6 2 0.005572145435927629 1.7703299506532744 10.289804812745837 0 0 0
4 1 1.534543747316069 0.8875777847120888 12.412924232707091 0 0 0

Velocities

2 0 0 0
8 0 0 0
5 0 0 0
3 0 0 0
7 0 0 0
1 0 0 0
6 0 0 0
4 0 0 0
