LAMMPS (22 Dec 2022)
  using 1 OpenMP thread(s) per MPI task
Loaded 1 plugins from C:\Program Files\LAMMPS 64-bit 23Jun2022\plugins
Loaded 0 plugins from C:\Program Files\LAMMPS 64-bit 23Jun2022-MPI\plugins
Loaded 1 plugins from C:\Program Files\LAMMPS 64-bit 22Dec2022-MSMPI\plugins
Loaded 1 plugins from C:\Program Files\LAMMPS 64-bit 28Mar2023-MPI\plugins
# Compute elastic constant tensor for a crystal
#
# Written by Aidan Thompson (Sandia, athomps@sandia.gov)
#
#  This script uses the following three include files.
#
#   init.mod      (must be modified for different crystal structures)
# 	       	  Define units, deformation parameters and initial
#		  configuration of the atoms and simulation cell.
#
#
#   potential.mod    (must be modified for different pair styles)
# 		     Define pair style and other attributes
#		     not stored in restart file
#
#
#   displace.mod    (displace.mod should not need to be modified)
# 		    Perform positive and negative box displacements
# 		    in direction ${dir} and size ${up}.
# 		    It uses the resultant changes
#		    in stress to compute one
# 		    row of the elastic stiffness tensor
#
#		    Inputs variables:
#		    	   dir = the Voigt deformation component
#		    		    (1,2,3,4,5,6)
#		    Global constants:
#       	    	   up = the deformation magnitude (strain units)
#       		   cfac = conversion from LAMMPS pressure units to
#               	   output units for elastic constants
#
#
#  To run this on a different system, it should only be necessary to
#  modify the files init.mod and potential.mod. In order to calculate
#  the elastic constants correctly, care must be taken to specify
#  the correct units in init.mod (units, cfac and cunits). It is also
#  important to verify that the minimization of energy w.r.t atom
#  positions in the deformed cell is fully converged.
#  One indication of this is that the elastic constants are insensitive
#  to the choice of the variable ${up} in init.mod. Another is to check
#  the final max and two-norm forces reported in the log file. If you know
#  that minimization is not required, you can set maxiter = 0.0 in
#  init.mod.
#

include init.mod
# NOTE: This script can be modified for different atomic structures,
# units, etc. See in.elastic for more info.
#

# Define the finite deformation size. Try several values of this
# variable to verify that results do not depend on it.
variable up equal 1.0e-6

# Define the amount of random jiggle for atoms
# This prevents atoms from staying on saddle points
variable atomjiggle equal 1.0e-5

# Uncomment one of these blocks, depending on what units
# you are using in LAMMPS and for output

# metal units, elastic constants in eV/A^3
#units		metal
#variable cfac equal 6.2414e-7
#variable cunits string eV/A^3

# metal units, elastic constants in GPa
units		metal
variable cfac equal 1.0e-4
variable cunits string GPa

# real units, elastic constants in GPa
#units		real
#variable cfac equal 1.01325e-4
#variable cunits string GPa

# Define minimization parameters
variable etol equal 0.0
variable ftol equal 1.0e-10
variable maxiter equal 100
variable maxeval equal 1000
variable dmax equal 1.0e-2

# generate the box and atom positions using a diamond lattice

dimension    3
boundary     p p p
read_data    data.in
Reading data file ...
  triclinic box = (0.0055721522 0.0048256254 0.024939375) to (3.0635153 2.6530821 13.711427) with tilt (-1.5289716 0 0)
WARNING: Triclinic box skew is large. LAMMPS will run inefficiently. (src/domain.cpp:220)
  1 by 1 by 4 MPI processor grid
  reading atoms ...
  8 atoms
  reading velocities ...
  8 velocities
  read_data CPU = 0.001 seconds
#replicate    2 3 4
replicate    2 3 4
Replication is creating a 2x3x4 = 24 times larger system...
  triclinic box = (0.0055721522 0.0048256254 0.024939375) to (6.1214585 7.9495951 54.770888) with tilt (-4.5869148 0 0)
WARNING: Triclinic box skew is large. LAMMPS will run inefficiently. (src/domain.cpp:220)
  1 by 1 by 4 MPI processor grid
  192 atoms
  replicate CPU = 0.000 seconds
change_box   all triclinic
Changing box ...
WARNING: Triclinic box skew is large. LAMMPS will run inefficiently. (src/domain.cpp:220)
  triclinic box = (0.0055721522 0.0048256254 0.024939375) to (6.1214585 7.9495951 54.770888) with tilt (-4.5869148 0 0)

# Need to set mass to something, just to satisfy LAMMPS
mass 1 1.0e-20

include potential.mod
# NOTE: This script can be modified for different pair styles
# See in.elastic for more info.

# Choose potential
#-----------------------
#pair_style	sw
#pair_coeff * * Si.sw Si
#-----------------------
#pair_style morse	2.83994742	# D0[eV] a[1/A] r0[A] rc[A], 1NN for BCC
#pair_coeff 1 1	2.1173	1.0202	2.4595	2.6497	#	Fe-Fe
#-----------------------
#pair_style smatb # R0(A)   p       q     A(eV)   xi(eV)  Rcs(A)   Rc(A), 4NN: Rcs=4NN, Rc=(4NN+5NN)/2
#pair_coeff 1 1	2.4802	7.0149	2.3779	0.3144	3.0551	4.033	4.176	#	Co	Co
#-----------------------
#pair_style eam/alloy
#pair_coeff * * AlCrFeCoNi_Zhou04.eam.alloy Fe
#-----------------------
pair_style meam
pair_coeff * * ./../../library.meam Ti Al C ./../../TiAlC.meam Ti Al C
#-----------------------

# Setup neighbor style
neighbor 1.0 nsq
neigh_modify once no every 1 delay 0 check yes

# Setup minimization style
min_style	     cg
min_modify	     dmax ${dmax} line quadratic
min_modify	     dmax 0.01 line quadratic

# Setup output
thermo		1
thermo_style custom step temp pe press pxx pyy pzz pxy pxz pyz lx ly lz vol
thermo_modify norm no

# Compute initial state
fix 3 all box/relax  aniso 0.0
minimize ${etol} ${ftol} ${maxiter} ${maxeval}
minimize 0 ${ftol} ${maxiter} ${maxeval}
minimize 0 1e-10 ${maxiter} ${maxeval}
minimize 0 1e-10 100 ${maxeval}
minimize 0 1e-10 100 1000
Neighbor list info ...
  update: every = 1 steps, delay = 0 steps, check = yes
  max neighbors/atom: 2000, page size: 100000
  master list distance cutoff = 5.6
  ghost atom cutoff = 5.6
  2 neighbor lists, perpetual/occasional/extra = 2 0 0
  (1) pair meam, perpetual
      attributes: full, newton on
      pair build: full/nsq
      stencil: none
      bin: none
  (2) pair meam, perpetual, half/full from (1)
      attributes: half, newton on
      pair build: halffull/newton
      stencil: none
      bin: none
Per MPI rank memory allocation (min/avg/max) = 9.864 | 9.864 | 9.864 Mbytes
   Step          Temp          PotEng         Press           Pxx            Pyy            Pzz            Pxy            Pxz            Pyz             Lx             Ly             Lz           Volume    
         0   0             -1081.1504      2.9415084e-05 -32309.16      -32309.161      64618.322     -0.001056401    2.6212833e-11 -2.1398231e-11  6.1158864      7.9447694      54.745949      2660.0677    
         1   0             -1081.1664      24.348957     -32159.099     -32159.1        64391.246     -0.0010576873   2.1130753e-11 -1.9793364e-11  6.1155806      7.9443722      54.751424      2660.0677    
         2   0             -1081.1824      48.585711     -32009.204     -32009.205      64164.167     -0.0010589724   2.6747787e-11  1.3373893e-12  6.1152751      7.9439754      54.756898      2660.0679    
         3   0             -1081.1983      72.709649     -31859.477     -31859.478      63937.083     -0.0010602563  -5.3495565e-12  1.9525881e-11  6.1149699      7.9435789      54.762373      2660.0683    
         4   0             -1081.2142      96.720123     -31709.918     -31709.919      63709.997     -0.0010615396   5.7507719e-12  2.2066915e-11  6.114665       7.9431828      54.767847      2660.069     
         5   0             -1081.23        120.61649     -31560.528     -31560.529      63482.907     -0.0010628217   1.8589698e-11 -5.5100401e-11  6.1143604      7.9427872      54.773322      2660.0699    
         6   0             -1081.2457      144.3981      -31411.309     -31411.311      63255.814     -0.0010641026  -3.4772083e-12 -3.9854157e-11  6.1140561      7.9423919      54.778797      2660.071     
         7   0             -1081.2613      168.06432     -31262.263     -31262.264      63028.72      -0.0010653829   8.5592777e-12  2.0729501e-11  6.1137522      7.941997       54.784271      2660.0723    
         8   0             -1081.2769      191.61449     -31113.389     -31113.39       62801.623     -0.001066662    4.5337398e-11  2.9823716e-11  6.1134485      7.9416026      54.789746      2660.0738    
         9   0             -1081.2924      215.04797     -30964.69      -30964.691      62574.525     -0.0010679399   4.8680831e-11 -2.6747709e-11  6.1131451      7.9412085      54.79522       2660.0756    
        10   0             -1081.3079      238.36411     -30816.166     -30816.167      62347.426     -0.0010692167   4.2528826e-11  3.8917888e-11  6.1128421      7.9408148      54.800695      2660.0776    
        11   0             -1081.3233      261.56228     -30667.819     -30667.82       62120.326     -0.0010704924   3.5975612e-11 -2.8218788e-11  6.1125394      7.9404215      54.80617       2660.0799    
        12   0             -1081.3386      284.64193     -30519.649     -30519.651      61893.226     -0.0010717673  -1.2036439e-11  2.0328208e-11  6.1122369      7.9400287      54.811644      2660.0823    
        13   0             -1081.3538      307.60256     -30371.658     -30371.66       61666.126     -0.0010730406  -1.110026e-11  -5.8711014e-11  6.1119348      7.9396362      54.817119      2660.085     
        14   0             -1081.369       330.44347     -30223.847     -30223.848      61439.026     -0.001074313   -3.8783998e-12  2.9422344e-11  6.111633       7.9392442      54.822593      2660.088     
        15   0             -1081.3841      353.16394     -30076.217     -30076.218      61211.926     -0.0010755811   9.7628569e-12  2.1264305e-11  6.1113315      7.9388525      54.828068      2660.0912    
        16   0             -1081.3991      375.76323     -29928.769     -29928.77       60984.828     -0.0010768481   1.725215e-11  -6.9543549e-12  6.1110303      7.9384613      54.833543      2660.0946    
        17   0             -1081.4141      398.24068     -29781.504     -29781.505      60757.731     -0.0010781141  -1.4042428e-11 -2.2601623e-11  6.1107295      7.9380704      54.839017      2660.0982    
        18   0             -1081.429       420.59565     -29634.423     -29634.425      60530.635     -0.001079379    2.4072699e-12  3.075956e-12   6.1104289      7.93768        54.844492      2660.1021    
        19   0             -1081.4438      442.82749     -29487.529     -29487.53       60303.541     -0.0010806427   2.6479928e-11 -3.356799e-11   6.1101287      7.93729        54.849966      2660.1062    
        20   0             -1081.4586      464.93556     -29340.821     -29340.822      60076.449     -0.0010819051   8.4120442e-11  3.958609e-11   6.1098288      7.9369004      54.855441      2660.1105    
        21   0             -1081.4733      486.91921     -29194.301     -29194.302      59849.361     -0.0010831662   3.4504033e-11  5.1354839e-11  6.1095292      7.9365112      54.860915      2660.1151    
        22   0             -1081.4879      508.7778      -29047.97      -29047.971      59622.275     -0.0010844263  -7.3554975e-12  3.597507e-11   6.1092299      7.9361225      54.86639       2660.1199    
        23   0             -1081.5025      530.51067     -28901.83      -28901.831      59395.192     -0.0010856854  -3.396896e-11   1.323987e-11   6.108931       7.9357341      54.871865      2660.125     
        24   0             -1081.517       552.11718     -28755.881     -28755.882      59168.114     -0.0010869429   1.8188068e-11 -1.1233807e-11  6.1086324      7.9353462      54.877339      2660.1303    
        25   0             -1081.5314      573.59669     -28610.124     -28610.125      58941.04      -0.0010881994   2.6613368e-11  2.9956756e-11  6.1083341      7.9349587      54.882814      2660.1359    
        26   0             -1081.5458      594.94855     -28464.562     -28464.563      58713.97      -0.0010894548   2.942175e-11   3.7445863e-11  6.1080361      7.9345716      54.888288      2660.1417    
        27   0             -1081.5601      616.17211     -28319.194     -28319.195      58486.905     -0.0010907087   6.3524088e-11 -4.3998789e-11  6.1077384      7.934185       54.893763      2660.1477    
        28   0             -1081.5743      637.26672     -28174.022     -28174.023      58259.846     -0.0010919614   6.4192611e-12  1.4844541e-11  6.1074411      7.9337987      54.899238      2660.154     
        29   0             -1081.5885      658.23175     -28029.048     -28029.049      58032.792     -0.0010932131   1.2303554e-11  5.2156368e-12  6.1071441      7.9334129      54.904712      2660.1605    
        30   0             -1081.6026      679.06654     -27884.272     -27884.273      57805.745     -0.0010944631  -4.1858722e-11 -2.6211852e-11  6.1068474      7.9330275      54.910187      2660.1673    
        31   0             -1081.6166      699.77046     -27739.696     -27739.697      57578.704     -0.001095712    3.7579137e-11  5.7505441e-12  6.1065511      7.9326426      54.915661      2660.1743    
        32   0             -1081.6306      720.34285     -27595.32      -27595.321      57351.669     -0.0010969597  -2.9153841e-11  4.8143958e-12  6.1062551      7.932258       54.921136      2660.1816    
        33   0             -1081.6445      740.78307     -27451.146     -27451.147      57124.642     -0.0010982059   3.6642798e-11  3.9451188e-11  6.1059594      7.9318739      54.926611      2660.1892    
        34   0             -1081.6583      761.09048     -27307.175     -27307.176      56897.623     -0.0010994509   3.8514945e-11  2.7950082e-11  6.1056641      7.9314903      54.932085      2660.1969    
        35   0             -1081.6721      781.26443     -27163.409     -27163.41       56670.611     -0.0011006946   1.0966028e-11  3.2363155e-11  6.1053691      7.931107       54.93756       2660.205     
        36   0             -1081.6858      801.30428     -27019.847     -27019.848      56443.608     -0.001101937   -2.2734377e-12 -4.0119489e-12  6.1050744      7.9307242      54.943034      2660.2132    
        37   0             -1081.6994      821.20939     -26876.492     -26876.493      56216.614     -0.0011031779  -4.011936e-12   1.5914013e-11  6.10478        7.9303419      54.948509      2660.2218    
        38   0             -1081.713       840.9791      -26733.345     -26733.346      55989.628     -0.0011044177   4.5468458e-12 -4.1189073e-11  6.104486       7.92996        54.953984      2660.2306    
        39   0             -1081.7265      860.61279     -26590.407     -26590.408      55762.652     -0.001105656    4.6538146e-11  4.3194888e-11  6.1041923      7.9295785      54.959458      2660.2396    
        40   0             -1081.7399      880.10979     -26447.678     -26447.679      55535.686     -0.0011068928   1.7251149e-11 -3.3432459e-11  6.103899       7.9291974      54.964933      2660.2489    
        41   0             -1081.7533      899.46948     -26305.16      -26305.161      55308.73      -0.0011081284   1.2704289e-11  2.4472472e-11  6.103606       7.9288168      54.970407      2660.2584    
        42   0             -1081.7666      918.69121     -26162.855     -26162.856      55081.785     -0.0011093623   4.466544e-11   7.4888163e-12  6.1033134      7.9284366      54.975882      2660.2683    
        43   0             -1081.7799      937.77433     -26020.763     -26020.764      54854.85      -0.001110595   -2.5542116e-11  4.8142208e-11  6.103021       7.9280569      54.981357      2660.2783    
        44   0             -1081.793       956.71814     -25878.886     -25878.887      54627.927     -0.0011118258  -5.3491135e-12 -1.4308879e-11  6.1027291      7.9276776      54.986831      2660.2887    
        45   0             -1081.8061      975.52201     -25737.224     -25737.225      54401.015     -0.0011130553  -2.1396369e-11 -1.1032503e-10  6.1024374      7.9272988      54.992306      2660.2993    
        46   0             -1081.8192      994.1854      -25595.779     -25595.78       54174.115     -0.0011142838   2.8082619e-11 -5.6432692e-11  6.1021462      7.9269204      54.99778       2660.3101    
        47   0             -1081.8322      1012.7078     -25454.551     -25454.552      53947.227     -0.0011155103   3.2896645e-11 -7.6223934e-12  6.1018552      7.9265424      55.003255      2660.3212    
        48   0             -1081.8451      1031.0886     -25313.543     -25313.544      53720.352     -0.0011167358   2.9954541e-11  4.9478482e-12  6.1015646      7.9261649      55.00873       2660.3326    
        49   0             -1081.8579      1049.3272     -25172.754     -25172.755      53493.49      -0.0011179598  -3.1425385e-11 -2.5274033e-11  6.1012744      7.9257879      55.014204      2660.3442    
        50   0             -1081.8707      1067.4228     -25032.186     -25032.187      53266.641     -0.001119182    2.0058667e-11 -1.6046933e-11  6.1009845      7.9254113      55.019679      2660.3561    
        51   0             -1081.8834      1085.3749     -24891.84      -24891.841      53039.806     -0.0011204027   2.7279662e-11  1.8721337e-12  6.1006949      7.9250352      55.025153      2660.3683    
        52   0             -1081.8961      1103.1829     -24751.718     -24751.719      52812.985     -0.0011216223  -3.7442498e-11  8.1571157e-11  6.1004057      7.9246595      55.030628      2660.3808    
        53   0             -1081.9086      1120.846      -24611.82      -24611.821      52586.178     -0.00112284     6.3651943e-11 -6.2180995e-11  6.1001169      7.9242842      55.036103      2660.3935    
        54   0             -1081.9212      1138.3636     -24472.147     -24472.148      52359.386     -0.0011240564   1.1633807e-11 -3.1157207e-11  6.0998284      7.9239095      55.041577      2660.4064    
        55   0             -1081.9336      1155.7352     -24332.701     -24332.702      52132.609     -0.0011252711  -2.9151233e-11  1.818609e-11   6.0995402      7.9235352      55.047052      2660.4197    
        56   0             -1081.946       1172.96       -24193.483     -24193.484      51905.848     -0.0011264844   6.9534697e-12  3.7174319e-11  6.0992524      7.9231613      55.052526      2660.4332    
        57   0             -1081.9583      1190.0375     -24054.494     -24054.495      51679.102     -0.0011276958   5.7499548e-12  6.4185542e-12  6.098965       7.9227879      55.058001      2660.447     
        58   0             -1081.9706      1206.9669     -23915.736     -23915.736      51452.373     -0.001128906    1.6982335e-11 -1.136613e-11   6.0986779      7.922415       55.063476      2660.461     
        59   0             -1081.9828      1223.7477     -23777.208     -23777.209      51225.66      -0.0011301144   1.6179933e-11 -2.594138e-11   6.0983912      7.9220425      55.06895       2660.4754    
        60   0             -1081.9949      1240.3792     -23638.913     -23638.914      50998.964     -0.0011313212   1.9121634e-11  2.4069189e-11  6.0981048      7.9216705      55.074425      2660.49      
        61   0             -1082.007       1256.8607     -23500.851     -23500.852      50772.285     -0.001132524    3.3429243e-11 -3.1022337e-11  6.0978188      7.9212989      55.079899      2660.5048    
        62   0             -1082.019       1273.1915     -23363.024     -23363.025      50545.623     -0.0011337248   2.5539796e-11 -2.3667769e-11  6.0975331      7.9209279      55.085374      2660.52      
        63   0             -1082.031       1289.3709     -23225.433     -23225.434      50318.979     -0.0011349235   1.9789884e-11  4.4393524e-11  6.0972478      7.9205573      55.090848      2660.5354    
        64   0             -1082.0428      1305.3982     -23088.079     -23088.08       50092.353     -0.0011361209   1.4173752e-11 -3.7038956e-11  6.0969629      7.9201871      55.096323      2660.5511    
        65   0             -1082.0547      1321.2729     -22950.963     -22950.964      49865.745     -0.0011373165  -9.3599689e-13  6.9531197e-12  6.0966783      7.9198174      55.101798      2660.5671    
        66   0             -1082.0664      1336.9944     -22814.086     -22814.087      49639.156     -0.0011385106   2.6207753e-11  8.1564944e-12  6.0963941      7.9194482      55.107272      2660.5834    
        67   0             -1082.0781      1352.5619     -22677.449     -22677.45       49412.586     -0.0011397027   1.3371219e-12  1.283637e-11   6.0961103      7.9190795      55.112747      2660.5999    
        68   0             -1082.0897      1367.9749     -22541.054     -22541.055      49186.035     -0.0011408934   1.0696908e-12  7.7552581e-12  6.0958268      7.9187113      55.118221      2660.6167    
        69   0             -1082.1013      1383.2327     -22404.902     -22404.903      48959.503     -0.0011420821   2.2998204e-11 -7.8488056e-11  6.0955437      7.9183435      55.123696      2660.6339    
        70   0             -1082.1128      1398.3347     -22268.993     -22268.994      48732.992     -0.0011432694   5.0675943e-11 -1.4440638e-11  6.0952609      7.9179762      55.129171      2660.6512    
        71   0             -1082.1242      1413.2803     -22133.33      -22133.33       48506.501     -0.0011444548   3.0351881e-11 -3.7973278e-11  6.0949785      7.9176094      55.134645      2660.6689    
        72   0             -1082.1356      1428.0688     -21997.912     -21997.913      48280.031     -0.0011456383  -3.743819e-11  -4.5861783e-11  6.0946965      7.917243       55.14012       2660.6869    
        73   0             -1082.1469      1442.6997     -21862.741     -21862.742      48053.581     -0.0011468199  -2.7142502e-11  9.4931903e-12  6.0944149      7.9168772      55.145594      2660.7051    
        74   0             -1082.1581      1457.1721     -21727.818     -21727.819      47827.153     -0.0011479999   1.9654778e-11  2.259631e-11   6.0941336      7.9165118      55.151069      2660.7236    
        75   0             -1082.1693      1471.4856     -21593.145     -21593.145      47600.747     -0.0011491779  -3.5966653e-11 -1.2167158e-11  6.0938527      7.9161469      55.156544      2660.7425    
        76   0             -1082.1805      1485.6395     -21458.722     -21458.722      47374.362     -0.001150354   -2.6740814e-11  3.2088977e-12  6.0935722      7.9157825      55.162018      2660.7616    
        77   0             -1082.1915      1499.6331     -21324.55      -21324.551      47148         -0.0011515285   5.4818269e-11 -1.8049918e-11  6.093292       7.9154185      55.167493      2660.781     
        78   0             -1082.2025      1513.4659     -21190.631     -21190.632      46921.66      -0.0011527011  -2.7676336e-11  2.7676336e-11  6.0930123      7.9150551      55.172967      2660.8006    
        79   0             -1082.2134      1527.1372     -21056.966     -21056.966      46695.344     -0.001153872    2.6339117e-11  2.8478335e-11  6.0927328      7.9146921      55.178442      2660.8206    
        80   0             -1082.2243      1540.6463     -20923.555     -20923.556      46469.05      -0.0011550405  -4.2917727e-11 -1.8718012e-11  6.0924538      7.9143297      55.183917      2660.8409    
        81   0             -1082.2351      1553.9928     -20790.4       -20790.401      46242.78      -0.0011562078   1.6311284e-11 -6.5512535e-12  6.0921752      7.9139677      55.189391      2660.8614    
        82   0             -1082.2459      1567.1762     -20657.502     -20657.503      46016.534     -0.0011573732  -4.1446381e-12  1.270131e-11   6.0918969      7.9136062      55.194866      2660.8823    
        83   0             -1082.2565      1580.1958     -20524.862     -20524.863      45790.312     -0.0011585365  -6.2837562e-12  2.4867631e-11  6.091619       7.9132452      55.20034       2660.9034    
        84   0             -1082.2672      1593.051      -20392.481     -20392.481      45564.115     -0.001159698   -2.8076131e-11  1.0829365e-11  6.0913415      7.9128847      55.205815      2660.9249    
        85   0             -1082.2777      1605.7414     -20260.359     -20260.36       45337.943     -0.0011608576  -5.0804013e-11 -1.9786826e-11  6.0910644      7.9125247      55.21129       2660.9466    
        86   0             -1082.2882      1618.2661     -20128.498     -20128.499      45111.796     -0.0011620153  -3.8637469e-11 -2.5669184e-11  6.0907876      7.9121652      55.216764      2660.9686    
        87   0             -1082.2987      1630.6246     -19996.9       -19996.901      44885.675     -0.0011631712  -2.3797273e-11  3.7968682e-11  6.0905112      7.9118062      55.222239      2660.991     
        88   0             -1082.309       1642.8164     -19865.565     -19865.565      44659.579     -0.0011643245  -2.1390625e-12 -1.5909277e-11  6.0902353      7.9114477      55.227713      2661.0136    
        89   0             -1082.3193      1654.8407     -19734.493     -19734.494      44433.51      -0.0011654762   1.4572238e-11  3.2085661e-11  6.0899597      7.9110897      55.233188      2661.0365    
        90   0             -1082.3296      1666.6969     -19603.688     -19603.688      44207.467     -0.001166626    4.5186911e-11 -2.3128212e-11  6.0896845      7.9107322      55.238663      2661.0597    
        91   0             -1082.3398      1678.3846     -19473.148     -19473.149      43981.451     -0.0011677739  -2.0320562e-11  5.9491118e-12  6.0894096      7.9103751      55.244137      2661.0833    
        92   0             -1082.3499      1689.9029     -19342.876     -19342.877      43755.462     -0.0011689195  -2.1256187e-11  3.7933603e-12  6.0891352      7.9100186      55.249612      2661.1071    
        93   0             -1082.36        1701.2514     -19212.873     -19212.874      43529.501     -0.0011700633  -8.5558717e-12  3.50256e-11    6.0888611      7.9096626      55.255086      2661.1312    
        94   0             -1082.37        1712.4294     -19083.14      -19083.14       43303.568     -0.001171205   -1.9384219e-11 -1.7128297e-11  6.0885875      7.9093071      55.260561      2661.1557    
        95   0             -1082.3799      1723.4363     -18953.677     -18953.677      43077.663     -0.0011723446   1.9384039e-11 -2.782278e-11   6.0883142      7.9089522      55.266036      2661.1804    
        96   0             -1082.3898      1734.2715     -18824.485     -18824.486      42851.786     -0.0011734821  -2.9409989e-11 -5.7449739e-11  6.0880413      7.9085977      55.27151       2661.2055    
        97   0             -1082.3996      1744.9344     -18695.567     -18695.568      42625.938     -0.0011746176   1.3769091e-11 -9.1571138e-12  6.0877688      7.9082437      55.276985      2661.2308    
        98   0             -1082.4094      1755.4244     -18566.923     -18566.923      42400.119     -0.0011757508   0              3.8984198e-11  6.0874968      7.9078902      55.282459      2661.2565    
        99   0             -1082.4191      1765.7409     -18438.553     -18438.554      42174.33      -0.0011768819  -2.4062022e-11  3.3369346e-11  6.0872251      7.9075373      55.287934      2661.2824    
       100   0             -1082.4287      1775.8833     -18310.46      -18310.461      41948.57      -0.0011780111   3.7830472e-11  8.4717533e-12  6.0869538      7.9071849      55.293408      2661.3087    
Loop time of 0.048377 on 4 procs for 100 steps with 192 atoms

64.6% CPU use with 4 MPI tasks x 1 OpenMP threads

Minimization stats:
  Stopping criterion = max iterations
  Energy initial, next-to-last, final = 
     -1081.15035787671  -1082.41909771228  -1082.42873898398
  Force two-norm initial, final = 131.39645 81.42008
  Force max component initial, final = 107.28475 68.989133
  Final line search alpha, max atom move = 1.4416159e-06 9.9455833e-05
  Iterations, force evaluations = 100 100

MPI task timing breakdown:
Section |  min time  |  avg time  |  max time  |%varavg| %total
---------------------------------------------------------------
Pair    | 0.041291   | 0.041719   | 0.041927   |   0.1 | 86.24
Neigh   | 7e-05      | 7.875e-05  | 8.7e-05    |   0.0 |  0.16
Comm    | 0.00144    | 0.0017378  | 0.002211   |   0.7 |  3.59
Output  | 0.001023   | 0.0010837  | 0.001244   |   0.3 |  2.24
Modify  | 0          | 0          | 0          |   0.0 |  0.00
Other   |            | 0.003758   |            |       |  7.77

Nlocal:             48 ave          54 max          42 min
Histogram: 1 0 0 0 0 2 0 0 0 1
Nghost:            624 ave         630 max         618 min
Histogram: 1 0 0 0 0 2 0 0 0 1
Neighs:           1260 ave        1404 max        1116 min
Histogram: 1 0 0 0 0 2 0 0 0 1
FullNghs:         2520 ave        2808 max        2232 min
Histogram: 1 0 0 0 0 2 0 0 0 1

Total # of neighbors = 10080
Ave neighs/atom = 52.5
Neighbor list builds = 1
Dangerous builds = 0

variable tmp equal pxx
variable pxx0 equal ${tmp}
variable pxx0 equal -18310.4599400286
variable tmp equal pyy
variable pyy0 equal ${tmp}
variable pyy0 equal -18310.460654193
variable tmp equal pzz
variable pzz0 equal ${tmp}
variable pzz0 equal 41948.5703782159
variable tmp equal pyz
variable pyz0 equal ${tmp}
variable pyz0 equal 8.47175325867578e-12
variable tmp equal pxz
variable pxz0 equal ${tmp}
variable pxz0 equal 3.78304721452504e-11
variable tmp equal pxy
variable pxy0 equal ${tmp}
variable pxy0 equal -0.00117801110505742

variable tmp equal lx
variable lx0 equal ${tmp}
variable lx0 equal 6.08695375040378
variable tmp equal ly
variable ly0 equal ${tmp}
variable ly0 equal 7.90718486787139
variable tmp equal lz
variable lz0 equal ${tmp}
variable lz0 equal 55.2934084939726

# These formulas define the derivatives w.r.t. strain components
# Constants uses $, variables use v_
variable d1 equal -(v_pxx1-${pxx0})/(v_delta/v_len0)*${cfac}
variable d1 equal -(v_pxx1--18310.4599400286)/(v_delta/v_len0)*${cfac}
variable d1 equal -(v_pxx1--18310.4599400286)/(v_delta/v_len0)*0.0001
variable d2 equal -(v_pyy1-${pyy0})/(v_delta/v_len0)*${cfac}
variable d2 equal -(v_pyy1--18310.460654193)/(v_delta/v_len0)*${cfac}
variable d2 equal -(v_pyy1--18310.460654193)/(v_delta/v_len0)*0.0001
variable d3 equal -(v_pzz1-${pzz0})/(v_delta/v_len0)*${cfac}
variable d3 equal -(v_pzz1-41948.5703782159)/(v_delta/v_len0)*${cfac}
variable d3 equal -(v_pzz1-41948.5703782159)/(v_delta/v_len0)*0.0001
variable d4 equal -(v_pyz1-${pyz0})/(v_delta/v_len0)*${cfac}
variable d4 equal -(v_pyz1-8.47175325867578e-12)/(v_delta/v_len0)*${cfac}
variable d4 equal -(v_pyz1-8.47175325867578e-12)/(v_delta/v_len0)*0.0001
variable d5 equal -(v_pxz1-${pxz0})/(v_delta/v_len0)*${cfac}
variable d5 equal -(v_pxz1-3.78304721452504e-11)/(v_delta/v_len0)*${cfac}
variable d5 equal -(v_pxz1-3.78304721452504e-11)/(v_delta/v_len0)*0.0001
variable d6 equal -(v_pxy1-${pxy0})/(v_delta/v_len0)*${cfac}
variable d6 equal -(v_pxy1--0.00117801110505742)/(v_delta/v_len0)*${cfac}
variable d6 equal -(v_pxy1--0.00117801110505742)/(v_delta/v_len0)*0.0001

displace_atoms all random ${atomjiggle} ${atomjiggle} ${atomjiggle} 87287 units box
displace_atoms all random 1e-05 ${atomjiggle} ${atomjiggle} 87287 units box
displace_atoms all random 1e-05 1e-05 ${atomjiggle} 87287 units box
displace_atoms all random 1e-05 1e-05 1e-05 87287 units box
Displacing atoms ...

# Write restart
unfix 3
write_restart restart.equil
System init for write_restart ...

# uxx Perturbation

variable dir equal 1
include displace.mod
# NOTE: This script should not need to be
# modified. See in.elastic for more info.
#
# Find which reference length to use

if "${dir} == 1" then    "variable len0 equal ${lx0}"
variable len0 equal ${lx0}
variable len0 equal 6.08695375040378
if "${dir} == 2" then    "variable len0 equal ${ly0}"
if "${dir} == 3" then    "variable len0 equal ${lz0}"
if "${dir} == 4" then    "variable len0 equal ${lz0}"
if "${dir} == 5" then    "variable len0 equal ${lz0}"
if "${dir} == 6" then    "variable len0 equal ${ly0}"

# Reset box and simulation parameters

clear
  using 1 OpenMP thread(s) per MPI task
Loaded 1 plugins from C:\Program Files\LAMMPS 64-bit 23Jun2022\plugins
Loaded 0 plugins from C:\Program Files\LAMMPS 64-bit 23Jun2022-MPI\plugins
Loaded 1 plugins from C:\Program Files\LAMMPS 64-bit 22Dec2022-MSMPI\plugins
Loaded 1 plugins from C:\Program Files\LAMMPS 64-bit 28Mar2023-MPI\plugins
box tilt large

The 'box' command has been removed and will be ignored

read_restart restart.equil
Reading restart file ...
  restart file = 22 Dec 2022, LAMMPS = 22 Dec 2022
  restoring atom style atomic from restart
  triclinic box = (0.020038463 0.023617915 -0.24879037) to (6.1069922 7.9308028 55.044618) with tilt (-4.5652153 0 0)
WARNING: Triclinic box skew is large. LAMMPS will run inefficiently. (src/domain.cpp:220)
  1 by 1 by 4 MPI processor grid
  pair style meam stores no restart info
  192 atoms
  read_restart CPU = 0.000 seconds
include potential.mod
# NOTE: This script can be modified for different pair styles
# See in.elastic for more info.

# Choose potential
#-----------------------
#pair_style	sw
#pair_coeff * * Si.sw Si
#-----------------------
#pair_style morse	2.83994742	# D0[eV] a[1/A] r0[A] rc[A], 1NN for BCC
#pair_coeff 1 1	2.1173	1.0202	2.4595	2.6497	#	Fe-Fe
#-----------------------
#pair_style smatb # R0(A)   p       q     A(eV)   xi(eV)  Rcs(A)   Rc(A), 4NN: Rcs=4NN, Rc=(4NN+5NN)/2
#pair_coeff 1 1	2.4802	7.0149	2.3779	0.3144	3.0551	4.033	4.176	#	Co	Co
#-----------------------
#pair_style eam/alloy
#pair_coeff * * AlCrFeCoNi_Zhou04.eam.alloy Fe
#-----------------------
pair_style meam
pair_coeff * * ./../../library.meam Ti Al C ./../../TiAlC.meam Ti Al C
#-----------------------

# Setup neighbor style
neighbor 1.0 nsq
neigh_modify once no every 1 delay 0 check yes

# Setup minimization style
min_style	     cg
min_modify	     dmax ${dmax} line quadratic
min_modify	     dmax 0.01 line quadratic

# Setup output
thermo		1
thermo_style custom step temp pe press pxx pyy pzz pxy pxz pyz lx ly lz vol
thermo_modify norm no

# Negative deformation

variable delta equal -${up}*${len0}
variable delta equal -1e-06*${len0}
variable delta equal -1e-06*6.08695375040378
variable deltaxy equal -${up}*xy
variable deltaxy equal -1e-06*xy
variable deltaxz equal -${up}*xz
variable deltaxz equal -1e-06*xz
variable deltayz equal -${up}*yz
variable deltayz equal -1e-06*yz
if "${dir} == 1" then    "change_box all x delta 0 ${delta} xy delta ${deltaxy} xz delta ${deltaxz} remap units box"
change_box all x delta 0 ${delta} xy delta ${deltaxy} xz delta ${deltaxz} remap units box
change_box all x delta 0 -6.08695375040378e-06 xy delta ${deltaxy} xz delta ${deltaxz} remap units box
change_box all x delta 0 -6.08695375040378e-06 xy delta 4.56521531195821e-06 xz delta ${deltaxz} remap units box
change_box all x delta 0 -6.08695375040378e-06 xy delta 4.56521531195821e-06 xz delta -0 remap units box
Changing box ...
WARNING: Triclinic box skew is large. LAMMPS will run inefficiently. (src/domain.cpp:220)
  triclinic box = (0.020038463 0.023617915 -0.24879037) to (6.1069861 7.9308028 55.044618) with tilt (-4.5652153 0 0)
WARNING: Triclinic box skew is large. LAMMPS will run inefficiently. (src/domain.cpp:220)
  triclinic box = (0.020038463 0.023617915 -0.24879037) to (6.1069861 7.9308028 55.044618) with tilt (-4.5652107 0 0)
WARNING: Triclinic box skew is large. LAMMPS will run inefficiently. (src/domain.cpp:220)
  triclinic box = (0.020038463 0.023617915 -0.24879037) to (6.1069861 7.9308028 55.044618) with tilt (-4.5652107 0 0)
if "${dir} == 2" then    "change_box all y delta 0 ${delta} yz delta ${deltayz} remap units box"
if "${dir} == 3" then    "change_box all z delta 0 ${delta} remap units box"
if "${dir} == 4" then    "change_box all yz delta ${delta} remap units box"
if "${dir} == 5" then    "change_box all xz delta ${delta} remap units box"
if "${dir} == 6" then    "change_box all xy delta ${delta} remap units box"

# Relax atoms positions

minimize ${etol} ${ftol} ${maxiter} ${maxeval}
minimize 0 ${ftol} ${maxiter} ${maxeval}
minimize 0 1e-10 ${maxiter} ${maxeval}
minimize 0 1e-10 100 ${maxeval}
minimize 0 1e-10 100 1000
Neighbor list info ...
  update: every = 1 steps, delay = 0 steps, check = yes
  max neighbors/atom: 2000, page size: 100000
  master list distance cutoff = 5.6
  ghost atom cutoff = 5.6
  2 neighbor lists, perpetual/occasional/extra = 2 0 0
  (1) pair meam, perpetual
      attributes: full, newton on
      pair build: full/nsq
      stencil: none
      bin: none
  (2) pair meam, perpetual, half/full from (1)
      attributes: half, newton on
      pair build: halffull/newton
      stencil: none
      bin: none
Per MPI rank memory allocation (min/avg/max) = 9.807 | 9.812 | 9.818 Mbytes
   Step          Temp          PotEng         Press           Pxx            Pyy            Pzz            Pxy            Pxz            Pyz             Lx             Ly             Lz           Volume    
       100   0             -1082.4288      1777.5589     -18306.733     -18309.667      41949.076      0.005692976   -0.12506901    -0.3025892      6.0869477      7.9071849      55.293408      2661.3061    
       101   0             -1082.4496      1721.9866     -19233.107     -19235.921      43634.988     -0.0049916181  -0.097241391   -0.23526021     6.0869477      7.9071849      55.293408      2661.3061    
       102   0             -1082.4496      1721.8897     -19235.772     -19238.488      43639.929     -0.01435974    -0.072447102   -0.17527259     6.0869477      7.9071849      55.293408      2661.3061    
       103   0             -1082.4496      1721.8951     -19235.723     -19238.248      43639.656     -0.030688804   -0.022127624   -0.053535983    6.0869477      7.9071849      55.293408      2661.3061    
       104   0             -1082.4496      1721.8944     -19235.786     -19238.221      43639.69      -0.033135536    0.0072710406   0.017589275    6.0869477      7.9071849      55.293408      2661.3061    
       105   0             -1082.4496      1721.8943     -19235.791     -19238.222      43639.697     -0.02753354     0.012526407    0.030305435    6.0869477      7.9071849      55.293408      2661.3061    
       106   0             -1082.4496      1721.8945     -19235.774     -19238.226      43639.684     -0.019418117    0.0092439601   0.022363603    6.0869477      7.9071849      55.293408      2661.3061    
       107   0             -1082.4496      1721.8944     -19235.762     -19238.244      43639.69      -0.0099439986   0.0010430535   0.0025235714   6.0869477      7.9071849      55.293408      2661.3061    
       108   0             -1082.4496      1721.8944     -19235.76      -19238.245      43639.688     -0.0061380492  -0.0020416623  -0.004939529    6.0869477      7.9071849      55.293408      2661.3061    
       109   0             -1082.4496      1721.8944     -19235.762     -19238.243      43639.688     -0.0038517741  -0.0027335049  -0.0066132153   6.0869477      7.9071849      55.293408      2661.3061    
       110   0             -1082.4496      1721.8944     -19235.767     -19238.239      43639.689     -0.0020524047  -0.0013054409  -0.0031583557   6.0869477      7.9071849      55.293408      2661.3061    
       111   0             -1082.4496      1721.8945     -19235.767     -19238.236      43639.687     -0.00046272715  0.00059554711  0.0014408178   6.0869477      7.9071849      55.293408      2661.3061    
       112   0             -1082.4496      1721.8944     -19235.767     -19238.239      43639.689      0.00074257589  0.0012549858   0.003036181    6.0869477      7.9071849      55.293408      2661.3061    
       113   0             -1082.4496      1721.8944     -19235.765     -19238.241      43639.689      0.0023093178   0.0011100219   0.0026855548   6.0869477      7.9071849      55.293408      2661.3061    
       114   0             -1082.4496      1721.8945     -19235.761     -19238.24       43639.685      0.0031779302  -0.00024639366 -0.00059604958  6.0869477      7.9071849      55.293408      2661.3061    
       115   0             -1082.4496      1721.8943     -19235.768     -19238.244      43639.694      0.0025578677  -0.00082047951 -0.0019849735   6.0869477      7.9071849      55.293408      2661.3061    
       116   0             -1082.4496      1721.8946     -19235.762     -19238.235      43639.681      0.001646725   -0.00051406509 -0.0012436939   6.0869477      7.9071849      55.293408      2661.3061    
       117   0             -1082.4496      1721.8944     -19235.768     -19238.239      43639.69       0.00067470189  8.9250747e-05  0.00021590489  6.0869477      7.9071849      55.293408      2661.3061    
       118   0             -1082.4496      1721.8944     -19235.766     -19238.239      43639.689      0.00020437164  0.00035555606  0.00086019536  6.0869477      7.9071849      55.293408      2661.3061    
       119   0             -1082.4496      1721.8945     -19235.764     -19238.239      43639.686     -8.5058322e-05  0.00019096085  0.0004620126   6.0869477      7.9071849      55.293408      2661.3061    
       120   0             -1082.4496      1721.8944     -19235.766     -19238.242      43639.691     -0.00045693839 -0.00010417678 -0.00025200792  6.0869477      7.9071849      55.293408      2661.3061    
       121   0             -1082.4496      1721.8945     -19235.764     -19238.239      43639.686     -0.0010616994  -0.00035745152 -0.00086476946  6.0869477      7.9071849      55.293408      2661.3061    
       122   0             -1082.4496      1721.8944     -19235.767     -19238.239      43639.689     -0.0017014658  -0.00030120957 -0.00072873478  6.0869477      7.9071849      55.293408      2661.3061    
       123   0             -1082.4496      1721.8944     -19235.766     -19238.239      43639.688     -0.0015819527   5.858517e-05   0.00014171449  6.0869477      7.9071849      55.293408      2661.3061    
       124   0             -1082.4496      1721.8944     -19235.765     -19238.24       43639.688     -0.0010228301   0.00018876567  0.00045667469  6.0869477      7.9071849      55.293408      2661.3061    
       125   0             -1082.4496      1721.8944     -19235.765     -19238.24       43639.688     -0.00047904198  8.5673924e-05  0.0002072934   6.0869477      7.9071849      55.293408      2661.3061    
       126   0             -1082.4496      1721.8944     -19235.765     -19238.24       43639.688     -0.00023407217 -1.435912e-05  -3.4736423e-05  6.0869477      7.9071849      55.293408      2661.3061    
       127   0             -1082.4496      1721.8944     -19235.765     -19238.24       43639.688     -2.9600504e-05 -0.00010839886 -0.00026223815  6.0869477      7.9071849      55.293408      2661.3061    
       128   0             -1082.4496      1721.8944     -19235.766     -19238.239      43639.688      0.00026687598 -0.00011811703 -0.0002857766   6.0869477      7.9071849      55.293408      2661.3061    
       129   0             -1082.4496      1721.8944     -19235.766     -19238.239      43639.689      0.00070441679  1.5289954e-05  3.697125e-05   6.0869477      7.9071849      55.293408      2661.3061    
       130   0             -1082.4496      1721.8945     -19235.764     -19238.239      43639.687      0.00095531039  0.000100909    0.00024412071  6.0869477      7.9071849      55.293408      2661.3061    
       131   0             -1082.4496      1721.8944     -19235.765     -19238.241      43639.689      0.0010137355   0.00012286434  0.00029726234  6.0869477      7.9071849      55.293408      2661.3061    
       132   0             -1082.4496      1721.8944     -19235.765     -19238.241      43639.689      0.00071358387  5.0142093e-05  0.00012133224  6.0869477      7.9071849      55.293408      2661.3061    
       133   0             -1082.4496      1721.8945     -19235.764     -19238.238      43639.686      0.00010623317 -6.185861e-05  -0.00014964102  6.0869477      7.9071849      55.293408      2661.3061    
       134   0             -1082.4496      1721.8944     -19235.766     -19238.239      43639.689     -0.0003439877  -0.0001036261  -0.00025070677  6.0869477      7.9071849      55.293408      2661.3061    
       135   0             -1082.4496      1721.8944     -19235.766     -19238.239      43639.688     -0.00058220654 -4.1026922e-05 -9.9271344e-05  6.0869477      7.9071849      55.293408      2661.3061    
       136   0             -1082.4496      1721.8944     -19235.765     -19238.239      43639.687     -0.00064728589  5.0139773e-05  0.00012128826  6.0869477      7.9071849      55.293408      2661.3061    
       137   0             -1082.4496      1721.8944     -19235.765     -19238.24       43639.689     -0.00063709231  8.9344685e-05  0.00021614657  6.0869477      7.9071849      55.293408      2661.3061    
       138   0             -1082.4496      1721.8944     -19235.765     -19238.24       43639.688     -0.00059807701  3.1372517e-05  7.5910355e-05  6.0869477      7.9071849      55.293408      2661.3061    
       139   0             -1082.4496      1721.8944     -19235.766     -19238.239      43639.688     -0.00050617429 -4.1007714e-05 -9.9198257e-05  6.0869477      7.9071849      55.293408      2661.3061    
       140   0             -1082.4496      1721.8944     -19235.766     -19238.239      43639.688     -0.00036694071 -3.7569456e-05 -9.0888954e-05  6.0869477      7.9071849      55.293408      2661.3061    
       141   0             -1082.4496      1721.8944     -19235.765     -19238.24       43639.688     -0.00023996866 -8.435518e-06  -2.0410785e-05  6.0869477      7.9071849      55.293408      2661.3061    
       142   0             -1082.4496      1721.8944     -19235.765     -19238.24       43639.688     -0.00017428481  7.5298745e-06  1.821474e-05   6.0869477      7.9071849      55.293408      2661.3061    
       143   0             -1082.4496      1721.8944     -19235.765     -19238.24       43639.688     -0.00014403912  7.9764898e-06  1.9297854e-05  6.0869477      7.9071849      55.293408      2661.3061    
       144   0             -1082.4496      1721.8944     -19235.765     -19238.24       43639.688     -0.0001333597   2.7560791e-06  6.6684817e-06  6.0869477      7.9071849      55.293408      2661.3061    
       145   0             -1082.4496      1721.8944     -19235.765     -19238.24       43639.688     -0.00012664307 -2.1554293e-06 -5.2131094e-06  6.0869477      7.9071849      55.293408      2661.3061    
       146   0             -1082.4496      1721.8944     -19235.765     -19238.24       43639.688     -0.00011632684 -6.0969905e-06 -1.4751016e-05  6.0869477      7.9071849      55.293408      2661.3061    
       147   0             -1082.4496      1721.8944     -19235.765     -19238.24       43639.688     -0.00010612276 -5.3225537e-06 -1.2877372e-05  6.0869477      7.9071849      55.293408      2661.3061    
       148   0             -1082.4496      1721.8944     -19235.765     -19238.24       43639.688     -9.6614173e-05  5.1438143e-07  1.2428337e-06  6.0869477      7.9071849      55.293408      2661.3061    
       149   0             -1082.4496      1721.8944     -19235.765     -19238.24       43639.688     -9.9550203e-05  6.9501427e-06  1.681411e-05   6.0869477      7.9071849      55.293408      2661.3061    
       150   0             -1082.4496      1721.8944     -19235.765     -19238.24       43639.688     -0.00011851615  4.7178923e-06  1.1414859e-05  6.0869477      7.9071849      55.293408      2661.3061    
       151   0             -1082.4496      1721.8944     -19235.765     -19238.24       43639.688     -0.00013079126  2.7178581e-07  6.5856886e-07  6.0869477      7.9071849      55.293408      2661.3061    
       152   0             -1082.4496      1721.8944     -19235.765     -19238.24       43639.688     -0.00013542515 -2.2997582e-06 -5.5634211e-06  6.0869477      7.9071849      55.293408      2661.3061    
       153   0             -1082.4496      1721.8944     -19235.765     -19238.24       43639.688     -0.00013649401 -2.7670003e-06 -6.6945339e-06  6.0869477      7.9071849      55.293408      2661.3061    
       154   0             -1082.4496      1721.8944     -19235.765     -19238.24       43639.688     -0.00013657711 -1.2143465e-06 -2.9384647e-06  6.0869477      7.9071849      55.293408      2661.3061    
       155   0             -1082.4496      1721.8944     -19235.765     -19238.24       43639.688     -0.00013707612  1.1023568e-06  2.666666e-06   6.0869477      7.9071849      55.293408      2661.3061    
       156   0             -1082.4496      1721.8944     -19235.765     -19238.24       43639.688     -0.00013802059  2.7056472e-06  6.5459529e-06  6.0869477      7.9071849      55.293408      2661.3061    
       157   0             -1082.4496      1721.8944     -19235.765     -19238.24       43639.688     -0.00013707015  1.1195687e-06  2.7088568e-06  6.0869477      7.9071849      55.293408      2661.3061    
       158   0             -1082.4496      1721.8944     -19235.765     -19238.24       43639.688     -0.00013563972  7.8994433e-08  1.9127335e-07  6.0869477      7.9071849      55.293408      2661.3061    
       159   0             -1082.4496      1721.8944     -19235.765     -19238.24       43639.688     -0.00013405847 -5.3126638e-07 -1.2851559e-06  6.0869477      7.9071849      55.293408      2661.3061    
       160   0             -1082.4496      1721.8944     -19235.765     -19238.24       43639.688     -0.00013307629 -4.3222171e-07 -1.0457279e-06  6.0869477      7.9071849      55.293408      2661.3061    
       161   0             -1082.4496      1721.8944     -19235.765     -19238.24       43639.688     -0.00013270436 -4.27901e-08   -1.0359917e-07  6.0869477      7.9071849      55.293408      2661.3061    
       162   0             -1082.4496      1721.8944     -19235.765     -19238.24       43639.688     -0.00013258834  1.0695068e-07  2.5880281e-07  6.0869477      7.9071849      55.293408      2661.3061    
       163   0             -1082.4496      1721.8944     -19235.765     -19238.24       43639.688     -0.00013246385  9.5951942e-08  2.3216101e-07  6.0869477      7.9071849      55.293408      2661.3061    
       164   0             -1082.4496      1721.8944     -19235.765     -19238.24       43639.688     -0.00013235193  4.1848882e-08  1.0128538e-07  6.0869477      7.9071849      55.293408      2661.3061    
       165   0             -1082.4496      1721.8944     -19235.765     -19238.24       43639.688     -0.00013223001 -1.7310967e-08 -4.1827828e-08  6.0869477      7.9071849      55.293408      2661.3061    
       166   0             -1082.4496      1721.8944     -19235.765     -19238.24       43639.688     -0.00013218402 -2.5211194e-08 -6.0964652e-08  6.0869477      7.9071849      55.293408      2661.3061    
       167   0             -1082.4496      1721.8944     -19235.765     -19238.24       43639.688     -0.00013217682 -1.3449966e-08 -3.2573657e-08  6.0869477      7.9071849      55.293408      2661.3061    
       168   0             -1082.4496      1721.8944     -19235.765     -19238.24       43639.688     -0.00013217569 -2.0410429e-09 -4.9332222e-09  6.0869477      7.9071849      55.293408      2661.3061    
       169   0             -1082.4496      1721.8944     -19235.765     -19238.24       43639.688     -0.00013217441  4.8100558e-09  1.1583421e-08  6.0869477      7.9071849      55.293408      2661.3061    
Loop time of 0.0582075 on 4 procs for 69 steps with 192 atoms

53.7% CPU use with 4 MPI tasks x 1 OpenMP threads

Minimization stats:
  Stopping criterion = force tolerance
  Energy initial, next-to-last, final = 
     -1082.42876433789   -1082.4495585768   -1082.4495585768
  Force two-norm initial, final = 1.4094189 8.4136976e-11
  Force max component initial, final = 0.14417699 1.8136714e-11
  Final line search alpha, max atom move = 1 1.8136714e-11
  Iterations, force evaluations = 69 138

MPI task timing breakdown:
Section |  min time  |  avg time  |  max time  |%varavg| %total
---------------------------------------------------------------
Pair    | 0.054402   | 0.054868   | 0.055656   |   0.2 | 94.26
Neigh   | 0          | 0          | 0          |   0.0 |  0.00
Comm    | 0.000983   | 0.0015257  | 0.002018   |   1.0 |  2.62
Output  | 0.000715   | 0.0007475  | 0.000834   |   0.0 |  1.28
Modify  | 0          | 0          | 0          |   0.0 |  0.00
Other   |            | 0.001066   |            |       |  1.83

Nlocal:             48 ave          51 max          47 min
Histogram: 3 0 0 0 0 0 0 0 0 1
Nghost:            540 ave         541 max         537 min
Histogram: 1 0 0 0 0 0 0 0 0 3
Neighs:           1260 ave        1328 max        1235 min
Histogram: 3 0 0 0 0 0 0 0 0 1
FullNghs:         2520 ave        2664 max        2472 min
Histogram: 3 0 0 0 0 0 0 0 0 1

Total # of neighbors = 10080
Ave neighs/atom = 52.5
Neighbor list builds = 0
Dangerous builds = 0

# Obtain new stress tensor

variable tmp equal pxx
variable pxx1 equal ${tmp}
variable pxx1 equal -19235.7653746169
variable tmp equal pyy
variable pyy1 equal ${tmp}
variable pyy1 equal -19238.2395588033
variable tmp equal pzz
variable pzz1 equal ${tmp}
variable pzz1 equal 43639.6882038576
variable tmp equal pxy
variable pxy1 equal ${tmp}
variable pxy1 equal -0.000132174414550068
variable tmp equal pxz
variable pxz1 equal ${tmp}
variable pxz1 equal 4.81005576971835e-09
variable tmp equal pyz
variable pyz1 equal ${tmp}
variable pyz1 equal 1.15834214334791e-08

# Compute elastic constant from pressure tensor

variable C1neg equal ${d1}
variable C1neg equal -92530.5434588303
variable C2neg equal ${d2}
variable C2neg equal -92777.8904610299
variable C3neg equal ${d3}
variable C3neg equal 169111.78256417
variable C4neg equal ${d4}
variable C4neg equal 1.15749496802204e-06
variable C5neg equal ${d5}
variable C5neg equal 4.7722252975731e-07
variable C6neg equal ${d6}
variable C6neg equal 0.104583669050735

# Reset box and simulation parameters

clear
  using 1 OpenMP thread(s) per MPI task
Loaded 1 plugins from C:\Program Files\LAMMPS 64-bit 23Jun2022\plugins
Loaded 0 plugins from C:\Program Files\LAMMPS 64-bit 23Jun2022-MPI\plugins
Loaded 1 plugins from C:\Program Files\LAMMPS 64-bit 22Dec2022-MSMPI\plugins
Loaded 1 plugins from C:\Program Files\LAMMPS 64-bit 28Mar2023-MPI\plugins
box tilt large

The 'box' command has been removed and will be ignored

read_restart restart.equil
Reading restart file ...
  restart file = 22 Dec 2022, LAMMPS = 22 Dec 2022
  restoring atom style atomic from restart
  triclinic box = (0.020038463 0.023617915 -0.24879037) to (6.1069922 7.9308028 55.044618) with tilt (-4.5652153 0 0)
WARNING: Triclinic box skew is large. LAMMPS will run inefficiently. (src/domain.cpp:220)
  1 by 1 by 4 MPI processor grid
  pair style meam stores no restart info
  192 atoms
  read_restart CPU = 0.000 seconds
include potential.mod
# NOTE: This script can be modified for different pair styles
# See in.elastic for more info.

# Choose potential
#-----------------------
#pair_style	sw
#pair_coeff * * Si.sw Si
#-----------------------
#pair_style morse	2.83994742	# D0[eV] a[1/A] r0[A] rc[A], 1NN for BCC
#pair_coeff 1 1	2.1173	1.0202	2.4595	2.6497	#	Fe-Fe
#-----------------------
#pair_style smatb # R0(A)   p       q     A(eV)   xi(eV)  Rcs(A)   Rc(A), 4NN: Rcs=4NN, Rc=(4NN+5NN)/2
#pair_coeff 1 1	2.4802	7.0149	2.3779	0.3144	3.0551	4.033	4.176	#	Co	Co
#-----------------------
#pair_style eam/alloy
#pair_coeff * * AlCrFeCoNi_Zhou04.eam.alloy Fe
#-----------------------
pair_style meam
pair_coeff * * ./../../library.meam Ti Al C ./../../TiAlC.meam Ti Al C
#-----------------------

# Setup neighbor style
neighbor 1.0 nsq
neigh_modify once no every 1 delay 0 check yes

# Setup minimization style
min_style	     cg
min_modify	     dmax ${dmax} line quadratic
min_modify	     dmax 0.01 line quadratic

# Setup output
thermo		1
thermo_style custom step temp pe press pxx pyy pzz pxy pxz pyz lx ly lz vol
thermo_modify norm no

# Positive deformation

variable delta equal ${up}*${len0}
variable delta equal 1e-06*${len0}
variable delta equal 1e-06*6.08695375040378
variable deltaxy equal ${up}*xy
variable deltaxy equal 1e-06*xy
variable deltaxz equal ${up}*xz
variable deltaxz equal 1e-06*xz
variable deltayz equal ${up}*yz
variable deltayz equal 1e-06*yz
if "${dir} == 1" then    "change_box all x delta 0 ${delta} xy delta ${deltaxy} xz delta ${deltaxz} remap units box"
change_box all x delta 0 ${delta} xy delta ${deltaxy} xz delta ${deltaxz} remap units box
change_box all x delta 0 6.08695375040378e-06 xy delta ${deltaxy} xz delta ${deltaxz} remap units box
change_box all x delta 0 6.08695375040378e-06 xy delta -4.56521531195821e-06 xz delta ${deltaxz} remap units box
change_box all x delta 0 6.08695375040378e-06 xy delta -4.56521531195821e-06 xz delta 0 remap units box
Changing box ...
WARNING: Triclinic box skew is large. LAMMPS will run inefficiently. (src/domain.cpp:220)
  triclinic box = (0.020038463 0.023617915 -0.24879037) to (6.1069983 7.9308028 55.044618) with tilt (-4.5652153 0 0)
WARNING: Triclinic box skew is large. LAMMPS will run inefficiently. (src/domain.cpp:220)
  triclinic box = (0.020038463 0.023617915 -0.24879037) to (6.1069983 7.9308028 55.044618) with tilt (-4.5652199 0 0)
WARNING: Triclinic box skew is large. LAMMPS will run inefficiently. (src/domain.cpp:220)
  triclinic box = (0.020038463 0.023617915 -0.24879037) to (6.1069983 7.9308028 55.044618) with tilt (-4.5652199 0 0)
if "${dir} == 2" then    "change_box all y delta 0 ${delta} yz delta ${deltayz} remap units box"
if "${dir} == 3" then    "change_box all z delta 0 ${delta} remap units box"
if "${dir} == 4" then    "change_box all yz delta ${delta} remap units box"
if "${dir} == 5" then    "change_box all xz delta ${delta} remap units box"
if "${dir} == 6" then    "change_box all xy delta ${delta} remap units box"

# Relax atoms positions

minimize ${etol} ${ftol} ${maxiter} ${maxeval}
minimize 0 ${ftol} ${maxiter} ${maxeval}
minimize 0 1e-10 ${maxiter} ${maxeval}
minimize 0 1e-10 100 ${maxeval}
minimize 0 1e-10 100 1000
Neighbor list info ...
  update: every = 1 steps, delay = 0 steps, check = yes
  max neighbors/atom: 2000, page size: 100000
  master list distance cutoff = 5.6
  ghost atom cutoff = 5.6
  2 neighbor lists, perpetual/occasional/extra = 2 0 0
  (1) pair meam, perpetual
      attributes: full, newton on
      pair build: full/nsq
      stencil: none
      bin: none
  (2) pair meam, perpetual, half/full from (1)
      attributes: half, newton on
      pair build: halffull/newton
      stencil: none
      bin: none
Per MPI rank memory allocation (min/avg/max) = 9.807 | 9.812 | 9.818 Mbytes
   Step          Temp          PotEng         Press           Pxx            Pyy            Pzz            Pxy            Pxz            Pyz             Lx             Ly             Lz           Volume    
       100   0             -1082.4287      1774.2263     -18313.749     -18311.246      41947.674      0.0056972389  -0.12506778    -0.30258685     6.0869598      7.9071849      55.293408      2661.3114    
       101   0             -1082.4495      1718.6644     -19239.987     -19237.481      43633.461     -0.0049882802  -0.097240369   -0.23526039     6.0869598      7.9071849      55.293408      2661.3114    
       102   0             -1082.4495      1718.5676     -19242.601     -19240.096      43638.4       -0.014354868   -0.072451849   -0.17528496     6.0869598      7.9071849      55.293408      2661.3114    
       103   0             -1082.4495      1718.5729     -19242.456     -19239.954      43638.128     -0.030671005   -0.022176557   -0.053654511    6.0869598      7.9071849      55.293408      2661.3114    
       104   0             -1082.4495      1718.5722     -19242.471     -19239.975      43638.162     -0.033160672    0.0074113178   0.017930136    6.0869598      7.9071849      55.293408      2661.3114    
       105   0             -1082.4495      1718.5721     -19242.472     -19239.98       43638.169     -0.027550245    0.012677616    0.030670346    6.0869598      7.9071849      55.293408      2661.3114    
       106   0             -1082.4495      1718.5723     -19242.463     -19239.976      43638.156     -0.019423699    0.009327983    0.022567257    6.0869598      7.9071849      55.293408      2661.3114    
       107   0             -1082.4495      1718.5722     -19242.464     -19239.981      43638.162     -0.0098839677   0.0009996552   0.0024182243   6.0869598      7.9071849      55.293408      2661.3114    
       108   0             -1082.4495      1718.5722     -19242.462     -19239.981      43638.16      -0.0060637499  -0.0021101193  -0.0051050675   6.0869598      7.9071849      55.293408      2661.3114    
       109   0             -1082.4495      1718.5722     -19242.461     -19239.983      43638.16      -0.0038026228  -0.0027753154  -0.0067144838   6.0869598      7.9071849      55.293408      2661.3114    
       110   0             -1082.4495      1718.5722     -19242.461     -19239.984      43638.161     -0.0020421878  -0.0012970177  -0.0031378391   6.0869598      7.9071849      55.293408      2661.3114    
       111   0             -1082.4495      1718.5723     -19242.459     -19239.984      43638.159     -0.00047303121  0.00062229664  0.0015055516   6.0869598      7.9071849      55.293408      2661.3114    
       112   0             -1082.4495      1718.5722     -19242.459     -19239.985      43638.161      0.00072207388  0.0012689971   0.0030701633   6.0869598      7.9071849      55.293408      2661.3114    
       113   0             -1082.4495      1718.5722     -19242.459     -19239.986      43638.162      0.0022857052   0.0010962495   0.0026521381   6.0869598      7.9071849      55.293408      2661.3114    
       114   0             -1082.4495      1718.5723     -19242.456     -19239.984      43638.157      0.0031575796  -0.00027870213 -0.00067431745  6.0869598      7.9071849      55.293408      2661.3114    
       115   0             -1082.4495      1718.5721     -19242.462     -19239.988      43638.166      0.0025312328  -0.00083435504 -0.0020185827   6.0869598      7.9071849      55.293408      2661.3114    
       116   0             -1082.4495      1718.5724     -19242.455     -19239.981      43638.154      0.0016119602  -0.00050877744 -0.0012308725   6.0869598      7.9071849      55.293408      2661.3114    
       117   0             -1082.4495      1718.5722     -19242.46      -19239.986      43638.162      0.00063754083  0.00010888178  0.00026346372  6.0869598      7.9071849      55.293408      2661.3114    
       118   0             -1082.4495      1718.5722     -19242.46      -19239.985      43638.161      0.00018886315  0.00036371218  0.0008799607   6.0869598      7.9071849      55.293408      2661.3114    
       119   0             -1082.4495      1718.5723     -19242.458     -19239.983      43638.158     -7.7371818e-05  0.00018218856  0.00044076493  6.0869598      7.9071849      55.293408      2661.3114    
       120   0             -1082.4495      1718.5722     -19242.461     -19239.986      43638.163     -0.00043425887 -0.00012084782 -0.00029239862  6.0869598      7.9071849      55.293408      2661.3114    
       121   0             -1082.4495      1718.5723     -19242.459     -19239.983      43638.159     -0.0010297519  -0.0003629358  -0.00087807916  6.0869598      7.9071849      55.293408      2661.3114    
       122   0             -1082.4495      1718.5722     -19242.46      -19239.984      43638.161     -0.0016773568  -0.00028628426 -0.00069259752  6.0869598      7.9071849      55.293408      2661.3114    
       123   0             -1082.4495      1718.5722     -19242.46      -19239.984      43638.16      -0.00156039     7.3382527e-05  0.00017756589  6.0869598      7.9071849      55.293408      2661.3114    
       124   0             -1082.4495      1718.5722     -19242.46      -19239.984      43638.161     -0.00099354207  0.00019003351  0.00045976624  6.0869598      7.9071849      55.293408      2661.3114    
       125   0             -1082.4495      1718.5722     -19242.46      -19239.984      43638.16      -0.00044128108  7.6307699e-05  0.00018459166  6.0869598      7.9071849      55.293408      2661.3114    
       126   0             -1082.4495      1718.5722     -19242.46      -19239.984      43638.161     -0.00020913891 -2.4020808e-05 -5.8118411e-05  6.0869598      7.9071849      55.293408      2661.3114    
       127   0             -1082.4495      1718.5722     -19242.459     -19239.984      43638.161     -3.3970083e-05 -0.00010799188 -0.00026128151  6.0869598      7.9071849      55.293408      2661.3114    
       128   0             -1082.4495      1718.5722     -19242.459     -19239.984      43638.16       0.0002267276  -0.00010752464 -0.00026011928  6.0869598      7.9071849      55.293408      2661.3114    
       129   0             -1082.4495      1718.5722     -19242.46      -19239.985      43638.161      0.00064242847  2.2976047e-05  5.5611711e-05  6.0869598      7.9071849      55.293408      2661.3114    
       130   0             -1082.4495      1718.5723     -19242.458     -19239.984      43638.159      0.00090360317  0.0001000683   0.0002421095   6.0869598      7.9071849      55.293408      2661.3114    
       131   0             -1082.4495      1718.5722     -19242.459     -19239.985      43638.161      0.00098351564  0.00011471095  0.00027750363  6.0869598      7.9071849      55.293408      2661.3114    
       132   0             -1082.4495      1718.5722     -19242.46      -19239.985      43638.162      0.00069383263  4.1967559e-05  0.00010150334  6.0869598      7.9071849      55.293408      2661.3114    
       133   0             -1082.4495      1718.5723     -19242.458     -19239.983      43638.158      8.4441349e-05 -6.2154654e-05 -0.00015039116  6.0869598      7.9071849      55.293408      2661.3114    
       134   0             -1082.4495      1718.5722     -19242.46      -19239.985      43638.161     -0.00036798623 -9.9189788e-05 -0.00023996954  6.0869598      7.9071849      55.293408      2661.3114    
       135   0             -1082.4495      1718.5722     -19242.46      -19239.984      43638.161     -0.00057525154 -3.7883901e-05 -9.1635594e-05  6.0869598      7.9071849      55.293408      2661.3114    
       136   0             -1082.4495      1718.5723     -19242.459     -19239.984      43638.159     -0.0006002814   4.9427554e-05  0.00011960111  6.0869598      7.9071849      55.293408      2661.3114    
       137   0             -1082.4495      1718.5722     -19242.46      -19239.984      43638.161     -0.00056935253  8.7648457e-05  0.00021205818  6.0869598      7.9071849      55.293408      2661.3114    
       138   0             -1082.4495      1718.5722     -19242.46      -19239.984      43638.16      -0.0005479094   3.0472866e-05  7.3710876e-05  6.0869598      7.9071849      55.293408      2661.3114    
       139   0             -1082.4495      1718.5722     -19242.46      -19239.984      43638.161     -0.00048907969 -4.1479176e-05 -0.00010036724  6.0869598      7.9071849      55.293408      2661.3114    
       140   0             -1082.4495      1718.5722     -19242.459     -19239.984      43638.16      -0.00035941863 -3.7770008e-05 -9.1382621e-05  6.0869598      7.9071849      55.293408      2661.3114    
       141   0             -1082.4495      1718.5722     -19242.459     -19239.984      43638.161     -0.00023224214 -8.4818404e-06 -2.0517233e-05  6.0869598      7.9071849      55.293408      2661.3114    
       142   0             -1082.4495      1718.5722     -19242.459     -19239.984      43638.16      -0.00016610709  7.7963985e-06  1.8865206e-05  6.0869598      7.9071849      55.293408      2661.3114    
       143   0             -1082.4495      1718.5722     -19242.459     -19239.984      43638.161     -0.0001401492   8.1212281e-06  1.9647957e-05  6.0869598      7.9071849      55.293408      2661.3114    
       144   0             -1082.4495      1718.5722     -19242.459     -19239.984      43638.16      -0.0001332159   2.6643879e-06  6.4451611e-06  6.0869598      7.9071849      55.293408      2661.3114    
       145   0             -1082.4495      1718.5722     -19242.459     -19239.984      43638.161     -0.00012863276 -2.4394126e-06 -5.9035127e-06  6.0869598      7.9071849      55.293408      2661.3114    
       146   0             -1082.4495      1718.5722     -19242.459     -19239.984      43638.161     -0.00011946669 -6.2915787e-06 -1.5221154e-05  6.0869598      7.9071849      55.293408      2661.3114    
       147   0             -1082.4495      1718.5722     -19242.459     -19239.984      43638.16      -0.00010916175 -5.2340486e-06 -1.2662439e-05  6.0869598      7.9071849      55.293408      2661.3114    
       148   0             -1082.4495      1718.5722     -19242.459     -19239.984      43638.161     -9.8452575e-05  7.4218064e-07  1.7974916e-06  6.0869598      7.9071849      55.293408      2661.3114    
       149   0             -1082.4495      1718.5722     -19242.459     -19239.984      43638.16      -0.00010041439  7.2354982e-06  1.7505922e-05  6.0869598      7.9071849      55.293408      2661.3114    
       150   0             -1082.4495      1718.5722     -19242.459     -19239.984      43638.16      -0.0001202657   4.6895852e-06  1.1344779e-05  6.0869598      7.9071849      55.293408      2661.3114    
       151   0             -1082.4495      1718.5722     -19242.459     -19239.984      43638.161     -0.00013278267  1.8033855e-08  4.2335615e-08  6.0869598      7.9071849      55.293408      2661.3114    
       152   0             -1082.4495      1718.5722     -19242.459     -19239.984      43638.16      -0.00013644688 -2.4657394e-06 -5.9660486e-06  6.0869598      7.9071849      55.293408      2661.3114    
       153   0             -1082.4495      1718.5722     -19242.459     -19239.984      43638.161     -0.00013580259 -2.733471e-06  -6.6127546e-06  6.0869598      7.9071849      55.293408      2661.3114    
       154   0             -1082.4495      1718.5722     -19242.459     -19239.984      43638.161     -0.00013531143 -1.0156598e-06 -2.4565965e-06  6.0869598      7.9071849      55.293408      2661.3114    
       155   0             -1082.4495      1718.5722     -19242.459     -19239.984      43638.16      -0.00013582605  1.2181993e-06  2.9476141e-06  6.0869598      7.9071849      55.293408      2661.3114    
       156   0             -1082.4495      1718.5722     -19242.459     -19239.984      43638.161     -0.00013745443  2.699104e-06   6.5299022e-06  6.0869598      7.9071849      55.293408      2661.3114    
       157   0             -1082.4495      1718.5722     -19242.459     -19239.984      43638.161     -0.00013700548  1.0696626e-06  2.5875622e-06  6.0869598      7.9071849      55.293408      2661.3114    
       158   0             -1082.4495      1718.5722     -19242.459     -19239.984      43638.161     -0.00013558024  4.9962925e-08  1.2065977e-07  6.0869598      7.9071849      55.293408      2661.3114    
       159   0             -1082.4495      1718.5722     -19242.459     -19239.984      43638.161     -0.00013388814 -5.3625262e-07 -1.2973851e-06  6.0869598      7.9071849      55.293408      2661.3114    
       160   0             -1082.4495      1718.5722     -19242.459     -19239.984      43638.161     -0.00013286553 -4.2374897e-07 -1.02515e-06    6.0869598      7.9071849      55.293408      2661.3114    
       161   0             -1082.4495      1718.5722     -19242.459     -19239.984      43638.161     -0.00013258012 -3.7649771e-08 -9.1008947e-08  6.0869598      7.9071849      55.293408      2661.3114    
       162   0             -1082.4495      1718.5722     -19242.459     -19239.984      43638.161     -0.00013254451  1.071018e-07   2.5905389e-07  6.0869598      7.9071849      55.293408      2661.3114    
       163   0             -1082.4495      1718.5722     -19242.459     -19239.984      43638.161     -0.0001324579   9.4365445e-08  2.2822655e-07  6.0869598      7.9071849      55.293408      2661.3114    
       164   0             -1082.4495      1718.5722     -19242.459     -19239.984      43638.161     -0.00013235016  4.0830685e-08  9.8737083e-08  6.0869598      7.9071849      55.293408      2661.3114    
       165   0             -1082.4495      1718.5722     -19242.459     -19239.984      43638.161     -0.00013222186 -1.7034156e-08 -4.1221522e-08  6.0869598      7.9071849      55.293408      2661.3114    
       166   0             -1082.4495      1718.5722     -19242.459     -19239.984      43638.161     -0.00013217573 -2.504475e-08  -6.0524601e-08  6.0869598      7.9071849      55.293408      2661.3114    
       167   0             -1082.4495      1718.5722     -19242.459     -19239.984      43638.161     -0.00013217086 -1.556592e-08  -3.7623904e-08  6.0869598      7.9071849      55.293408      2661.3114    
       168   0             -1082.4495      1718.5722     -19242.459     -19239.984      43638.161     -0.00013217372 -2.2113426e-09 -5.3654217e-09  6.0869598      7.9071849      55.293408      2661.3114    
       169   0             -1082.4495      1718.5722     -19242.459     -19239.984      43638.161     -0.00013217498  4.8095783e-09  1.1586807e-08  6.0869598      7.9071849      55.293408      2661.3114    
Loop time of 0.0609132 on 4 procs for 69 steps with 192 atoms

51.3% CPU use with 4 MPI tasks x 1 OpenMP threads

Minimization stats:
  Stopping criterion = force tolerance
  Energy initial, next-to-last, final = 
     -1082.42870350913  -1082.44949466222  -1082.44949466222
  Force two-norm initial, final = 1.4093125 8.4064947e-11
  Force max component initial, final = 0.14416612 1.8503699e-11
  Final line search alpha, max atom move = 1 1.8503699e-11
  Iterations, force evaluations = 69 138

MPI task timing breakdown:
Section |  min time  |  avg time  |  max time  |%varavg| %total
---------------------------------------------------------------
Pair    | 0.056102   | 0.056834   | 0.057811   |   0.3 | 93.30
Neigh   | 0          | 0          | 0          |   0.0 |  0.00
Comm    | 0.001176   | 0.0019863  | 0.002845   |   1.3 |  3.26
Output  | 0.000729   | 0.0007655  | 0.000858   |   0.0 |  1.26
Modify  | 0          | 0          | 0          |   0.0 |  0.00
Other   |            | 0.001327   |            |       |  2.18

Nlocal:             48 ave          51 max          47 min
Histogram: 3 0 0 0 0 0 0 0 0 1
Nghost:            540 ave         541 max         537 min
Histogram: 1 0 0 0 0 0 0 0 0 3
Neighs:           1260 ave        1328 max        1235 min
Histogram: 3 0 0 0 0 0 0 0 0 1
FullNghs:         2520 ave        2664 max        2472 min
Histogram: 3 0 0 0 0 0 0 0 0 1

Total # of neighbors = 10080
Ave neighs/atom = 52.5
Neighbor list builds = 0
Dangerous builds = 0

# Obtain new stress tensor

variable tmp equal pe
variable e1 equal ${tmp}
variable e1 equal -1082.44949466222
variable tmp equal press
variable p1 equal ${tmp}
variable p1 equal 1718.57223106732
variable tmp equal pxx
variable pxx1 equal ${tmp}
variable pxx1 equal -19242.4594262174
variable tmp equal pyy
variable pyy1 equal ${tmp}
variable pyy1 equal -19239.9843843533
variable tmp equal pzz
variable pzz1 equal ${tmp}
variable pzz1 equal 43638.1605037727
variable tmp equal pxy
variable pxy1 equal ${tmp}
variable pxy1 equal -0.000132174981836095
variable tmp equal pxz
variable pxz1 equal ${tmp}
variable pxz1 equal 4.80957828205423e-09
variable tmp equal pyz
variable pyz1 equal ${tmp}
variable pyz1 equal 1.15868070160411e-08

# Compute elastic constant from pressure tensor

variable C1pos equal ${d1}
variable C1pos equal 93199.9486188801
variable C2pos equal ${d2}
variable C2pos equal 92952.3730160301
variable C3pos equal ${d3}
variable C3pos equal -168959.01255568
variable C4pos equal ${d4}
variable C4pos equal -1.15783352627824e-06
variable C5pos equal ${d5}
variable C5pos equal -4.77174780990898e-07
variable C6pos equal ${d6}
variable C6pos equal -0.104583612322133

# Combine positive and negative

variable C1${dir} equal 0.5*(${C1neg}+${C1pos})
variable C11 equal 0.5*(${C1neg}+${C1pos})
variable C11 equal 0.5*(-92530.5434588303+${C1pos})
variable C11 equal 0.5*(-92530.5434588303+93199.9486188801)
variable C2${dir} equal 0.5*(${C2neg}+${C2pos})
variable C21 equal 0.5*(${C2neg}+${C2pos})
variable C21 equal 0.5*(-92777.8904610299+${C2pos})
variable C21 equal 0.5*(-92777.8904610299+92952.3730160301)
variable C3${dir} equal 0.5*(${C3neg}+${C3pos})
variable C31 equal 0.5*(${C3neg}+${C3pos})
variable C31 equal 0.5*(169111.78256417+${C3pos})
variable C31 equal 0.5*(169111.78256417+-168959.01255568)
variable C4${dir} equal 0.5*(${C4neg}+${C4pos})
variable C41 equal 0.5*(${C4neg}+${C4pos})
variable C41 equal 0.5*(1.15749496802204e-06+${C4pos})
variable C41 equal 0.5*(1.15749496802204e-06+-1.15783352627824e-06)
variable C5${dir} equal 0.5*(${C5neg}+${C5pos})
variable C51 equal 0.5*(${C5neg}+${C5pos})
variable C51 equal 0.5*(4.7722252975731e-07+${C5pos})
variable C51 equal 0.5*(4.7722252975731e-07+-4.77174780990898e-07)
variable C6${dir} equal 0.5*(${C6neg}+${C6pos})
variable C61 equal 0.5*(${C6neg}+${C6pos})
variable C61 equal 0.5*(0.104583669050735+${C6pos})
variable C61 equal 0.5*(0.104583669050735+-0.104583612322133)

# Delete dir to make sure it is not reused

variable dir delete

# uyy Perturbation

variable dir equal 2
include displace.mod
# NOTE: This script should not need to be
# modified. See in.elastic for more info.
#
# Find which reference length to use

if "${dir} == 1" then    "variable len0 equal ${lx0}"
if "${dir} == 2" then    "variable len0 equal ${ly0}"
variable len0 equal ${ly0}
variable len0 equal 7.90718486787139
if "${dir} == 3" then    "variable len0 equal ${lz0}"
if "${dir} == 4" then    "variable len0 equal ${lz0}"
if "${dir} == 5" then    "variable len0 equal ${lz0}"
if "${dir} == 6" then    "variable len0 equal ${ly0}"

# Reset box and simulation parameters

clear
  using 1 OpenMP thread(s) per MPI task
Loaded 1 plugins from C:\Program Files\LAMMPS 64-bit 23Jun2022\plugins
Loaded 0 plugins from C:\Program Files\LAMMPS 64-bit 23Jun2022-MPI\plugins
Loaded 1 plugins from C:\Program Files\LAMMPS 64-bit 22Dec2022-MSMPI\plugins
Loaded 1 plugins from C:\Program Files\LAMMPS 64-bit 28Mar2023-MPI\plugins
box tilt large

The 'box' command has been removed and will be ignored

read_restart restart.equil
Reading restart file ...
  restart file = 22 Dec 2022, LAMMPS = 22 Dec 2022
  restoring atom style atomic from restart
  triclinic box = (0.020038463 0.023617915 -0.24879037) to (6.1069922 7.9308028 55.044618) with tilt (-4.5652153 0 0)
WARNING: Triclinic box skew is large. LAMMPS will run inefficiently. (src/domain.cpp:220)
  1 by 1 by 4 MPI processor grid
  pair style meam stores no restart info
  192 atoms
  read_restart CPU = 0.000 seconds
include potential.mod
[...]
       132   0             -1082.4495      1720.2333     -19239.112     -19239.113      43638.925     -1.2369913      4.4169493e-05  0.00010682632  6.0869538      7.9071849      55.293408      2661.3087    
       133   0             -1082.4495      1720.2334     -19239.111     -19239.111      43638.922     -1.2371762     -6.3066158e-05 -0.00015259265  6.0869538      7.9071849      55.293408      2661.3087    
       134   0             -1082.4495      1720.2333     -19239.113     -19239.112      43638.925     -1.2373505     -0.00010010887 -0.00024219557  6.0869538      7.9071849      55.293408      2661.3087    
       135   0             -1082.4495      1720.2333     -19239.113     -19239.112      43638.925     -1.2376628     -3.706856e-05  -8.9662143e-05  6.0869538      7.9071849      55.293408      2661.3087    
       136   0             -1082.4495      1720.2333     -19239.112     -19239.111      43638.923     -1.2379877      5.1067768e-05  0.00012356723  6.0869538      7.9071849      55.293408      2661.3087    
       137   0             -1082.4495      1720.2333     -19239.113     -19239.112      43638.925     -1.2381366      8.7975017e-05  0.00021284872  6.0869538      7.9071849      55.293408      2661.3087    
       138   0             -1082.4495      1720.2333     -19239.112     -19239.112      43638.924     -1.237987       3.0226128e-05  7.3113849e-05  6.0869538      7.9071849      55.293408      2661.3087    
       139   0             -1082.4495      1720.2333     -19239.113     -19239.112      43638.924     -1.2376886     -4.2633494e-05 -0.00010316009  6.0869538      7.9071849      55.293408      2661.3087    
       140   0             -1082.4495      1720.2333     -19239.113     -19239.112      43638.924     -1.2375612     -3.8399136e-05 -9.2904746e-05  6.0869538      7.9071849      55.293408      2661.3087    
       141   0             -1082.4495      1720.2333     -19239.112     -19239.112      43638.924     -1.2375236     -8.4729245e-06 -2.0495489e-05  6.0869538      7.9071849      55.293408      2661.3087    
       142   0             -1082.4495      1720.2333     -19239.112     -19239.112      43638.924     -1.2374997      7.8947439e-06  1.9102906e-05  6.0869538      7.9071849      55.293408      2661.3087    
       143   0             -1082.4495      1720.2333     -19239.112     -19239.112      43638.924     -1.2374642      8.145199e-06   1.9706486e-05  6.0869538      7.9071849      55.293408      2661.3087    
       144   0             -1082.4495      1720.2333     -19239.112     -19239.112      43638.924     -1.2374393      2.7026885e-06  6.5366468e-06  6.0869538      7.9071849      55.293408      2661.3087    
       145   0             -1082.4495      1720.2333     -19239.112     -19239.112      43638.924     -1.2374243     -2.3496065e-06 -5.6846772e-06  6.0869538      7.9071849      55.293408      2661.3087    
       146   0             -1082.4495      1720.2333     -19239.112     -19239.112      43638.924     -1.237414      -6.1962564e-06 -1.4992281e-05  6.0869538      7.9071849      55.293408      2661.3087    
       147   0             -1082.4495      1720.2333     -19239.112     -19239.112      43638.924     -1.2374131     -5.2180328e-06 -1.2622108e-05  6.0869538      7.9071849      55.293408      2661.3087    
       148   0             -1082.4495      1720.2333     -19239.112     -19239.112      43638.924     -1.2374187      6.9848092e-07  1.6910714e-06  6.0869538      7.9071849      55.293408      2661.3087    
       149   0             -1082.4495      1720.2333     -19239.112     -19239.112      43638.924     -1.237425       7.181995e-06   1.7376652e-05  6.0869538      7.9071849      55.293408      2661.3087    
       150   0             -1082.4495      1720.2333     -19239.112     -19239.112      43638.924     -1.237426       4.8291131e-06  1.1682327e-05  6.0869538      7.9071849      55.293408      2661.3087    
       151   0             -1082.4495      1720.2333     -19239.112     -19239.112      43638.924     -1.2374288      3.8235181e-07  9.2371743e-07  6.0869538      7.9071849      55.293408      2661.3087    
       152   0             -1082.4495      1720.2333     -19239.112     -19239.112      43638.924     -1.2374345     -2.3938887e-06 -5.7924693e-06  6.0869538      7.9071849      55.293408      2661.3087    
       153   0             -1082.4495      1720.2333     -19239.112     -19239.112      43638.924     -1.2374434     -2.7309908e-06 -6.6067579e-06  6.0869538      7.9071849      55.293408      2661.3087    
       154   0             -1082.4495      1720.2333     -19239.112     -19239.112      43638.924     -1.2374463     -1.0453821e-06 -2.5284653e-06  6.0869538      7.9071849      55.293408      2661.3087    
       155   0             -1082.4495      1720.2333     -19239.112     -19239.112      43638.924     -1.2374464      1.1842267e-06  2.8654838e-06  6.0869538      7.9071849      55.293408      2661.3087    
       156   0             -1082.4495      1720.2333     -19239.112     -19239.112      43638.924     -1.2374432      2.7084172e-06  6.5523069e-06  6.0869538      7.9071849      55.293408      2661.3087    
       157   0             -1082.4495      1720.2333     -19239.112     -19239.112      43638.924     -1.2374404      1.0669952e-06  2.5809746e-06  6.0869538      7.9071849      55.293408      2661.3087    
       158   0             -1082.4495      1720.2333     -19239.112     -19239.112      43638.924     -1.2374401      2.3406402e-08  5.6389945e-08  6.0869538      7.9071849      55.293408      2661.3087    
       159   0             -1082.4495      1720.2333     -19239.112     -19239.112      43638.924     -1.2374401     -5.3801906e-07 -1.3017328e-06  6.0869538      7.9071849      55.293408      2661.3087    
       160   0             -1082.4495      1720.2333     -19239.112     -19239.112      43638.924     -1.2374399     -4.2777054e-07 -1.0348547e-06  6.0869538      7.9071849      55.293408      2661.3087    
       161   0             -1082.4495      1720.2333     -19239.112     -19239.112      43638.924     -1.2374394     -3.873563e-08  -9.3695185e-08  6.0869538      7.9071849      55.293408      2661.3087    
       162   0             -1082.4495      1720.2333     -19239.112     -19239.112      43638.924     -1.237439       1.0801609e-07  2.6130493e-07  6.0869538      7.9071849      55.293408      2661.3087    
       163   0             -1082.4495      1720.2333     -19239.112     -19239.112      43638.924     -1.2374388      9.5266252e-08  2.3042338e-07  6.0869538      7.9071849      55.293408      2661.3087    
       164   0             -1082.4495      1720.2333     -19239.112     -19239.112      43638.924     -1.2374387      4.1078078e-08  9.9352461e-08  6.0869538      7.9071849      55.293408      2661.3087    
       165   0             -1082.4495      1720.2333     -19239.112     -19239.112      43638.924     -1.2374387     -1.7559989e-08 -4.2466961e-08  6.0869538      7.9071849      55.293408      2661.3087    
       166   0             -1082.4495      1720.2333     -19239.112     -19239.112      43638.924     -1.2374387     -2.5125516e-08 -6.0725394e-08  6.0869538      7.9071849      55.293408      2661.3087    
       167   0             -1082.4495      1720.2333     -19239.112     -19239.112      43638.924     -1.2374387     -1.0082122e-08 -2.444689e-08   6.0869538      7.9071849      55.293408      2661.3087    
       168   0             -1082.4495      1720.2333     -19239.112     -19239.112      43638.924     -1.2374387     -1.0544074e-09 -2.5392702e-09  6.0869538      7.9071849      55.293408      2661.3087    
       169   0             -1082.4495      1720.2333     -19239.112     -19239.112      43638.924     -1.2374387      4.7684608e-09  1.161185e-08   6.0869538      7.9071849      55.293408      2661.3087    
Loop time of 0.057935 on 4 procs for 69 steps with 192 atoms

47.2% CPU use with 4 MPI tasks x 1 OpenMP threads

Minimization stats:
  Stopping criterion = force tolerance
  Energy initial, next-to-last, final = 
     -1082.42873392531  -1082.44952662126  -1082.44952662126
  Force two-norm initial, final = 1.4093657 8.4746084e-11
  Force max component initial, final = 0.14417156 1.7117807e-11
  Final line search alpha, max atom move = 1 1.7117807e-11
  Iterations, force evaluations = 69 138

MPI task timing breakdown:
Section |  min time  |  avg time  |  max time  |%varavg| %total
---------------------------------------------------------------
Pair    | 0.054067   | 0.054537   | 0.055041   |   0.2 | 94.13
Neigh   | 0          | 0          | 0          |   0.0 |  0.00
Comm    | 0.001254   | 0.0016612  | 0.002056   |   0.8 |  2.87
Output  | 0.000684   | 0.0007095  | 0.000774   |   0.0 |  1.22
Modify  | 0          | 0          | 0          |   0.0 |  0.00
Other   |            | 0.001028   |            |       |  1.77

Nlocal:             48 ave          51 max          47 min
Histogram: 3 0 0 0 0 0 0 0 0 1
Nghost:            540 ave         541 max         537 min
Histogram: 1 0 0 0 0 0 0 0 0 3
Neighs:           1260 ave        1328 max        1235 min
Histogram: 3 0 0 0 0 0 0 0 0 1
FullNghs:         2520 ave        2664 max        2472 min
Histogram: 3 0 0 0 0 0 0 0 0 1

Total # of neighbors = 10080
Ave neighs/atom = 52.5
Neighbor list builds = 0
Dangerous builds = 0

# Obtain new stress tensor

variable tmp equal pe
variable e1 equal ${tmp}
variable e1 equal -1082.44952662126
variable tmp equal press
variable p1 equal ${tmp}
variable p1 equal 1720.23332303111
variable tmp equal pxx
variable pxx1 equal ${tmp}
variable pxx1 equal -19239.1124107281
variable tmp equal pyy
variable pyy1 equal ${tmp}
variable pyy1 equal -19239.1119711769
variable tmp equal pzz
variable pzz1 equal ${tmp}
variable pzz1 equal 43638.9243509983
variable tmp equal pxy
variable pxy1 equal ${tmp}
variable pxy1 equal -1.23743868483297
variable tmp equal pxz
variable pxz1 equal ${tmp}
variable pxz1 equal 4.76846083370431e-09
variable tmp equal pyz
variable pyz1 equal ${tmp}
variable pyz1 equal 1.16118495424566e-08

# Compute elastic constant from pressure tensor

variable C1pos equal ${d1}
variable C1pos equal 92865.2470699501
variable C2pos equal ${d2}
variable C2pos equal 92865.1316983898
variable C3pos equal ${d3}
variable C3pos equal -169035.39727824
variable C4pos equal ${d4}
variable C4pos equal -1.16033777891979e-06
variable C5pos equal ${d5}
variable C5pos equal -4.73063036155906e-07
variable C6pos equal ${d6}
variable C6pos equal 123.626067372791

# Combine positive and negative

variable C1${dir} equal 0.5*(${C1neg}+${C1pos})
variable C16 equal 0.5*(${C1neg}+${C1pos})
variable C16 equal 0.5*(-92865.24706985+${C1pos})
variable C16 equal 0.5*(-92865.24706985+92865.2470699501)
variable C2${dir} equal 0.5*(${C2neg}+${C2pos})
variable C26 equal 0.5*(${C2neg}+${C2pos})
variable C26 equal 0.5*(-92865.1316985001+${C2pos})
variable C26 equal 0.5*(-92865.1316985001+92865.1316983898)
variable C3${dir} equal 0.5*(${C3neg}+${C3pos})
variable C36 equal 0.5*(${C3neg}+${C3pos})
variable C36 equal 0.5*(169035.39727818+${C3pos})
variable C36 equal 0.5*(169035.39727818+-169035.39727824)
variable C4${dir} equal 0.5*(${C4neg}+${C4pos})
variable C46 equal 0.5*(${C4neg}+${C4pos})
variable C46 equal 0.5*(1.15580781381441e-06+${C4pos})
variable C46 equal 0.5*(1.15580781381441e-06+-1.16033777891979e-06)
variable C5${dir} equal 0.5*(${C5neg}+${C5pos})
variable C56 equal 0.5*(${C5neg}+${C5pos})
variable C56 equal 0.5*(4.73915224353524e-07+${C5pos})
variable C56 equal 0.5*(4.73915224353524e-07+-4.73063036155906e-07)
variable C6${dir} equal 0.5*(${C6neg}+${C6pos})
variable C66 equal 0.5*(${C6neg}+${C6pos})
variable C66 equal 0.5*(123.835234718169+${C6pos})
variable C66 equal 0.5*(123.835234718169+123.626067372791)

# Delete dir to make sure it is not reused

variable dir delete

# Output final values

variable C11all equal ${C11}
variable C11all equal 334.702580024896
variable C22all equal ${C22}
variable C22all equal 334.702580180048
variable C33all equal ${C33}
variable C33all equal 279.265807950011

variable C12all equal 0.5*(${C12}+${C21})
variable C12all equal 0.5*(87.2412774800978+${C21})
variable C12all equal 0.5*(87.2412774800978+87.2412775000994)
variable C13all equal 0.5*(${C13}+${C31})
variable C13all equal 0.5*(70.0972005699514+${C31})
variable C13all equal 0.5*(70.0972005699514+76.3850042449922)
variable C23all equal 0.5*(${C23}+${C32})
variable C23all equal 0.5*(70.0972006750526+${C32})
variable C23all equal 0.5*(70.0972006750526+76.3850042150007)

variable C44all equal ${C44}
variable C44all equal 110.560731780066
variable C55all equal ${C55}
variable C55all equal 110.560731741957
variable C66all equal ${C66}
variable C66all equal 123.73065104548

variable C14all equal 0.5*(${C14}+${C41})
variable C14all equal 0.5*(1.00044417195022e-08+${C41})
variable C14all equal 0.5*(1.00044417195022e-08+-1.69279128100034e-10)
variable C15all equal 0.5*(${C15}+${C51})
variable C15all equal 0.5*(0+${C51})
variable C15all equal 0.5*(0+2.38743832060105e-11)
variable C16all equal 0.5*(${C16}+${C61})
variable C16all equal 0.5*(5.00513124279678e-08+${C61})
variable C16all equal 0.5*(5.00513124279678e-08+2.83643010051682e-08)

variable C24all equal 0.5*(${C24}+${C42})
variable C24all equal 0.5*(2.51020537689328e-08+${C42})
variable C24all equal 0.5*(2.51020537689328e-08+1.17354471698599e-08)
variable C25all equal 0.5*(${C25}+${C52})
variable C25all equal 0.5*(-9.99716576188803e-09+${C52})
variable C25all equal 0.5*(-9.99716576188803e-09+6.16547186213749e-09)
variable C26all equal 0.5*(${C26}+${C62})
variable C26all equal 0.5*(-5.51517587155104e-08+${C62})
variable C26all equal 0.5*(-5.51517587155104e-08+-9.0048056997083e-08)

variable C34all equal 0.5*(${C34}+${C43})
variable C34all equal 0.5*(-1.99943315237761e-08+${C43})
variable C34all equal 0.5*(-1.99943315237761e-08+-7.58291507845019e-10)
variable C35all equal 0.5*(${C35}+${C53})
variable C35all equal 0.5*(5.50062395632267e-09+${C53})
variable C35all equal 0.5*(5.50062395632267e-09+6.36277024723494e-10)
variable C36all equal 0.5*(${C36}+${C63})
variable C36all equal 0.5*(-3.00060492008924e-08+${C63})
variable C36all equal 0.5*(-3.00060492008924e-08+-3.20892979965848e-08)

variable C45all equal 0.5*(${C45}+${C54})
variable C45all equal 0.5*(6.079443763519e-08+${C54})
variable C45all equal 0.5*(6.079443763519e-08+6.44321115689425e-08)
variable C46all equal 0.5*(${C46}+${C64})
variable C46all equal 0.5*(-2.26498255269005e-09+${C64})
variable C46all equal 0.5*(-2.26498255269005e-09+-6.35297950357661e-09)
variable C56all equal 0.5*(${C56}+${C65})
variable C56all equal 0.5*(4.26094098808991e-10+${C65})
variable C56all equal 0.5*(4.26094098808991e-10+5.33703749944214e-09)

# Average moduli for cubic crystals

variable C11cubic equal (${C11all}+${C22all}+${C33all})/3.0
variable C11cubic equal (334.702580024896+${C22all}+${C33all})/3.0
variable C11cubic equal (334.702580024896+334.702580180048+${C33all})/3.0
variable C11cubic equal (334.702580024896+334.702580180048+279.265807950011)/3.0
variable C12cubic equal (${C12all}+${C13all}+${C23all})/3.0
variable C12cubic equal (87.2412774900986+${C13all}+${C23all})/3.0
variable C12cubic equal (87.2412774900986+73.2411024074718+${C23all})/3.0
variable C12cubic equal (87.2412774900986+73.2411024074718+73.2411024450267)/3.0
variable C44cubic equal (${C44all}+${C55all}+${C66all})/3.0
variable C44cubic equal (110.560731780066+${C55all}+${C66all})/3.0
variable C44cubic equal (110.560731780066+110.560731741957+${C66all})/3.0
variable C44cubic equal (110.560731780066+110.560731741957+123.73065104548)/3.0

variable bulkmodulus equal (${C11cubic}+2*${C12cubic})/3.0
variable bulkmodulus equal (316.223656051652+2*${C12cubic})/3.0
variable bulkmodulus equal (316.223656051652+2*77.9078274475324)/3.0
variable shearmodulus1 equal ${C44cubic}
variable shearmodulus1 equal 114.950704855834
variable shearmodulus2 equal (${C11cubic}-${C12cubic})/2.0
variable shearmodulus2 equal (316.223656051652-${C12cubic})/2.0
variable shearmodulus2 equal (316.223656051652-77.9078274475324)/2.0
variable poissonratio equal 1.0/(1.0+${C11cubic}/${C12cubic})
variable poissonratio equal 1.0/(1.0+316.223656051652/${C12cubic})
variable poissonratio equal 1.0/(1.0+316.223656051652/77.9078274475324)

# For Stillinger-Weber silicon, the analytical results
# are known to be (E. R. Cowley, 1988):
#               C11 = 151.4 GPa
#               C12 = 76.4 GPa
#               C44 = 56.4 GPa

print "========================================="
=========================================
print "Components of the Elastic Constant Tensor"
Components of the Elastic Constant Tensor
print "========================================="
=========================================

print "Elastic Constant C11all = ${C11all} ${cunits}"
Elastic Constant C11all = 334.702580024896 GPa
print "Elastic Constant C22all = ${C22all} ${cunits}"
Elastic Constant C22all = 334.702580180048 GPa
print "Elastic Constant C33all = ${C33all} ${cunits}"
Elastic Constant C33all = 279.265807950011 GPa

print "Elastic Constant C12all = ${C12all} ${cunits}"
Elastic Constant C12all = 87.2412774900986 GPa
print "Elastic Constant C13all = ${C13all} ${cunits}"
Elastic Constant C13all = 73.2411024074718 GPa
print "Elastic Constant C23all = ${C23all} ${cunits}"
Elastic Constant C23all = 73.2411024450267 GPa

print "Elastic Constant C44all = ${C44all} ${cunits}"
Elastic Constant C44all = 110.560731780066 GPa
print "Elastic Constant C55all = ${C55all} ${cunits}"
Elastic Constant C55all = 110.560731741957 GPa
print "Elastic Constant C66all = ${C66all} ${cunits}"
Elastic Constant C66all = 123.73065104548 GPa

print "Elastic Constant C14all = ${C14all} ${cunits}"
Elastic Constant C14all = 4.91758129570108e-09 GPa
print "Elastic Constant C15all = ${C15all} ${cunits}"
Elastic Constant C15all = 1.19371916030052e-11 GPa
print "Elastic Constant C16all = ${C16all} ${cunits}"
Elastic Constant C16all = 3.9207806716568e-08 GPa

print "Elastic Constant C24all = ${C24all} ${cunits}"
Elastic Constant C24all = 1.84187504693964e-08 GPa
print "Elastic Constant C25all = ${C25all} ${cunits}"
Elastic Constant C25all = -1.91584694987527e-09 GPa
print "Elastic Constant C26all = ${C26all} ${cunits}"
Elastic Constant C26all = -7.25999078562967e-08 GPa

print "Elastic Constant C34all = ${C34all} ${cunits}"
Elastic Constant C34all = -1.03763115158106e-08 GPa
print "Elastic Constant C35all = ${C35all} ${cunits}"
Elastic Constant C35all = 3.06845049052308e-09 GPa
print "Elastic Constant C36all = ${C36all} ${cunits}"
Elastic Constant C36all = -3.10476735987386e-08 GPa

print "Elastic Constant C45all = ${C45all} ${cunits}"
Elastic Constant C45all = 6.26132746020662e-08 GPa
print "Elastic Constant C46all = ${C46all} ${cunits}"
Elastic Constant C46all = -4.30898102813333e-09 GPa
print "Elastic Constant C56all = ${C56all} ${cunits}"
Elastic Constant C56all = 2.88156579912557e-09 GPa

print "========================================="
=========================================
print "Average properties for a cubic crystal"
Average properties for a cubic crystal
print "========================================="
=========================================

print "Bulk Modulus = ${bulkmodulus} ${cunits}"
Bulk Modulus = 157.346436982239 GPa
print "Shear Modulus 1 = ${shearmodulus1} ${cunits}"
Shear Modulus 1 = 114.950704855834 GPa
print "Shear Modulus 2 = ${shearmodulus2} ${cunits}"
Shear Modulus 2 = 119.15791430206 GPa
print "Poisson Ratio = ${poissonratio}"
Poisson Ratio = 0.197669637441419
Total wall time: 0:00:00
