LAMMPS data file via write_data, version 22 Dec 2022, timestep = 6

4 atoms
2 atom types

-0.0001845158899573614 4.392184515889958 xlo xhi
-0.0001845158899573614 4.392184515889958 ylo yhi
-0.0001845158899573614 4.392184515889958 zlo zhi

Masses

1 26.9815
2 91.22

Atoms # atomic

1 1 -0.0001845158899573614 -0.0001845158899573614 -0.0001845158899573614 0 0 0
2 2 2.1959999999999997 2.1959999999999997 -0.0001845158899573614 0 0 0
3 2 2.1959999999999997 -0.0001845158899573614 2.1959999999999997 0 0 0
4 2 -0.0001845158899573614 2.1959999999999997 2.1959999999999997 0 0 0

Velocities

1 0 0 0
2 0 0 0
3 0 0 0
4 0 0 0
