# LAMMPS data file written by Ovito Basic 3.0.0-dev791
640 atoms
5 atom types
0.0 27.3744831085 xlo xhi
0.0 18.9655952454 ylo yhi
0.0 17.7550888062 zlo zhi

Atoms  # atomic

1 1 1.368724108 0.790233076 3.329079151
2 1 1.368724108 0.790233076 7.767851353
3 1 1.368724108 0.790233076 12.206623077
4 1 1.368724108 0.790233076 16.645395279
5 1 0.0 3.160932302 3.329079151
6 1 0.0 3.160932302 7.767851353
7 1 0.0 3.160932302 12.206623077
8 1 0.0 3.160932302 16.645395279
9 1 26.005758286 5.531631947 3.329079151
10 1 26.005758286 5.531631947 7.767851353
11 1 26.005758286 5.531631947 12.206623077
12 1 26.005758286 5.531631947 16.645395279
13 1 24.637033463 7.902331352 3.329079151
14 1 24.637033463 7.902331352 7.767851353
15 1 24.637033463 7.902331352 12.206623077
16 1 24.637033463 7.902331352 16.645395279
17 1 23.268310547 10.273031235 3.329079151
18 1 23.268310547 10.273031235 7.767851353
19 1 23.268310547 10.273031235 12.206623077
20 1 23.268310547 10.273031235 16.645395279
21 1 21.899585724 12.64372921 3.329079151
22 1 21.899585724 12.64372921 7.767851353
23 1 21.899585724 12.64372921 12.206623077
24 1 21.899585724 12.64372921 16.645395279
25 1 20.530858994 15.014429092 3.329079151
26 1 20.530858994 15.014429092 7.767851353
27 1 20.530858994 15.014429092 12.206623077
28 1 20.530858994 15.014429092 16.645395279
29 1 19.162136078 17.385129929 3.329079151
30 1 19.162136078 17.385129929 7.767851353
31 1 19.162136078 17.385129929 12.206623077
32 1 19.162136078 17.385129929 16.645395279
33 1 15.055966377 0.790233076 3.329079151
34 1 15.055966377 0.790233076 7.767851353
35 1 15.055966377 0.790233076 12.206623077
36 1 15.055966377 0.790233076 16.645395279
37 1 13.687240601 3.160932302 3.329079151
38 1 13.687240601 3.160932302 7.767851353
39 1 13.687240601 3.160932302 12.206623077
40 1 13.687240601 3.160932302 16.645395279
41 1 12.318516731 5.531631947 3.329079151
42 1 12.318516731 5.531631947 7.767851353
43 1 12.318516731 5.531631947 12.206623077
44 1 12.318516731 5.531631947 16.645395279
45 1 10.949792862 7.902331352 3.329079151
46 1 10.949792862 7.902331352 7.767851353
47 1 10.949792862 7.902331352 12.206623077
48 1 10.949792862 7.902331352 16.645395279
49 1 9.581068039 10.273031235 3.329079151
50 1 9.581068039 10.273031235 7.767851353
51 1 9.581068039 10.273031235 12.206623077
52 1 9.581068039 10.273031235 16.645395279
53 1 8.212343216 12.64372921 3.329079151
54 1 8.212343216 12.64372921 7.767851353
55 1 8.212343216 12.64372921 12.206623077
56 1 8.212343216 12.64372921 16.645395279
57 1 6.843618393 15.014429092 3.329079151
58 1 6.843618393 15.014429092 7.767851353
59 1 6.843618393 15.014429092 12.206623077
60 1 6.843618393 15.014429092 16.645395279
61 1 5.474894524 17.385129929 3.329079151
62 1 5.474894524 17.385129929 7.767851353
63 1 5.474894524 17.385129929 12.206623077
64 1 5.474894524 17.385129929 16.645395279
65 1 4.106172562 0.790233076 3.329079151
66 1 4.106172562 0.790233076 7.767851353
67 1 4.106172562 0.790233076 12.206623077
68 1 4.106172562 0.790233076 16.645395279
69 1 2.737448215 3.160932302 3.329079151
70 1 2.737448215 3.160932302 7.767851353
71 1 2.737448215 3.160932302 12.206623077
72 1 2.737448215 3.160932302 16.645395279
73 1 1.368723869 5.531631947 3.329079151
74 1 1.368723869 5.531631947 7.767851353
75 1 1.368723869 5.531631947 12.206623077
76 1 1.368723869 5.531631947 16.645395279
77 1 0.0 7.902331352 3.329079151
78 1 0.0 7.902331352 7.767851353
79 1 0.0 7.902331352 12.206623077
80 1 0.0 7.902331352 16.645395279
81 1 26.005756378 10.273031235 3.329079151
82 1 26.005756378 10.273031235 7.767851353
83 1 26.005756378 10.273031235 12.206623077
84 1 26.005756378 10.273031235 16.645395279
85 1 24.637033463 12.64372921 3.329079151
86 1 24.637033463 12.64372921 7.767851353
87 1 24.637033463 12.64372921 12.206623077
88 1 24.637033463 12.64372921 16.645395279
89 1 23.26830864 15.014429092 3.329079151
90 1 23.26830864 15.014429092 7.767851353
91 1 23.26830864 15.014429092 12.206623077
92 1 23.26830864 15.014429092 16.645395279
93 1 21.899585724 17.385129929 3.329079151
94 1 21.899585724 17.385129929 7.767851353
95 1 21.899585724 17.385129929 12.206623077
96 1 21.899585724 17.385129929 16.645395279
97 1 17.79341507 0.790233076 3.329079151
98 1 17.79341507 0.790233076 7.767851353
99 1 17.79341507 0.790233076 12.206623077
100 1 17.79341507 0.790233076 16.645395279
101 1 16.424690247 3.160932302 3.329079151
102 1 16.424690247 3.160932302 7.767851353
103 1 16.424690247 3.160932302 12.206623077
104 1 16.424690247 3.160932302 16.645395279
105 1 15.055966377 5.531631947 3.329079151
106 1 15.055966377 5.531631947 7.767851353
107 1 15.055966377 5.531631947 12.206623077
108 1 15.055966377 5.531631947 16.645395279
109 1 13.687243462 7.902331352 3.329079151
110 1 13.687243462 7.902331352 7.767851353
111 1 13.687243462 7.902331352 12.206623077
112 1 13.687243462 7.902331352 16.645395279
113 1 12.318517685 10.273031235 3.329079151
114 1 12.318517685 10.273031235 7.767851353
115 1 12.318517685 10.273031235 12.206623077
116 1 12.318517685 10.273031235 16.645395279
117 1 10.949792862 12.64372921 3.329079151
118 1 10.949792862 12.64372921 7.767851353
119 1 10.949792862 12.64372921 12.206623077
120 1 10.949792862 12.64372921 16.645395279
121 1 9.581068039 15.014429092 3.329079151
122 1 9.581068039 15.014429092 7.767851353
123 1 9.581068039 15.014429092 12.206623077
124 1 9.581068039 15.014429092 16.645395279
125 1 8.21234417 17.385129929 3.329079151
126 1 8.21234417 17.385129929 7.767851353
127 1 8.21234417 17.385129929 12.206623077
128 1 8.21234417 17.385129929 16.645395279
129 2 6.843620777 0.790233076 3.329079151
130 2 6.843620777 0.790233076 7.767851353
131 2 6.843620777 0.790233076 12.206623077
132 2 6.843620777 0.790233076 16.645395279
133 2 5.474896431 3.160932302 3.329079151
134 2 5.474896431 3.160932302 7.767851353
135 2 5.474896431 3.160932302 12.206623077
136 2 5.474896431 3.160932302 16.645395279
137 2 4.106172085 5.531631947 3.329079151
138 2 4.106172085 5.531631947 7.767851353
139 2 4.106172085 5.531631947 12.206623077
140 2 4.106172085 5.531631947 16.645395279
141 2 2.737447739 7.902331352 3.329079151
142 2 2.737447739 7.902331352 7.767851353
143 2 2.737447739 7.902331352 12.206623077
144 2 2.737447739 7.902331352 16.645395279
145 2 1.368722916 10.273031235 3.329079151
146 2 1.368722916 10.273031235 7.767851353
147 2 1.368722916 10.273031235 12.206623077
148 2 1.368722916 10.273031235 16.645395279
149 2 0.0 12.64372921 3.329079151
150 2 0.0 12.64372921 7.767851353
151 2 0.0 12.64372921 12.206623077
152 2 0.0 12.64372921 16.645395279
153 2 26.005756378 15.014429092 3.329079151
154 2 26.005756378 15.014429092 7.767851353
155 2 26.005756378 15.014429092 12.206623077
156 2 26.005756378 15.014429092 16.645395279
157 2 24.637033463 17.385129929 3.329079151
158 2 24.637033463 17.385129929 7.767851353
159 2 24.637033463 17.385129929 12.206623077
160 2 24.637033463 17.385129929 16.645395279
161 2 20.530860901 0.790233076 3.329079151
162 2 20.530860901 0.790233076 7.767851353
163 2 20.530860901 0.790233076 12.206623077
164 2 20.530860901 0.790233076 16.645395279
165 2 19.162136078 3.160932302 3.329079151
166 2 19.162136078 3.160932302 7.767851353
167 2 19.162136078 3.160932302 12.206623077
168 2 19.162136078 3.160932302 16.645395279
169 2 17.793411255 5.531631947 3.329079151
170 2 17.793411255 5.531631947 7.767851353
171 2 17.793411255 5.531631947 12.206623077
172 2 17.793411255 5.531631947 16.645395279
173 2 16.424688339 7.902331352 3.329079151
174 2 16.424688339 7.902331352 7.767851353
175 2 16.424688339 7.902331352 12.206623077
176 2 16.424688339 7.902331352 16.645395279
177 2 15.055962563 10.273031235 3.329079151
178 2 15.055962563 10.273031235 7.767851353
179 2 15.055962563 10.273031235 12.206623077
180 2 15.055962563 10.273031235 16.645395279
181 2 13.687238693 12.64372921 3.329079151
182 2 13.687238693 12.64372921 7.767851353
183 2 13.687238693 12.64372921 12.206623077
184 2 13.687238693 12.64372921 16.645395279
185 2 12.31851387 15.014429092 3.329079151
186 2 12.31851387 15.014429092 7.767851353
187 2 12.31851387 15.014429092 12.206623077
188 2 12.31851387 15.014429092 16.645395279
189 2 10.949790001 17.385129929 3.329079151
190 2 10.949790001 17.385129929 7.767851353
191 2 10.949790001 17.385129929 12.206623077
192 2 10.949790001 17.385129929 16.645395279
193 2 9.581068993 0.790233076 3.329079151
194 2 9.581068993 0.790233076 7.767851353
195 2 9.581068993 0.790233076 12.206623077
196 2 9.581068993 0.790233076 16.645395279
197 2 8.212345123 3.160932302 3.329079151
198 2 8.212345123 3.160932302 7.767851353
199 2 8.212345123 3.160932302 12.206623077
200 2 8.212345123 3.160932302 16.645395279
201 2 6.8436203 5.531631947 3.329079151
202 2 6.8436203 5.531631947 7.767851353
203 2 6.8436203 5.531631947 12.206623077
204 2 6.8436203 5.531631947 16.645395279
205 2 5.474895954 7.902331352 3.329079151
206 2 5.474895954 7.902331352 7.767851353
207 2 5.474895954 7.902331352 12.206623077
208 2 5.474895954 7.902331352 16.645395279
209 2 4.106171131 10.273031235 3.329079151
210 2 4.106171131 10.273031235 7.767851353
211 2 4.106171131 10.273031235 12.206623077
212 2 4.106171131 10.273031235 16.645395279
213 2 2.737446785 12.64372921 3.329079151
214 2 2.737446785 12.64372921 7.767851353
215 2 2.737446785 12.64372921 12.206623077
216 2 2.737446785 12.64372921 16.645395279
217 2 1.368721962 15.014429092 3.329079151
218 2 1.368721962 15.014429092 7.767851353
219 2 1.368721962 15.014429092 12.206623077
220 2 1.368721962 15.014429092 16.645395279
221 2 0.0 17.385129929 3.329079151
222 2 0.0 17.385129929 7.767851353
223 2 0.0 17.385129929 12.206623077
224 2 0.0 17.385129929 16.645395279
225 2 23.268310547 0.790233076 3.329079151
226 2 23.268310547 0.790233076 7.767851353
227 2 23.268310547 0.790233076 12.206623077
228 2 23.268310547 0.790233076 16.645395279
229 2 21.899585724 3.160932302 3.329079151
230 2 21.899585724 3.160932302 7.767851353
231 2 21.899585724 3.160932302 12.206623077
232 2 21.899585724 3.160932302 16.645395279
233 2 20.530860901 5.531631947 3.329079151
234 2 20.530860901 5.531631947 7.767851353
235 2 20.530860901 5.531631947 12.206623077
236 2 20.530860901 5.531631947 16.645395279
237 2 19.162137985 7.902331352 3.329079151
238 2 19.162137985 7.902331352 7.767851353
239 2 19.162137985 7.902331352 12.206623077
240 2 19.162137985 7.902331352 16.645395279
241 2 17.793413162 10.273031235 3.329079151
242 2 17.793413162 10.273031235 7.767851353
243 2 17.793413162 10.273031235 12.206623077
244 2 17.793413162 10.273031235 16.645395279
245 2 16.424688339 12.64372921 3.329079151
246 2 16.424688339 12.64372921 7.767851353
247 2 16.424688339 12.64372921 12.206623077
248 2 16.424688339 12.64372921 16.645395279
249 2 15.055962563 15.014429092 3.329079151
250 2 15.055962563 15.014429092 7.767851353
251 2 15.055962563 15.014429092 12.206623077
252 2 15.055962563 15.014429092 16.645395279
253 2 13.687239647 17.385129929 3.329079151
254 2 13.687239647 17.385129929 7.767851353
255 2 13.687239647 17.385129929 12.206623077
256 2 13.687239647 17.385129929 16.645395279
257 3 12.318517685 0.790233076 3.329079151
258 3 12.318517685 0.790233076 7.767851353
259 3 12.318517685 0.790233076 12.206623077
260 3 12.318517685 0.790233076 16.645395279
261 3 10.949792862 3.160932302 3.329079151
262 3 10.949792862 3.160932302 7.767851353
263 3 10.949792862 3.160932302 12.206623077
264 3 10.949792862 3.160932302 16.645395279
265 3 9.581068993 5.531631947 3.329079151
266 3 9.581068993 5.531631947 7.767851353
267 3 9.581068993 5.531631947 12.206623077
268 3 9.581068993 5.531631947 16.645395279
269 3 8.212345123 7.902331352 3.329079151
270 3 8.212345123 7.902331352 7.767851353
271 3 8.212345123 7.902331352 12.206623077
272 3 8.212345123 7.902331352 16.645395279
273 3 6.843619823 10.273031235 3.329079151
274 3 6.843619823 10.273031235 7.767851353
275 3 6.843619823 10.273031235 12.206623077
276 3 6.843619823 10.273031235 16.645395279
277 3 5.474895477 12.64372921 3.329079151
278 3 5.474895477 12.64372921 7.767851353
279 3 5.474895477 12.64372921 12.206623077
280 3 5.474895477 12.64372921 16.645395279
281 3 4.106170654 15.014429092 3.329079151
282 3 4.106170654 15.014429092 7.767851353
283 3 4.106170654 15.014429092 12.206623077
284 3 4.106170654 15.014429092 16.645395279
285 3 2.737446785 17.385129929 3.329079151
286 3 2.737446785 17.385129929 7.767851353
287 3 2.737446785 17.385129929 12.206623077
288 3 2.737446785 17.385129929 16.645395279
289 3 26.005760193 0.790233076 3.329079151
290 3 26.005760193 0.790233076 7.767851353
291 3 26.005760193 0.790233076 12.206623077
292 3 26.005760193 0.790233076 16.645395279
293 3 24.63703537 3.160932302 3.329079151
294 3 24.63703537 3.160932302 7.767851353
295 3 24.63703537 3.160932302 12.206623077
296 3 24.63703537 3.160932302 16.645395279
297 3 23.268310547 5.531631947 3.329079151
298 3 23.268310547 5.531631947 7.767851353
299 3 23.268310547 5.531631947 12.206623077
300 3 23.268310547 5.531631947 16.645395279
301 3 21.899587631 7.902331352 3.329079151
302 3 21.899587631 7.902331352 7.767851353
303 3 21.899587631 7.902331352 12.206623077
304 3 21.899587631 7.902331352 16.645395279
305 3 20.530862808 10.273031235 3.329079151
306 3 20.530862808 10.273031235 7.767851353
307 3 20.530862808 10.273031235 12.206623077
308 3 20.530862808 10.273031235 16.645395279
309 3 19.162137985 12.64372921 3.329079151
310 3 19.162137985 12.64372921 7.767851353
311 3 19.162137985 12.64372921 12.206623077
312 3 19.162137985 12.64372921 16.645395279
313 3 17.793413162 15.014429092 3.329079151
314 3 17.793413162 15.014429092 7.767851353
315 3 17.793413162 15.014429092 12.206623077
316 3 17.793413162 15.014429092 16.645395279
317 3 16.424690247 17.385129929 3.329079151
318 3 16.424690247 17.385129929 7.767851353
319 3 16.424690247 17.385129929 12.206623077
320 3 16.424690247 17.385129929 16.645395279
321 3 0.0 1.580466151 1.10969305
322 3 0.0 1.580466151 5.548465252
323 3 0.0 1.580466151 9.98723793
324 3 0.0 1.580466151 14.426010132
325 3 26.005758286 3.951165915 1.10969305
326 3 26.005758286 3.951165915 5.548465252
327 3 26.005758286 3.951165915 9.98723793
328 3 26.005758286 3.951165915 14.426010132
329 3 24.637033463 6.321864605 1.10969305
330 3 24.637033463 6.321864605 5.548465252
331 3 24.637033463 6.321864605 9.98723793
332 3 24.637033463 6.321864605 14.426010132
333 3 23.268310547 8.692564964 1.10969305
334 3 23.268310547 8.692564964 5.548465252
335 3 23.268310547 8.692564964 9.98723793
336 3 23.268310547 8.692564964 14.426010132
337 3 21.899585724 11.063263893 1.10969305
338 3 21.899585724 11.063263893 5.548465252
339 3 21.899585724 11.063263893 9.98723793
340 3 21.899585724 11.063263893 14.426010132
341 3 20.530860901 13.433961868 1.10969305
342 3 20.530860901 13.433961868 5.548465252
343 3 20.530860901 13.433961868 9.98723793
344 3 20.530860901 13.433961868 14.426010132
345 3 19.162136078 15.804662704 1.10969305
346 3 19.162136078 15.804662704 5.548465252
347 3 19.162136078 15.804662704 9.98723793
348 3 19.162136078 15.804662704 14.426010132
349 3 17.793413162 18.175359726 1.10969305
350 3 17.793413162 18.175359726 5.548465252
351 3 17.793413162 18.175359726 9.98723793
352 3 17.793413162 18.175359726 14.426010132
353 3 13.687241554 1.580466151 1.10969305
354 3 13.687241554 1.580466151 5.548465252
355 3 13.687241554 1.580466151 9.98723793
356 3 13.687241554 1.580466151 14.426010132
357 3 12.318517685 3.951165915 1.10969305
358 3 12.318517685 3.951165915 5.548465252
359 3 12.318517685 3.951165915 9.98723793
360 3 12.318517685 3.951165915 14.426010132
361 3 10.949792862 6.321864605 1.10969305
362 3 10.949792862 6.321864605 5.548465252
363 3 10.949792862 6.321864605 9.98723793
364 3 10.949792862 6.321864605 14.426010132
365 3 9.581068039 8.692564964 1.10969305
366 3 9.581068039 8.692564964 5.548465252
367 3 9.581068039 8.692564964 9.98723793
368 3 9.581068039 8.692564964 14.426010132
369 3 8.21234417 11.063263893 1.10969305
370 3 8.21234417 11.063263893 5.548465252
371 3 8.21234417 11.063263893 9.98723793
372 3 8.21234417 11.063263893 14.426010132
373 3 6.843619823 13.433961868 1.10969305
374 3 6.843619823 13.433961868 5.548465252
375 3 6.843619823 13.433961868 9.98723793
376 3 6.843619823 13.433961868 14.426010132
377 3 5.474895477 15.804662704 1.10969305
378 3 5.474895477 15.804662704 5.548465252
379 3 5.474895477 15.804662704 9.98723793
380 3 5.474895477 15.804662704 14.426010132
381 3 4.106170654 18.175359726 1.10969305
382 3 4.106170654 18.175359726 5.548465252
383 3 4.106170654 18.175359726 9.98723793
384 3 4.106170654 18.175359726 14.426010132
385 4 2.737448215 1.580466151 1.10969305
386 4 2.737448215 1.580466151 5.548465252
387 4 2.737448215 1.580466151 9.98723793
388 4 2.737448215 1.580466151 14.426010132
389 4 1.368723631 3.951165915 1.10969305
390 4 1.368723631 3.951165915 5.548465252
391 4 1.368723631 3.951165915 9.98723793
392 4 1.368723631 3.951165915 14.426010132
393 4 0.0 6.321864605 1.10969305
394 4 0.0 6.321864605 5.548465252
395 4 0.0 6.321864605 9.98723793
396 4 0.0 6.321864605 14.426010132
397 4 26.005758286 8.692564964 1.10969305
398 4 26.005758286 8.692564964 5.548465252
399 4 26.005758286 8.692564964 9.98723793
400 4 26.005758286 8.692564964 14.426010132
401 4 24.637033463 11.063263893 1.10969305
402 4 24.637033463 11.063263893 5.548465252
403 4 24.637033463 11.063263893 9.98723793
404 4 24.637033463 11.063263893 14.426010132
405 4 23.268310547 13.433961868 1.10969305
406 4 23.268310547 13.433961868 5.548465252
407 4 23.268310547 13.433961868 9.98723793
408 4 23.268310547 13.433961868 14.426010132
409 4 21.899585724 15.804662704 1.10969305
410 4 21.899585724 15.804662704 5.548465252
411 4 21.899585724 15.804662704 9.98723793
412 4 21.899585724 15.804662704 14.426010132
413 4 20.530858994 18.175359726 1.10969305
414 4 20.530858994 18.175359726 5.548465252
415 4 20.530858994 18.175359726 9.98723793
416 4 20.530858994 18.175359726 14.426010132
417 4 16.424688339 1.580466151 1.10969305
418 4 16.424688339 1.580466151 5.548465252
419 4 16.424688339 1.580466151 9.98723793
420 4 16.424688339 1.580466151 14.426010132
421 4 15.055962563 3.951165915 1.10969305
422 4 15.055962563 3.951165915 5.548465252
423 4 15.055962563 3.951165915 9.98723793
424 4 15.055962563 3.951165915 14.426010132
425 4 13.687239647 6.321864605 1.10969305
426 4 13.687239647 6.321864605 5.548465252
427 4 13.687239647 6.321864605 9.98723793
428 4 13.687239647 6.321864605 14.426010132
429 4 12.318515778 8.692564964 1.10969305
430 4 12.318515778 8.692564964 5.548465252
431 4 12.318515778 8.692564964 9.98723793
432 4 12.318515778 8.692564964 14.426010132
433 4 10.949790955 11.063263893 1.10969305
434 4 10.949790955 11.063263893 5.548465252
435 4 10.949790955 11.063263893 9.98723793
436 4 10.949790955 11.063263893 14.426010132
437 4 9.581066132 13.433961868 1.10969305
438 4 9.581066132 13.433961868 5.548465252
439 4 9.581066132 13.433961868 9.98723793
440 4 9.581066132 13.433961868 14.426010132
441 4 8.212342262 15.804662704 1.10969305
442 4 8.212342262 15.804662704 5.548465252
443 4 8.212342262 15.804662704 9.98723793
444 4 8.212342262 15.804662704 14.426010132
445 4 6.843617439 18.175359726 1.10969305
446 4 6.843617439 18.175359726 5.548465252
447 4 6.843617439 18.175359726 9.98723793
448 4 6.843617439 18.175359726 14.426010132
449 4 5.474896431 1.580466151 1.10969305
450 4 5.474896431 1.580466151 5.548465252
451 4 5.474896431 1.580466151 9.98723793
452 4 5.474896431 1.580466151 14.426010132
453 4 4.106172085 3.951165915 1.10969305
454 4 4.106172085 3.951165915 5.548465252
455 4 4.106172085 3.951165915 9.98723793
456 4 4.106172085 3.951165915 14.426010132
457 4 2.737447739 6.321864605 1.10969305
458 4 2.737447739 6.321864605 5.548465252
459 4 2.737447739 6.321864605 9.98723793
460 4 2.737447739 6.321864605 14.426010132
461 4 1.368723392 8.692564964 1.10969305
462 4 1.368723392 8.692564964 5.548465252
463 4 1.368723392 8.692564964 9.98723793
464 4 1.368723392 8.692564964 14.426010132
465 4 0.0 11.063263893 1.10969305
466 4 0.0 11.063263893 5.548465252
467 4 0.0 11.063263893 9.98723793
468 4 0.0 11.063263893 14.426010132
469 4 26.005756378 13.433961868 1.10969305
470 4 26.005756378 13.433961868 5.548465252
471 4 26.005756378 13.433961868 9.98723793
472 4 26.005756378 13.433961868 14.426010132
473 4 24.637033463 15.804662704 1.10969305
474 4 24.637033463 15.804662704 5.548465252
475 4 24.637033463 15.804662704 9.98723793
476 4 24.637033463 15.804662704 14.426010132
477 4 23.26830864 18.175359726 1.10969305
478 4 23.26830864 18.175359726 5.548465252
479 4 23.26830864 18.175359726 9.98723793
480 4 23.26830864 18.175359726 14.426010132
481 4 19.162137985 1.580466151 1.10969305
482 4 19.162137985 1.580466151 5.548465252
483 4 19.162137985 1.580466151 9.98723793
484 4 19.162137985 1.580466151 14.426010132
485 4 17.793413162 3.951165915 1.10969305
486 4 17.793413162 3.951165915 5.548465252
487 4 17.793413162 3.951165915 9.98723793
488 4 17.793413162 3.951165915 14.426010132
489 4 16.424690247 6.321864605 1.10969305
490 4 16.424690247 6.321864605 5.548465252
491 4 16.424690247 6.321864605 9.98723793
492 4 16.424690247 6.321864605 14.426010132
493 4 15.055966377 8.692564964 1.10969305
494 4 15.055966377 8.692564964 5.548465252
495 4 15.055966377 8.692564964 9.98723793
496 4 15.055966377 8.692564964 14.426010132
497 4 13.687240601 11.063263893 1.10969305
498 4 13.687240601 11.063263893 5.548465252
499 4 13.687240601 11.063263893 9.98723793
500 4 13.687240601 11.063263893 14.426010132
501 4 12.318515778 13.433961868 1.10969305
502 4 12.318515778 13.433961868 5.548465252
503 4 12.318515778 13.433961868 9.98723793
504 4 12.318515778 13.433961868 14.426010132
505 4 10.949791908 15.804662704 1.10969305
506 4 10.949791908 15.804662704 5.548465252
507 4 10.949791908 15.804662704 9.98723793
508 4 10.949791908 15.804662704 14.426010132
509 4 9.581067085 18.175359726 1.10969305
510 4 9.581067085 18.175359726 5.548465252
511 4 9.581067085 18.175359726 9.98723793
512 4 9.581067085 18.175359726 14.426010132
513 5 8.212345123 1.580466151 1.10969305
514 5 8.212345123 1.580466151 5.548465252
515 5 8.212345123 1.580466151 9.98723793
516 5 8.212345123 1.580466151 14.426010132
517 5 6.843620777 3.951165915 1.10969305
518 5 6.843620777 3.951165915 5.548465252
519 5 6.843620777 3.951165915 9.98723793
520 5 6.843620777 3.951165915 14.426010132
521 5 5.474896431 6.321864605 1.10969305
522 5 5.474896431 6.321864605 5.548465252
523 5 5.474896431 6.321864605 9.98723793
524 5 5.474896431 6.321864605 14.426010132
525 5 4.106172085 8.692564964 1.10969305
526 5 4.106172085 8.692564964 5.548465252
527 5 4.106172085 8.692564964 9.98723793
528 5 4.106172085 8.692564964 14.426010132
529 5 2.737447739 11.063263893 1.10969305
530 5 2.737447739 11.063263893 5.548465252
531 5 2.737447739 11.063263893 9.98723793
532 5 2.737447739 11.063263893 14.426010132
533 5 1.368723392 13.433961868 1.10969305
534 5 1.368723392 13.433961868 5.548465252
535 5 1.368723392 13.433961868 9.98723793
536 5 1.368723392 13.433961868 14.426010132
537 5 0.0 15.804662704 1.10969305
538 5 0.0 15.804662704 5.548465252
539 5 0.0 15.804662704 9.98723793
540 5 0.0 15.804662704 14.426010132
541 5 26.005756378 18.175359726 1.10969305
542 5 26.005756378 18.175359726 5.548465252
543 5 26.005756378 18.175359726 9.98723793
544 5 26.005756378 18.175359726 14.426010132
545 5 21.899587631 1.580466151 1.10969305
546 5 21.899587631 1.580466151 5.548465252
547 5 21.899587631 1.580466151 9.98723793
548 5 21.899587631 1.580466151 14.426010132
549 5 20.530862808 3.951165915 1.10969305
550 5 20.530862808 3.951165915 5.548465252
551 5 20.530862808 3.951165915 9.98723793
552 5 20.530862808 3.951165915 14.426010132
553 5 19.162139893 6.321864605 1.10969305
554 5 19.162139893 6.321864605 5.548465252
555 5 19.162139893 6.321864605 9.98723793
556 5 19.162139893 6.321864605 14.426010132
557 5 17.79341507 8.692564964 1.10969305
558 5 17.79341507 8.692564964 5.548465252
559 5 17.79341507 8.692564964 9.98723793
560 5 17.79341507 8.692564964 14.426010132
561 5 16.424690247 11.063263893 1.10969305
562 5 16.424690247 11.063263893 5.548465252
563 5 16.424690247 11.063263893 9.98723793
564 5 16.424690247 11.063263893 14.426010132
565 5 15.055966377 13.433961868 1.10969305
566 5 15.055966377 13.433961868 5.548465252
567 5 15.055966377 13.433961868 9.98723793
568 5 15.055966377 13.433961868 14.426010132
569 5 13.687241554 15.804662704 1.10969305
570 5 13.687241554 15.804662704 5.548465252
571 5 13.687241554 15.804662704 9.98723793
572 5 13.687241554 15.804662704 14.426010132
573 5 12.318516731 18.175359726 1.10969305
574 5 12.318516731 18.175359726 5.548465252
575 5 12.318516731 18.175359726 9.98723793
576 5 12.318516731 18.175359726 14.426010132
577 5 10.949791908 1.580466151 1.10969305
578 5 10.949791908 1.580466151 5.548465252
579 5 10.949791908 1.580466151 9.98723793
580 5 10.949791908 1.580466151 14.426010132
581 5 9.581068039 3.951165915 1.10969305
582 5 9.581068039 3.951165915 5.548465252
583 5 9.581068039 3.951165915 9.98723793
584 5 9.581068039 3.951165915 14.426010132
585 5 8.212343216 6.321864605 1.10969305
586 5 8.212343216 6.321864605 5.548465252
587 5 8.212343216 6.321864605 9.98723793
588 5 8.212343216 6.321864605 14.426010132
589 5 6.84361887 8.692564964 1.10969305
590 5 6.84361887 8.692564964 5.548465252
591 5 6.84361887 8.692564964 9.98723793
592 5 6.84361887 8.692564964 14.426010132
593 5 5.474894524 11.063263893 1.10969305
594 5 5.474894524 11.063263893 5.548465252
595 5 5.474894524 11.063263893 9.98723793
596 5 5.474894524 11.063263893 14.426010132
597 5 4.106170177 13.433961868 1.10969305
598 5 4.106170177 13.433961868 5.548465252
599 5 4.106170177 13.433961868 9.98723793
600 5 4.106170177 13.433961868 14.426010132
601 5 2.737445831 15.804662704 1.10969305
602 5 2.737445831 15.804662704 5.548465252
603 5 2.737445831 15.804662704 9.98723793
604 5 2.737445831 15.804662704 14.426010132
605 5 1.368721008 18.175359726 1.10969305
606 5 1.368721008 18.175359726 5.548465252
607 5 1.368721008 18.175359726 9.98723793
608 5 1.368721008 18.175359726 14.426010132
609 5 24.637033463 1.580466151 1.10969305
610 5 24.637033463 1.580466151 5.548465252
611 5 24.637033463 1.580466151 9.98723793
612 5 24.637033463 1.580466151 14.426010132
613 5 23.26830864 3.951165915 1.10969305
614 5 23.26830864 3.951165915 5.548465252
615 5 23.26830864 3.951165915 9.98723793
616 5 23.26830864 3.951165915 14.426010132
617 5 21.899585724 6.321864605 1.10969305
618 5 21.899585724 6.321864605 5.548465252
619 5 21.899585724 6.321864605 9.98723793
620 5 21.899585724 6.321864605 14.426010132
621 5 20.530860901 8.692564964 1.10969305
622 5 20.530860901 8.692564964 5.548465252
623 5 20.530860901 8.692564964 9.98723793
624 5 20.530860901 8.692564964 14.426010132
625 5 19.162136078 11.063263893 1.10969305
626 5 19.162136078 11.063263893 5.548465252
627 5 19.162136078 11.063263893 9.98723793
628 5 19.162136078 11.063263893 14.426010132
629 5 17.793411255 13.433961868 1.10969305
630 5 17.793411255 13.433961868 5.548465252
631 5 17.793411255 13.433961868 9.98723793
632 5 17.793411255 13.433961868 14.426010132
633 5 16.424686432 15.804662704 1.10969305
634 5 16.424686432 15.804662704 5.548465252
635 5 16.424686432 15.804662704 9.98723793
636 5 16.424686432 15.804662704 14.426010132
637 5 15.055962563 18.175359726 1.10969305
638 5 15.055962563 18.175359726 5.548465252
639 5 15.055962563 18.175359726 9.98723793
640 5 15.055962563 18.175359726 14.426010132
