# LAMMPS data file written by Ovito Basic 3.0.0-dev791
512 atoms
4 atom types
0.0 21.8995857239 xlo xhi
0.0 18.9655971527 ylo yhi
0.0 17.7550888062 zlo zhi

Atoms  # atomic

1 1 1.368724108 0.790233254 3.329079151
2 1 1.368724108 0.790233254 7.767851353
3 1 1.368724108 0.790233254 12.206623077
4 1 1.368724108 0.790233254 16.645395279
5 1 0.0 3.160933018 3.329079151
6 1 0.0 3.160933018 7.767851353
7 1 0.0 3.160933018 12.206623077
8 1 0.0 3.160933018 16.645395279
9 1 20.530860901 5.531632423 3.329079151
10 1 20.530860901 5.531632423 7.767851353
11 1 20.530860901 5.531632423 12.206623077
12 1 20.530860901 5.531632423 16.645395279
13 1 19.162137985 7.902331352 3.329079151
14 1 19.162137985 7.902331352 7.767851353
15 1 19.162137985 7.902331352 12.206623077
16 1 19.162137985 7.902331352 16.645395279
17 1 17.793413162 10.273032188 3.329079151
18 1 17.793413162 10.273032188 7.767851353
19 1 17.793413162 10.273032188 12.206623077
20 1 17.793413162 10.273032188 16.645395279
21 1 16.424690247 12.643732071 3.329079151
22 1 16.424690247 12.643732071 7.767851353
23 1 16.424690247 12.643732071 12.206623077
24 1 16.424690247 12.643732071 16.645395279
25 1 15.055965424 15.014430046 3.329079151
26 1 15.055965424 15.014430046 7.767851353
27 1 15.055965424 15.014430046 12.206623077
28 1 15.055965424 15.014430046 16.645395279
29 1 13.687240601 17.385131836 3.329079151
30 1 13.687240601 17.385131836 7.767851353
31 1 13.687240601 17.385131836 12.206623077
32 1 13.687240601 17.385131836 16.645395279
33 1 12.318516731 0.790233254 3.329079151
34 1 12.318516731 0.790233254 7.767851353
35 1 12.318516731 0.790233254 12.206623077
36 1 12.318516731 0.790233254 16.645395279
37 1 10.949792862 3.160933018 3.329079151
38 1 10.949792862 3.160933018 7.767851353
39 1 10.949792862 3.160933018 12.206623077
40 1 10.949792862 3.160933018 16.645395279
41 1 9.581068993 5.531632423 3.329079151
42 1 9.581068993 5.531632423 7.767851353
43 1 9.581068993 5.531632423 12.206623077
44 1 9.581068993 5.531632423 16.645395279
45 1 8.212345123 7.902331352 3.329079151
46 1 8.212345123 7.902331352 7.767851353
47 1 8.212345123 7.902331352 12.206623077
48 1 8.212345123 7.902331352 16.645395279
49 1 6.8436203 10.273032188 3.329079151
50 1 6.8436203 10.273032188 7.767851353
51 1 6.8436203 10.273032188 12.206623077
52 1 6.8436203 10.273032188 16.645395279
53 1 5.474896431 12.643732071 3.329079151
54 1 5.474896431 12.643732071 7.767851353
55 1 5.474896431 12.643732071 12.206623077
56 1 5.474896431 12.643732071 16.645395279
57 1 4.106172562 15.014430046 3.329079151
58 1 4.106172562 15.014430046 7.767851353
59 1 4.106172562 15.014430046 12.206623077
60 1 4.106172562 15.014430046 16.645395279
61 1 2.737447739 17.385131836 3.329079151
62 1 2.737447739 17.385131836 7.767851353
63 1 2.737447739 17.385131836 12.206623077
64 1 2.737447739 17.385131836 16.645395279
65 1 4.106172562 0.790233254 3.329079151
66 1 4.106172562 0.790233254 7.767851353
67 1 4.106172562 0.790233254 12.206623077
68 1 4.106172562 0.790233254 16.645395279
69 1 2.737448215 3.160933018 3.329079151
70 1 2.737448215 3.160933018 7.767851353
71 1 2.737448215 3.160933018 12.206623077
72 1 2.737448215 3.160933018 16.645395279
73 1 1.368724108 5.531632423 3.329079151
74 1 1.368724108 5.531632423 7.767851353
75 1 1.368724108 5.531632423 12.206623077
76 1 1.368724108 5.531632423 16.645395279
77 1 0.0 7.902331352 3.329079151
78 1 0.0 7.902331352 7.767851353
79 1 0.0 7.902331352 12.206623077
80 1 0.0 7.902331352 16.645395279
81 1 20.530860901 10.273032188 3.329079151
82 1 20.530860901 10.273032188 7.767851353
83 1 20.530860901 10.273032188 12.206623077
84 1 20.530860901 10.273032188 16.645395279
85 1 19.162137985 12.643732071 3.329079151
86 1 19.162137985 12.643732071 7.767851353
87 1 19.162137985 12.643732071 12.206623077
88 1 19.162137985 12.643732071 16.645395279
89 1 17.793413162 15.014430046 3.329079151
90 1 17.793413162 15.014430046 7.767851353
91 1 17.793413162 15.014430046 12.206623077
92 1 17.793413162 15.014430046 16.645395279
93 1 16.424690247 17.385131836 3.329079151
94 1 16.424690247 17.385131836 7.767851353
95 1 16.424690247 17.385131836 12.206623077
96 1 16.424690247 17.385131836 16.645395279
97 1 15.055965424 0.790233254 3.329079151
98 1 15.055965424 0.790233254 7.767851353
99 1 15.055965424 0.790233254 12.206623077
100 1 15.055965424 0.790233254 16.645395279
101 1 13.687240601 3.160933018 3.329079151
102 1 13.687240601 3.160933018 7.767851353
103 1 13.687240601 3.160933018 12.206623077
104 1 13.687240601 3.160933018 16.645395279
105 1 12.318518639 5.531632423 3.329079151
106 1 12.318518639 5.531632423 7.767851353
107 1 12.318518639 5.531632423 12.206623077
108 1 12.318518639 5.531632423 16.645395279
109 1 10.949792862 7.902331352 3.329079151
110 1 10.949792862 7.902331352 7.767851353
111 1 10.949792862 7.902331352 12.206623077
112 1 10.949792862 7.902331352 16.645395279
113 1 9.581068993 10.273032188 3.329079151
114 1 9.581068993 10.273032188 7.767851353
115 1 9.581068993 10.273032188 12.206623077
116 1 9.581068993 10.273032188 16.645395279
117 1 8.212345123 12.643732071 3.329079151
118 1 8.212345123 12.643732071 7.767851353
119 1 8.212345123 12.643732071 12.206623077
120 1 8.212345123 12.643732071 16.645395279
121 1 6.843621254 15.014430046 3.329079151
122 1 6.843621254 15.014430046 7.767851353
123 1 6.843621254 15.014430046 12.206623077
124 1 6.843621254 15.014430046 16.645395279
125 1 5.474896431 17.385131836 3.329079151
126 1 5.474896431 17.385131836 7.767851353
127 1 5.474896431 17.385131836 12.206623077
128 1 5.474896431 17.385131836 16.645395279
129 2 6.8436203 0.790233254 3.329079151
130 2 6.8436203 0.790233254 7.767851353
131 2 6.8436203 0.790233254 12.206623077
132 2 6.8436203 0.790233254 16.645395279
133 2 5.474895954 3.160933018 3.329079151
134 2 5.474895954 3.160933018 7.767851353
135 2 5.474895954 3.160933018 12.206623077
136 2 5.474895954 3.160933018 16.645395279
137 2 4.106171608 5.531632423 3.329079151
138 2 4.106171608 5.531632423 7.767851353
139 2 4.106171608 5.531632423 12.206623077
140 2 4.106171608 5.531632423 16.645395279
141 2 2.737447739 7.902331352 3.329079151
142 2 2.737447739 7.902331352 7.767851353
143 2 2.737447739 7.902331352 12.206623077
144 2 2.737447739 7.902331352 16.645395279
145 2 1.368723392 10.273032188 3.329079151
146 2 1.368723392 10.273032188 7.767851353
147 2 1.368723392 10.273032188 12.206623077
148 2 1.368723392 10.273032188 16.645395279
149 2 0.0 12.643732071 3.329079151
150 2 0.0 12.643732071 7.767851353
151 2 0.0 12.643732071 12.206623077
152 2 0.0 12.643732071 16.645395279
153 2 20.530860901 15.014430046 3.329079151
154 2 20.530860901 15.014430046 7.767851353
155 2 20.530860901 15.014430046 12.206623077
156 2 20.530860901 15.014430046 16.645395279
157 2 19.162136078 17.385131836 3.329079151
158 2 19.162136078 17.385131836 7.767851353
159 2 19.162136078 17.385131836 12.206623077
160 2 19.162136078 17.385131836 16.645395279
161 2 17.793413162 0.790233254 3.329079151
162 2 17.793413162 0.790233254 7.767851353
163 2 17.793413162 0.790233254 12.206623077
164 2 17.793413162 0.790233254 16.645395279
165 2 16.424690247 3.160933018 3.329079151
166 2 16.424690247 3.160933018 7.767851353
167 2 16.424690247 3.160933018 12.206623077
168 2 16.424690247 3.160933018 16.645395279
169 2 15.055965424 5.531632423 3.329079151
170 2 15.055965424 5.531632423 7.767851353
171 2 15.055965424 5.531632423 12.206623077
172 2 15.055965424 5.531632423 16.645395279
173 2 13.687240601 7.902331352 3.329079151
174 2 13.687240601 7.902331352 7.767851353
175 2 13.687240601 7.902331352 12.206623077
176 2 13.687240601 7.902331352 16.645395279
177 2 12.318516731 10.273032188 3.329079151
178 2 12.318516731 10.273032188 7.767851353
179 2 12.318516731 10.273032188 12.206623077
180 2 12.318516731 10.273032188 16.645395279
181 2 10.949792862 12.643732071 3.329079151
182 2 10.949792862 12.643732071 7.767851353
183 2 10.949792862 12.643732071 12.206623077
184 2 10.949792862 12.643732071 16.645395279
185 2 9.581068993 15.014430046 3.329079151
186 2 9.581068993 15.014430046 7.767851353
187 2 9.581068993 15.014430046 12.206623077
188 2 9.581068993 15.014430046 16.645395279
189 2 8.21234417 17.385131836 3.329079151
190 2 8.21234417 17.385131836 7.767851353
191 2 8.21234417 17.385131836 12.206623077
192 2 8.21234417 17.385131836 16.645395279
193 2 9.581068993 0.790233254 3.329079151
194 2 9.581068993 0.790233254 7.767851353
195 2 9.581068993 0.790233254 12.206623077
196 2 9.581068993 0.790233254 16.645395279
197 2 8.212345123 3.160933018 3.329079151
198 2 8.212345123 3.160933018 7.767851353
199 2 8.212345123 3.160933018 12.206623077
200 2 8.212345123 3.160933018 16.645395279
201 2 6.843621254 5.531632423 3.329079151
202 2 6.843621254 5.531632423 7.767851353
203 2 6.843621254 5.531632423 12.206623077
204 2 6.843621254 5.531632423 16.645395279
205 2 5.474896908 7.902331352 3.329079151
206 2 5.474896908 7.902331352 7.767851353
207 2 5.474896908 7.902331352 12.206623077
208 2 5.474896908 7.902331352 16.645395279
209 2 4.106172562 10.273032188 3.329079151
210 2 4.106172562 10.273032188 7.767851353
211 2 4.106172562 10.273032188 12.206623077
212 2 4.106172562 10.273032188 16.645395279
213 2 2.737448454 12.643732071 3.329079151
214 2 2.737448454 12.643732071 7.767851353
215 2 2.737448454 12.643732071 12.206623077
216 2 2.737448454 12.643732071 16.645395279
217 2 1.368724704 15.014430046 3.329079151
218 2 1.368724704 15.014430046 7.767851353
219 2 1.368724704 15.014430046 12.206623077
220 2 1.368724704 15.014430046 16.645395279
221 2 0.0 17.385131836 3.329079151
222 2 0.0 17.385131836 7.767851353
223 2 0.0 17.385131836 12.206623077
224 2 0.0 17.385131836 16.645395279
225 2 20.530862808 0.790233254 3.329079151
226 2 20.530862808 0.790233254 7.767851353
227 2 20.530862808 0.790233254 12.206623077
228 2 20.530862808 0.790233254 16.645395279
229 2 19.162139893 3.160933018 3.329079151
230 2 19.162139893 3.160933018 7.767851353
231 2 19.162139893 3.160933018 12.206623077
232 2 19.162139893 3.160933018 16.645395279
233 2 17.79341507 5.531632423 3.329079151
234 2 17.79341507 5.531632423 7.767851353
235 2 17.79341507 5.531632423 12.206623077
236 2 17.79341507 5.531632423 16.645395279
237 2 16.424690247 7.902331352 3.329079151
238 2 16.424690247 7.902331352 7.767851353
239 2 16.424690247 7.902331352 12.206623077
240 2 16.424690247 7.902331352 16.645395279
241 2 15.055966377 10.273032188 3.329079151
242 2 15.055966377 10.273032188 7.767851353
243 2 15.055966377 10.273032188 12.206623077
244 2 15.055966377 10.273032188 16.645395279
245 2 13.687242508 12.643732071 3.329079151
246 2 13.687242508 12.643732071 7.767851353
247 2 13.687242508 12.643732071 12.206623077
248 2 13.687242508 12.643732071 16.645395279
249 2 12.318518639 15.014430046 3.329079151
250 2 12.318518639 15.014430046 7.767851353
251 2 12.318518639 15.014430046 12.206623077
252 2 12.318518639 15.014430046 16.645395279
253 2 10.949793816 17.385131836 3.329079151
254 2 10.949793816 17.385131836 7.767851353
255 2 10.949793816 17.385131836 12.206623077
256 2 10.949793816 17.385131836 16.645395279
257 3 0.0 1.580466509 1.10969305
258 3 0.0 1.580466509 5.548465252
259 3 0.0 1.580466509 9.98723793
260 3 0.0 1.580466509 14.426010132
261 3 20.530860901 3.951165915 1.10969305
262 3 20.530860901 3.951165915 5.548465252
263 3 20.530860901 3.951165915 9.98723793
264 3 20.530860901 3.951165915 14.426010132
265 3 19.162137985 6.321866035 1.10969305
266 3 19.162137985 6.321866035 5.548465252
267 3 19.162137985 6.321866035 9.98723793
268 3 19.162137985 6.321866035 14.426010132
269 3 17.793413162 8.692565918 1.10969305
270 3 17.793413162 8.692565918 5.548465252
271 3 17.793413162 8.692565918 9.98723793
272 3 17.793413162 8.692565918 14.426010132
273 3 16.424690247 11.063264847 1.10969305
274 3 16.424690247 11.063264847 5.548465252
275 3 16.424690247 11.063264847 9.98723793
276 3 16.424690247 11.063264847 14.426010132
277 3 15.055965424 13.433964729 1.10969305
278 3 15.055965424 13.433964729 5.548465252
279 3 15.055965424 13.433964729 9.98723793
280 3 15.055965424 13.433964729 14.426010132
281 3 13.687240601 15.804662704 1.10969305
282 3 13.687240601 15.804662704 5.548465252
283 3 13.687240601 15.804662704 9.98723793
284 3 13.687240601 15.804662704 14.426010132
285 3 12.318516731 18.175363541 1.10969305
286 3 12.318516731 18.175363541 5.548465252
287 3 12.318516731 18.175363541 9.98723793
288 3 12.318516731 18.175363541 14.426010132
289 3 10.949792862 1.580466509 1.10969305
290 3 10.949792862 1.580466509 5.548465252
291 3 10.949792862 1.580466509 9.98723793
292 3 10.949792862 1.580466509 14.426010132
293 3 9.581068993 3.951165915 1.10969305
294 3 9.581068993 3.951165915 5.548465252
295 3 9.581068993 3.951165915 9.98723793
296 3 9.581068993 3.951165915 14.426010132
297 3 8.212345123 6.321866035 1.10969305
298 3 8.212345123 6.321866035 5.548465252
299 3 8.212345123 6.321866035 9.98723793
300 3 8.212345123 6.321866035 14.426010132
301 3 6.8436203 8.692565918 1.10969305
302 3 6.8436203 8.692565918 5.548465252
303 3 6.8436203 8.692565918 9.98723793
304 3 6.8436203 8.692565918 14.426010132
305 3 5.474896908 11.063264847 1.10969305
306 3 5.474896908 11.063264847 5.548465252
307 3 5.474896908 11.063264847 9.98723793
308 3 5.474896908 11.063264847 14.426010132
309 3 4.106173038 13.433964729 1.10969305
310 3 4.106173038 13.433964729 5.548465252
311 3 4.106173038 13.433964729 9.98723793
312 3 4.106173038 13.433964729 14.426010132
313 3 2.737448454 15.804662704 1.10969305
314 3 2.737448454 15.804662704 5.548465252
315 3 2.737448454 15.804662704 9.98723793
316 3 2.737448454 15.804662704 14.426010132
317 3 1.368724704 18.175363541 1.10969305
318 3 1.368724704 18.175363541 5.548465252
319 3 1.368724704 18.175363541 9.98723793
320 3 1.368724704 18.175363541 14.426010132
321 3 2.737448215 1.580466509 1.10969305
322 3 2.737448215 1.580466509 5.548465252
323 3 2.737448215 1.580466509 9.98723793
324 3 2.737448215 1.580466509 14.426010132
325 3 1.368724108 3.951165915 1.10969305
326 3 1.368724108 3.951165915 5.548465252
327 3 1.368724108 3.951165915 9.98723793
328 3 1.368724108 3.951165915 14.426010132
329 3 0.0 6.321866035 1.10969305
330 3 0.0 6.321866035 5.548465252
331 3 0.0 6.321866035 9.98723793
332 3 0.0 6.321866035 14.426010132
333 3 20.530860901 8.692565918 1.10969305
334 3 20.530860901 8.692565918 5.548465252
335 3 20.530860901 8.692565918 9.98723793
336 3 20.530860901 8.692565918 14.426010132
337 3 19.162137985 11.063264847 1.10969305
338 3 19.162137985 11.063264847 5.548465252
339 3 19.162137985 11.063264847 9.98723793
340 3 19.162137985 11.063264847 14.426010132
341 3 17.793413162 13.433964729 1.10969305
342 3 17.793413162 13.433964729 5.548465252
343 3 17.793413162 13.433964729 9.98723793
344 3 17.793413162 13.433964729 14.426010132
345 3 16.424690247 15.804662704 1.10969305
346 3 16.424690247 15.804662704 5.548465252
347 3 16.424690247 15.804662704 9.98723793
348 3 16.424690247 15.804662704 14.426010132
349 3 15.055965424 18.175363541 1.10969305
350 3 15.055965424 18.175363541 5.548465252
351 3 15.055965424 18.175363541 9.98723793
352 3 15.055965424 18.175363541 14.426010132
353 3 13.687240601 1.580466509 1.10969305
354 3 13.687240601 1.580466509 5.548465252
355 3 13.687240601 1.580466509 9.98723793
356 3 13.687240601 1.580466509 14.426010132
357 3 12.318516731 3.951165915 1.10969305
358 3 12.318516731 3.951165915 5.548465252
359 3 12.318516731 3.951165915 9.98723793
360 3 12.318516731 3.951165915 14.426010132
361 3 10.949792862 6.321866035 1.10969305
362 3 10.949792862 6.321866035 5.548465252
363 3 10.949792862 6.321866035 9.98723793
364 3 10.949792862 6.321866035 14.426010132
365 3 9.581068039 8.692565918 1.10969305
366 3 9.581068039 8.692565918 5.548465252
367 3 9.581068039 8.692565918 9.98723793
368 3 9.581068039 8.692565918 14.426010132
369 3 8.212345123 11.063264847 1.10969305
370 3 8.212345123 11.063264847 5.548465252
371 3 8.212345123 11.063264847 9.98723793
372 3 8.212345123 11.063264847 14.426010132
373 3 6.8436203 13.433964729 1.10969305
374 3 6.8436203 13.433964729 5.548465252
375 3 6.8436203 13.433964729 9.98723793
376 3 6.8436203 13.433964729 14.426010132
377 3 5.474896431 15.804662704 1.10969305
378 3 5.474896431 15.804662704 5.548465252
379 3 5.474896431 15.804662704 9.98723793
380 3 5.474896431 15.804662704 14.426010132
381 3 4.106172562 18.175363541 1.10969305
382 3 4.106172562 18.175363541 5.548465252
383 3 4.106172562 18.175363541 9.98723793
384 3 4.106172562 18.175363541 14.426010132
385 4 5.474896431 1.580466509 1.10969305
386 4 5.474896431 1.580466509 5.548465252
387 4 5.474896431 1.580466509 9.98723793
388 4 5.474896431 1.580466509 14.426010132
389 4 4.106172562 3.951165915 1.10969305
390 4 4.106172562 3.951165915 5.548465252
391 4 4.106172562 3.951165915 9.98723793
392 4 4.106172562 3.951165915 14.426010132
393 4 2.737448215 6.321866035 1.10969305
394 4 2.737448215 6.321866035 5.548465252
395 4 2.737448215 6.321866035 9.98723793
396 4 2.737448215 6.321866035 14.426010132
397 4 1.368723869 8.692565918 1.10969305
398 4 1.368723869 8.692565918 5.548465252
399 4 1.368723869 8.692565918 9.98723793
400 4 1.368723869 8.692565918 14.426010132
401 4 0.0 11.063264847 1.10969305
402 4 0.0 11.063264847 5.548465252
403 4 0.0 11.063264847 9.98723793
404 4 0.0 11.063264847 14.426010132
405 4 20.530860901 13.433964729 1.10969305
406 4 20.530860901 13.433964729 5.548465252
407 4 20.530860901 13.433964729 9.98723793
408 4 20.530860901 13.433964729 14.426010132
409 4 19.162137985 15.804662704 1.10969305
410 4 19.162137985 15.804662704 5.548465252
411 4 19.162137985 15.804662704 9.98723793
412 4 19.162137985 15.804662704 14.426010132
413 4 17.793413162 18.175363541 1.10969305
414 4 17.793413162 18.175363541 5.548465252
415 4 17.793413162 18.175363541 9.98723793
416 4 17.793413162 18.175363541 14.426010132
417 4 16.424688339 1.580466509 1.10969305
418 4 16.424688339 1.580466509 5.548465252
419 4 16.424688339 1.580466509 9.98723793
420 4 16.424688339 1.580466509 14.426010132
421 4 15.055963516 3.951165915 1.10969305
422 4 15.055963516 3.951165915 5.548465252
423 4 15.055963516 3.951165915 9.98723793
424 4 15.055963516 3.951165915 14.426010132
425 4 13.687240601 6.321866035 1.10969305
426 4 13.687240601 6.321866035 5.548465252
427 4 13.687240601 6.321866035 9.98723793
428 4 13.687240601 6.321866035 14.426010132
429 4 12.318515778 8.692565918 1.10969305
430 4 12.318515778 8.692565918 5.548465252
431 4 12.318515778 8.692565918 9.98723793
432 4 12.318515778 8.692565918 14.426010132
433 4 10.949792862 11.063264847 1.10969305
434 4 10.949792862 11.063264847 5.548465252
435 4 10.949792862 11.063264847 9.98723793
436 4 10.949792862 11.063264847 14.426010132
437 4 9.581068039 13.433964729 1.10969305
438 4 9.581068039 13.433964729 5.548465252
439 4 9.581068039 13.433964729 9.98723793
440 4 9.581068039 13.433964729 14.426010132
441 4 8.21234417 15.804662704 1.10969305
442 4 8.21234417 15.804662704 5.548465252
443 4 8.21234417 15.804662704 9.98723793
444 4 8.21234417 15.804662704 14.426010132
445 4 6.8436203 18.175363541 1.10969305
446 4 6.8436203 18.175363541 5.548465252
447 4 6.8436203 18.175363541 9.98723793
448 4 6.8436203 18.175363541 14.426010132
449 4 8.212345123 1.580466509 1.10969305
450 4 8.212345123 1.580466509 5.548465252
451 4 8.212345123 1.580466509 9.98723793
452 4 8.212345123 1.580466509 14.426010132
453 4 6.8436203 3.951165915 1.10969305
454 4 6.8436203 3.951165915 5.548465252
455 4 6.8436203 3.951165915 9.98723793
456 4 6.8436203 3.951165915 14.426010132
457 4 5.474896431 6.321866035 1.10969305
458 4 5.474896431 6.321866035 5.548465252
459 4 5.474896431 6.321866035 9.98723793
460 4 5.474896431 6.321866035 14.426010132
461 4 4.106172085 8.692565918 1.10969305
462 4 4.106172085 8.692565918 5.548465252
463 4 4.106172085 8.692565918 9.98723793
464 4 4.106172085 8.692565918 14.426010132
465 4 2.737448215 11.063264847 1.10969305
466 4 2.737448215 11.063264847 5.548465252
467 4 2.737448215 11.063264847 9.98723793
468 4 2.737448215 11.063264847 14.426010132
469 4 1.368724227 13.433964729 1.10969305
470 4 1.368724227 13.433964729 5.548465252
471 4 1.368724227 13.433964729 9.98723793
472 4 1.368724227 13.433964729 14.426010132
473 4 0.0 15.804662704 1.10969305
474 4 0.0 15.804662704 5.548465252
475 4 0.0 15.804662704 9.98723793
476 4 0.0 15.804662704 14.426010132
477 4 20.530860901 18.175363541 1.10969305
478 4 20.530860901 18.175363541 5.548465252
479 4 20.530860901 18.175363541 9.98723793
480 4 20.530860901 18.175363541 14.426010132
481 4 19.162137985 1.580466509 1.10969305
482 4 19.162137985 1.580466509 5.548465252
483 4 19.162137985 1.580466509 9.98723793
484 4 19.162137985 1.580466509 14.426010132
485 4 17.79341507 3.951165915 1.10969305
486 4 17.79341507 3.951165915 5.548465252
487 4 17.79341507 3.951165915 9.98723793
488 4 17.79341507 3.951165915 14.426010132
489 4 16.424690247 6.321866035 1.10969305
490 4 16.424690247 6.321866035 5.548465252
491 4 16.424690247 6.321866035 9.98723793
492 4 16.424690247 6.321866035 14.426010132
493 4 15.055965424 8.692565918 1.10969305
494 4 15.055965424 8.692565918 5.548465252
495 4 15.055965424 8.692565918 9.98723793
496 4 15.055965424 8.692565918 14.426010132
497 4 13.687242508 11.063264847 1.10969305
498 4 13.687242508 11.063264847 5.548465252
499 4 13.687242508 11.063264847 9.98723793
500 4 13.687242508 11.063264847 14.426010132
501 4 12.318518639 13.433964729 1.10969305
502 4 12.318518639 13.433964729 5.548465252
503 4 12.318518639 13.433964729 9.98723793
504 4 12.318518639 13.433964729 14.426010132
505 4 10.949793816 15.804662704 1.10969305
506 4 10.949793816 15.804662704 5.548465252
507 4 10.949793816 15.804662704 9.98723793
508 4 10.949793816 15.804662704 14.426010132
509 4 9.581069946 18.175363541 1.10969305
510 4 9.581069946 18.175363541 5.548465252
511 4 9.581069946 18.175363541 9.98723793
512 4 9.581069946 18.175363541 14.426010132
