# LAMMPS data file written by Ovito Basic 3.0.0-dev791
384 atoms
3 atom types
0.0 16.4246902466 xlo xhi
0.0 18.9655971527 ylo yhi
0.0 17.7550888062 zlo zhi

Atoms  # atomic

1 1 1.368724227 0.790233254 3.329079151
2 1 1.368724227 0.790233254 7.767851353
3 1 1.368724227 0.790233254 12.206623077
4 1 1.368724227 0.790233254 16.645395279
5 1 0.0 3.160933018 3.329079151
6 1 0.0 3.160933018 7.767851353
7 1 0.0 3.160933018 12.206623077
8 1 0.0 3.160933018 16.645395279
9 1 15.055966377 5.531632423 3.329079151
10 1 15.055966377 5.531632423 7.767851353
11 1 15.055966377 5.531632423 12.206623077
12 1 15.055966377 5.531632423 16.645395279
13 1 13.687242508 7.902331352 3.329079151
14 1 13.687242508 7.902331352 7.767851353
15 1 13.687242508 7.902331352 12.206623077
16 1 13.687242508 7.902331352 16.645395279
17 1 12.318517685 10.273032188 3.329079151
18 1 12.318517685 10.273032188 7.767851353
19 1 12.318517685 10.273032188 12.206623077
20 1 12.318517685 10.273032188 16.645395279
21 1 10.949793816 12.643732071 3.329079151
22 1 10.949793816 12.643732071 7.767851353
23 1 10.949793816 12.643732071 12.206623077
24 1 10.949793816 12.643732071 16.645395279
25 1 9.581069946 15.014430046 3.329079151
26 1 9.581069946 15.014430046 7.767851353
27 1 9.581069946 15.014430046 12.206623077
28 1 9.581069946 15.014430046 16.645395279
29 1 8.212345123 17.385131836 3.329079151
30 1 8.212345123 17.385131836 7.767851353
31 1 8.212345123 17.385131836 12.206623077
32 1 8.212345123 17.385131836 16.645395279
33 1 9.581068993 0.790233254 3.329079151
34 1 9.581068993 0.790233254 7.767851353
35 1 9.581068993 0.790233254 12.206623077
36 1 9.581068993 0.790233254 16.645395279
37 1 8.212345123 3.160933018 3.329079151
38 1 8.212345123 3.160933018 7.767851353
39 1 8.212345123 3.160933018 12.206623077
40 1 8.212345123 3.160933018 16.645395279
41 1 6.843621254 5.531632423 3.329079151
42 1 6.843621254 5.531632423 7.767851353
43 1 6.843621254 5.531632423 12.206623077
44 1 6.843621254 5.531632423 16.645395279
45 1 5.474896908 7.902331352 3.329079151
46 1 5.474896908 7.902331352 7.767851353
47 1 5.474896908 7.902331352 12.206623077
48 1 5.474896908 7.902331352 16.645395279
49 1 4.106172562 10.273032188 3.329079151
50 1 4.106172562 10.273032188 7.767851353
51 1 4.106172562 10.273032188 12.206623077
52 1 4.106172562 10.273032188 16.645395279
53 1 2.737448692 12.643732071 3.329079151
54 1 2.737448692 12.643732071 7.767851353
55 1 2.737448692 12.643732071 12.206623077
56 1 2.737448692 12.643732071 16.645395279
57 1 1.368724823 15.014430046 3.329079151
58 1 1.368724823 15.014430046 7.767851353
59 1 1.368724823 15.014430046 12.206623077
60 1 1.368724823 15.014430046 16.645395279
61 1 0.0 17.385131836 3.329079151
62 1 0.0 17.385131836 7.767851353
63 1 0.0 17.385131836 12.206623077
64 1 0.0 17.385131836 16.645395279
65 1 4.106172562 0.790233254 3.329079151
66 1 4.106172562 0.790233254 7.767851353
67 1 4.106172562 0.790233254 12.206623077
68 1 4.106172562 0.790233254 16.645395279
69 1 2.737448692 3.160933018 3.329079151
70 1 2.737448692 3.160933018 7.767851353
71 1 2.737448692 3.160933018 12.206623077
72 1 2.737448692 3.160933018 16.645395279
73 1 1.368724585 5.531632423 3.329079151
74 1 1.368724585 5.531632423 7.767851353
75 1 1.368724585 5.531632423 12.206623077
76 1 1.368724585 5.531632423 16.645395279
77 1 0.0 7.902331352 3.329079151
78 1 0.0 7.902331352 7.767851353
79 1 0.0 7.902331352 12.206623077
80 1 0.0 7.902331352 16.645395279
81 1 15.055966377 10.273032188 3.329079151
82 1 15.055966377 10.273032188 7.767851353
83 1 15.055966377 10.273032188 12.206623077
84 1 15.055966377 10.273032188 16.645395279
85 1 13.687242508 12.643732071 3.329079151
86 1 13.687242508 12.643732071 7.767851353
87 1 13.687242508 12.643732071 12.206623077
88 1 13.687242508 12.643732071 16.645395279
89 1 12.318518639 15.014430046 3.329079151
90 1 12.318518639 15.014430046 7.767851353
91 1 12.318518639 15.014430046 12.206623077
92 1 12.318518639 15.014430046 16.645395279
93 1 10.949793816 17.385131836 3.329079151
94 1 10.949793816 17.385131836 7.767851353
95 1 10.949793816 17.385131836 12.206623077
96 1 10.949793816 17.385131836 16.645395279
97 1 12.318517685 0.790233254 3.329079151
98 1 12.318517685 0.790233254 7.767851353
99 1 12.318517685 0.790233254 12.206623077
100 1 12.318517685 0.790233254 16.645395279
101 1 10.949793816 3.160933018 3.329079151
102 1 10.949793816 3.160933018 7.767851353
103 1 10.949793816 3.160933018 12.206623077
104 1 10.949793816 3.160933018 16.645395279
105 1 9.581069946 5.531632423 3.329079151
106 1 9.581069946 5.531632423 7.767851353
107 1 9.581069946 5.531632423 12.206623077
108 1 9.581069946 5.531632423 16.645395279
109 1 8.212345123 7.902331352 3.329079151
110 1 8.212345123 7.902331352 7.767851353
111 1 8.212345123 7.902331352 12.206623077
112 1 8.212345123 7.902331352 16.645395279
113 1 6.843621254 10.273032188 3.329079151
114 1 6.843621254 10.273032188 7.767851353
115 1 6.843621254 10.273032188 12.206623077
116 1 6.843621254 10.273032188 16.645395279
117 1 5.474897385 12.643732071 3.329079151
118 1 5.474897385 12.643732071 7.767851353
119 1 5.474897385 12.643732071 12.206623077
120 1 5.474897385 12.643732071 16.645395279
121 1 4.106173515 15.014430046 3.329079151
122 1 4.106173515 15.014430046 7.767851353
123 1 4.106173515 15.014430046 12.206623077
124 1 4.106173515 15.014430046 16.645395279
125 1 2.737448692 17.385131836 3.329079151
126 1 2.737448692 17.385131836 7.767851353
127 1 2.737448692 17.385131836 12.206623077
128 1 2.737448692 17.385131836 16.645395279
129 2 6.843621254 0.790233254 3.329079151
130 2 6.843621254 0.790233254 7.767851353
131 2 6.843621254 0.790233254 12.206623077
132 2 6.843621254 0.790233254 16.645395279
133 2 5.474897385 3.160933018 3.329079151
134 2 5.474897385 3.160933018 7.767851353
135 2 5.474897385 3.160933018 12.206623077
136 2 5.474897385 3.160933018 16.645395279
137 2 4.106173515 5.531632423 3.329079151
138 2 4.106173515 5.531632423 7.767851353
139 2 4.106173515 5.531632423 12.206623077
140 2 4.106173515 5.531632423 16.645395279
141 2 2.737449169 7.902331352 3.329079151
142 2 2.737449169 7.902331352 7.767851353
143 2 2.737449169 7.902331352 12.206623077
144 2 2.737449169 7.902331352 16.645395279
145 2 1.368724823 10.273032188 3.329079151
146 2 1.368724823 10.273032188 7.767851353
147 2 1.368724823 10.273032188 12.206623077
148 2 1.368724823 10.273032188 16.645395279
149 2 0.0 12.643732071 3.329079151
150 2 0.0 12.643732071 7.767851353
151 2 0.0 12.643732071 12.206623077
152 2 0.0 12.643732071 16.645395279
153 2 15.055967331 15.014430046 3.329079151
154 2 15.055967331 15.014430046 7.767851353
155 2 15.055967331 15.014430046 12.206623077
156 2 15.055967331 15.014430046 16.645395279
157 2 13.687242508 17.385131836 3.329079151
158 2 13.687242508 17.385131836 7.767851353
159 2 13.687242508 17.385131836 12.206623077
160 2 13.687242508 17.385131836 16.645395279
161 2 15.055966377 0.790233254 3.329079151
162 2 15.055966377 0.790233254 7.767851353
163 2 15.055966377 0.790233254 12.206623077
164 2 15.055966377 0.790233254 16.645395279
165 2 13.687242508 3.160933018 3.329079151
166 2 13.687242508 3.160933018 7.767851353
167 2 13.687242508 3.160933018 12.206623077
168 2 13.687242508 3.160933018 16.645395279
169 2 12.318518639 5.531632423 3.329079151
170 2 12.318518639 5.531632423 7.767851353
171 2 12.318518639 5.531632423 12.206623077
172 2 12.318518639 5.531632423 16.645395279
173 2 10.949794769 7.902331352 3.329079151
174 2 10.949794769 7.902331352 7.767851353
175 2 10.949794769 7.902331352 12.206623077
176 2 10.949794769 7.902331352 16.645395279
177 2 9.581069946 10.273032188 3.329079151
178 2 9.581069946 10.273032188 7.767851353
179 2 9.581069946 10.273032188 12.206623077
180 2 9.581069946 10.273032188 16.645395279
181 2 8.212346077 12.643732071 3.329079151
182 2 8.212346077 12.643732071 7.767851353
183 2 8.212346077 12.643732071 12.206623077
184 2 8.212346077 12.643732071 16.645395279
185 2 6.843622208 15.014430046 3.329079151
186 2 6.843622208 15.014430046 7.767851353
187 2 6.843622208 15.014430046 12.206623077
188 2 6.843622208 15.014430046 16.645395279
189 2 5.474897385 17.385131836 3.329079151
190 2 5.474897385 17.385131836 7.767851353
191 2 5.474897385 17.385131836 12.206623077
192 2 5.474897385 17.385131836 16.645395279
193 2 0.0 1.580466509 1.10969305
194 2 0.0 1.580466509 5.548465252
195 2 0.0 1.580466509 9.98723793
196 2 0.0 1.580466509 14.426010132
197 2 15.055966377 3.951165915 1.10969305
198 2 15.055966377 3.951165915 5.548465252
199 2 15.055966377 3.951165915 9.98723793
200 2 15.055966377 3.951165915 14.426010132
201 2 13.687242508 6.321866035 1.10969305
202 2 13.687242508 6.321866035 5.548465252
203 2 13.687242508 6.321866035 9.98723793
204 2 13.687242508 6.321866035 14.426010132
205 2 12.318517685 8.692565918 1.10969305
206 2 12.318517685 8.692565918 5.548465252
207 2 12.318517685 8.692565918 9.98723793
208 2 12.318517685 8.692565918 14.426010132
209 2 10.949793816 11.063264847 1.10969305
210 2 10.949793816 11.063264847 5.548465252
211 2 10.949793816 11.063264847 9.98723793
212 2 10.949793816 11.063264847 14.426010132
213 2 9.581069946 13.433964729 1.10969305
214 2 9.581069946 13.433964729 5.548465252
215 2 9.581069946 13.433964729 9.98723793
216 2 9.581069946 13.433964729 14.426010132
217 2 8.212346077 15.804662704 1.10969305
218 2 8.212346077 15.804662704 5.548465252
219 2 8.212346077 15.804662704 9.98723793
220 2 8.212346077 15.804662704 14.426010132
221 2 6.843622208 18.175363541 1.10969305
222 2 6.843622208 18.175363541 5.548465252
223 2 6.843622208 18.175363541 9.98723793
224 2 6.843622208 18.175363541 14.426010132
225 2 8.212345123 1.580466509 1.10969305
226 2 8.212345123 1.580466509 5.548465252
227 2 8.212345123 1.580466509 9.98723793
228 2 8.212345123 1.580466509 14.426010132
229 2 6.843621254 3.951165915 1.10969305
230 2 6.843621254 3.951165915 5.548465252
231 2 6.843621254 3.951165915 9.98723793
232 2 6.843621254 3.951165915 14.426010132
233 2 5.474897385 6.321866035 1.10969305
234 2 5.474897385 6.321866035 5.548465252
235 2 5.474897385 6.321866035 9.98723793
236 2 5.474897385 6.321866035 14.426010132
237 2 4.106173038 8.692565918 1.10969305
238 2 4.106173038 8.692565918 5.548465252
239 2 4.106173038 8.692565918 9.98723793
240 2 4.106173038 8.692565918 14.426010132
241 2 2.737449169 11.063264847 1.10969305
242 2 2.737449169 11.063264847 5.548465252
243 2 2.737449169 11.063264847 9.98723793
244 2 2.737449169 11.063264847 14.426010132
245 2 1.3687253 13.433964729 1.10969305
246 2 1.3687253 13.433964729 5.548465252
247 2 1.3687253 13.433964729 9.98723793
248 2 1.3687253 13.433964729 14.426010132
249 2 0.0 15.804662704 1.10969305
250 2 0.0 15.804662704 5.548465252
251 2 0.0 15.804662704 9.98723793
252 2 0.0 15.804662704 14.426010132
253 2 15.055967331 18.175363541 1.10969305
254 2 15.055967331 18.175363541 5.548465252
255 2 15.055967331 18.175363541 9.98723793
256 2 15.055967331 18.175363541 14.426010132
257 3 2.737448454 1.580466509 1.10969305
258 3 2.737448454 1.580466509 5.548465252
259 3 2.737448454 1.580466509 9.98723793
260 3 2.737448454 1.580466509 14.426010132
261 3 1.368724346 3.951165915 1.10969305
262 3 1.368724346 3.951165915 5.548465252
263 3 1.368724346 3.951165915 9.98723793
264 3 1.368724346 3.951165915 14.426010132
265 3 0.0 6.321866035 1.10969305
266 3 0.0 6.321866035 5.548465252
267 3 0.0 6.321866035 9.98723793
268 3 0.0 6.321866035 14.426010132
269 3 15.055966377 8.692565918 1.10969305
270 3 15.055966377 8.692565918 5.548465252
271 3 15.055966377 8.692565918 9.98723793
272 3 15.055966377 8.692565918 14.426010132
273 3 13.687242508 11.063264847 1.10969305
274 3 13.687242508 11.063264847 5.548465252
275 3 13.687242508 11.063264847 9.98723793
276 3 13.687242508 11.063264847 14.426010132
277 3 12.318518639 13.433964729 1.10969305
278 3 12.318518639 13.433964729 5.548465252
279 3 12.318518639 13.433964729 9.98723793
280 3 12.318518639 13.433964729 14.426010132
281 3 10.949793816 15.804662704 1.10969305
282 3 10.949793816 15.804662704 5.548465252
283 3 10.949793816 15.804662704 9.98723793
284 3 10.949793816 15.804662704 14.426010132
285 3 9.581069946 18.175363541 1.10969305
286 3 9.581069946 18.175363541 5.548465252
287 3 9.581069946 18.175363541 9.98723793
288 3 9.581069946 18.175363541 14.426010132
289 3 10.949792862 1.580466509 1.10969305
290 3 10.949792862 1.580466509 5.548465252
291 3 10.949792862 1.580466509 9.98723793
292 3 10.949792862 1.580466509 14.426010132
293 3 9.581068993 3.951165915 1.10969305
294 3 9.581068993 3.951165915 5.548465252
295 3 9.581068993 3.951165915 9.98723793
296 3 9.581068993 3.951165915 14.426010132
297 3 8.212345123 6.321866035 1.10969305
298 3 8.212345123 6.321866035 5.548465252
299 3 8.212345123 6.321866035 9.98723793
300 3 8.212345123 6.321866035 14.426010132
301 3 6.843620777 8.692565918 1.10969305
302 3 6.843620777 8.692565918 5.548465252
303 3 6.843620777 8.692565918 9.98723793
304 3 6.843620777 8.692565918 14.426010132
305 3 5.474896908 11.063264847 1.10969305
306 3 5.474896908 11.063264847 5.548465252
307 3 5.474896908 11.063264847 9.98723793
308 3 5.474896908 11.063264847 14.426010132
309 3 4.106173038 13.433964729 1.10969305
310 3 4.106173038 13.433964729 5.548465252
311 3 4.106173038 13.433964729 9.98723793
312 3 4.106173038 13.433964729 14.426010132
313 3 2.737448692 15.804662704 1.10969305
314 3 2.737448692 15.804662704 5.548465252
315 3 2.737448692 15.804662704 9.98723793
316 3 2.737448692 15.804662704 14.426010132
317 3 1.368724823 18.175363541 1.10969305
318 3 1.368724823 18.175363541 5.548465252
319 3 1.368724823 18.175363541 9.98723793
320 3 1.368724823 18.175363541 14.426010132
321 3 5.474896908 1.580466509 1.10969305
322 3 5.474896908 1.580466509 5.548465252
323 3 5.474896908 1.580466509 9.98723793
324 3 5.474896908 1.580466509 14.426010132
325 3 4.106172562 3.951165915 1.10969305
326 3 4.106172562 3.951165915 5.548465252
327 3 4.106172562 3.951165915 9.98723793
328 3 4.106172562 3.951165915 14.426010132
329 3 2.737448692 6.321866035 1.10969305
330 3 2.737448692 6.321866035 5.548465252
331 3 2.737448692 6.321866035 9.98723793
332 3 2.737448692 6.321866035 14.426010132
333 3 1.368724346 8.692565918 1.10969305
334 3 1.368724346 8.692565918 5.548465252
335 3 1.368724346 8.692565918 9.98723793
336 3 1.368724346 8.692565918 14.426010132
337 3 0.0 11.063264847 1.10969305
338 3 0.0 11.063264847 5.548465252
339 3 0.0 11.063264847 9.98723793
340 3 0.0 11.063264847 14.426010132
341 3 15.055967331 13.433964729 1.10969305
342 3 15.055967331 13.433964729 5.548465252
343 3 15.055967331 13.433964729 9.98723793
344 3 15.055967331 13.433964729 14.426010132
345 3 13.687242508 15.804662704 1.10969305
346 3 13.687242508 15.804662704 5.548465252
347 3 13.687242508 15.804662704 9.98723793
348 3 13.687242508 15.804662704 14.426010132
349 3 12.318518639 18.175363541 1.10969305
350 3 12.318518639 18.175363541 5.548465252
351 3 12.318518639 18.175363541 9.98723793
352 3 12.318518639 18.175363541 14.426010132
353 3 13.687242508 1.580466509 1.10969305
354 3 13.687242508 1.580466509 5.548465252
355 3 13.687242508 1.580466509 9.98723793
356 3 13.687242508 1.580466509 14.426010132
357 3 12.318517685 3.951165915 1.10969305
358 3 12.318517685 3.951165915 5.548465252
359 3 12.318517685 3.951165915 9.98723793
360 3 12.318517685 3.951165915 14.426010132
361 3 10.949793816 6.321866035 1.10969305
362 3 10.949793816 6.321866035 5.548465252
363 3 10.949793816 6.321866035 9.98723793
364 3 10.949793816 6.321866035 14.426010132
365 3 9.581069946 8.692565918 1.10969305
366 3 9.581069946 8.692565918 5.548465252
367 3 9.581069946 8.692565918 9.98723793
368 3 9.581069946 8.692565918 14.426010132
369 3 8.212345123 11.063264847 1.10969305
370 3 8.212345123 11.063264847 5.548465252
371 3 8.212345123 11.063264847 9.98723793
372 3 8.212345123 11.063264847 14.426010132
373 3 6.843621731 13.433964729 1.10969305
374 3 6.843621731 13.433964729 5.548465252
375 3 6.843621731 13.433964729 9.98723793
376 3 6.843621731 13.433964729 14.426010132
377 3 5.474897385 15.804662704 1.10969305
378 3 5.474897385 15.804662704 5.548465252
379 3 5.474897385 15.804662704 9.98723793
380 3 5.474897385 15.804662704 14.426010132
381 3 4.106173515 18.175363541 1.10969305
382 3 4.106173515 18.175363541 5.548465252
383 3 4.106173515 18.175363541 9.98723793
384 3 4.106173515 18.175363541 14.426010132
