# LAMMPS data file written by Ovito Basic 3.0.0-dev791
256 atoms
4 atom types
0.0 14.5827999115 xlo xhi
0.0 14.5827999115 ylo yhi
0.0 14.5827999115 zlo zhi

Atoms  # atomic

1 1 1.8228498723 0.0 1.8228498723
2 1 1.8228498723 0.0 5.4685497335
3 1 1.8228498723 0.0 9.114250178
4 1 1.8228498723 0.0 12.7599496892
5 1 1.8228498723 3.6456999779 1.8228498723
6 1 1.8228498723 3.6456999779 5.4685497335
7 1 1.8228498723 3.6456999779 9.114250178
8 1 1.8228498723 3.6456999779 12.7599496892
9 1 1.8228498723 7.2913999558 1.8228498723
10 1 1.8228498723 7.2913999558 5.4685497335
11 1 1.8228498723 7.2913999558 9.114250178
12 1 1.8228498723 7.2913999558 12.7599496892
13 1 1.8228498723 10.9370994524 1.8228498723
14 1 1.8228498723 10.9370994524 5.4685497335
15 1 1.8228498723 10.9370994524 9.114250178
16 1 1.8228498723 10.9370994524 12.7599496892
17 1 5.4685497335 0.0 1.8228498723
18 1 5.4685497335 0.0 5.4685497335
19 1 5.4685497335 0.0 9.114250178
20 1 5.4685497335 0.0 12.7599496892
21 1 5.4685497335 3.6456999779 1.8228498723
22 1 5.4685497335 3.6456999779 5.4685497335
23 1 5.4685497335 3.6456999779 9.114250178
24 1 5.4685497335 3.6456999779 12.7599496892
25 1 5.4685497335 7.2913999558 1.8228498723
26 1 5.4685497335 7.2913999558 5.4685497335
27 1 5.4685497335 7.2913999558 9.114250178
28 1 5.4685497335 7.2913999558 12.7599496892
29 1 5.4685497335 10.9370994524 1.8228498723
30 1 5.4685497335 10.9370994524 5.4685497335
31 1 5.4685497335 10.9370994524 9.114250178
32 1 5.4685497335 10.9370994524 12.7599496892
33 1 9.114250178 0.0 1.8228498723
34 1 9.114250178 0.0 5.4685497335
35 1 9.114250178 0.0 9.114250178
36 1 9.114250178 0.0 12.7599496892
37 1 9.114250178 3.6456999779 1.8228498723
38 1 9.114250178 3.6456999779 5.4685497335
39 1 9.114250178 3.6456999779 9.114250178
40 1 9.114250178 3.6456999779 12.7599496892
41 1 9.114250178 7.2913999558 1.8228498723
42 1 9.114250178 7.2913999558 5.4685497335
43 1 9.114250178 7.2913999558 9.114250178
44 1 9.114250178 7.2913999558 12.7599496892
45 1 9.114250178 10.9370994524 1.8228498723
46 1 9.114250178 10.9370994524 5.4685497335
47 1 9.114250178 10.9370994524 9.114250178
48 1 9.114250178 10.9370994524 12.7599496892
49 1 12.7599496892 0.0 1.8228498723
50 1 12.7599496892 0.0 5.4685497335
51 1 12.7599496892 0.0 9.114250178
52 1 12.7599496892 0.0 12.7599496892
53 1 12.7599496892 3.6456999779 1.8228498723
54 1 12.7599496892 3.6456999779 5.4685497335
55 1 12.7599496892 3.6456999779 9.114250178
56 1 12.7599496892 3.6456999779 12.7599496892
57 1 12.7599496892 7.2913999558 1.8228498723
58 1 12.7599496892 7.2913999558 5.4685497335
59 1 12.7599496892 7.2913999558 9.114250178
60 1 12.7599496892 7.2913999558 12.7599496892
61 1 12.7599496892 10.9370994524 1.8228498723
62 1 12.7599496892 10.9370994524 5.4685497335
63 1 12.7599496892 10.9370994524 9.114250178
64 1 12.7599496892 10.9370994524 12.7599496892
65 2 1.8228498723 1.8228498723 0.0
66 2 1.8228498723 1.8228498723 3.6456999779
67 2 1.8228498723 1.8228498723 7.2913999558
68 2 1.8228498723 1.8228498723 10.9370994524
69 2 1.8228498723 5.4685497335 0.0
70 2 1.8228498723 5.4685497335 3.6456999779
71 2 1.8228498723 5.4685497335 7.2913999558
72 2 1.8228498723 5.4685497335 10.9370994524
73 2 1.8228498723 9.114250178 0.0
74 2 1.8228498723 9.114250178 3.6456999779
75 2 1.8228498723 9.114250178 7.2913999558
76 2 1.8228498723 9.114250178 10.9370994524
77 2 1.8228498723 12.7599496892 0.0
78 2 1.8228498723 12.7599496892 3.6456999779
79 2 1.8228498723 12.7599496892 7.2913999558
80 2 1.8228498723 12.7599496892 10.9370994524
81 2 5.4685497335 1.8228498723 0.0
82 2 5.4685497335 1.8228498723 3.6456999779
83 2 5.4685497335 1.8228498723 7.2913999558
84 2 5.4685497335 1.8228498723 10.9370994524
85 2 5.4685497335 5.4685497335 0.0
86 2 5.4685497335 5.4685497335 3.6456999779
87 2 5.4685497335 5.4685497335 7.2913999558
88 2 5.4685497335 5.4685497335 10.9370994524
89 2 5.4685497335 9.114250178 0.0
90 2 5.4685497335 9.114250178 3.6456999779
91 2 5.4685497335 9.114250178 7.2913999558
92 2 5.4685497335 9.114250178 10.9370994524
93 2 5.4685497335 12.7599496892 0.0
94 2 5.4685497335 12.7599496892 3.6456999779
95 2 5.4685497335 12.7599496892 7.2913999558
96 2 5.4685497335 12.7599496892 10.9370994524
97 2 9.114250178 1.8228498723 0.0
98 2 9.114250178 1.8228498723 3.6456999779
99 2 9.114250178 1.8228498723 7.2913999558
100 2 9.114250178 1.8228498723 10.9370994524
101 2 9.114250178 5.4685497335 0.0
102 2 9.114250178 5.4685497335 3.6456999779
103 2 9.114250178 5.4685497335 7.2913999558
104 2 9.114250178 5.4685497335 10.9370994524
105 2 9.114250178 9.114250178 0.0
106 2 9.114250178 9.114250178 3.6456999779
107 2 9.114250178 9.114250178 7.2913999558
108 2 9.114250178 9.114250178 10.9370994524
109 2 9.114250178 12.7599496892 0.0
110 2 9.114250178 12.7599496892 3.6456999779
111 2 9.114250178 12.7599496892 7.2913999558
112 2 9.114250178 12.7599496892 10.9370994524
113 2 12.7599496892 1.8228498723 0.0
114 2 12.7599496892 1.8228498723 3.6456999779
115 2 12.7599496892 1.8228498723 7.2913999558
116 2 12.7599496892 1.8228498723 10.9370994524
117 2 12.7599496892 5.4685497335 0.0
118 2 12.7599496892 5.4685497335 3.6456999779
119 2 12.7599496892 5.4685497335 7.2913999558
120 2 12.7599496892 5.4685497335 10.9370994524
121 2 12.7599496892 9.114250178 0.0
122 2 12.7599496892 9.114250178 3.6456999779
123 2 12.7599496892 9.114250178 7.2913999558
124 2 12.7599496892 9.114250178 10.9370994524
125 2 12.7599496892 12.7599496892 0.0
126 2 12.7599496892 12.7599496892 3.6456999779
127 2 12.7599496892 12.7599496892 7.2913999558
128 2 12.7599496892 12.7599496892 10.9370994524
129 3 0.0 0.0 0.0
130 3 0.0 0.0 3.6456999779
131 3 0.0 0.0 7.2913999558
132 3 0.0 0.0 10.9370994524
133 3 0.0 3.6456999779 0.0
134 3 0.0 3.6456999779 3.6456999779
135 3 0.0 3.6456999779 7.2913999558
136 3 0.0 3.6456999779 10.9370994524
137 3 0.0 7.2913999558 0.0
138 3 0.0 7.2913999558 3.6456999779
139 3 0.0 7.2913999558 7.2913999558
140 3 0.0 7.2913999558 10.9370994524
141 3 0.0 10.9370994524 0.0
142 3 0.0 10.9370994524 3.6456999779
143 3 0.0 10.9370994524 7.2913999558
144 3 0.0 10.9370994524 10.9370994524
145 3 3.6456999779 0.0 0.0
146 3 3.6456999779 0.0 3.6456999779
147 3 3.6456999779 0.0 7.2913999558
148 3 3.6456999779 0.0 10.9370994524
149 3 3.6456999779 3.6456999779 0.0
150 3 3.6456999779 3.6456999779 3.6456999779
151 3 3.6456999779 3.6456999779 7.2913999558
152 3 3.6456999779 3.6456999779 10.9370994524
153 3 3.6456999779 7.2913999558 0.0
154 3 3.6456999779 7.2913999558 3.6456999779
155 3 3.6456999779 7.2913999558 7.2913999558
156 3 3.6456999779 7.2913999558 10.9370994524
157 3 3.6456999779 10.9370994524 0.0
158 3 3.6456999779 10.9370994524 3.6456999779
159 3 3.6456999779 10.9370994524 7.2913999558
160 3 3.6456999779 10.9370994524 10.9370994524
161 3 7.2913999558 0.0 0.0
162 3 7.2913999558 0.0 3.6456999779
163 3 7.2913999558 0.0 7.2913999558
164 3 7.2913999558 0.0 10.9370994524
165 3 7.2913999558 3.6456999779 0.0
166 3 7.2913999558 3.6456999779 3.6456999779
167 3 7.2913999558 3.6456999779 7.2913999558
168 3 7.2913999558 3.6456999779 10.9370994524
169 3 7.2913999558 7.2913999558 0.0
170 3 7.2913999558 7.2913999558 3.6456999779
171 3 7.2913999558 7.2913999558 7.2913999558
172 3 7.2913999558 7.2913999558 10.9370994524
173 3 7.2913999558 10.9370994524 0.0
174 3 7.2913999558 10.9370994524 3.6456999779
175 3 7.2913999558 10.9370994524 7.2913999558
176 3 7.2913999558 10.9370994524 10.9370994524
177 3 10.9370994524 0.0 0.0
178 3 10.9370994524 0.0 3.6456999779
179 3 10.9370994524 0.0 7.2913999558
180 3 10.9370994524 0.0 10.9370994524
181 3 10.9370994524 3.6456999779 0.0
182 3 10.9370994524 3.6456999779 3.6456999779
183 3 10.9370994524 3.6456999779 7.2913999558
184 3 10.9370994524 3.6456999779 10.9370994524
185 3 10.9370994524 7.2913999558 0.0
186 3 10.9370994524 7.2913999558 3.6456999779
187 3 10.9370994524 7.2913999558 7.2913999558
188 3 10.9370994524 7.2913999558 10.9370994524
189 3 10.9370994524 10.9370994524 0.0
190 3 10.9370994524 10.9370994524 3.6456999779
191 3 10.9370994524 10.9370994524 7.2913999558
192 3 10.9370994524 10.9370994524 10.9370994524
193 4 0.0 1.8228498723 1.8228498723
194 4 0.0 1.8228498723 5.4685497335
195 4 0.0 1.8228498723 9.114250178
196 4 0.0 1.8228498723 12.7599496892
197 4 0.0 5.4685497335 1.8228498723
198 4 0.0 5.4685497335 5.4685497335
199 4 0.0 5.4685497335 9.114250178
200 4 0.0 5.4685497335 12.7599496892
201 4 0.0 9.114250178 1.8228498723
202 4 0.0 9.114250178 5.4685497335
203 4 0.0 9.114250178 9.114250178
204 4 0.0 9.114250178 12.7599496892
205 4 0.0 12.7599496892 1.8228498723
206 4 0.0 12.7599496892 5.4685497335
207 4 0.0 12.7599496892 9.114250178
208 4 0.0 12.7599496892 12.7599496892
209 4 3.6456999779 1.8228498723 1.8228498723
210 4 3.6456999779 1.8228498723 5.4685497335
211 4 3.6456999779 1.8228498723 9.114250178
212 4 3.6456999779 1.8228498723 12.7599496892
213 4 3.6456999779 5.4685497335 1.8228498723
214 4 3.6456999779 5.4685497335 5.4685497335
215 4 3.6456999779 5.4685497335 9.114250178
216 4 3.6456999779 5.4685497335 12.7599496892
217 4 3.6456999779 9.114250178 1.8228498723
218 4 3.6456999779 9.114250178 5.4685497335
219 4 3.6456999779 9.114250178 9.114250178
220 4 3.6456999779 9.114250178 12.7599496892
221 4 3.6456999779 12.7599496892 1.8228498723
222 4 3.6456999779 12.7599496892 5.4685497335
223 4 3.6456999779 12.7599496892 9.114250178
224 4 3.6456999779 12.7599496892 12.7599496892
225 4 7.2913999558 1.8228498723 1.8228498723
226 4 7.2913999558 1.8228498723 5.4685497335
227 4 7.2913999558 1.8228498723 9.114250178
228 4 7.2913999558 1.8228498723 12.7599496892
229 4 7.2913999558 5.4685497335 1.8228498723
230 4 7.2913999558 5.4685497335 5.4685497335
231 4 7.2913999558 5.4685497335 9.114250178
232 4 7.2913999558 5.4685497335 12.7599496892
233 4 7.2913999558 9.114250178 1.8228498723
234 4 7.2913999558 9.114250178 5.4685497335
235 4 7.2913999558 9.114250178 9.114250178
236 4 7.2913999558 9.114250178 12.7599496892
237 4 7.2913999558 12.7599496892 1.8228498723
238 4 7.2913999558 12.7599496892 5.4685497335
239 4 7.2913999558 12.7599496892 9.114250178
240 4 7.2913999558 12.7599496892 12.7599496892
241 4 10.9370994524 1.8228498723 1.8228498723
242 4 10.9370994524 1.8228498723 5.4685497335
243 4 10.9370994524 1.8228498723 9.114250178
244 4 10.9370994524 1.8228498723 12.7599496892
245 4 10.9370994524 5.4685497335 1.8228498723
246 4 10.9370994524 5.4685497335 5.4685497335
247 4 10.9370994524 5.4685497335 9.114250178
248 4 10.9370994524 5.4685497335 12.7599496892
249 4 10.9370994524 9.114250178 1.8228498723
250 4 10.9370994524 9.114250178 5.4685497335
251 4 10.9370994524 9.114250178 9.114250178
252 4 10.9370994524 9.114250178 12.7599496892
253 4 10.9370994524 12.7599496892 1.8228498723
254 4 10.9370994524 12.7599496892 5.4685497335
255 4 10.9370994524 12.7599496892 9.114250178
256 4 10.9370994524 12.7599496892 12.7599496892
