# LAMMPS data file written by OVITO Basic 3.8.4

1632 atoms
1 atom types

0.0 199.013305664 xlo xhi
0.0 49.5634994507 ylo yhi
0.0 25.0 zlo zhi

Masses

1 10.811  # B

Atoms  # atomic

1 1 0.81981499 1.457749712  0.0
2 1 52.176467636 1.457749712  0.0
3 1 5.937410745 1.457749712  0.0
4 1 57.294061286 1.457749712  0.0
5 1 2.585901482 1.457749712  0.0
6 1 53.942554127 1.457749712  0.0
7 1 7.703498002 1.457749712  0.0
8 1 59.060147778 1.457749712  0.0
9 1 5.089889593 0.0  0.0
10 1 56.446542047 0.0  0.0
11 1 3.433423208 0.0  0.0
12 1 54.790073366 0.0  0.0
13 1 1.702858236 0.0  0.0
14 1 53.05950782 0.0  0.0
15 1 6.820454756 0.0  0.0
16 1 58.177107593 0.0  0.0
17 1 9.379256173 1.457749712  0.0
18 1 60.735907479 1.457749712  0.0
19 1 14.496852885 1.457749712  0.0
20 1 65.853507252 1.457749712  0.0
21 1 11.14534343 1.457749712  0.0
22 1 62.501993971 1.457749712  0.0
23 1 16.262939376 1.457749712  0.0
24 1 67.619587621 1.457749712  0.0
25 1 13.649330585 0.0  0.0
26 1 65.005981891 0.0  0.0
27 1 11.99286573 0.0  0.0
28 1 63.349519332 0.0  0.0
29 1 10.262300184 0.0  0.0
30 1 61.618953786 0.0  0.0
31 1 15.37989613 0.0  0.0
32 1 66.736547437 0.0  0.0
33 1 17.938699078 1.457749712  0.0
34 1 69.295353445 1.457749712  0.0
35 1 23.056295789 1.457749712  0.0
36 1 74.412947095 1.457749712  0.0
37 1 19.704785569 1.457749712  0.0
38 1 71.061433814 1.457749712  0.0
39 1 24.822382281 1.457749712  0.0
40 1 76.179033587 1.457749712  0.0
41 1 22.208771959 0.0  0.0
42 1 73.565421734 0.0  0.0
43 1 20.552306339 0.0  0.0
44 1 71.908959175 0.0  0.0
45 1 18.821740793 0.0  0.0
46 1 70.17839363 0.0  0.0
47 1 23.939339035 0.0  0.0
48 1 75.295993402 0.0  0.0
49 1 26.498138921 1.457749712  0.0
50 1 77.854787166 1.457749712  0.0
51 1 31.615735633 1.457749712  0.0
52 1 82.972386939 1.457749712  0.0
53 1 28.264225413 1.457749712  0.0
54 1 79.62087978 1.457749712  0.0
55 1 33.381825186 1.457749712  0.0
56 1 84.738479553 1.457749712  0.0
57 1 30.768213333 0.0  0.0
58 1 82.1248677 0.0  0.0
59 1 29.111750774 0.0  0.0
60 1 80.468399019 0.0  0.0
61 1 27.381182167 0.0  0.0
62 1 78.737833473 0.0  0.0
63 1 32.498778879 0.0  0.0
64 1 83.855427124 0.0  0.0
65 1 35.057581826 1.457749712  0.0
66 1 86.414233132 1.457749712  0.0
67 1 40.175178538 1.457749712  0.0
68 1 91.531832905 1.457749712  0.0
69 1 36.823668318 1.457749712  0.0
70 1 88.180319624 1.457749712  0.0
71 1 41.941265029 1.457749712  0.0
72 1 93.297913274 1.457749712  0.0
73 1 39.327656238 0.0  0.0
74 1 90.684307544 0.0  0.0
75 1 37.671190618 0.0  0.0
76 1 89.027844985 0.0  0.0
77 1 35.940628133 0.0  0.0
78 1 87.297279439 0.0  0.0
79 1 41.058221783 0.0  0.0
80 1 92.41487309 0.0  0.0
81 1 43.61702167 1.457749712  0.0
82 1 94.973672976 1.457749712  0.0
83 1 48.734621442 1.457749712  0.0
84 1 100.091272749 1.457749712  0.0
85 1 45.383108161 1.457749712  0.0
86 1 96.739759468 1.457749712  0.0
87 1 50.500707934 1.457749712  0.0
88 1 101.85735924 1.457749712  0.0
89 1 47.887099142 0.0  0.0
90 1 99.243747388 0.0  0.0
91 1 46.230633522 0.0  0.0
92 1 97.587284829 0.0  0.0
93 1 44.500067977 0.0  0.0
94 1 95.856719283 0.0  0.0
95 1 49.617664688 0.0  0.0
96 1 100.974319055 0.0  0.0
97 1 0.81981499 4.37325006  0.0
98 1 52.176467636 4.37325006  0.0
99 1 5.937410745 4.37325006  0.0
100 1 57.294061286 4.37325006  0.0
101 1 2.585901482 4.37325006  0.0
102 1 53.942554127 4.37325006  0.0
103 1 7.703498002 4.37325006  0.0
104 1 59.060147778 4.37325006  0.0
105 1 5.089889593 2.915499979  0.0
106 1 56.446542047 2.915499979  0.0
107 1 3.433423208 2.915499979  0.0
108 1 54.790073366 2.915499979  0.0
109 1 1.702858236 2.915499979  0.0
110 1 53.05950782 2.915499979  0.0
111 1 6.820454756 2.915499979  0.0
112 1 58.177107593 2.915499979  0.0
113 1 9.379256173 4.37325006  0.0
114 1 60.735907479 4.37325006  0.0
115 1 14.496852885 4.37325006  0.0
116 1 65.853507252 4.37325006  0.0
117 1 11.14534343 4.37325006  0.0
118 1 62.501993971 4.37325006  0.0
119 1 16.262939376 4.37325006  0.0
120 1 67.619587621 4.37325006  0.0
121 1 13.649330585 2.915499979  0.0
122 1 65.005981891 2.915499979  0.0
123 1 11.99286573 2.915499979  0.0
124 1 63.349519332 2.915499979  0.0
125 1 10.262300184 2.915499979  0.0
126 1 61.618953786 2.915499979  0.0
127 1 15.37989613 2.915499979  0.0
128 1 66.736547437 2.915499979  0.0
129 1 17.938699078 4.37325006  0.0
130 1 69.295353445 4.37325006  0.0
131 1 23.056295789 4.37325006  0.0
132 1 74.412947095 4.37325006  0.0
133 1 19.704785569 4.37325006  0.0
134 1 71.061433814 4.37325006  0.0
135 1 24.822382281 4.37325006  0.0
136 1 76.179033587 4.37325006  0.0
137 1 22.208771959 2.915499979  0.0
138 1 73.565421734 2.915499979  0.0
139 1 20.552306339 2.915499979  0.0
140 1 71.908959175 2.915499979  0.0
141 1 18.821740793 2.915499979  0.0
142 1 70.17839363 2.915499979  0.0
143 1 23.939339035 2.915499979  0.0
144 1 75.295993402 2.915499979  0.0
145 1 26.498138921 4.37325006  0.0
146 1 77.854787166 4.37325006  0.0
147 1 31.615735633 4.37325006  0.0
148 1 82.972386939 4.37325006  0.0
149 1 28.264225413 4.37325006  0.0
150 1 79.62087978 4.37325006  0.0
151 1 33.381825186 4.37325006  0.0
152 1 84.738479553 4.37325006  0.0
153 1 30.768213333 2.915499979  0.0
154 1 82.1248677 2.915499979  0.0
155 1 29.111750774 2.915499979  0.0
156 1 80.468399019 2.915499979  0.0
157 1 27.381182167 2.915499979  0.0
158 1 78.737833473 2.915499979  0.0
159 1 32.498778879 2.915499979  0.0
160 1 83.855427124 2.915499979  0.0
161 1 35.057581826 4.37325006  0.0
162 1 86.414233132 4.37325006  0.0
163 1 40.175178538 4.37325006  0.0
164 1 91.531832905 4.37325006  0.0
165 1 36.823668318 4.37325006  0.0
166 1 88.180319624 4.37325006  0.0
167 1 41.941265029 4.37325006  0.0
168 1 93.297913274 4.37325006  0.0
169 1 39.327656238 2.915499979  0.0
170 1 90.684307544 2.915499979  0.0
171 1 37.671190618 2.915499979  0.0
172 1 89.027844985 2.915499979  0.0
173 1 35.940628133 2.915499979  0.0
174 1 87.297279439 2.915499979  0.0
175 1 41.058221783 2.915499979  0.0
176 1 92.41487309 2.915499979  0.0
177 1 43.61702167 4.37325006  0.0
178 1 94.973672976 4.37325006  0.0
179 1 48.734621442 4.37325006  0.0
180 1 100.091272749 4.37325006  0.0
181 1 45.383108161 4.37325006  0.0
182 1 96.739759468 4.37325006  0.0
183 1 50.500707934 4.37325006  0.0
184 1 101.85735924 4.37325006  0.0
185 1 47.887099142 2.915499979  0.0
186 1 99.243747388 2.915499979  0.0
187 1 46.230633522 2.915499979  0.0
188 1 97.587284829 2.915499979  0.0
189 1 44.500067977 2.915499979  0.0
190 1 95.856719283 2.915499979  0.0
191 1 49.617664688 2.915499979  0.0
192 1 100.974319055 2.915499979  0.0
193 1 0.81981499 7.288749485  0.0
194 1 52.176467636 7.288749485  0.0
195 1 5.937410745 7.288749485  0.0
196 1 57.294061286 7.288749485  0.0
197 1 2.585901482 7.288749485  0.0
198 1 53.942554127 7.288749485  0.0
199 1 7.703498002 7.288749485  0.0
200 1 59.060147778 7.288749485  0.0
201 1 5.089889593 5.830999957  0.0
202 1 56.446542047 5.830999957  0.0
203 1 3.433423208 5.830999957  0.0
204 1 54.790073366 5.830999957  0.0
205 1 1.702858236 5.830999957  0.0
206 1 53.05950782 5.830999957  0.0
207 1 6.820454756 5.830999957  0.0
208 1 58.177107593 5.830999957  0.0
209 1 9.379256173 7.288749485  0.0
210 1 60.735907479 7.288749485  0.0
211 1 14.496852885 7.288749485  0.0
212 1 65.853507252 7.288749485  0.0
213 1 11.14534343 7.288749485  0.0
214 1 62.501993971 7.288749485  0.0
215 1 16.262939376 7.288749485  0.0
216 1 67.619587621 7.288749485  0.0
217 1 13.649330585 5.830999957  0.0
218 1 65.005981891 5.830999957  0.0
219 1 11.99286573 5.830999957  0.0
220 1 63.349519332 5.830999957  0.0
221 1 10.262300184 5.830999957  0.0
222 1 61.618953786 5.830999957  0.0
223 1 15.37989613 5.830999957  0.0
224 1 66.736547437 5.830999957  0.0
225 1 17.938699078 7.288749485  0.0
226 1 69.295353445 7.288749485  0.0
227 1 23.056295789 7.288749485  0.0
228 1 74.412947095 7.288749485  0.0
229 1 19.704785569 7.288749485  0.0
230 1 71.061433814 7.288749485  0.0
231 1 24.822382281 7.288749485  0.0
232 1 76.179033587 7.288749485  0.0
233 1 22.208771959 5.830999957  0.0
234 1 73.565421734 5.830999957  0.0
235 1 20.552306339 5.830999957  0.0
236 1 71.908959175 5.830999957  0.0
237 1 18.821740793 5.830999957  0.0
238 1 70.17839363 5.830999957  0.0
239 1 23.939339035 5.830999957  0.0
240 1 75.295993402 5.830999957  0.0
241 1 26.498138921 7.288749485  0.0
242 1 77.854787166 7.288749485  0.0
243 1 31.615735633 7.288749485  0.0
244 1 82.972386939 7.288749485  0.0
245 1 28.264225413 7.288749485  0.0
246 1 79.62087978 7.288749485  0.0
247 1 33.381825186 7.288749485  0.0
248 1 84.738479553 7.288749485  0.0
249 1 30.768213333 5.830999957  0.0
250 1 82.1248677 5.830999957  0.0
251 1 29.111750774 5.830999957  0.0
252 1 80.468399019 5.830999957  0.0
253 1 27.381182167 5.830999957  0.0
254 1 78.737833473 5.830999957  0.0
255 1 32.498778879 5.830999957  0.0
256 1 83.855427124 5.830999957  0.0
257 1 35.057581826 7.288749485  0.0
258 1 86.414233132 7.288749485  0.0
259 1 40.175178538 7.288749485  0.0
260 1 91.531832905 7.288749485  0.0
261 1 36.823668318 7.288749485  0.0
262 1 88.180319624 7.288749485  0.0
263 1 41.941265029 7.288749485  0.0
264 1 93.297913274 7.288749485  0.0
265 1 39.327656238 5.830999957  0.0
266 1 90.684307544 5.830999957  0.0
267 1 37.671190618 5.830999957  0.0
268 1 89.027844985 5.830999957  0.0
269 1 35.940628133 5.830999957  0.0
270 1 87.297279439 5.830999957  0.0
271 1 41.058221783 5.830999957  0.0
272 1 92.41487309 5.830999957  0.0
273 1 43.61702167 7.288749485  0.0
274 1 94.973672976 7.288749485  0.0
275 1 48.734621442 7.288749485  0.0
276 1 100.091272749 7.288749485  0.0
277 1 45.383108161 7.288749485  0.0
278 1 96.739759468 7.288749485  0.0
279 1 50.500707934 7.288749485  0.0
280 1 101.85735924 7.288749485  0.0
281 1 47.887099142 5.830999957  0.0
282 1 99.243747388 5.830999957  0.0
283 1 46.230633522 5.830999957  0.0
284 1 97.587284829 5.830999957  0.0
285 1 44.500067977 5.830999957  0.0
286 1 95.856719283 5.830999957  0.0
287 1 49.617664688 5.830999957  0.0
288 1 100.974319055 5.830999957  0.0
289 1 0.81981499 10.204249279  0.0
290 1 52.176467636 10.204249279  0.0
291 1 5.937410745 10.204249279  0.0
292 1 57.294061286 10.204249279  0.0
293 1 2.585901482 10.204249279  0.0
294 1 53.942554127 10.204249279  0.0
295 1 7.703498002 10.204249279  0.0
296 1 59.060147778 10.204249279  0.0
297 1 5.089889593 8.74650012  0.0
298 1 56.446542047 8.74650012  0.0
299 1 3.433423208 8.74650012  0.0
300 1 54.790073366 8.74650012  0.0
301 1 1.702858236 8.74650012  0.0
302 1 53.05950782 8.74650012  0.0
303 1 6.820454756 8.74650012  0.0
304 1 58.177107593 8.74650012  0.0
305 1 9.379256173 10.204249279  0.0
306 1 60.735907479 10.204249279  0.0
307 1 14.496852885 10.204249279  0.0
308 1 65.853507252 10.204249279  0.0
309 1 11.14534343 10.204249279  0.0
310 1 62.501993971 10.204249279  0.0
311 1 16.262939376 10.204249279  0.0
312 1 67.619587621 10.204249279  0.0
313 1 13.649330585 8.74650012  0.0
314 1 65.005981891 8.74650012  0.0
315 1 11.99286573 8.74650012  0.0
316 1 63.349519332 8.74650012  0.0
317 1 10.262300184 8.74650012  0.0
318 1 61.618953786 8.74650012  0.0
319 1 15.37989613 8.74650012  0.0
320 1 66.736547437 8.74650012  0.0
321 1 17.938699078 10.204249279  0.0
322 1 69.295353445 10.204249279  0.0
323 1 23.056295789 10.204249279  0.0
324 1 74.412947095 10.204249279  0.0
325 1 19.704785569 10.204249279  0.0
326 1 71.061433814 10.204249279  0.0
327 1 24.822382281 10.204249279  0.0
328 1 76.179033587 10.204249279  0.0
329 1 22.208771959 8.74650012  0.0
330 1 73.565421734 8.74650012  0.0
331 1 20.552306339 8.74650012  0.0
332 1 71.908959175 8.74650012  0.0
333 1 18.821740793 8.74650012  0.0
334 1 70.17839363 8.74650012  0.0
335 1 23.939339035 8.74650012  0.0
336 1 75.295993402 8.74650012  0.0
337 1 26.498138921 10.204249279  0.0
338 1 77.854787166 10.204249279  0.0
339 1 31.615735633 10.204249279  0.0
340 1 82.972386939 10.204249279  0.0
341 1 28.264225413 10.204249279  0.0
342 1 79.62087978 10.204249279  0.0
343 1 33.381825186 10.204249279  0.0
344 1 84.738479553 10.204249279  0.0
345 1 30.768213333 8.74650012  0.0
346 1 82.1248677 8.74650012  0.0
347 1 29.111750774 8.74650012  0.0
348 1 80.468399019 8.74650012  0.0
349 1 27.381182167 8.74650012  0.0
350 1 78.737833473 8.74650012  0.0
351 1 32.498778879 8.74650012  0.0
352 1 83.855427124 8.74650012  0.0
353 1 35.057581826 10.204249279  0.0
354 1 86.414233132 10.204249279  0.0
355 1 40.175178538 10.204249279  0.0
356 1 91.531832905 10.204249279  0.0
357 1 36.823668318 10.204249279  0.0
358 1 88.180319624 10.204249279  0.0
359 1 41.941265029 10.204249279  0.0
360 1 93.297913274 10.204249279  0.0
361 1 39.327656238 8.74650012  0.0
362 1 90.684307544 8.74650012  0.0
363 1 37.671190618 8.74650012  0.0
364 1 89.027844985 8.74650012  0.0
365 1 35.940628133 8.74650012  0.0
366 1 87.297279439 8.74650012  0.0
367 1 41.058221783 8.74650012  0.0
368 1 92.41487309 8.74650012  0.0
369 1 43.61702167 10.204249279  0.0
370 1 94.973672976 10.204249279  0.0
371 1 48.734621442 10.204249279  0.0
372 1 100.091272749 10.204249279  0.0
373 1 45.383108161 10.204249279  0.0
374 1 96.739759468 10.204249279  0.0
375 1 50.500707934 10.204249279  0.0
376 1 101.85735924 10.204249279  0.0
377 1 47.887099142 8.74650012  0.0
378 1 99.243747388 8.74650012  0.0
379 1 46.230633522 8.74650012  0.0
380 1 97.587284829 8.74650012  0.0
381 1 44.500067977 8.74650012  0.0
382 1 95.856719283 8.74650012  0.0
383 1 49.617664688 8.74650012  0.0
384 1 100.974319055 8.74650012  0.0
385 1 0.81981499 13.11975055  0.0
386 1 52.176467636 13.11975055  0.0
387 1 5.937410745 13.11975055  0.0
388 1 57.294061286 13.11975055  0.0
389 1 2.585901482 13.11975055  0.0
390 1 53.942554127 13.11975055  0.0
391 1 7.703498002 13.11975055  0.0
392 1 59.060147778 13.11975055  0.0
393 1 5.089889593 11.661999914  0.0
394 1 56.446542047 11.661999914  0.0
395 1 3.433423208 11.661999914  0.0
396 1 54.790073366 11.661999914  0.0
397 1 1.702858236 11.661999914  0.0
398 1 53.05950782 11.661999914  0.0
399 1 6.820454756 11.661999914  0.0
400 1 58.177107593 11.661999914  0.0
401 1 9.379256173 13.11975055  0.0
402 1 60.735907479 13.11975055  0.0
403 1 14.496852885 13.11975055  0.0
404 1 65.853507252 13.11975055  0.0
405 1 11.14534343 13.11975055  0.0
406 1 62.501993971 13.11975055  0.0
407 1 16.262939376 13.11975055  0.0
408 1 67.619587621 13.11975055  0.0
409 1 13.649330585 11.661999914  0.0
410 1 65.005981891 11.661999914  0.0
411 1 11.99286573 11.661999914  0.0
412 1 63.349519332 11.661999914  0.0
413 1 10.262300184 11.661999914  0.0
414 1 61.618953786 11.661999914  0.0
415 1 15.37989613 11.661999914  0.0
416 1 66.736547437 11.661999914  0.0
417 1 17.938699078 13.11975055  0.0
418 1 69.295353445 13.11975055  0.0
419 1 23.056295789 13.11975055  0.0
420 1 74.412947095 13.11975055  0.0
421 1 19.704785569 13.11975055  0.0
422 1 71.061433814 13.11975055  0.0
423 1 24.822382281 13.11975055  0.0
424 1 76.179033587 13.11975055  0.0
425 1 22.208771959 11.661999914  0.0
426 1 73.565421734 11.661999914  0.0
427 1 20.552306339 11.661999914  0.0
428 1 71.908959175 11.661999914  0.0
429 1 18.821740793 11.661999914  0.0
430 1 70.17839363 11.661999914  0.0
431 1 23.939339035 11.661999914  0.0
432 1 75.295993402 11.661999914  0.0
433 1 26.498138921 13.11975055  0.0
434 1 77.854787166 13.11975055  0.0
435 1 31.615735633 13.11975055  0.0
436 1 82.972386939 13.11975055  0.0
437 1 28.264225413 13.11975055  0.0
438 1 79.62087978 13.11975055  0.0
439 1 33.381825186 13.11975055  0.0
440 1 84.738479553 13.11975055  0.0
441 1 30.768213333 11.661999914  0.0
442 1 82.1248677 11.661999914  0.0
443 1 29.111750774 11.661999914  0.0
444 1 80.468399019 11.661999914  0.0
445 1 27.381182167 11.661999914  0.0
446 1 78.737833473 11.661999914  0.0
447 1 32.498778879 11.661999914  0.0
448 1 83.855427124 11.661999914  0.0
449 1 35.057581826 13.11975055  0.0
450 1 86.414233132 13.11975055  0.0
451 1 40.175178538 13.11975055  0.0
452 1 91.531832905 13.11975055  0.0
453 1 36.823668318 13.11975055  0.0
454 1 88.180319624 13.11975055  0.0
455 1 41.941265029 13.11975055  0.0
456 1 93.297913274 13.11975055  0.0
457 1 39.327656238 11.661999914  0.0
458 1 90.684307544 11.661999914  0.0
459 1 37.671190618 11.661999914  0.0
460 1 89.027844985 11.661999914  0.0
461 1 35.940628133 11.661999914  0.0
462 1 87.297279439 11.661999914  0.0
463 1 41.058221783 11.661999914  0.0
464 1 92.41487309 11.661999914  0.0
465 1 43.61702167 13.11975055  0.0
466 1 94.973672976 13.11975055  0.0
467 1 48.734621442 13.11975055  0.0
468 1 100.091272749 13.11975055  0.0
469 1 45.383108161 13.11975055  0.0
470 1 96.739759468 13.11975055  0.0
471 1 50.500707934 13.11975055  0.0
472 1 101.85735924 13.11975055  0.0
473 1 47.887099142 11.661999914  0.0
474 1 99.243747388 11.661999914  0.0
475 1 46.230633522 11.661999914  0.0
476 1 97.587284829 11.661999914  0.0
477 1 44.500067977 11.661999914  0.0
478 1 95.856719283 11.661999914  0.0
479 1 49.617664688 11.661999914  0.0
480 1 100.974319055 11.661999914  0.0
481 1 0.81981499 16.035248867  0.0
482 1 52.176467636 16.035248867  0.0
483 1 5.937410745 16.035248867  0.0
484 1 57.294061286 16.035248867  0.0
485 1 2.585901482 16.035248867  0.0
486 1 53.942554127 16.035248867  0.0
487 1 7.703498002 16.035248867  0.0
488 1 59.060147778 16.035248867  0.0
489 1 5.089889593 14.577500447  0.0
490 1 56.446542047 14.577500447  0.0
491 1 3.433423208 14.577500447  0.0
492 1 54.790073366 14.577500447  0.0
493 1 1.702858236 14.577500447  0.0
494 1 53.05950782 14.577500447  0.0
495 1 6.820454756 14.577500447  0.0
496 1 58.177107593 14.577500447  0.0
497 1 9.379256173 16.035248867  0.0
498 1 60.735907479 16.035248867  0.0
499 1 14.496852885 16.035248867  0.0
500 1 65.853507252 16.035248867  0.0
501 1 11.14534343 16.035248867  0.0
502 1 62.501993971 16.035248867  0.0
503 1 16.262939376 16.035248867  0.0
504 1 67.619587621 16.035248867  0.0
505 1 13.649330585 14.577500447  0.0
506 1 65.005981891 14.577500447  0.0
507 1 11.99286573 14.577500447  0.0
508 1 63.349519332 14.577500447  0.0
509 1 10.262300184 14.577500447  0.0
510 1 61.618953786 14.577500447  0.0
511 1 15.37989613 14.577500447  0.0
512 1 66.736547437 14.577500447  0.0
513 1 17.938699078 16.035248867  0.0
514 1 69.295353445 16.035248867  0.0
515 1 23.056295789 16.035248867  0.0
516 1 74.412947095 16.035248867  0.0
517 1 19.704785569 16.035248867  0.0
518 1 71.061433814 16.035248867  0.0
519 1 24.822382281 16.035248867  0.0
520 1 76.179033587 16.035248867  0.0
521 1 22.208771959 14.577500447  0.0
522 1 73.565421734 14.577500447  0.0
523 1 20.552306339 14.577500447  0.0
524 1 71.908959175 14.577500447  0.0
525 1 18.821740793 14.577500447  0.0
526 1 70.17839363 14.577500447  0.0
527 1 23.939339035 14.577500447  0.0
528 1 75.295993402 14.577500447  0.0
529 1 26.498138921 16.035248867  0.0
530 1 77.854787166 16.035248867  0.0
531 1 31.615735633 16.035248867  0.0
532 1 82.972386939 16.035248867  0.0
533 1 28.264225413 16.035248867  0.0
534 1 79.62087978 16.035248867  0.0
535 1 33.381825186 16.035248867  0.0
536 1 84.738479553 16.035248867  0.0
537 1 30.768213333 14.577500447  0.0
538 1 82.1248677 14.577500447  0.0
539 1 29.111750774 14.577500447  0.0
540 1 80.468399019 14.577500447  0.0
541 1 27.381182167 14.577500447  0.0
542 1 78.737833473 14.577500447  0.0
543 1 32.498778879 14.577500447  0.0
544 1 83.855427124 14.577500447  0.0
545 1 35.057581826 16.035248867  0.0
546 1 86.414233132 16.035248867  0.0
547 1 40.175178538 16.035248867  0.0
548 1 91.531832905 16.035248867  0.0
549 1 36.823668318 16.035248867  0.0
550 1 88.180319624 16.035248867  0.0
551 1 41.941265029 16.035248867  0.0
552 1 93.297913274 16.035248867  0.0
553 1 39.327656238 14.577500447  0.0
554 1 90.684307544 14.577500447  0.0
555 1 37.671190618 14.577500447  0.0
556 1 89.027844985 14.577500447  0.0
557 1 35.940628133 14.577500447  0.0
558 1 87.297279439 14.577500447  0.0
559 1 41.058221783 14.577500447  0.0
560 1 92.41487309 14.577500447  0.0
561 1 43.61702167 16.035248867  0.0
562 1 94.973672976 16.035248867  0.0
563 1 48.734621442 16.035248867  0.0
564 1 100.091272749 16.035248867  0.0
565 1 45.383108161 16.035248867  0.0
566 1 96.739759468 16.035248867  0.0
567 1 50.500707934 16.035248867  0.0
568 1 101.85735924 16.035248867  0.0
569 1 47.887099142 14.577500447  0.0
570 1 99.243747388 14.577500447  0.0
571 1 46.230633522 14.577500447  0.0
572 1 97.587284829 14.577500447  0.0
573 1 44.500067977 14.577500447  0.0
574 1 95.856719283 14.577500447  0.0
575 1 49.617664688 14.577500447  0.0
576 1 100.974319055 14.577500447  0.0
577 1 0.81981499 18.950750138  0.0
578 1 52.176467636 18.950750138  0.0
579 1 5.937410745 18.950750138  0.0
580 1 57.294061286 18.950750138  0.0
581 1 2.585901482 18.950750138  0.0
582 1 53.942554127 18.950750138  0.0
583 1 7.703498002 18.950750138  0.0
584 1 59.060147778 18.950750138  0.0
585 1 5.089889593 17.493000241  0.0
586 1 56.446542047 17.493000241  0.0
587 1 3.433423208 17.493000241  0.0
588 1 54.790073366 17.493000241  0.0
589 1 1.702858236 17.493000241  0.0
590 1 53.05950782 17.493000241  0.0
591 1 6.820454756 17.493000241  0.0
592 1 58.177107593 17.493000241  0.0
593 1 9.379256173 18.950750138  0.0
594 1 60.735907479 18.950750138  0.0
595 1 14.496852885 18.950750138  0.0
596 1 65.853507252 18.950750138  0.0
597 1 11.14534343 18.950750138  0.0
598 1 62.501993971 18.950750138  0.0
599 1 16.262939376 18.950750138  0.0
600 1 67.619587621 18.950750138  0.0
601 1 13.649330585 17.493000241  0.0
602 1 65.005981891 17.493000241  0.0
603 1 11.99286573 17.493000241  0.0
604 1 63.349519332 17.493000241  0.0
605 1 10.262300184 17.493000241  0.0
606 1 61.618953786 17.493000241  0.0
607 1 15.37989613 17.493000241  0.0
608 1 66.736547437 17.493000241  0.0
609 1 17.938699078 18.950750138  0.0
610 1 69.295353445 18.950750138  0.0
611 1 23.056295789 18.950750138  0.0
612 1 74.412947095 18.950750138  0.0
613 1 19.704785569 18.950750138  0.0
614 1 71.061433814 18.950750138  0.0
615 1 24.822382281 18.950750138  0.0
616 1 76.179033587 18.950750138  0.0
617 1 22.208771959 17.493000241  0.0
618 1 73.565421734 17.493000241  0.0
619 1 20.552306339 17.493000241  0.0
620 1 71.908959175 17.493000241  0.0
621 1 18.821740793 17.493000241  0.0
622 1 70.17839363 17.493000241  0.0
623 1 23.939339035 17.493000241  0.0
624 1 75.295993402 17.493000241  0.0
625 1 26.498138921 18.950750138  0.0
626 1 77.854787166 18.950750138  0.0
627 1 31.615735633 18.950750138  0.0
628 1 82.972386939 18.950750138  0.0
629 1 28.264225413 18.950750138  0.0
630 1 79.62087978 18.950750138  0.0
631 1 33.381825186 18.950750138  0.0
632 1 84.738479553 18.950750138  0.0
633 1 30.768213333 17.493000241  0.0
634 1 82.1248677 17.493000241  0.0
635 1 29.111750774 17.493000241  0.0
636 1 80.468399019 17.493000241  0.0
637 1 27.381182167 17.493000241  0.0
638 1 78.737833473 17.493000241  0.0
639 1 32.498778879 17.493000241  0.0
640 1 83.855427124 17.493000241  0.0
641 1 35.057581826 18.950750138  0.0
642 1 86.414233132 18.950750138  0.0
643 1 40.175178538 18.950750138  0.0
644 1 91.531832905 18.950750138  0.0
645 1 36.823668318 18.950750138  0.0
646 1 88.180319624 18.950750138  0.0
647 1 41.941265029 18.950750138  0.0
648 1 93.297913274 18.950750138  0.0
649 1 39.327656238 17.493000241  0.0
650 1 90.684307544 17.493000241  0.0
651 1 37.671190618 17.493000241  0.0
652 1 89.027844985 17.493000241  0.0
653 1 35.940628133 17.493000241  0.0
654 1 87.297279439 17.493000241  0.0
655 1 41.058221783 17.493000241  0.0
656 1 92.41487309 17.493000241  0.0
657 1 43.61702167 18.950750138  0.0
658 1 94.973672976 18.950750138  0.0
659 1 48.734621442 18.950750138  0.0
660 1 100.091272749 18.950750138  0.0
661 1 45.383108161 18.950750138  0.0
662 1 96.739759468 18.950750138  0.0
663 1 50.500707934 18.950750138  0.0
664 1 101.85735924 18.950750138  0.0
665 1 47.887099142 17.493000241  0.0
666 1 99.243747388 17.493000241  0.0
667 1 46.230633522 17.493000241  0.0
668 1 97.587284829 17.493000241  0.0
669 1 44.500067977 17.493000241  0.0
670 1 95.856719283 17.493000241  0.0
671 1 49.617664688 17.493000241  0.0
672 1 100.974319055 17.493000241  0.0
673 1 0.81981499 21.866248454  0.0
674 1 52.176467636 21.866248454  0.0
675 1 5.937410745 21.866248454  0.0
676 1 57.294061286 21.866248454  0.0
677 1 2.585901482 21.866248454  0.0
678 1 53.942554127 21.866248454  0.0
679 1 7.703498002 21.866248454  0.0
680 1 59.060147778 21.866248454  0.0
681 1 5.089889593 20.408500034  0.0
682 1 56.446542047 20.408500034  0.0
683 1 3.433423208 20.408500034  0.0
684 1 54.790073366 20.408500034  0.0
685 1 1.702858236 20.408500034  0.0
686 1 53.05950782 20.408500034  0.0
687 1 6.820454756 20.408500034  0.0
688 1 58.177107593 20.408500034  0.0
689 1 9.379256173 21.866248454  0.0
690 1 60.735907479 21.866248454  0.0
691 1 14.496852885 21.866248454  0.0
692 1 65.853507252 21.866248454  0.0
693 1 11.14534343 21.866248454  0.0
694 1 62.501993971 21.866248454  0.0
695 1 16.262939376 21.866248454  0.0
696 1 67.619587621 21.866248454  0.0
697 1 13.649330585 20.408500034  0.0
698 1 65.005981891 20.408500034  0.0
699 1 11.99286573 20.408500034  0.0
700 1 63.349519332 20.408500034  0.0
701 1 10.262300184 20.408500034  0.0
702 1 61.618953786 20.408500034  0.0
703 1 15.37989613 20.408500034  0.0
704 1 66.736547437 20.408500034  0.0
705 1 17.938699078 21.866248454  0.0
706 1 69.295353445 21.866248454  0.0
707 1 23.056295789 21.866248454  0.0
708 1 74.412947095 21.866248454  0.0
709 1 19.704785569 21.866248454  0.0
710 1 71.061433814 21.866248454  0.0
711 1 24.822382281 21.866248454  0.0
712 1 76.179033587 21.866248454  0.0
713 1 22.208771959 20.408500034  0.0
714 1 73.565421734 20.408500034  0.0
715 1 20.552306339 20.408500034  0.0
716 1 71.908959175 20.408500034  0.0
717 1 18.821740793 20.408500034  0.0
718 1 70.17839363 20.408500034  0.0
719 1 23.939339035 20.408500034  0.0
720 1 75.295993402 20.408500034  0.0
721 1 26.498138921 21.866248454  0.0
722 1 77.854787166 21.866248454  0.0
723 1 31.615735633 21.866248454  0.0
724 1 82.972386939 21.866248454  0.0
725 1 28.264225413 21.866248454  0.0
726 1 79.62087978 21.866248454  0.0
727 1 33.381825186 21.866248454  0.0
728 1 84.738479553 21.866248454  0.0
729 1 30.768213333 20.408500034  0.0
730 1 82.1248677 20.408500034  0.0
731 1 29.111750774 20.408500034  0.0
732 1 80.468399019 20.408500034  0.0
733 1 27.381182167 20.408500034  0.0
734 1 78.737833473 20.408500034  0.0
735 1 32.498778879 20.408500034  0.0
736 1 83.855427124 20.408500034  0.0
737 1 35.057581826 21.866248454  0.0
738 1 86.414233132 21.866248454  0.0
739 1 40.175178538 21.866248454  0.0
740 1 91.531832905 21.866248454  0.0
741 1 36.823668318 21.866248454  0.0
742 1 88.180319624 21.866248454  0.0
743 1 41.941265029 21.866248454  0.0
744 1 93.297913274 21.866248454  0.0
745 1 39.327656238 20.408500034  0.0
746 1 90.684307544 20.408500034  0.0
747 1 37.671190618 20.408500034  0.0
748 1 89.027844985 20.408500034  0.0
749 1 35.940628133 20.408500034  0.0
750 1 87.297279439 20.408500034  0.0
751 1 41.058221783 20.408500034  0.0
752 1 92.41487309 20.408500034  0.0
753 1 43.61702167 21.866248454  0.0
754 1 94.973672976 21.866248454  0.0
755 1 48.734621442 21.866248454  0.0
756 1 100.091272749 21.866248454  0.0
757 1 45.383108161 21.866248454  0.0
758 1 96.739759468 21.866248454  0.0
759 1 50.500707934 21.866248454  0.0
760 1 101.85735924 21.866248454  0.0
761 1 47.887099142 20.408500034  0.0
762 1 99.243747388 20.408500034  0.0
763 1 46.230633522 20.408500034  0.0
764 1 97.587284829 20.408500034  0.0
765 1 44.500067977 20.408500034  0.0
766 1 95.856719283 20.408500034  0.0
767 1 49.617664688 20.408500034  0.0
768 1 100.974319055 20.408500034  0.0
769 1 0.81981499 24.781749725  0.0
770 1 52.176467636 24.781749725  0.0
771 1 5.937410745 24.781749725  0.0
772 1 57.294061286 24.781749725  0.0
773 1 2.585901482 24.781749725  0.0
774 1 53.942554127 24.781749725  0.0
775 1 7.703498002 24.781749725  0.0
776 1 59.060147778 24.781749725  0.0
777 1 5.089889593 23.323999828  0.0
778 1 56.446542047 23.323999828  0.0
779 1 3.433423208 23.323999828  0.0
780 1 54.790073366 23.323999828  0.0
781 1 1.702858236 23.323999828  0.0
782 1 53.05950782 23.323999828  0.0
783 1 6.820454756 23.323999828  0.0
784 1 58.177107593 23.323999828  0.0
785 1 9.379256173 24.781749725  0.0
786 1 60.735907479 24.781749725  0.0
787 1 14.496852885 24.781749725  0.0
788 1 65.853507252 24.781749725  0.0
789 1 11.14534343 24.781749725  0.0
790 1 62.501993971 24.781749725  0.0
791 1 16.262939376 24.781749725  0.0
792 1 67.619587621 24.781749725  0.0
793 1 13.649330585 23.323999828  0.0
794 1 65.005981891 23.323999828  0.0
795 1 11.99286573 23.323999828  0.0
796 1 63.349519332 23.323999828  0.0
797 1 10.262300184 23.323999828  0.0
798 1 61.618953786 23.323999828  0.0
799 1 15.37989613 23.323999828  0.0
800 1 66.736547437 23.323999828  0.0
801 1 17.938699078 24.781749725  0.0
802 1 69.295353445 24.781749725  0.0
803 1 23.056295789 24.781749725  0.0
804 1 74.412947095 24.781749725  0.0
805 1 19.704785569 24.781749725  0.0
806 1 71.061433814 24.781749725  0.0
807 1 24.822382281 24.781749725  0.0
808 1 76.179033587 24.781749725  0.0
809 1 22.208771959 23.323999828  0.0
810 1 73.565421734 23.323999828  0.0
811 1 20.552306339 23.323999828  0.0
812 1 71.908959175 23.323999828  0.0
813 1 18.821740793 23.323999828  0.0
814 1 70.17839363 23.323999828  0.0