 #  C with hexagonal graphite structure with box vectors H1=[2-1-10], H2=[-12-10], H3=[0001].
  
         540  atoms
           1  atom types
 
      0.000000000000      48.150000000000  xlo xhi
      0.000000000000      50.038947810000  ylo yhi
      0.000000000000       5.213000000000  zlo zhi
 
Masses
 
            1   12.01100000             # C
 
Atoms # atomic
 
         1    1        0.000000000000       1.853294511597       0.000000000000
         2    1        1.604999839500       4.633235778603       0.000000000000
         3    1        0.000000000000       3.706588522804       0.000000000000
         4    1        1.604999839500       0.926647255798       0.000000000000
         5    1        3.210000160500       1.853294511597       0.000000000000
         6    1        4.815000000000       4.633235778603       0.000000000000
         7    1        3.210000160500       3.706588522804       0.000000000000
         8    1        4.815000000000       0.926647255798       0.000000000000
         9    1        6.419999839500       1.853294511597       0.000000000000
        10    1        8.025000160500       4.633235778603       0.000000000000
        11    1        6.419999839500       3.706588522804       0.000000000000
        12    1        8.025000160500       0.926647255798       0.000000000000
        13    1        9.630000000000       1.853294511597       0.000000000000
        14    1       11.234999839500       4.633235778603       0.000000000000
        15    1        9.630000000000       3.706588522804       0.000000000000
        16    1       11.234999839500       0.926647255798       0.000000000000
        17    1       12.840000160500       1.853294511597       0.000000000000
        18    1       14.445000000000       4.633235778603       0.000000000000
        19    1       12.840000160500       3.706588522804       0.000000000000
        20    1       14.445000000000       0.926647255798       0.000000000000
        21    1       16.049999839500       1.853294511597       0.000000000000
        22    1       17.655000160500       4.633235778603       0.000000000000
        23    1       16.049999839500       3.706588522804       0.000000000000
        24    1       17.655000160500       0.926647255798       0.000000000000
        25    1       19.260000000000       1.853294511597       0.000000000000
        26    1       20.864999839500       4.633235778603       0.000000000000
        27    1       19.260000000000       3.706588522804       0.000000000000
        28    1       20.864999839500       0.926647255798       0.000000000000
        29    1       22.470000160500       1.853294511597       0.000000000000
        30    1       24.075000000000       4.633235778603       0.000000000000
        31    1       22.470000160500       3.706588522804       0.000000000000
        32    1       24.075000000000       0.926647255798       0.000000000000
        33    1       25.679999839500       1.853294511597       0.000000000000
        34    1       27.285000160500       4.633235778603       0.000000000000
        35    1       25.679999839500       3.706588522804       0.000000000000
        36    1       27.285000160500       0.926647255798       0.000000000000
        37    1       28.890000000000       1.853294511597       0.000000000000
        38    1       30.494999839500       4.633235778603       0.000000000000
        39    1       28.890000000000       3.706588522804       0.000000000000
        40    1       30.494999839500       0.926647255798       0.000000000000
        41    1       32.100000160500       1.853294511597       0.000000000000
        42    1       33.705000000000       4.633235778603       0.000000000000
        43    1       32.100000160500       3.706588522804       0.000000000000
        44    1       33.705000000000       0.926647255798       0.000000000000
        45    1       35.309999839500       1.853294511597       0.000000000000
        46    1       36.915000160500       4.633235778603       0.000000000000
        47    1       35.309999839500       3.706588522804       0.000000000000
        48    1       36.915000160500       0.926647255798       0.000000000000
        49    1       38.520000000000       1.853294511597       0.000000000000
        50    1       40.124999839500       4.633235778603       0.000000000000
        51    1       38.520000000000       3.706588522804       0.000000000000
        52    1       40.124999839500       0.926647255798       0.000000000000
        53    1       41.730000160500       1.853294511597       0.000000000000
        54    1       43.335000000000       4.633235778603       0.000000000000
        55    1       41.730000160500       3.706588522804       0.000000000000
        56    1       43.335000000000       0.926647255798       0.000000000000
        57    1       44.939999839500       1.853294511597       0.000000000000
        58    1       46.545000160500       4.633235778603       0.000000000000
        59    1       44.939999839500       3.706588522804       0.000000000000
        60    1       46.545000160500       0.926647255798       0.000000000000
        61    1        0.000000000000       7.413177545998       0.000000000000
        62    1        1.604999839500      10.193118813004       0.000000000000
        63    1        0.000000000000       9.266472057595       0.000000000000
        64    1        1.604999839500       6.486530290200       0.000000000000
        65    1        3.210000160500       7.413177545998       0.000000000000
        66    1        4.815000000000      10.193118813004       0.000000000000
        67    1        3.210000160500       9.266472057595       0.000000000000
        68    1        4.815000000000       6.486530290200       0.000000000000
        69    1        6.419999839500       7.413177545998       0.000000000000
        70    1        8.025000160500      10.193118813004       0.000000000000
        71    1        6.419999839500       9.266472057595       0.000000000000
        72    1        8.025000160500       6.486530290200       0.000000000000
        73    1        9.630000000000       7.413177545998       0.000000000000
        74    1       11.234999839500      10.193118813004       0.000000000000
        75    1        9.630000000000       9.266472057595       0.000000000000
        76    1       11.234999839500       6.486530290200       0.000000000000
        77    1       12.840000160500       7.413177545998       0.000000000000
        78    1       14.445000000000      10.193118813004       0.000000000000
        79    1       12.840000160500       9.266472057595       0.000000000000
        80    1       14.445000000000       6.486530290200       0.000000000000
        81    1       16.049999839500       7.413177545998       0.000000000000
        82    1       17.655000160500      10.193118813004       0.000000000000
        83    1       16.049999839500       9.266472057595       0.000000000000
        84    1       17.655000160500       6.486530290200       0.000000000000
        85    1       19.260000000000       7.413177545998       0.000000000000
        86    1       20.864999839500      10.193118813004       0.000000000000
        87    1       19.260000000000       9.266472057595       0.000000000000
        88    1       20.864999839500       6.486530290200       0.000000000000
        89    1       22.470000160500       7.413177545998       0.000000000000
        90    1       24.075000000000      10.193118813004       0.000000000000
        91    1       22.470000160500       9.266472057595       0.000000000000
        92    1       24.075000000000       6.486530290200       0.000000000000
        93    1       25.679999839500       7.413177545998       0.000000000000
        94    1       27.285000160500      10.193118813004       0.000000000000
        95    1       25.679999839500       9.266472057595       0.000000000000
        96    1       27.285000160500       6.486530290200       0.000000000000
        97    1       28.890000000000       7.413177545998       0.000000000000
        98    1       30.494999839500      10.193118813004       0.000000000000
        99    1       28.890000000000       9.266472057595       0.000000000000
       100    1       30.494999839500       6.486530290200       0.000000000000
       101    1       32.100000160500       7.413177545998       0.000000000000
       102    1       33.705000000000      10.193118813004       0.000000000000
       103    1       32.100000160500       9.266472057595       0.000000000000
       104    1       33.705000000000       6.486530290200       0.000000000000
       105    1       35.309999839500       7.413177545998       0.000000000000
       106    1       36.915000160500      10.193118813004       0.000000000000
       107    1       35.309999839500       9.266472057595       0.000000000000
       108    1       36.915000160500       6.486530290200       0.000000000000
       109    1       38.520000000000       7.413177545998       0.000000000000
       110    1       40.124999839500      10.193118813004       0.000000000000
       111    1       38.520000000000       9.266472057595       0.000000000000
       112    1       40.124999839500       6.486530290200       0.000000000000
       113    1       41.730000160500       7.413177545998       0.000000000000
       114    1       43.335000000000      10.193118813004       0.000000000000
       115    1       41.730000160500       9.266472057595       0.000000000000
       116    1       43.335000000000       6.486530290200       0.000000000000
       117    1       44.939999839500       7.413177545998       0.000000000000
       118    1       46.545000160500      10.193118813004       0.000000000000
       119    1       44.939999839500       9.266472057595       0.000000000000
       120    1       46.545000160500       6.486530290200       0.000000000000
       121    1        0.000000000000      12.973060580399       0.000000000000
       122    1        1.604999839500      15.753001847405       0.000000000000
       123    1        0.000000000000      14.826355091996       0.000000000000
       124    1        1.604999839500      12.046413324601       0.000000000000
       125    1        3.210000160500      12.973060580399       0.000000000000
       126    1        4.815000000000      15.753001847405       0.000000000000
       127    1        3.210000160500      14.826355091996       0.000000000000
       128    1        4.815000000000      12.046413324601       0.000000000000
       129    1        6.419999839500      12.973060580399       0.000000000000
       130    1        8.025000160500      15.753001847405       0.000000000000
       131    1        6.419999839500      14.826355091996       0.000000000000
       132    1        8.025000160500      12.046413324601       0.000000000000
       133    1        9.630000000000      12.973060580399       0.000000000000
       134    1       11.234999839500      15.753001847405       0.000000000000
       135    1        9.630000000000      14.826355091996       0.000000000000
       136    1       11.234999839500      12.046413324601       0.000000000000
       137    1       12.840000160500      12.973060580399       0.000000000000
       138    1       14.445000000000      15.753001847405       0.000000000000
       139    1       12.840000160500      14.826355091996       0.000000000000
       140    1       14.445000000000      12.046413324601       0.000000000000
       141    1       16.049999839500      12.973060580399       0.000000000000
       142    1       17.655000160500      15.753001847405       0.000000000000
       143    1       16.049999839500      14.826355091996       0.000000000000
       144    1       17.655000160500      12.046413324601       0.000000000000
       145    1       19.260000000000      12.973060580399       0.000000000000
       146    1       20.864999839500      15.753001847405       0.000000000000
       147    1       19.260000000000      14.826355091996       0.000000000000
       148    1       20.864999839500      12.046413324601       0.000000000000
       149    1       22.470000160500      12.973060580399       0.000000000000
       150    1       24.075000000000      15.753001847405       0.000000000000
       151    1       22.470000160500      14.826355091996       0.000000000000
       152    1       24.075000000000      12.046413324601       0.000000000000
       153    1       25.679999839500      12.973060580399       0.000000000000
       154    1       27.285000160500      15.753001847405       0.000000000000
       155    1       25.679999839500      14.826355091996       0.000000000000
       156    1       27.285000160500      12.046413324601       0.000000000000
       157    1       28.890000000000      12.973060580399       0.000000000000
       158    1       30.494999839500      15.753001847405       0.000000000000
       159    1       28.890000000000      14.826355091996       0.000000000000
       160    1       30.494999839500      12.046413324601       0.000000000000
       161    1       32.100000160500      12.973060580399       0.000000000000
       162    1       33.705000000000      15.753001847405       0.000000000000
       163    1       32.100000160500      14.826355091996       0.000000000000
       164    1       33.705000000000      12.046413324601       0.000000000000
       165    1       35.309999839500      12.973060580399       0.000000000000
       166    1       36.915000160500      15.753001847405       0.000000000000
       167    1       35.309999839500      14.826355091996       0.000000000000
       168    1       36.915000160500      12.046413324601       0.000000000000
       169    1       38.520000000000      12.973060580399       0.000000000000
       170    1       40.124999839500      15.753001847405       0.000000000000
       171    1       38.520000000000      14.826355091996       0.000000000000
       172    1       40.124999839500      12.046413324601       0.000000000000
       173    1       41.730000160500      12.973060580399       0.000000000000
       174    1       43.335000000000      15.753001847405       0.000000000000
       175    1       41.730000160500      14.826355091996       0.000000000000
       176    1       43.335000000000      12.046413324601       0.000000000000
       177    1       44.939999839500      12.973060580399       0.000000000000
       178    1       46.545000160500      15.753001847405       0.000000000000
       179    1       44.939999839500      14.826355091996       0.000000000000
       180    1       46.545000160500      12.046413324601       0.000000000000
       181    1        0.000000000000      18.532943614800       0.000000000000
       182    1        1.604999839500      21.312885382196       0.000000000000
       183    1        0.000000000000      20.386238126397       0.000000000000
       184    1        1.604999839500      17.606296359002       0.000000000000
       185    1        3.210000160500      18.532943614800       0.000000000000
       186    1        4.815000000000      21.312885382196       0.000000000000
       187    1        3.210000160500      20.386238126397       0.000000000000
       188    1        4.815000000000      17.606296359002       0.000000000000
       189    1        6.419999839500      18.532943614800       0.000000000000
       190    1        8.025000160500      21.312885382196       0.000000000000
       191    1        6.419999839500      20.386238126397       0.000000000000
       192    1        8.025000160500      17.606296359002       0.000000000000
       193    1        9.630000000000      18.532943614800       0.000000000000
       194    1       11.234999839500      21.312885382196       0.000000000000
       195    1        9.630000000000      20.386238126397       0.000000000000
       196    1       11.234999839500      17.606296359002       0.000000000000
       197    1       12.840000160500      18.532943614800       0.000000000000
       198    1       14.445000000000      21.312885382196       0.000000000000
       199    1       12.840000160500      20.386238126397       0.000000000000
       200    1       14.445000000000      17.606296359002       0.000000000000
       201    1       16.049999839500      18.532943614800       0.000000000000
       202    1       17.655000160500      21.312885382196       0.000000000000
       203    1       16.049999839500      20.386238126397       0.000000000000
       204    1       17.655000160500      17.606296359002       0.000000000000
       205    1       19.260000000000      18.532943614800       0.000000000000
       206    1       20.864999839500      21.312885382196       0.000000000000
       207    1       19.260000000000      20.386238126397       0.000000000000
       208    1       20.864999839500      17.606296359002       0.000000000000
       209    1       22.470000160500      18.532943614800       0.000000000000
       210    1       24.075000000000      21.312885382196       0.000000000000
       211    1       22.470000160500      20.386238126397       0.000000000000
       212    1       24.075000000000      17.606296359002       0.000000000000
       213    1       25.679999839500      18.532943614800       0.000000000000
       214    1       27.285000160500      21.312885382196       0.000000000000
       215    1       25.679999839500      20.386238126397       0.000000000000
       216    1       27.285000160500      17.606296359002       0.000000000000
       217    1       28.890000000000      18.532943614800       0.000000000000
       218    1       30.494999839500      21.312885382196       0.000000000000
       219    1       28.890000000000      20.386238126397       0.000000000000
       220    1       30.494999839500      17.606296359002       0.000000000000
       221    1       32.100000160500      18.532943614800       0.000000000000
       222    1       33.705000000000      21.312885382196       0.000000000000
       223    1       32.100000160500      20.386238126397       0.000000000000
       224    1       33.705000000000      17.606296359002       0.000000000000
       225    1       35.309999839500      18.532943614800       0.000000000000
       226    1       36.915000160500      21.312885382196       0.000000000000
       227    1       35.309999839500      20.386238126397       0.000000000000
       228    1       36.915000160500      17.606296359002       0.000000000000
       229    1       38.520000000000      18.532943614800       0.000000000000
       230    1       40.124999839500      21.312885382196       0.000000000000
       231    1       38.520000000000      20.386238126397       0.000000000000
       232    1       40.124999839500      17.606296359002       0.000000000000
       233    1       41.730000160500      18.532943614800       0.000000000000
       234    1       43.335000000000      21.312885382196       0.000000000000
       235    1       41.730000160500      20.386238126397       0.000000000000
       236    1       43.335000000000      17.606296359002       0.000000000000
       237    1       44.939999839500      18.532943614800       0.000000000000
       238    1       46.545000160500      21.312885382196       0.000000000000
       239    1       44.939999839500      20.386238126397       0.000000000000
       240    1       46.545000160500      17.606296359002       0.000000000000
       241    1        0.000000000000      24.092826649202       0.000000000000
       242    1        1.604999839500      26.872768416597       0.000000000000
       243    1        0.000000000000      25.946121160798       0.000000000000
       244    1        1.604999839500      23.166179393403       0.000000000000
       245    1        3.210000160500      24.092826649202       0.000000000000
       246    1        4.815000000000      26.872768416597       0.000000000000
       247    1        3.210000160500      25.946121160798       0.000000000000
       248    1        4.815000000000      23.166179393403       0.000000000000
       249    1        6.419999839500      24.092826649202       0.000000000000
       250    1        8.025000160500      26.872768416597       0.000000000000
       251    1        6.419999839500      25.946121160798       0.000000000000
       252    1        8.025000160500      23.166179393403       0.000000000000
       253    1        9.630000000000      24.092826649202       0.000000000000
       254    1       11.234999839500      26.872768416597       0.000000000000
       255    1        9.630000000000      25.946121160798       0.000000000000
       256    1       11.234999839500      23.166179393403       0.000000000000
       257    1       12.840000160500      24.092826649202       0.000000000000
       258    1       14.445000000000      26.872768416597       0.000000000000
       259    1       12.840000160500      25.946121160798       0.000000000000
       260    1       14.445000000000      23.166179393403       0.000000000000
       261    1       16.049999839500      24.092826649202       0.000000000000
       262    1       17.655000160500      26.872768416597       0.000000000000
       263    1       16.049999839500      25.946121160798       0.000000000000
       264    1       17.655000160500      23.166179393403       0.000000000000
       265    1       19.260000000000      24.092826649202       0.000000000000
       266    1       20.864999839500      26.872768416597       0.000000000000
       267    1       19.260000000000      25.946121160798       0.000000000000
       268    1       20.864999839500      23.166179393403       0.000000000000
       269    1       22.470000160500      24.092826649202       0.000000000000
       270    1       24.075000000000      26.872768416597       0.000000000000
       271    1       22.470000160500      25.946121160798       0.000000000000
       272    1       24.075000000000      23.166179393403       0.000000000000
       273    1       25.679999839500      24.092826649202       0.000000000000
       274    1       27.285000160500      26.872768416597       0.000000000000
       275    1       25.679999839500      25.946121160798       0.000000000000
       276    1       27.285000160500      23.166179393403       0.000000000000
       277    1       28.890000000000      24.092826649202       0.000000000000
       278    1       30.494999839500      26.872768416597       0.000000000000
       279    1       28.890000000000      25.946121160798       0.000000000000
       280    1       30.494999839500      23.166179393403       0.000000000000
       281    1       32.100000160500      24.092826649202       0.000000000000
       282    1       33.705000000000      26.872768416597       0.000000000000
       283    1       32.100000160500      25.946121160798       0.000000000000
       284    1       33.705000000000      23.166179393403       0.000000000000
       285    1       35.309999839500      24.092826649202       0.000000000000
       286    1       36.915000160500      26.872768416597       0.000000000000
       287    1       35.309999839500      25.946121160798       0.000000000000
       288    1       36.915000160500      23.166179393403       0.000000000000
       289    1       38.520000000000      24.092826649202       0.000000000000
       290    1       40.124999839500      26.872768416597       0.000000000000
       291    1       38.520000000000      25.946121160798       0.000000000000
       292    1       40.124999839500      23.166179393403       0.000000000000
       293    1       41.730000160500      24.092826649202       0.000000000000
       294    1       43.335000000000      26.872768416597       0.000000000000
       295    1       41.730000160500      25.946121160798       0.000000000000
       296    1       43.335000000000      23.166179393403       0.000000000000
       297    1       44.939999839500      24.092826649202       0.000000000000
       298    1       46.545000160500      26.872768416597       0.000000000000
       299    1       44.939999839500      25.946121160798       0.000000000000
       300    1       46.545000160500      23.166179393403       0.000000000000
       301    1        0.000000000000      29.652709683603       0.000000000000
       302    1        1.604999839500      32.432651450998       0.000000000000
       303    1        0.000000000000      31.506004195200       0.000000000000
       304    1        1.604999839500      28.726062427804       0.000000000000
       305    1        3.210000160500      29.652709683603       0.000000000000
       306    1        4.815000000000      32.432651450998       0.000000000000
       307    1        3.210000160500      31.506004195200       0.000000000000
       308    1        4.815000000000      28.726062427804       0.000000000000
       309    1        6.419999839500      29.652709683603       0.000000000000
       310    1        8.025000160500      32.432651450998       0.000000000000
       311    1        6.419999839500      31.506004195200       0.000000000000
       312    1        8.025000160500      28.726062427804       0.000000000000
       313    1        9.630000000000      29.652709683603       0.000000000000
       314    1       11.234999839500      32.432651450998       0.000000000000
       315    1        9.630000000000      31.506004195200       0.000000000000
       316    1       11.234999839500      28.726062427804       0.000000000000
       317    1       12.840000160500      29.652709683603       0.000000000000
       318    1       14.445000000000      32.432651450998       0.000000000000
       319    1       12.840000160500      31.506004195200       0.000000000000
       320    1       14.445000000000      28.726062427804       0.000000000000
       321    1       16.049999839500      29.652709683603       0.000000000000
       322    1       17.655000160500      32.432651450998       0.000000000000
       323    1       16.049999839500      31.506004195200       0.000000000000
       324    1       17.655000160500      28.726062427804       0.000000000000
       325    1       19.260000000000      29.652709683603       0.000000000000
       326    1       20.864999839500      32.432651450998       0.000000000000
       327    1       19.260000000000      31.506004195200       0.000000000000
       328    1       20.864999839500      28.726062427804       0.000000000000
       329    1       22.470000160500      29.652709683603       0.000000000000
       330    1       24.075000000000      32.432651450998       0.000000000000
       331    1       22.470000160500      31.506004195200       0.000000000000
       332    1       24.075000000000      28.726062427804       0.000000000000
       333    1       25.679999839500      29.652709683603       0.000000000000
       334    1       27.285000160500      32.432651450998       0.000000000000
       335    1       25.679999839500      31.506004195200       0.000000000000
       336    1       27.285000160500      28.726062427804       0.000000000000
       337    1       28.890000000000      29.652709683603       0.000000000000
       338    1       30.494999839500      32.432651450998       0.000000000000
       339    1       28.890000000000      31.506004195200       0.000000000000
       340    1       30.494999839500      28.726062427804       0.000000000000
       341    1       32.100000160500      29.652709683603       0.000000000000
       342    1       33.705000000000      32.432651450998       0.000000000000
       343    1       32.100000160500      31.506004195200       0.000000000000
       344    1       33.705000000000      28.726062427804       0.000000000000
       345    1       35.309999839500      29.652709683603       0.000000000000
       346    1       36.915000160500      32.432651450998       0.000000000000
       347    1       35.309999839500      31.506004195200       0.000000000000
       348    1       36.915000160500      28.726062427804       0.000000000000
       349    1       38.520000000000      29.652709683603       0.000000000000
       350    1       40.124999839500      32.432651450998       0.000000000000
       351    1       38.520000000000      31.506004195200       0.000000000000
       352    1       40.124999839500      28.726062427804       0.000000000000
       353    1       41.730000160500      29.652709683603       0.000000000000
       354    1       43.335000000000      32.432651450998       0.000000000000
       355    1       41.730000160500      31.506004195200       0.000000000000
       356    1       43.335000000000      28.726062427804       0.000000000000
       357    1       44.939999839500      29.652709683603       0.000000000000
       358    1       46.545000160500      32.432651450998       0.000000000000
       359    1       44.939999839500      31.506004195200       0.000000000000
       360    1       46.545000160500      28.726062427804       0.000000000000
       361    1        0.000000000000      35.212592718004       0.000000000000
       362    1        1.604999839500      37.992534485399       0.000000000000
       363    1        0.000000000000      37.065887229601       0.000000000000
       364    1        1.604999839500      34.285945962595       0.000000000000
       365    1        3.210000160500      35.212592718004       0.000000000000
       366    1        4.815000000000      37.992534485399       0.000000000000
       367    1        3.210000160500      37.065887229601       0.000000000000
       368    1        4.815000000000      34.285945962595       0.000000000000
       369    1        6.419999839500      35.212592718004       0.000000000000
       370    1        8.025000160500      37.992534485399       0.000000000000