# LAMMPS data file written by OVITO Basic 3.8.4

1080 atoms
1 atom types

0.0 199.013305664 xlo xhi
0.0 50.0389480591 ylo yhi
0.0 5.2129998207 zlo zhi

Masses

1 12.0107  # C

Atoms  # atomic

1 1 0.0 1.853294573 0.0
2 1 48.150001526 1.853294573 0.0
3 1 1.604999776 4.63323578 0.0
4 1 49.755000046 4.63323578 0.0
5 1 0.0 3.7065884 0.0
6 1 48.150001526 3.7065884 0.0
7 1 1.604999776 0.926647286 0.0
8 1 49.755000046 0.926647286 0.0
9 1 3.210000269 1.853294573 0.0
10 1 51.360004306 1.853294573 0.0
11 1 4.815000224 4.63323578 0.0
12 1 52.965002826 4.63323578 0.0
13 1 3.210000269 3.7065884 0.0
14 1 51.360004306 3.7065884 0.0
15 1 4.815000224 0.926647286 0.0
16 1 52.965002826 0.926647286 0.0
17 1 6.420000538 1.853294573 0.0
18 1 54.570001347 1.853294573 0.0
19 1 8.025000493 4.63323578 0.0
20 1 56.174999867 4.63323578 0.0
21 1 6.420000538 3.7065884 0.0
22 1 54.570001347 3.7065884 0.0
23 1 8.025000493 0.926647286 0.0
24 1 56.174999867 0.926647286 0.0
25 1 9.630000449 1.853294573 0.0
26 1 57.780004127 1.853294573 0.0
27 1 11.234999686 4.63323578 0.0
28 1 59.385002647 4.63323578 0.0
29 1 9.630000449 3.7065884 0.0
30 1 57.780004127 3.7065884 0.0
31 1 11.234999686 0.926647286 0.0
32 1 59.385002647 0.926647286 0.0
33 1 12.840001077 1.853294573 0.0
34 1 60.990001167 1.853294573 0.0
35 1 14.444999597 4.63323578 0.0
36 1 62.594999688 4.63323578 0.0
37 1 12.840001077 3.7065884 0.0
38 1 60.990001167 3.7065884 0.0
39 1 14.444999597 0.926647286 0.0
40 1 62.594999688 0.926647286 0.0
41 1 16.049999552 1.853294573 0.0
42 1 64.199998208 1.853294573 0.0
43 1 17.655000942 4.63323578 0.0
44 1 65.805002468 4.63323578 0.0
45 1 16.049999552 3.7065884 0.0
46 1 64.199998208 3.7065884 0.0
47 1 17.655000942 0.926647286 0.0
48 1 65.805002468 0.926647286 0.0
49 1 19.260000897 1.853294573 0.0
50 1 67.410000988 1.853294573 0.0
51 1 20.865000853 4.63323578 0.0
52 1 69.015005248 4.63323578 0.0
53 1 19.260000897 3.7065884 0.0
54 1 67.410000988 3.7065884 0.0
55 1 20.865000853 0.926647286 0.0
56 1 69.015005248 0.926647286 0.0
57 1 22.469999373 1.853294573 0.0
58 1 70.620003769 1.853294573 0.0
59 1 24.075000763 4.63323578 0.0
60 1 72.225002289 4.63323578 0.0
61 1 22.469999373 3.7065884 0.0
62 1 70.620003769 3.7065884 0.0
63 1 24.075000763 0.926647286 0.0
64 1 72.225002289 0.926647286 0.0
65 1 25.680002153 1.853294573 0.0
66 1 73.830000809 1.853294573 0.0
67 1 27.285000673 4.63323578 0.0
68 1 75.434999329 4.63323578 0.0
69 1 25.680002153 3.7065884 0.0
70 1 73.830000809 3.7065884 0.0
71 1 27.285000673 0.926647286 0.0
72 1 75.434999329 0.926647286 0.0
73 1 28.889999194 1.853294573 0.0
74 1 77.039997849 1.853294573 0.0
75 1 30.495000584 4.63323578 0.0
76 1 78.64500211 4.63323578 0.0
77 1 28.889999194 3.7065884 0.0
78 1 77.039997849 3.7065884 0.0
79 1 30.495000584 0.926647286 0.0
80 1 78.64500211 0.926647286 0.0
81 1 32.099999104 1.853294573 0.0
82 1 80.25000063 1.853294573 0.0
83 1 33.705003364 4.63323578 0.0
84 1 81.85500489 4.63323578 0.0
85 1 32.099999104 3.7065884 0.0
86 1 80.25000063 3.7065884 0.0
87 1 33.705003364 0.926647286 0.0
88 1 81.85500489 0.926647286 0.0
89 1 35.310001884 1.853294573 0.0
90 1 83.46000341 1.853294573 0.0
91 1 36.915003274 4.63323578 0.0
92 1 85.06500193 4.63323578 0.0
93 1 35.310001884 3.7065884 0.0
94 1 83.46000341 3.7065884 0.0
95 1 36.915003274 0.926647286 0.0
96 1 85.06500193 0.926647286 0.0
97 1 38.520001795 1.853294573 0.0
98 1 86.670000451 1.853294573 0.0
99 1 40.125000315 4.63323578 0.0
100 1 88.274998971 4.63323578 0.0
101 1 38.520001795 3.7065884 0.0
102 1 86.670000451 3.7065884 0.0
103 1 40.125000315 0.926647286 0.0
104 1 88.274998971 0.926647286 0.0
105 1 41.730001705 1.853294573 0.0
106 1 89.880003231 1.853294573 0.0
107 1 43.335000225 4.63323578 0.0
108 1 91.485001751 4.63323578 0.0
109 1 41.730001705 3.7065884 0.0
110 1 89.880003231 3.7065884 0.0
111 1 43.335000225 0.926647286 0.0
112 1 91.485001751 0.926647286 0.0
113 1 44.939998746 1.853294573 0.0
114 1 93.090000271 1.853294573 0.0
115 1 46.545003006 4.63323578 0.0
116 1 94.695004532 4.63323578 0.0
117 1 44.939998746 3.7065884 0.0
118 1 93.090000271 3.7065884 0.0
119 1 46.545003006 0.926647286 0.0
120 1 94.695004532 0.926647286 0.0
121 1 0.0 7.413177545 0.0
122 1 48.150001526 7.413177545 0.0
123 1 1.604999776 10.193118939 0.0
124 1 49.755000046 10.193118939 0.0
125 1 0.0 9.266471559 0.0
126 1 48.150001526 9.266471559 0.0
127 1 1.604999776 6.486530166 0.0
128 1 49.755000046 6.486530166 0.0
129 1 3.210000269 7.413177545 0.0
130 1 51.360004306 7.413177545 0.0
131 1 4.815000224 10.193118939 0.0
132 1 52.965002826 10.193118939 0.0
133 1 3.210000269 9.266471559 0.0
134 1 51.360004306 9.266471559 0.0
135 1 4.815000224 6.486530166 0.0
136 1 52.965002826 6.486530166 0.0
137 1 6.420000538 7.413177545 0.0
138 1 54.570001347 7.413177545 0.0
139 1 8.025000493 10.193118939 0.0
140 1 56.174999867 10.193118939 0.0
141 1 6.420000538 9.266471559 0.0
142 1 54.570001347 9.266471559 0.0
143 1 8.025000493 6.486530166 0.0
144 1 56.174999867 6.486530166 0.0
145 1 9.630000449 7.413177545 0.0
146 1 57.780004127 7.413177545 0.0
147 1 11.234999686 10.193118939 0.0
148 1 59.385002647 10.193118939 0.0
149 1 9.630000449 9.266471559 0.0
150 1 57.780004127 9.266471559 0.0
151 1 11.234999686 6.486530166 0.0
152 1 59.385002647 6.486530166 0.0
153 1 12.840001077 7.413177545 0.0
154 1 60.990001167 7.413177545 0.0
155 1 14.444999597 10.193118939 0.0
156 1 62.594999688 10.193118939 0.0
157 1 12.840001077 9.266471559 0.0
158 1 60.990001167 9.266471559 0.0
159 1 14.444999597 6.486530166 0.0
160 1 62.594999688 6.486530166 0.0
161 1 16.049999552 7.413177545 0.0
162 1 64.199998208 7.413177545 0.0
163 1 17.655000942 10.193118939 0.0
164 1 65.805002468 10.193118939 0.0
165 1 16.049999552 9.266471559 0.0
166 1 64.199998208 9.266471559 0.0
167 1 17.655000942 6.486530166 0.0
168 1 65.805002468 6.486530166 0.0
169 1 19.260000897 7.413177545 0.0
170 1 67.410000988 7.413177545 0.0
171 1 20.865000853 10.193118939 0.0
172 1 69.015005248 10.193118939 0.0
173 1 19.260000897 9.266471559 0.0
174 1 67.410000988 9.266471559 0.0
175 1 20.865000853 6.486530166 0.0
176 1 69.015005248 6.486530166 0.0
177 1 22.469999373 7.413177545 0.0
178 1 70.620003769 7.413177545 0.0
179 1 24.075000763 10.193118939 0.0
180 1 72.225002289 10.193118939 0.0
181 1 22.469999373 9.266471559 0.0
182 1 70.620003769 9.266471559 0.0
183 1 24.075000763 6.486530166 0.0
184 1 72.225002289 6.486530166 0.0
185 1 25.680002153 7.413177545 0.0
186 1 73.830000809 7.413177545 0.0
187 1 27.285000673 10.193118939 0.0
188 1 75.434999329 10.193118939 0.0
189 1 25.680002153 9.266471559 0.0
190 1 73.830000809 9.266471559 0.0
191 1 27.285000673 6.486530166 0.0
192 1 75.434999329 6.486530166 0.0
193 1 28.889999194 7.413177545 0.0
194 1 77.039997849 7.413177545 0.0
195 1 30.495000584 10.193118939 0.0
196 1 78.64500211 10.193118939 0.0
197 1 28.889999194 9.266471559 0.0
198 1 77.039997849 9.266471559 0.0
199 1 30.495000584 6.486530166 0.0
200 1 78.64500211 6.486530166 0.0
201 1 32.099999104 7.413177545 0.0
202 1 80.25000063 7.413177545 0.0
203 1 33.705003364 10.193118939 0.0
204 1 81.85500489 10.193118939 0.0
205 1 32.099999104 9.266471559 0.0
206 1 80.25000063 9.266471559 0.0
207 1 33.705003364 6.486530166 0.0
208 1 81.85500489 6.486530166 0.0
209 1 35.310001884 7.413177545 0.0
210 1 83.46000341 7.413177545 0.0
211 1 36.915003274 10.193118939 0.0
212 1 85.06500193 10.193118939 0.0
213 1 35.310001884 9.266471559 0.0
214 1 83.46000341 9.266471559 0.0
215 1 36.915003274 6.486530166 0.0
216 1 85.06500193 6.486530166 0.0
217 1 38.520001795 7.413177545 0.0
218 1 86.670000451 7.413177545 0.0
219 1 40.125000315 10.193118939 0.0
220 1 88.274998971 10.193118939 0.0
221 1 38.520001795 9.266471559 0.0
222 1 86.670000451 9.266471559 0.0
223 1 40.125000315 6.486530166 0.0
224 1 88.274998971 6.486530166 0.0
225 1 41.730001705 7.413177545 0.0
226 1 89.880003231 7.413177545 0.0
227 1 43.335000225 10.193118939 0.0
228 1 91.485001751 10.193118939 0.0
229 1 41.730001705 9.266471559 0.0
230 1 89.880003231 9.266471559 0.0
231 1 43.335000225 6.486530166 0.0
232 1 91.485001751 6.486530166 0.0
233 1 44.939998746 7.413177545 0.0
234 1 93.090000271 7.413177545 0.0
235 1 46.545003006 10.193118939 0.0
236 1 94.695004532 10.193118939 0.0
237 1 44.939998746 9.266471559 0.0
238 1 93.090000271 9.266471559 0.0
239 1 46.545003006 6.486530166 0.0
240 1 94.695004532 6.486530166 0.0
241 1 0.0 12.973060332 0.0
242 1 48.150001526 12.973060332 0.0
243 1 1.604999776 15.753001725 0.0
244 1 49.755000046 15.753001725 0.0
245 1 0.0 14.826355091 0.0
246 1 48.150001526 14.826355091 0.0
247 1 1.604999776 12.046413698 0.0
248 1 49.755000046 12.046413698 0.0
249 1 3.210000269 12.973060332 0.0
250 1 51.360004306 12.973060332 0.0
251 1 4.815000224 15.753001725 0.0
252 1 52.965002826 15.753001725 0.0
253 1 3.210000269 14.826355091 0.0
254 1 51.360004306 14.826355091 0.0
255 1 4.815000224 12.046413698 0.0
256 1 52.965002826 12.046413698 0.0
257 1 6.420000538 12.973060332 0.0
258 1 54.570001347 12.973060332 0.0
259 1 8.025000493 15.753001725 0.0
260 1 56.174999867 15.753001725 0.0
261 1 6.420000538 14.826355091 0.0
262 1 54.570001347 14.826355091 0.0
263 1 8.025000493 12.046413698 0.0
264 1 56.174999867 12.046413698 0.0
265 1 9.630000449 12.973060332 0.0
266 1 57.780004127 12.973060332 0.0
267 1 11.234999686 15.753001725 0.0
268 1 59.385002647 15.753001725 0.0
269 1 9.630000449 14.826355091 0.0
270 1 57.780004127 14.826355091 0.0
271 1 11.234999686 12.046413698 0.0
272 1 59.385002647 12.046413698 0.0
273 1 12.840001077 12.973060332 0.0
274 1 60.990001167 12.973060332 0.0
275 1 14.444999597 15.753001725 0.0
276 1 62.594999688 15.753001725 0.0
277 1 12.840001077 14.826355091 0.0
278 1 60.990001167 14.826355091 0.0
279 1 14.444999597 12.046413698 0.0
280 1 62.594999688 12.046413698 0.0
281 1 16.049999552 12.973060332 0.0
282 1 64.199998208 12.973060332 0.0
283 1 17.655000942 15.753001725 0.0
284 1 65.805002468 15.753001725 0.0
285 1 16.049999552 14.826355091 0.0
286 1 64.199998208 14.826355091 0.0
287 1 17.655000942 12.046413698 0.0
288 1 65.805002468 12.046413698 0.0
289 1 19.260000897 12.973060332 0.0
290 1 67.410000988 12.973060332 0.0
291 1 20.865000853 15.753001725 0.0
292 1 69.015005248 15.753001725 0.0
293 1 19.260000897 14.826355091 0.0
294 1 67.410000988 14.826355091 0.0
295 1 20.865000853 12.046413698 0.0
296 1 69.015005248 12.046413698 0.0
297 1 22.469999373 12.973060332 0.0
298 1 70.620003769 12.973060332 0.0
299 1 24.075000763 15.753001725 0.0
300 1 72.225002289 15.753001725 0.0
301 1 22.469999373 14.826355091 0.0
302 1 70.620003769 14.826355091 0.0
303 1 24.075000763 12.046413698 0.0
304 1 72.225002289 12.046413698 0.0
305 1 25.680002153 12.973060332 0.0
306 1 73.830000809 12.973060332 0.0
307 1 27.285000673 15.753001725 0.0
308 1 75.434999329 15.753001725 0.0
309 1 25.680002153 14.826355091 0.0
310 1 73.830000809 14.826355091 0.0
311 1 27.285000673 12.046413698 0.0
312 1 75.434999329 12.046413698 0.0
313 1 28.889999194 12.973060332 0.0
314 1 77.039997849 12.973060332 0.0
315 1 30.495000584 15.753001725 0.0
316 1 78.64500211 15.753001725 0.0
317 1 28.889999194 14.826355091 0.0
318 1 77.039997849 14.826355091 0.0
319 1 30.495000584 12.046413698 0.0
320 1 78.64500211 12.046413698 0.0
321 1 32.099999104 12.973060332 0.0
322 1 80.25000063 12.973060332 0.0
323 1 33.705003364 15.753001725 0.0
324 1 81.85500489 15.753001725 0.0
325 1 32.099999104 14.826355091 0.0
326 1 80.25000063 14.826355091 0.0
327 1 33.705003364 12.046413698 0.0
328 1 81.85500489 12.046413698 0.0
329 1 35.310001884 12.973060332 0.0
330 1 83.46000341 12.973060332 0.0
331 1 36.915003274 15.753001725 0.0
332 1 85.06500193 15.753001725 0.0
333 1 35.310001884 14.826355091 0.0
334 1 83.46000341 14.826355091 0.0
335 1 36.915003274 12.046413698 0.0
336 1 85.06500193 12.046413698 0.0
337 1 38.520001795 12.973060332 0.0
338 1 86.670000451 12.973060332 0.0
339 1 40.125000315 15.753001725 0.0
340 1 88.274998971 15.753001725 0.0
341 1 38.520001795 14.826355091 0.0
342 1 86.670000451 14.826355091 0.0
343 1 40.125000315 12.046413698 0.0
344 1 88.274998971 12.046413698 0.0
345 1 41.730001705 12.973060332 0.0
346 1 89.880003231 12.973060332 0.0
347 1 43.335000225 15.753001725 0.0
348 1 91.485001751 15.753001725 0.0
349 1 41.730001705 14.826355091 0.0
350 1 89.880003231 14.826355091 0.0
351 1 43.335000225 12.046413698 0.0
352 1 91.485001751 12.046413698 0.0
353 1 44.939998746 12.973060332 0.0
354 1 93.090000271 12.973060332 0.0
355 1 46.545003006 15.753001725 0.0
356 1 94.695004532 15.753001725 0.0
357 1 44.939998746 14.826355091 0.0
358 1 93.090000271 14.826355091 0.0
359 1 46.545003006 12.046413698 0.0
360 1 94.695004532 12.046413698 0.0
361 1 0.0 18.532943118 0.0
362 1 48.150001526 18.532943118 0.0
363 1 1.604999776 21.312886002 0.0
364 1 49.755000046 21.312886002 0.0
365 1 0.0 20.386237877 0.0
366 1 48.150001526 20.386237877 0.0
367 1 1.604999776 17.606296484 0.0
368 1 49.755000046 17.606296484 0.0
369 1 3.210000269 18.532943118 0.0
370 1 51.360004306 18.532943118 0.0
371 1 4.815000224 21.312886002 0.0
372 1 52.965002826 21.312886002 0.0
373 1 3.210000269 20.386237877 0.0
374 1 51.360004306 20.386237877 0.0
375 1 4.815000224 17.606296484 0.0
376 1 52.965002826 17.606296484 0.0
377 1 6.420000538 18.532943118 0.0
378 1 54.570001347 18.532943118 0.0
379 1 8.025000493 21.312886002 0.0
380 1 56.174999867 21.312886002 0.0
381 1 6.420000538 20.386237877 0.0
382 1 54.570001347 20.386237877 0.0
383 1 8.025000493 17.606296484 0.0
384 1 56.174999867 17.606296484 0.0
385 1 9.630000449 18.532943118 0.0
386 1 57.780004127 18.532943118 0.0
387 1 11.234999686 21.312886002 0.0
388 1 59.385002647 21.312886002 0.0
389 1 9.630000449 20.386237877 0.0
390 1 57.780004127 20.386237877 0.0
391 1 11.234999686 17.606296484 0.0
392 1 59.385002647 17.606296484 0.0
393 1 12.840001077 18.532943118 0.0
394 1 60.990001167 18.532943118 0.0
395 1 14.444999597 21.312886002 0.0
396 1 62.594999688 21.312886002 0.0
397 1 12.840001077 20.386237877 0.0
398 1 60.990001167 20.386237877 0.0
399 1 14.444999597 17.606296484 0.0
400 1 62.594999688 17.606296484 0.0
401 1 16.049999552 18.532943118 0.0
402 1 64.199998208 18.532943118 0.0
403 1 17.655000942 21.312886002 0.0
404 1 65.805002468 21.312886002 0.0
405 1 16.049999552 20.386237877 0.0
406 1 64.199998208 20.386237877 0.0
407 1 17.655000942 17.606296484 0.0
408 1 65.805002468 17.606296484 0.0
409 1 19.260000897 18.532943118 0.0
410 1 67.410000988 18.532943118 0.0
411 1 20.865000853 21.312886002 0.0
412 1 69.015005248 21.312886002 0.0
413 1 19.260000897 20.386237877 0.0
414 1 67.410000988 20.386237877 0.0
415 1 20.865000853 17.606296484 0.0
416 1 69.015005248 17.606296484 0.0
417 1 22.469999373 18.532943118 0.0
418 1 70.620003769 18.532943118 0.0
419 1 24.075000763 21.312886002 0.0
420 1 72.225002289 21.312886002 0.0
421 1 22.469999373 20.386237877 0.0
422 1 70.620003769 20.386237877 0.0
423 1 24.075000763 17.606296484 0.0
424 1 72.225002289 17.606296484 0.0
425 1 25.680002153 18.532943118 0.0
426 1 73.830000809 18.532943118 0.0
427 1 27.285000673 21.312886002 0.0
428 1 75.434999329 21.312886002 0.0
429 1 25.680002153 20.386237877 0.0
430 1 73.830000809 20.386237877 0.0
431 1 27.285000673 17.606296484 0.0
432 1 75.434999329 17.606296484 0.0
433 1 28.889999194 18.532943118 0.0
434 1 77.039997849 18.532943118 0.0
435 1 30.495000584 21.312886002 0.0
436 1 78.64500211 21.312886002 0.0
437 1 28.889999194 20.386237877 0.0
438 1 77.039997849 20.386237877 0.0
439 1 30.495000584 17.606296484 0.0
440 1 78.64500211 17.606296484 0.0
441 1 32.099999104 18.532943118 0.0
442 1 80.25000063 18.532943118 0.0
443 1 33.705003364 21.312886002 0.0
444 1 81.85500489 21.312886002 0.0
445 1 32.099999104 20.386237877 0.0
446 1 80.25000063 20.386237877 0.0
447 1 33.705003364 17.606296484 0.0
448 1 81.85500489 17.606296484 0.0
449 1 35.310001884 18.532943118 0.0
450 1 83.46000341 18.532943118 0.0
451 1 36.915003274 21.312886002 0.0
452 1 85.06500193 21.312886002 0.0
453 1 35.310001884 20.386237877 0.0
454 1 83.46000341 20.386237877 0.0
455 1 36.915003274 17.606296484 0.0
456 1 85.06500193 17.606296484 0.0
457 1 38.520001795 18.532943118 0.0
458 1 86.670000451 18.532943118 0.0
459 1 40.125000315 21.312886002 0.0
460 1 88.274998971 21.312886002 0.0
461 1 38.520001795 20.386237877 0.0
462 1 86.670000451 20.386237877 0.0
463 1 40.125000315 17.606296484 0.0
464 1 88.274998971 17.606296484 0.0
465 1 41.730001705 18.532943118 0.0
466 1 89.880003231 18.532943118 0.0
467 1 43.335000225 21.312886002 0.0
468 1 91.485001751 21.312886002 0.0
469 1 41.730001705 20.386237877 0.0
470 1 89.880003231 20.386237877 0.0
471 1 43.335000225 17.606296484 0.0
472 1 91.485001751 17.606296484 0.0
473 1 44.939998746 18.532943118 0.0
474 1 93.090000271 18.532943118 0.0
475 1 46.545003006 21.312886002 0.0
476 1 94.695004532 21.312886002 0.0
477 1 44.939998746 20.386237877 0.0
478 1 93.090000271 20.386237877 0.0
479 1 46.545003006 17.606296484 0.0
480 1 94.695004532 17.606296484 0.0
481 1 0.0 24.092827396 0.0
482 1 48.150001526 24.092827396 0.0
483 1 1.604999776 26.872767297 0.0
484 1 49.755000046 26.872767297 0.0
485 1 0.0 25.946120663 0.0
486 1 48.150001526 25.946120663 0.0
487 1 1.604999776 23.16617927 0.0
488 1 49.755000046 23.16617927 0.0
489 1 3.210000269 24.092827396 0.0
490 1 51.360004306 24.092827396 0.0
491 1 4.815000224 26.872767297 0.0
492 1 52.965002826 26.872767297 0.0
493 1 3.210000269 25.946120663 0.0
494 1 51.360004306 25.946120663 0.0
495 1 4.815000224 23.16617927 0.0
496 1 52.965002826 23.16617927 0.0
497 1 6.420000538 24.092827396 0.0
498 1 54.570001347 24.092827396 0.0
499 1 8.025000493 26.872767297 0.0
500 1 56.174999867 26.872767297 0.0
501 1 6.420000538 25.946120663 0.0
502 1 54.570001347 25.946120663 0.0
503 1 8.025000493 23.16617927 0.0
504 1 56.174999867 23.16617927 0.0
505 1 9.630000449 24.092827396 0.0
506 1 57.780004127 24.092827396 0.0
507 1 11.234999686 26.872767297 0.0
508 1 59.385002647 26.872767297 0.0
509 1 9.630000449 25.946120663 0.0
510 1 57.780004127 25.946120663 0.0
511 1 11.234999686 23.16617927 0.0
512 1 59.385002647 23.16617927 0.0
513 1 12.840001077 24.092827396 0.0
514 1 60.990001167 24.092827396 0.0
515 1 14.444999597 26.872767297 0.0
516 1 62.594999688 26.872767297 0.0
517 1 12.840001077 25.946120663 0.0
518 1 60.990001167 25.946120663 0.0
519 1 14.444999597 23.16617927 0.0
520 1 62.594999688 23.16617927 0.0
521 1 16.049999552 24.092827396 0.0
522 1 64.199998208 24.092827396 0.0
523 1 17.655000942 26.872767297 0.0
524 1 65.805002468 26.872767297 0.0
525 1 16.049999552 25.946120663 0.0
526 1 64.199998208 25.946120663 0.0
527 1 17.655000942 23.16617927 0.0
528 1 65.805002468 23.16617927 0.0
529 1 19.260000897 24.092827396 0.0
530 1 67.410000988 24.092827396 0.0
531 1 20.865000853 26.872767297 0.0
532 1 69.015005248 26.872767297 0.0
533 1 19.260000897 25.946120663 0.0
534 1 67.410000988 25.946120663 0.0
535 1 20.865000853 23.16617927 0.0
536 1 69.015005248 23.16617927 0.0
537 1 22.469999373 24.092827396 0.0
538 1 70.620003769 24.092827396 0.0
539 1 24.075000763 26.872767297 0.0
540 1 72.225002289 26.872767297 0.0
541 1 22.469999373 25.946120663 0.0
542 1 70.620003769 25.946120663 0.0
543 1 24.075000763 23.16617927 0.0
544 1 72.225002289 23.16617927 0.0
545 1 25.680002153 24.092827396 0.0
546 1 73.830000809 24.092827396 0.0
547 1 27.285000673 26.872767297 0.0
548 1 75.434999329 26.872767297 0.0
549 1 25.680002153 25.946120663 0.0
550 1 73.830000809 25.946120663 0.0
551 1 27.285000673 23.16617927 0.0
552 1 75.434999329 23.16617927 0.0
553 1 28.889999194 24.092827396 0.0
554 1 77.039997849 24.092827396 0.0
555 1 30.495000584 26.872767297 0.0
556 1 78.64500211 26.872767297 0.0
557 1 28.889999194 25.946120663 0.0
558 1 77.039997849 25.946120663 0.0
559 1 30.495000584 23.16617927 0.0
560 1 78.64500211 23.16617927 0.0
561 1 32.099999104 24.092827396 0.0
562 1 80.25000063 24.092827396 0.0
563 1 33.705003364 26.872767297 0.0
564 1 81.85500489 26.872767297 0.0
565 1 32.099999104 25.946120663 0.0
566 1 80.25000063 25.946120663 0.0
567 1 33.705003364 23.16617927 0.0
568 1 81.85500489 23.16617927 0.0
569 1 35.310001884 24.092827396 0.0
570 1 83.46000341 24.092827396 0.0
571 1 36.915003274 26.872767297 0.0
572 1 85.06500193 26.872767297 0.0
573 1 35.310001884 25.946120663 0.0
574 1 83.46000341 25.946120663 0.0
575 1 36.915003274 23.16617927 0.0
576 1 85.06500193 23.16617927 0.0
577 1 38.520001795 24.092827396 0.0
578 1 86.670000451 24.092827396 0.0
579 1 40.125000315 26.872767297 0.0
580 1 88.274998971 26.872767297 0.0
581 1 38.520001795 25.946120663 0.0
582 1 86.670000451 25.946120663 0.0
583 1 40.125000315 23.16617927 0.0
584 1 88.274998971 23.16617927 0.0
585 1 41.730001705 24.092827396 0.0
586 1 89.880003231 24.092827396 0.0
587 1 43.335000225 26.872767297 0.0
588 1 91.485001751 26.872767297 0.0
589 1 41.730001705 25.946120663 0.0
590 1 89.880003231 25.946120663 0.0
591 1 43.335000225 23.16617927 0.0
592 1 91.485001751 23.16617927 0.0
593 1 44.939998746 24.092827396 0.0
594 1 93.090000271 24.092827396 0.0
595 1 46.545003006 26.872767297 0.0
596 1 94.695004532 26.872767297 0.0
597 1 44.939998746 25.946120663 0.0
598 1 93.090000271 25.946120663 0.0
599 1 46.545003006 23.16617927 0.0
600 1 94.695004532 23.16617927 0.0
601 1 0.0 29.652710182 0.0
602 1 48.150001526 29.652710182 0.0
603 1 1.604999776 32.432653066 0.0
604 1 49.755000046 32.432653066 0.0
605 1 0.0 31.50600345 0.0
606 1 48.150001526 31.50600345 0.0
607 1 1.604999776 28.726063548 0.0
608 1 49.755000046 28.726063548 0.0
609 1 3.210000269 29.652710182 0.0
610 1 51.360004306 29.652710182 0.0
611 1 4.815000224 32.432653066 0.0
612 1 52.965002826 32.432653066 0.0
613 1 3.210000269 31.50600345 0.0
614 1 51.360004306 31.50600345 0.0
615 1 4.815000224 28.726063548 0.0
616 1 52.965002826 28.726063548 0.0
617 1 6.420000538 29.652710182 0.0
618 1 54.570001347 29.652710182 0.0
619 1 8.025000493 32.432653066 0.0
620 1 56.174999867 32.432653066 0.0
621 1 6.420000538 31.50600345 0.0
622 1 54.570001347 31.50600345 0.0
623 1 8.025000493 28.726063548 0.0
624 1 56.174999867 28.726063548 0.0
625 1 9.630000449 29.652710182 0.0
626 1 57.780004127 29.652710182 0.0
627 1 11.234999686 32.432653066 0.0
628 1 59.385002647 32.432653066 0.0
629 1 9.630000449 31.50600345 0.0
630 1 57.780004127 31.50600345 0.0
631 1 11.234999686 28.726063548 0.0
632 1 59.385002647 28.726063548 0.0
633 1 12.840001077 29.652710182 0.0
634 1 60.990001167 29.652710182 0.0
635 1 14.444999597 32.432653066 0.0
636 1 62.594999688 32.432653066 0.0
637 1 12.840001077 31.50600345 0.0
638 1 60.990001167 31.50600345 0.0
639 1 14.444999597 28.726063548 0.0
640 1 62.594999688 28.726063548 0.0
641 1 16.049999552 29.652710182 0.0
642 1 64.199998208 29.652710182 0.0
643 1 17.655000942 32.432653066 0.0
644 1 65.805002468 32.432653066 0.0
645 1 16.049999552 31.50600345 0.0
646 1 64.199998208 31.50600345 0.0
647 1 17.655000942 28.726063548 0.0
648 1 65.805002468 28.726063548 0.0
649 1 19.260000897 29.652710182 0.0
650 1 67.410000988 29.652710182 0.0
651 1 20.865000853 32.432653066 0.0
652 1 69.015005248 32.432653066 0.0
653 1 19.260000897 31.50600345 0.0
654 1 67.410000988 31.50600345 0.0
655 1 20.865000853 28.726063548 0.0
656 1 69.015005248 28.726063548 0.0
657 1 22.469999373 29.652710182 0.0
658 1 70.620003769 29.652710182 0.0
659 1 24.075000763 32.432653066 0.0
660 1 72.225002289 32.432653066 0.0
661 1 22.469999373 31.50600345 0.0
662 1 70.620003769 31.50600345 0.0
663 1 24.075000763 28.726063548 0.0
664 1 72.225002289 28.726063548 0.0
665 1 25.680002153 29.652710182 0.0
666 1 73.830000809 29.652710182 0.0
667 1 27.285000673 32.432653066 0.0
668 1 75.434999329 32.432653066 0.0
669 1 25.680002153 31.50600345 0.0
670 1 73.830000809 31.50600345 0.0
671 1 27.285000673 28.726063548 0.0
672 1 75.434999329 28.726063548 0.0
673 1 28.889999194 29.652710182 0.0
674 1 77.039997849 29.652710182 0.0
675 1 30.495000584 32.432653066 0.0
676 1 78.64500211 32.432653066 0.0
677 1 28.889999194 31.50600345 0.0
678 1 77.039997849 31.50600345 0.0
679 1 30.495000584 28.726063548 0.0
680 1 78.64500211 28.726063548 0.0
681 1 32.099999104 29.652710182 0.0
682 1 80.25000063 29.652710182 0.0
683 1 33.705003364 32.432653066 0.0
684 1 81.85500489 32.432653066 0.0
685 1 32.099999104 31.50600345 0.0
686 1 80.25000063 31.50600345 0.0
687 1 33.705003364 28.726063548 0.0
688 1 81.85500489 28.726063548 0.0
689 1 35.310001884 29.652710182 0.0
690 1 83.46000341 29.652710182 0.0
691 1 36.915003274 32.432653066 0.0
692 1 85.06500193 32.432653066 0.0
693 1 35.310001884 31.50600345 0.0
694 1 83.46000341 31.50600345 0.0
695 1 36.915003274 28.726063548 0.0
696 1 85.06500193 28.726063548 0.0
697 1 38.520001795 29.652710182 0.0
698 1 86.670000451 29.652710182 0.0
699 1 40.125000315 32.432653066 0.0
700 1 88.274998971 32.432653066 0.0
701 1 38.520001795 31.50600345 0.0
702 1 86.670000451 31.50600345 0.0
703 1 40.125000315 28.726063548 0.0
704 1 88.274998971 28.726063548 0.0
705 1 41.730001705 29.652710182 0.0
706 1 89.880003231 29.652710182 0.0
707 1 43.335000225 32.432653066 0.0
708 1 91.485001751 32.432653066 0.0
709 1 41.730001705 31.50600345 0.0
710 1 89.880003231 31.50600345 0.0
711 1 43.335000225 28.726063548 0.0
712 1 91.485001751 28.726063548 0.0
713 1 44.939998746 29.652710182 0.0
714 1 93.090000271 29.652710182 0.0
715 1 46.545003006 32.432653066 0.0
716 1 94.695004532 32.432653066 0.0
717 1 44.939998746 31.50600345 0.0
718 1 93.090000271 31.50600345 0.0
719 1 46.545003006 28.726063548 0.0
720 1 94.695004532 28.726063548 0.0
721 1 0.0 35.212592968 0.0
722 1 48.150001526 35.212592968 0.0
723 1 1.604999776 37.992535853 0.0
724 1 49.755000046 37.992535853 0.0
725 1 0.0 37.065886236 0.0
726 1 48.150001526 37.065886236 0.0
727 1 1.604999776 34.285946334 0.0
728 1 49.755000046 34.285946334 0.0
729 1 3.210000269 35.212592968 0.0
730 1 51.360004306 35.212592968 0.0
731 1 4.815000224 37.992535853 0.0
732 1 52.965002826 37.992535853 0.0
733 1 3.210000269 37.065886236 0.0
734 1 51.360004306 37.065886236 0.0
735 1 4.815000224 34.285946334 0.0
736 1 52.965002826 34.285946334 0.0
737 1 6.420000538 35.212592968 0.0
738 1 54.570001347 35.212592968 0.0
739 1 8.025000493 37.992535853 0.0
740 1 56.174999867 37.992535853 0.0
741 1 6.420000538 37.065886236 0.0
742 1 54.570001347 37.065886236 0.0
743 1 8.025000493 34.285946334 0.0
744 1 56.174999867 34.285946334 0.0
745 1 9.630000449 35.212592968 0.0
746 1 57.780004127 35.212592968 0.0
747 1 11.234999686 37.992535853 0.0
748 1 59.385002647 37.992535853 0.0
749 1 9.630000449 37.065886236 0.0
750 1 57.780004127 37.065886236 0.0
751 1 11.234999686 34.285946334 0.0
752 1 59.385002647 34.285946334 0.0
753 1 12.840001077 35.212592968 0.0
754 1 60.990001167 35.212592968 0.0
755 1 14.444999597 37.992535853 0.0
756 1 62.594999688 37.992535853 0.0
757 1 12.840001077 37.065886236 0.0
758 1 60.990001167 37.065886236 0.0
759 1 14.444999597 34.285946334 0.0
760 1 62.594999688 34.285946334 0.0
761 1 16.049999552 35.212592968 0.0
762 1 64.199998208 35.212592968 0.0
763 1 17.655000942 37.992535853 0.0
764 1 65.805002468 37.992535853 0.0
765 1 16.049999552 37.065886236 0.0
766 1 64.199998208 37.065886236 0.0
767 1 17.655000942 34.285946334 0.0
768 1 65.805002468 34.285946334 0.0
769 1 19.260000897 35.212592968 0.0
770 1 67.410000988 35.212592968 0.0
771 1 20.865000853 37.992535853 0.0
772 1 69.015005248 37.992535853 0.0
773 1 19.260000897 37.065886236 0.0
774 1 67.410000988 37.065886236 0.0
775 1 20.865000853 34.285946334 0.0
776 1 69.015005248 34.285946334 0.0
777 1 22.469999373 35.212592968 0.0
778 1 70.620003769 35.212592968 0.0
779 1 24.075000763 37.992535853 0.0
780 1 72.225002289 37.992535853 0.0
781 1 22.469999373 37.065886236 0.0
782 1 70.620003769 37.065886236 0.0
783 1 24.075000763 34.285946334 0.0
784 1 72.225002289 34.285946334 0.0
785 1 25.680002153 35.212592968 0.0
786 1 73.830000809 35.212592968 0.0
787 1 27.285000673 37.992535853 0.0
788 1 75.434999329 37.992535853 0.0
789 1 25.680002153 37.065886236 0.0
790 1 73.830000809 37.065886236 0.0
791 1 27.285000673 34.285946334 0.0
792 1 75.434999329 34.285946334 0.0
793 1 28.889999194 35.212592968 0.0
794 1 77.039997849 35.212592968 0.0
795 1 30.495000584 37.992535853 0.0
796 1 78.64500211 37.992535853 0.0
797 1 28.889999194 37.065886236 0.0
798 1 77.039997849 37.065886236 0.0
799 1 30.495000584 34.285946334 0.0
800 1 78.64500211 34.285946334 0.0
801 1 32.099999104 35.212592968 0.0
802 1 80.25000063 35.212592968 0.0
803 1 33.705003364 37.992535853 0.0
804 1 81.85500489 37.992535853 0.0
805 1 32.099999104 37.065886236 0.0
806 1 80.25000063 37.065886236 0.0
807 1 33.705003364 34.285946334 0.0
808 1 81.85500489 34.285946334 0.0
809 1 35.310001884 35.212592968 0.0
810 1 83.46000341 35.212592968 0.0
811 1 36.915003274 37.992535853 0.0
812 1 85.06500193 37.992535853 0.0
813 1 35.310001884 37.065886236 0.0
814 1 83.46000341 37.065886236 0.0
815 1 36.915003274 34.285946334 0.0
816 1 85.06500193 34.285946334 0.0
817 1 38.520001795 35.212592968 0.0
818 1 86.670000451 35.212592968 0.0
819 1 40.125000315 37.992535853 0.0
820 1 88.274998971 37.992535853 0.0
821 1 38.520001795 37.065886236 0.0
822 1 86.670000451 37.065886236 0.0
823 1 40.125000315 34.285946334 0.0
824 1 88.274998971 34.285946334 0.0
825 1 41.730001705 35.212592968 0.0