# LAMMPS data file

5 atoms
3 atom types

0.0 4.255689 xlo xhi
0.0 4.255689 ylo yhi
0.0 4.255689 zlo zhi

Masses

1 137.327 # Ba
2 15.9994 # O
3 91.224  # Zr

Atoms  # full

1 1 1 0.0 0.0 0.0 0.0
2 1 3 0.0 2.1278445 2.1278445 2.1278445
3 1 2 0.0 2.1278445 0.0 2.1278445
4 1 2 0.0 2.1278445 2.1278445 0.0
5 1 2 0.0 0.0 2.1278445 2.1278445
