# LAMMPS data file written by OVITO Basic 3.8.4

5 atoms
3 atom types

0.0 4.255689 xlo xhi
0.0 4.255689 ylo yhi
0.0 4.255689 zlo zhi

Masses

1 137.327  # Ba
2 91.224  # Zr
3 15.9994  # O

Atoms  # full

1 1 1 0.0 0.0 0.0 0.0
2 1 2 0.0 2.1278445 2.1278445 2.1278445
3 1 3 0.0 2.1278445 0.0 2.1278445
4 1 3 0.0 2.1278445 2.1278445 0.0
5 1 3 0.0 0.0 2.1278445 2.1278445
