Output produced by LAMMPSStructureWriter


6 atoms
3 atom types

0.00000000 3.59840000 xlo xhi
0.00000000 3.59840000 ylo yhi
0.00000000 5.15200000 zlo zhi


Masses

1 15.99939999999999962199 #O
2 238.02890999999999621650 #U
3 91.22400000000000375167 #Zr

Atoms

1 0 3 0.0 2.69880000000000030980 0.89960000000000017728 3.86399999999999987921
2 0 3 0.0 0.89960000000000017728 2.69879999999999986571 1.28800000000000003375
3 0 1 0.0 2.69879999999999986571 2.69879999999999986571 0.20607999999999990215
4 0 1 0.0 2.69879999999999986571 2.69879999999999986571 2.78208000000000010843
5 0 1 0.0 0.89960000000000028830 0.89960000000000028830 4.94592000000000009408
6 0 1 0.0 0.89960000000000006626 0.89960000000000006626 2.36992000000000002657

