ITEM: TIMESTEP
0
ITEM: NUMBER OF ATOMS
18000
ITEM: BOX BOUNDS xy xz yz pp pp pp
-2.2457219170852127e-01 2.5949572191707958e+01 0.0000000000000000e+00
-2.6225769098759422e-01 2.5987257690987583e+01 0.0000000000000000e+00
-2.5966113899397101e+00 3.1129661138993322e+02 0.0000000000000000e+00
ITEM: ATOMS id type x y z c_peratom fx fy fz 
1 1 0.942809 1.0362 1.01089 -8.00948 -0.413417 -0.0116502 1.50572 
2 1 1.05424 1.20382 6.61995 -8.17621 0.0578273 -0.37306 -0.7315 
61 1 0.859776 6.31813 1.37438 -8.46156 0.341006 0.592158 -1.36016 
62 1 1.00885 6.47064 6.58393 -8.29786 -1.22602 0.376538 0.483265 
121 1 0.917028 11.8551 0.975732 -7.84683 0.58031 -0.332825 0.338344 
122 1 1.1378 11.6064 6.21487 -7.28192 0.8174 0.228399 -0.572916 
181 1 0.828856 16.9142 1.1874 -7.27601 -0.786365 0.497728 -0.0633178 
182 1 1.20589 16.9635 6.5567 -7.16974 -1.15837 -0.78577 -1.27927 
241 1 0.816312 22.0368 1.25819 -7.44737 0.168969 0.0908507 -0.534587 
242 1 1.02155 22.151 6.18599 -6.9109 -1.31186 -0.37418 1.64765 
301 1 6.06174 1.19344 1.13555 -7.85646 0.160072 -0.48192 0.124916 
302 1 6.33085 1.35375 6.44783 -7.42058 -0.994262 -0.839163 -0.69123 
361 1 6.01909 6.3122 1.22572 -7.83072 0.560474 -0.452277 0.356756 
362 1 6.26533 6.55134 6.35089 -7.60452 0.0485333 -0.0530194 0.695947 
421 1 6.15525 11.7736 1.26848 -7.7947 -0.544383 -0.335203 0.330607 
422 1 6.26802 11.7366 6.34399 -8.0423 -1.17591 1.47201 2.5316 
481 1 5.88848 16.8914 1.13653 -8.26254 0.973043 -0.834057 0.480505 
482 1 6.01665 16.8232 6.53808 -7.04166 0.871968 0.039787 -1.06323 
541 1 5.98326 22.1284 1.29618 -7.61484 0.0363082 -0.239271 -1.34791 
542 1 6.19229 22.1734 6.45781 -8.35085 0.324747 0.708507 0.619117 
601 1 11.2415 1.31114 1.27963 -7.05789 0.507137 0.230619 0.271022 
602 1 11.583 1.12794 6.46594 -7.62727 -0.433907 0.0504791 0.905906 
661 1 11.3693 6.51116 0.942929 -7.26871 -0.715366 0.390492 0.439217 
662 1 11.4038 6.53828 6.35657 -7.90348 1.08616 0.247637 0.151853 
721 1 11.4048 11.8306 1.30152 -7.34743 -0.578366 0.295712 -0.0629015 
722 1 11.581 11.9852 6.42909 -7.31637 -0.850396 -0.0401421 0.238138 
781 1 11.3359 17.1866 1.36608 -8.29617 -0.649007 -0.906892 -0.945612 
782 1 11.3594 16.9862 6.58736 -7.58919 -1.48318 0.0596618 -0.300892 
841 1 11.2049 22.3589 1.11245 -7.96461 0.841676 -0.901687 1.28997 
842 1 11.4994 22.192 6.40947 -8.14753 -0.278533 -0.551138 0.354945 
901 1 16.5265 1.06392 1.14362 -8.1914 0.260805 -0.249463 1.11805 
902 1 16.8655 1.10378 6.49512 -7.76954 0.0593538 0.951048 -0.348425 
961 1 16.3598 6.29807 1.12711 -8.14176 2.02565 0.0773204 0.0105406 
962 1 16.6643 6.54168 6.37312 -7.67509 0.285145 -0.21412 0.229335 
1021 1 16.7946 11.702 1.37171 -8.0551 0.19795 -0.988051 0.0765543 
1022 1 16.8514 11.7766 6.594 -7.8908 -1.09736 0.025773 0.419625 
1081 1 16.7274 16.8052 1.40377 -7.73453 -0.389413 -1.01376 -0.401005 
1082 1 16.5728 16.9957 6.54056 -7.93781 0.884069 -0.428281 -0.710409 
1141 1 16.549 21.9852 1.28374 -7.8929 -0.041496 -0.45934 -0.260213 
1142 1 16.7301 22.1082 6.50445 -7.76998 -0.212413 0.346019 1.16575 
1201 1 21.9104 1.20756 1.19229 -7.99454 0.703546 -0.479963 0.765544 
1202 1 22.0525 1.21006 6.37703 -7.96093 0.940455 -0.897272 0.50319 
1261 1 21.765 6.29461 1.50045 -7.89664 -0.519413 0.563879 0.452794 
1262 1 21.8842 6.44028 6.6388 -7.65041 -1.11139 -0.448358 -0.0371795 
1321 1 21.9674 11.5955 1.42312 -7.87086 0.561167 -0.0404809 -0.0910617 
1322 1 22.0723 11.63 6.68521 -7.53337 0.339436 -0.790441 -1.3846 
1381 1 21.9155 16.7669 1.34242 -7.63708 0.335126 0.83999 0.51504 
1382 1 22.2034 16.8951 6.50983 -7.5231 -1.98767 0.0558361 0.726564 
1441 1 21.9075 22.0607 1.31716 -7.4998 -0.81735 -0.327049 1.82262 
1442 1 22.0132 22.1743 6.59591 -8.12683 -0.242952 -0.099552 -0.460704 
1501 1 0.994503 3.81883 -1.39517 -8.19066 -0.84636 0.341089 0.149182 
1502 1 0.855173 3.95402 3.55193 -7.7349 0.421286 0.103128 2.13182 
1503 1 1.05568 4.06588 9.15368 -8.26294 -0.499484 -0.131324 -0.124315 
1561 1 0.858535 9.21729 -1.10757 -7.67438 0.153488 -1.40462 -1.4987 
1562 1 0.850952 9.31035 3.96757 -7.78611 1.37959 -0.82447 1.00083 
1563 1 1.07903 9.14819 9.26252 -7.97951 -0.258753 1.75997 0.0254426 
1621 1 0.880577 14.3251 -1.38279 -8.28043 0.55325 0.446373 0.366636 
1622 1 0.881982 14.5513 3.81188 -7.65087 1.25202 0.0292894 -0.24458 
1623 1 1.20298 14.4739 9.20955 -8.19041 -0.623335 -0.50882 -1.02075 
1681 1 1.14341 19.55 -0.971734 -7.51814 -1.17204 -0.382436 0.0437429 
1682 1 0.829304 19.7686 4.29534 -7.03666 -0.36405 0.463951 -0.597208 
1683 1 0.93969 19.6983 9.23583 -7.32541 0.0514514 0.646309 0.144144 
1741 1 1.06106 24.7038 -1.30954 -7.35636 -0.30577 0.200729 -0.0712599 
1742 1 0.771305 24.9272 3.82489 -8.03156 1.53227 0.192468 0.986723 
1743 1 1.16855 24.9804 9.21801 -7.86367 -0.785083 -0.116617 -0.184862 
1801 1 6.27166 3.71439 -1.50954 -8.00698 -1.52597 -0.815851 0.69053 
1802 1 6.10594 3.80431 3.88012 -7.4204 -0.546177 0.318336 -1.01901 
1803 1 6.2984 3.93384 8.94354 -7.79995 -0.0861529 -0.410243 1.95375 
1861 1 6.21962 9.01486 -1.31533 -7.67093 0.18162 0.045693 -1.14131 
1862 1 6.12574 9.07909 3.95958 -7.9397 0.0419339 -0.0952774 0.0400404 
1863 1 6.37929 9.19916 9.34243 -7.92861 -1.67188 -1.19704 0.298118 
1921 1 6.12648 14.3331 -1.4226 -7.57093 0.0457028 0.511914 0.822564 
1922 1 6.10884 14.4202 3.94635 -7.83337 -0.145043 -0.177394 0.400607 
1923 1 6.3399 14.4397 9.32749 -7.70693 0.195975 -0.490839 -0.334645 
1981 1 6.14931 19.5957 -1.32003 -7.61629 1.02415 -0.146779 0.628987 
1982 1 6.07144 19.6498 3.95659 -7.8834 -0.399775 -1.25868 -0.480275 
1983 1 6.33759 19.6775 9.23169 -7.55593 -1.16281 0.573338 -1.43017 
2041 1 6.08967 24.6144 -1.06296 -6.9689 -0.137544 1.64945 -1.51737 
2042 1 6.12869 24.8654 3.78953 -7.60756 1.19237 0.703782 0.711351 
2043 1 6.1392 25.0334 9.37982 -8.27286 0.98963 -0.536612 -0.503288 
2101 1 11.1858 3.60792 -1.48475 -7.29171 1.73698 2.05084 -0.552584 
2102 1 11.5133 3.74146 3.82408 -8.00166 -1.03844 0.364433 -0.874643 
2103 1 11.5432 3.95472 9.07773 -8.09049 -0.602143 -0.587421 1.43499 
2161 1 11.3733 8.93331 -1.27359 -7.87679 -0.189458 -0.164105 -0.440821 
2162 1 11.4485 9.13656 3.92041 -7.83857 0.375381 -1.16091 0.41911 
2163 1 11.4879 9.2159 9.19198 -8.07438 0.1316 -0.686026 0.26306 
2221 1 11.3551 14.2987 -1.3048 -8.10961 -0.2338 0.371646 0.127055 
2222 1 11.3982 14.4028 4.02827 -8.12243 -1.52655 -0.261304 0.38438 
2223 1 11.4286 14.4465 9.51636 -7.54841 1.12718 -0.235093 0.410667 
2281 1 11.1353 19.6399 -1.14986 -7.36288 2.32581 -0.664004 -0.250484 
2282 1 11.3694 19.4686 4.01774 -7.50362 -0.970379 1.49356 -1.65173 
2283 1 11.4397 19.707 9.21028 -7.55724 1.79435 -1.35225 -0.807191 
2341 1 11.2224 24.7686 -1.38973 -7.61509 0.716923 -0.0342435 0.647072 
2342 1 11.3061 24.7089 3.91753 -8.29568 1.11147 -0.0692108 0.724388 
2343 1 11.7047 24.7718 9.13665 -7.57822 -0.621101 0.939671 0.948411 
2401 1 16.4794 3.61679 -1.4136 -7.61478 -0.260943 0.35924 1.04411 
2402 1 16.6708 3.98299 3.8563 -7.91512 0.68747 -0.110318 -0.150769 
2403 1 16.7097 3.92815 9.17851 -7.6655 0.901819 -0.24456 0.0433703 
2461 1 16.73 8.82044 -1.25659 -8.02813 -1.26854 0.431198 -0.438023 
2462 1 16.6458 9.20195 3.92909 -7.82968 -0.0739942 -0.350545 -0.0015509 
2463 1 16.7471 9.09359 9.20429 -7.68719 0.530601 0.872256 -0.576898 
2521 1 16.7874 14.2989 -1.30401 -8.3395 0.371674 0.347273 0.216172 
2522 1 16.5744 14.6739 4.07305 -7.52664 -0.249293 -2.24045 0.518637 
2523 1 16.6971 14.428 9.2266 -8.25213 -0.108311 0.378412 0.572462 
2581 1 16.6455 19.532 -1.3123 -7.56048 0.725264 0.691328 -0.773834 
2582 1 16.6052 19.6067 3.94275 -7.78561 -0.0041142 0.432668 -0.350285 
2583 1 16.8243 19.6571 9.07935 -7.70761 -0.455838 0.190106 1.02816 
2641 1 16.4609 24.7779 -1.22748 -7.28467 0.257753 0.204699 0.0747397 
2642 1 16.7172 24.841 3.9184 -7.21601 0.377496 0.749733 -0.549528 
2643 1 16.941 24.9645 9.12607 -8.11013 1.01167 -0.77359 0.586567 
2701 1 21.9126 3.76643 -1.26694 -7.9615 -0.649906 -0.023508 0.478883 
2702 1 21.8474 4.12005 4.20481 -7.64929 -0.618017 0.0759776 -1.57887 
2703 1 21.9911 4.03295 9.22336 -7.03451 0.295488 -0.275042 -0.230373 
2761 1 21.8196 9.05665 -1.38652 -7.93417 -0.510811 -0.191837 -0.0205043 
2762 1 21.8585 9.31735 3.83649 -7.32284 0.0392998 -0.0506028 0.184845 
2763 1 21.8906 9.10197 9.14369 -7.74361 -0.0634346 0.576428 -0.132663 
2821 1 22.0023 14.182 -1.33198 -7.34589 -1.36389 0.388234 -0.716955 
2822 1 21.8548 14.4034 3.84633 -8.32159 0.0890725 1.33496 -0.170314 
2823 1 21.9732 14.4247 9.23853 -7.82245 0.375321 0.604278 0.203423 
2881 1 22.072 19.4785 -1.36507 -7.97699 -0.360934 0.580986 0.909023 
2882 1 21.8926 19.8971 3.92593 -7.5311 -0.467998 0.104302 0.219557 
2883 1 22.0995 19.8627 9.20118 -7.16661 -1.15726 -0.193151 -0.141774 
2941 1 21.9954 24.7927 -1.29934 -8.20202 -0.705115 0.751478 0.137711 
2942 1 21.857 25.0586 3.7689 -7.77393 -0.0268457 -0.260926 0.708182 
2943 1 22.4691 25.1494 8.72224 -7.60707 -0.513554 0.373906 1.19096 
3001 1 3.75718 1.21854 -1.27769 -7.74624 0.722403 0.225377 1.19455 
3002 1 3.7424 1.16573 3.93415 -7.27306 -0.572992 1.08363 0.116155 
3003 1 3.49457 1.03525 9.15847 -8.01407 -0.222765 1.49333 0.461138 
3061 1 3.6984 6.29266 -1.48235 -8.2758 -0.851799 0.327903 0.624475 
3062 1 3.70766 6.63796 3.8148 -7.78106 0.674247 -0.530669 0.964356 
3063 1 3.65808 6.33154 9.05625 -7.9803 0.70689 0.773701 0.693674 
3121 1 3.6615 11.8207 -1.37626 -8.01713 -0.402721 0.585796 0.641556 
3122 1 3.59011 11.9147 4.08201 -7.52769 -1.26015 -1.14577 -0.178656 
3123 1 3.69863 11.7726 9.41911 -7.91221 -0.871786 -0.566589 -0.595357 
3181 1 3.69853 17.2595 -1.32589 -7.75005 0.101313 -1.16905 -0.272541 
3182 1 3.91604 17.0802 3.76153 -8.04434 1.03159 -0.812764 0.370933 
3183 1 3.66769 16.9257 9.0721 -7.93912 -0.172826 -0.279682 0.250557 
3241 1 3.91696 22.2346 -1.14725 -7.88594 -1.16346 1.78737 -0.760655 
3242 1 3.76125 22.254 3.88967 -7.56433 -0.526605 0.140474 0.233027 
3243 1 3.47759 22.1913 9.18346 -8.03012 0.137906 -0.410854 0.305735 
3301 1 9.07319 1.41824 -1.34083 -7.45877 -1.15502 -1.48254 -0.558209 
3302 1 8.85292 1.15696 3.79683 -8.0029 0.451853 -0.556331 0.756639 
3303 1 8.76642 1.12827 8.95411 -7.68624 -0.686643 1.24277 1.9037 
3361 1 9.0391 6.52648 -1.44912 -7.6754 -0.415617 -0.181297 -0.836473 
3362 1 8.98422 6.43816 3.68443 -7.67072 -0.217649 -0.097148 1.01126 
3363 1 9.01789 6.48031 9.19835 -7.70405 -0.538008 0.0836009 -1.06426 
3421 1 8.76254 11.7112 -1.29734 -7.76242 0.27969 1.58575 -0.496817 
3422 1 8.81366 11.7758 3.87635 -7.63501 0.243791 -0.0280081 0.181607 
3423 1 8.78061 11.5675 9.22879 -7.63631 -0.0492621 0.331776 0.913968 
3481 1 8.96904 17.1421 -1.24325 -8.03351 -0.684436 -1.11872 -0.120361 
3482 1 9.09402 16.874 3.99743 -7.68931 0.413281 -0.33561 0.931229 
3483 1 8.95395 16.7123 9.11627 -7.90126 -1.63889 0.90391 1.33223 
3541 1 9.05661 22.3535 -1.18972 -7.74283 -0.669402 -0.151916 0.553765 
3542 1 8.96627 22.0998 3.98817 -7.85238 0.230058 0.360464 0.827544 
3543 1 8.86634 22.0857 9.23407 -8.38206 -1.76009 0.634499 1.38516 
3601 1 14.2716 1.28553 -1.33433 -7.56943 -0.018954 -0.805741 0.329027 
3602 1 14.1462 1.30037 3.98405 -7.49674 -0.174941 -0.761072 -1.08438 
3603 1 14.1746 1.36717 9.24607 -7.5685 -0.00200961 0.336436 0.107615 
3661 1 14.3333 6.32582 -1.23076 -7.84445 -0.524702 -0.589441 -0.036803 
3662 1 14.1831 6.50323 3.9291 -7.83134 1.0205 0.205268 0.818033 
3663 1 14.2331 6.5299 9.3151 -7.62421 -0.286915 0.0452771 -0.171619 
3721 1 14.043 11.5958 -1.28424 -7.99301 0.48537 1.45977 -1.8635 
3722 1 14.1202 11.7787 3.84022 -7.29621 0.34313 -0.0114616 1.0374 
3723 1 13.9748 11.86 9.1777 -7.75651 1.43746 0.400359 0.360416 
3781 1 14.2415 17.1 -1.20448 -8.07161 -1.08995 -0.1002 -0.215579 
3782 1 14.3772 16.9281 3.94271 -6.93612 -0.205621 0.696381 0.83667 
3783 1 14.1176 17.1208 9.23592 -8.38543 -0.96007 -1.06265 -0.33524 
3841 1 14.1077 22.442 -1.37599 -7.19975 1.54587 -0.746202 0.713917 
3842 1 14.1875 22.1723 3.83324 -7.64799 -0.437347 0.535159 0.842576 
3843 1 14.0076 22.3648 9.2539 -7.98371 0.159428 0.319509 -0.385305 
3901 1 19.5787 1.11736 -1.31517 -7.39968 -0.69258 -0.737492 -0.586967 
3902 1 19.4933 1.05423 3.74255 -7.60857 -1.17993 0.381151 0.801633 
3903 1 19.1703 1.26513 9.22463 -7.3496 1.95292 -1.05335 0.00371461 
3961 1 19.397 6.2337 -1.28203 -7.7861 0.608217 0.800666 0.38379 
3962 1 19.4275 6.33145 3.95971 -8.46627 0.381562 -0.0238413 0.0607116 
3963 1 19.5052 6.57868 9.19776 -7.61293 -0.341682 0.550832 -0.788827 
4021 1 19.342 11.7928 -1.4545 -7.97903 0.467754 -0.981036 0.530667 
4022 1 19.29 11.6026 3.85508 -7.56394 0.340253 -0.57023 -0.0567269 
4023 1 19.4621 11.7123 9.17455 -7.36072 -1.2988 0.775087 0.091091 
4081 1 19.3853 16.7699 -1.50238 -7.67195 -0.0326178 1.22667 0.0558423 
4082 1 19.4908 16.7511 3.93214 -8.11684 0.62172 0.0152849 -0.123105 
4083 1 19.2879 16.948 9.32835 -7.69388 0.39378 -0.150252 -0.920982 
4141 1 19.4571 22.1186 -1.28367 -8.30535 -0.0810726 -1.05841 -1.21707 
4142 1 19.5433 22.1127 4.02335 -8.19056 0.482449 0.0510951 -0.841009 
4143 1 19.4045 22.1294 9.17751 -7.58166 -0.823161 0.563883 0.0170691 
4201 1 24.7581 1.19513 -1.28183 -7.76613 0.291448 -0.269749 -0.865871 
4202 1 24.5821 0.909333 3.95496 -8.08642 0.378786 0.409299 -1.05421 
4203 1 24.5173 0.997733 9.12222 -8.00547 -0.420725 1.30842 -0.318453 
4261 1 24.6526 6.51423 -1.35814 -7.98458 -1.32637 -0.0107848 0.710999 
4262 1 24.7739 6.28501 3.99251 -7.49389 0.0809653 -0.0482517 1.62774 
4263 1 24.8219 6.27305 9.25016 -7.73878 -0.164162 0.681454 -0.817915 
4321 1 24.6667 11.8329 -1.40062 -7.45442 -0.420519 -0.261272 0.208562 
4322 1 24.5815 11.6302 4.06466 -7.97285 -0.450885 -0.325237 -2.15073 
4323 1 24.5569 11.5095 9.07106 -7.94415 0.619562 0.619343 1.1245 
4381 1 24.6009 17.0481 -1.25075 -8.10305 0.723114 -0.11329 -0.146988 
4382 1 24.9076 16.9006 4.01341 -7.50471 -0.178295 -1.20436 -0.700366 
4383 1 24.8325 16.6767 9.39749 -7.34848 -1.27085 0.318472 -0.698939 
4441 1 24.6594 22.219 -1.47634 -7.49091 1.46791 -1.77018 1.14504 
4442 1 24.7704 22.0057 3.77527 -8.04225 0.0719046 -0.552013 0.654773 
4443 1 24.6168 21.8551 9.2447 -7.22944 -0.0595037 0.692561 -0.296462 
4501 1 3.86728 3.73019 1.27788 -7.92952 -0.708821 0.267271 0.86635 
4502 1 3.76351 3.97397 6.37703 -8.0235 -0.566147 -0.463232 0.355089 
4561 1 3.60112 8.90951 1.08933 -7.7577 -0.703145 0.770255 0.546434 
4562 1 3.64535 9.11036 6.2715 -7.17869 -0.642529 0.226604 -0.5599 
4621 1 3.76854 13.9961 1.22856 -7.26091 -0.138006 1.26937 0.551439 
4622 1 3.64538 14.2623 6.45855 -8.10674 1.89145 0.450807 -1.15027 
4681 1 3.74355 19.3393 1.15208 -7.7515 -0.523784 0.0201752 -0.0406174 
4682 1 3.82826 19.6486 6.26987 -7.47585 -0.0817836 0.615844 0.953507 
4741 1 3.65704 24.8446 1.23441 -7.99376 0.473781 -0.953723 -0.183034 
4742 1 3.62767 24.8593 6.5559 -7.63736 0.499685 0.369991 -1.02691 
4801 1 9.09273 3.70817 1.15077 -7.9966 -1.1854 -0.150191 0.406654 
4802 1 8.95536 3.8876 6.44461 -6.56001 0.219741 0.254113 0.100829 
4861 1 8.89802 8.99765 1.12526 -7.38198 -0.693337 0.190195 -0.49262 
4862 1 8.76045 9.14312 6.45735 -7.71366 0.441436 -0.654345 -1.42045 
4921 1 8.94593 14.3864 1.16136 -7.45494 -0.27192 -1.47275 -0.486708 
4922 1 8.96465 14.282 6.34684 -7.92227 -0.450014 1.44521 0.323361 
4981 1 8.91507 19.3917 1.11524 -7.80139 -0.202065 0.23894 0.510251 
4982 1 9.12759 19.5131 6.26786 -7.52278 -0.467481 1.64775 1.47184 
5041 1 8.99811 24.708 1.31519 -7.4533 -0.301999 -0.383986 -0.570459 
5042 1 8.92151 24.9335 6.39673 -7.65221 -0.922685 -0.523088 -0.849068 
5101 1 14.0845 3.75744 1.17657 -7.69126 1.18052 0.0250175 -0.801801 
5102 1 14.1356 3.91231 6.47267 -8.05585 -0.0469826 -0.012224 -0.225229 
5161 1 14.172 8.97739 1.12676 -7.77291 0.488366 0.149612 1.54416 
5162 1 14.1638 9.16218 6.49829 -7.68599 -1.05578 0.166423 0.101892 
5221 1 14.0784 14.4313 1.33949 -7.45077 0.674744 -0.355549 0.11385 
5222 1 14.1831 14.3121 6.4923 -8.26671 -0.622655 1.32324 0.418284 
5281 1 14.152 19.5455 1.43202 -7.39029 0.826888 -0.758664 -0.505727 
5282 1 14.265 19.5989 6.4987 -7.11719 0.134931 -0.0805238 0.453989 
5341 1 14.1149 24.7697 1.13822 -8.19883 0.745504 -0.18609 -0.71663 
5342 1 14.1868 24.8243 6.49091 -7.6255 -1.13953 -0.0146866 -0.399299 
5401 1 19.3104 3.89388 1.14179 -7.81943 0.928787 -0.309305 1.1218 
5402 1 19.4037 3.92037 6.49829 -7.45231 0.173172 0.0870886 -0.866388 
5461 1 19.4157 9.10218 1.42567 -7.96342 -0.434683 -1.19097 -0.760688 
5462 1 19.2443 9.16599 6.55602 -7.93004 0.668001 -0.0561585 1.082 
5521 1 19.2832 14.3995 1.49965 -8.09257 1.14104 0.500519 -1.21367 
5522 1 19.3022 14.498 6.55774 -7.93882 0.770543 -0.398442 -0.623523 
5581 1 19.3874 19.6379 1.34658 -7.22309 0.0278748 0.968085 -0.121434 
5582 1 19.4303 19.776 6.57848 -7.8508 0.475381 -0.201711 -0.175777 
5641 1 19.4148 24.9165 1.33052 -8.03365 0.284301 -0.86785 -0.0565993 
5642 1 19.2383 25.0453 6.58142 -7.50459 1.1492 -0.562349 0.380474 
5701 1 24.7026 3.83075 1.25116 -7.9884 0.237867 0.0271999 -0.597808 
5702 1 24.6126 4.12229 6.70026 -7.88694 -0.337192 0.402519 -0.986105 
5761 1 24.5135 9.17324 1.42802 -7.56828 -0.113288 -1.36818 0.215204 
5762 1 24.4717 9.37228 6.62269 -7.6611 -0.178514 -1.14483 0.000186084 
5821 1 24.6733 14.3025 1.16888 -7.75838 0.810872 -0.0649304 0.665828 
5822 1 24.6856 14.384 6.38841 -7.27509 0.495484 0.260464 -0.488443 
5881 1 24.7588 19.6428 1.35156 -8.41268 -1.53945 0.0540983 -0.372575 
5882 1 24.8081 19.6237 6.64388 -8.01845 -0.770126 0.402125 -0.640762 
5941 1 24.8364 24.7479 1.36876 -7.89508 -1.07279 1.73698 0.802015 
5942 1 24.6311 24.9162 6.38988 -7.76565 -0.965149 0.550791 0.94675 
6001 1 3.58949 3.75822 -1.18736 -7.72434 0.702692 0.742355 -0.240246 
6002 1 3.51288 3.8239 3.81818 -7.87066 -0.475446 0.765531 0.0242242 
6003 1 3.63815 3.72114 9.06755 -8.17672 0.603117 0.0926792 0.59551 
6061 1 3.66686 9.12398 -1.49081 -7.98427 -0.906525 -0.232118 0.3862 
6062 1 3.5285 9.30578 3.69801 -8.15823 -0.00456646 -0.403932 -0.808516 
6063 1 3.67333 9.0554 8.88506 -8.10882 0.75778 0.291246 0.509009 
6121 1 3.5917 14.5445 -1.20522 -7.76557 -1.16042 0.332115 -1.58714 
6122 1 3.60706 14.3699 3.75478 -7.96935 -0.614363 1.05236 -0.0172383 
6123 1 3.79063 14.3561 8.92024 -7.42228 -0.741112 -1.07756 1.13826 
6181 1 3.67179 19.88 -1.43075 -6.84688 -0.718858 -1.25032 -0.560314 
6182 1 3.39097 19.6345 3.7353 -7.48867 0.529508 0.344896 -0.202831 
6183 1 3.61758 19.5098 9.00823 -8.32807 0.224109 0.0757497 0.142779 
6241 1 3.55283 24.8931 -1.40101 -7.60641 0.391913 -0.185191 0.406343 
6242 1 3.58885 24.9151 3.84505 -8.03924 -1.52028 -1.10281 -0.338618 
6243 1 3.60799 24.7819 9.06503 -7.24726 1.1748 -0.70077 -0.10501 
6301 1 8.74549 3.86068 -1.49257 -7.24228 -0.597818 1.43414 0.0279034 
6302 1 8.65612 3.72798 3.89653 -7.57037 1.40264 0.574275 -1.22663 
6303 1 8.88471 3.91734 8.99115 -7.85909 0.36295 -1.25732 1.30933 
6361 1 8.79191 9.16269 -1.49294 -7.98587 -0.0638662 -0.532603 0.109942 
6362 1 8.79688 9.1327 3.64091 -7.70309 -0.242379 -0.0372242 2.013 
6363 1 8.87382 9.08492 8.90448 -7.22685 0.360541 -1.32447 1.06323 
6421 1 8.69401 14.4169 -1.49618 -8.12832 1.0618 0.157476 0.343575 
6422 1 8.60261 14.3206 3.74251 -7.48322 1.55122 0.701172 0.564823 
6423 1 8.98019 14.1513 9.06502 -7.59722 -0.542658 0.495903 -0.0192699 
6481 1 8.70708 19.7157 -1.52325 -7.43935 -1.36438 0.501006 0.426234 
6482 1 8.74434 19.4124 3.79197 -7.60411 0.0306128 1.03166 -1.02758 
6483 1 8.89332 19.434 9.0057 -7.51135 -1.01172 -0.566148 -1.22103 
6541 1 8.64309 25.0419 -1.2357 -7.23575 0.0791901 0.152461 -0.306576 
6542 1 8.68683 24.7451 3.76412 -7.59554 0.376984 0.328662 1.59002 
6543 1 8.93352 24.7863 9.06187 -8.09278 -1.11598 -0.986385 1.25531 
6601 1 13.7877 3.70846 -1.47058 -7.90528 0.343535 1.56611 0.653841 
6602 1 14.0837 3.85072 3.71188 -7.6202 0.467078 0.576175 0.637395 
6603 1 14.1448 3.90944 9.16462 -7.93521 -0.454342 0.161616 0.522965 
6661 1 14.0214 8.93006 -1.41001 -7.72463 0.0127417 -0.590414 -0.116496 
6662 1 14.0981 9.09925 3.85337 -7.83477 -0.188119 0.311026 -0.179395 
6663 1 14.147 9.23761 9.17378 -7.58286 -0.587673 -1.14895 -0.343246 
6721 1 14.0473 14.4829 -1.08909 -7.8073 -0.00689414 -0.746447 -2.32864 
6722 1 13.8993 14.4422 3.8696 -7.3128 1.31346 -0.672821 1.09635 
6723 1 14.0151 14.4031 9.12426 -8.43436 0.464767 0.924503 -0.208077 
6781 1 14.0562 19.7496 -1.1506 -8.07228 -1.57762 -0.751926 -0.988644 
6782 1 13.8971 19.563 3.93315 -7.21039 0.817175 0.0752513 0.212736 
6783 1 14.178 19.7309 9.10539 -7.85366 -0.545631 -0.457954 -0.0469702 
6841 1 13.9023 24.986 -1.53322 -7.14957 -1.06642 0.677761 0.462682 
6842 1 14.2024 24.9497 3.69516 -8.11658 -2.11467 -1.42349 1.05678 
6843 1 14.3447 25.1096 9.02235 -7.4671 -0.458162 -1.27225 1.29085 
6901 1 19.1331 3.62506 -1.36318 -7.33409 0.653447 0.712211 -0.952621 
6902 1 19.2762 3.74974 3.81799 -8.29981 0.338485 -0.251303 0.533951 
6903 1 19.4416 3.9629 9.12945 -7.68307 -0.642976 -0.567956 0.562143 
6961 1 19.2125 8.95162 -1.34763 -8.1809 1.54098 -0.187577 -0.674026 
6962 1 19.2594 8.88945 4.02773 -7.6545 -0.185259 -0.0127016 -0.25108 
6963 1 19.3969 9.16607 9.24097 -7.43479 -1.05679 -0.261423 -0.749607 
7021 1 19.3746 14.387 -1.09282 -7.81407 0.45035 -1.44158 -0.309958 
7022 1 19.146 14.1189 3.98245 -7.68144 -0.280712 1.43092 -0.0339661 
7023 1 19.32 14.3854 9.13856 -8.01073 -0.26409 -0.654562 1.21406 
7081 1 19.4252 19.413 -1.26463 -8.00759 -0.485283 0.334706 -0.515936 
7082 1 19.2477 19.4104 3.95333 -8.0339 -0.32365 0.666272 -0.340908 
7083 1 19.4517 19.5547 9.15032 -7.19964 -0.0320029 -0.156005 -0.172057 
7141 1 19.1322 24.6745 -1.41392 -8.23667 1.14647 0.0875467 -0.206913 
7142 1 19.2965 24.6646 3.97142 -7.81965 0.26393 0.252376 -0.0397666 
7143 1 19.8578 24.7428 9.2618 -7.4801 -0.999727 0.721826 -0.81988 
7201 1 24.5495 3.86755 -1.37535 -8.07328 -0.0415172 -0.473572 -0.113548 
7202 1 24.4098 3.69958 3.80961 -7.99165 -0.268983 -0.281875 1.03183 
7203 1 24.5657 3.69909 9.2949 -8.08492 0.31501 -0.295635 -0.60497 
7261 1 24.3972 9.27624 -1.17439 -7.63039 0.109651 -1.02106 -0.746324 
7262 1 24.4456 8.88924 4.03339 -7.72089 -0.162679 0.496053 -0.0735276 
7263 1 24.435 8.91198 9.31709 -7.47126 0.97995 -0.602309 -0.502368 
7321 1 24.4458 14.3881 -1.40193 -7.28127 1.88093 0.218106 -0.692883 
7322 1 24.5408 14.276 3.71609 -7.82895 -0.751241 -0.384417 -0.00346428 
7323 1 24.6338 14.1026 8.98736 -7.48417 -0.118066 0.208182 -0.537805 
7381 1 24.6323 19.6014 -1.25567 -8.17233 0.529665 0.330055 -0.101991 
7382 1 24.4762 19.344 4.02855 -7.28337 -0.2691 1.42954 -0.39829 
7383 1 24.4965 19.3136 9.24896 -7.36357 0.827414 -0.673277 -0.290492 
7441 1 24.6972 24.7103 -1.15412 -7.37219 -0.652491 1.33815 -0.716449 
7442 1 24.4367 24.4868 3.93169 -7.6537 -0.67573 0.953505 -0.292463 
7443 1 24.8465 24.5579 9.12904 -7.64745 -0.168651 -0.279442 -0.441986 
7501 1 3.48966 1.14881 1.40151 -7.87778 -0.471574 0.558318 -0.909487 
7502 1 3.67486 1.27868 6.53197 -7.78621 0.22818 0.354355 0.346216 
7561 1 3.45313 6.313 1.35766 -7.97145 -0.708512 -0.206156 -1.94419 
7562 1 3.68331 6.61694 6.52382 -7.82884 -0.807663 -0.438429 -0.72927 
7621 1 3.47915 11.5545 1.38214 -7.99239 0.283083 -0.355556 0.192199 
7622 1 3.67512 11.6189 6.75272 -7.86077 0.397662 0.846546 -0.336882 
7681 1 3.27252 16.6422 1.35973 -7.46512 1.36411 -0.452773 -0.648198 
7682 1 3.62615 17.1015 6.33514 -7.11096 0.0178975 -0.917564 0.876964 
7741 1 3.39694 22.0107 1.36653 -7.89013 -0.0244645 1.00891 0.0047836 
7742 1 3.55087 22.2311 6.58069 -7.53191 0.46213 0.215453 -0.0570084 
7801 1 8.66344 1.10974 1.24499 -7.60085 -0.279486 -0.036482 0.116439 
7802 1 8.87477 1.30348 6.49869 -7.38924 0.300073 -0.825726 -1.40738 
7861 1 8.68424 6.32837 1.05928 -7.56328 -0.123947 -0.36935 0.187877 
7862 1 8.83936 6.48235 6.43856 -7.57772 -0.249 0.519888 0.678475 
7921 1 8.75011 11.7115 1.2968 -7.51765 0.511795 0.51621 0.248186 
7922 1 8.88581 11.7161 6.51237 -7.67816 0.795259 -0.26418 0.391157 
7981 1 8.6391 16.7562 1.43299 -7.99202 -0.057407 2.58371 0.157806 
7982 1 8.54586 17.0455 6.63724 -7.81358 1.66557 -2.06883 -1.257 
8041 1 8.58622 22.0104 1.48846 -7.71584 0.415432 -0.257782 -0.994949 
8042 1 8.85866 22.2881 6.67061 -7.94964 -0.196868 -0.438079 -1.23673 
8101 1 13.9113 1.10843 1.34656 -8.12957 -0.0485129 0.440078 -0.429144 
8102 1 14.2398 1.22343 6.61921 -7.46833 0.0507693 0.146747 -0.192842 
8161 1 13.869 6.43302 1.36792 -7.07724 0.22801 -0.617869 0.0794189 
8162 1 14.0362 6.64037 6.6589 -7.89469 -0.215345 -0.877373 -0.511153 
8221 1 14.0576 11.6308 1.25738 -7.67479 0.775311 0.239257 0.601245 
8222 1 14.1242 11.8065 6.67496 -7.60579 0.897493 -0.475195 -1.28645 
8281 1 13.9128 16.9912 1.41701 -7.82936 0.755688 0.00408985 -0.95148 
8282 1 13.89 16.9803 6.57485 -8.00249 1.08408 -0.718325 0.4401 
8341 1 13.9049 22.0685 1.30895 -7.59474 -0.0326568 0.92865 -0.902105 
8342 1 14.1052 22.2528 6.52264 -7.90091 -1.01298 -1.26106 0.860045 
8401 1 19.3423 1.20898 1.19801 -7.78897 -0.937959 0.450751 0.48511 
8402 1 19.4889 1.28304 6.36548 -7.76767 -0.152054 0.448156 0.404487 
8461 1 19.0595 6.4411 1.36873 -8.15863 -0.29239 0.411203 -0.0117084 
8462 1 19.2876 6.51476 6.5168 -7.93714 -0.286775 0.517279 0.614244 
8521 1 19.5131 11.6555 1.31436 -7.81958 -1.57201 1.37861 -2.10188 
8522 1 19.4362 11.8388 6.56874 -7.70419 -0.488521 -0.699073 0.274894 
8581 1 19.3918 17.0739 1.27655 -8.03037 -0.531609 -0.918367 -0.563268 
8582 1 19.265 17.0666 6.56677 -8.43086 0.654192 0.618066 -0.0959075 
8641 1 19.1961 22.2667 1.41997 -8.15945 0.192261 0.177081 -0.337132 
8642 1 19.3453 22.4717 6.56052 -7.61527 0.728524 -0.455911 -0.154027 
8701 1 24.5465 1.23041 1.32284 -8.22955 0.288694 -0.221761 0.947532 
8702 1 24.7071 1.49393 6.51104 -7.45226 -1.32169 -0.751259 1.32257 
8761 1 24.3783 6.45802 1.48455 -8.22797 0.232678 0.552081 -1.5692 
8762 1 24.3231 6.79613 6.61439 -7.82737 2.33479 -0.789181 -0.509034 
8821 1 24.5161 11.6926 1.22346 -7.8238 -0.280823 0.869758 1.18476 
8822 1 24.813 11.8889 6.4954 -6.80219 -0.964156 -0.0491691 0.933509 
8881 1 24.4949 16.9895 1.38674 -8.0211 -0.176181 0.465799 0.166711 
8882 1 24.8002 17.0434 6.65444 -7.34997 -0.459991 0.316369 0.153459 
8941 1 24.4447 22.2864 1.12837 -7.73906 0.274546 -1.24275 0.495137 
8942 1 24.6063 22.2695 6.6248 -8.35785 0.173169 0.24242 -0.793327 
9001 1 1.1815 3.66733 1.11348 -7.82794 0.333577 -0.272608 -0.560107 
9002 1 0.978243 3.93013 6.38433 -8.27181 0.558145 -0.843644 0.25116 
9061 1 1.00201 9.15464 1.39597 -7.83309 0.772262 -1.09569 0.163633 
9062 1 0.961856 9.01492 6.5375 -7.7128 0.547774 -0.617639 0.440765 
9121 1 1.1537 14.4305 1.22543 -7.98226 -0.780384 -0.772552 -0.0313842 
9122 1 1.20348 14.2875 6.32359 -7.83951 -1.3429 -0.703289 1.81909 
9181 1 1.1061 19.4801 1.66234 -7.28624 0.750975 -0.185908 -0.453176 
9182 1 1.25424 19.5876 6.78511 -7.41345 -0.0123416 0.240338 -0.440101 
9241 1 1.16294 24.6264 1.3508 -7.42581 0.214694 0.729905 -0.566542 
9242 1 1.02211 24.6858 6.49326 -7.5244 0.235459 1.0451 0.300181 
9301 1 6.44062 3.70983 1.09928 -8.26498 0.704008 0.440946 0.969537 
9302 1 6.48577 3.85994 6.4683 -7.29345 -1.9335 0.785067 -0.670115 
9361 1 6.18564 9.07651 1.27661 -7.66192 -0.199706 0.139621 0.675017 
9362 1 6.16311 9.15999 6.74199 -7.58616 0.510404 -0.209839 -0.510628 
9421 1 6.36251 14.2941 1.23471 -8.09317 -1.00919 0.972186 0.376801 
9422 1 6.29233 14.3652 6.66799 -8.01119 0.263272 -1.21415 -0.236647 
9481 1 6.25516 19.4397 1.37339 -7.56718 1.12421 0.624029 -0.391029 
9482 1 6.4284 19.3946 6.52842 -7.84601 -0.14916 0.95881 0.545121 
9541 1 6.28357 24.7831 1.31259 -7.07982 0.531715 0.351257 0.758698 
9542 1 6.25667 24.9979 6.56673 -8.06238 0.1674 -0.91942 0.214129 
9601 1 11.6356 3.90966 1.13177 -7.90467 -0.220455 -0.75285 0.0138049 
9602 1 11.4418 3.80591 6.45628 -7.3625 1.64825 0.684764 0.631649 
9661 1 11.4357 9.22637 1.38572 -7.36383 0.951413 -1.08183 -0.0825732 
9662 1 11.4316 9.32498 6.58234 -8.13007 -0.141306 -1.39293 0.478741 
9721 1 11.3956 14.4763 1.33841 -8.02968 0.840746 0.975985 -0.116741 
9722 1 11.5064 14.5318 6.86863 -7.63433 1.20385 -0.621445 -0.850744 
9781 1 11.5655 19.7462 1.31959 -7.92652 -0.0425117 0.137759 1.39072 
9782 1 11.7697 19.5343 6.48125 -7.34209 -1.22353 0.253131 2.2088 
9841 1 11.5759 24.9501 1.35767 -7.81143 -0.360167 0.706846 -1.37199 
9842 1 11.5025 24.732 6.61452 -7.78333 0.382124 -0.0381564 -1.40544 
9901 1 16.7037 3.72257 1.23191 -8.01524 -0.301785 0.446561 -0.361523 
9902 1 16.7903 3.95652 6.50697 -7.96384 0.0901244 -1.1686 -0.369619 
9961 1 16.8372 9.02492 1.37631 -7.72843 -0.598706 -0.704674 -0.158395 
9962 1 16.6964 9.09176 6.57325 -7.89079 0.245867 0.281193 -0.00276679 
10021 1 16.7282 14.2214 1.42523 -7.83966 -0.257717 0.750628 -0.53177 
10022 1 16.7979 14.3409 6.68511 -7.89495 -0.828806 0.557117 -0.778751 
10081 1 16.8129 19.282 1.29921 -7.61227 -0.55494 1.53027 0.422052 
10082 1 16.7688 19.5469 6.52567 -7.44029 1.03052 -0.318102 -0.150213 
10141 1 16.7692 24.5546 1.39415 -8.07612 -0.00204494 1.3018 -0.540415 
10142 1 16.7441 24.7259 6.43208 -7.21735 0.351061 0.215247 1.37955 
10201 1 22.0143 3.79763 1.4117 -8.03186 -0.532398 -0.995665 0.643911 
10202 1 22.0085 3.83428 6.65444 -7.03413 0.612705 -0.34799 0.471614 
10261 1 21.9574 8.9166 1.27706 -7.98402 0.176623 0.584994 -0.121762 
10262 1 21.8594 8.95854 6.52402 -7.81722 -0.157412 0.804925 -0.182974 
10321 1 21.9913 14.2211 1.21849 -7.76387 -0.455854 -0.669079 0.829143 
10322 1 22.0656 14.2839 6.57072 -7.54689 -1.04702 -0.247006 -0.510724 
10381 1 21.9737 19.3779 1.36773 -7.87043 1.41578 0.459768 -1.15185 
10382 1 22.0982 19.4607 6.59928 -7.88769 0.0954848 1.20003 -0.0499649 
10441 1 22.1269 24.788 1.35078 -7.8619 -0.0549863 -0.208848 -0.722576 
10442 1 21.9509 24.7305 6.2758 -8.27521 0.135588 0.597424 0.242805 
10501 1 1.15326 1.07383 -1.49248 -7.97783 -0.0793969 0.601457 0.451063 
10502 1 1.12232 1.35749 3.81002 -8.46429 -0.667945 -0.626365 -0.52538 
10503 1 0.849449 1.43603 9.41782 -8.0242 1.06527 -0.350123 -1.16109 
10561 1 0.98696 6.5207 -1.32089 -7.90825 1.49121 -0.698263 1.49251 
10562 1 1.20396 6.66113 3.88103 -7.68635 -1.26468 0.831142 0.491265 
10563 1 1.19171 6.66781 9.30753 -7.58663 -0.335723 -0.695193 0.042465 