ITEM: TIMESTEP
0
ITEM: NUMBER OF ATOMS
12000
ITEM: BOX BOUNDS pp pp pp
-2.3481012791481426e-01 2.7575810127914679e+01
-2.2705791000110942e-01 2.7568057910000782e+01
-1.6675267966260492e+00 2.2039552679662921e+02
ITEM: ATOMS id type x y z c_peratom fx fy fz 
242 2 5.30109 5.3442 3.98652 -24.2555 -2.22503 -0.503336 -5.01572 
1201 2 5.50037 2.35478 0.719558 -25.196 -2.89749 -1.27909 5.13577 
1202 2 5.42271 2.27086 6.62401 -25.4911 1.56402 1.14873 0.76589 
2041 2 2.67454 5.14867 1.08929 -24.4816 -1.54026 -2.72704 -3.40604 
2042 2 2.40069 4.95124 6.47573 -25.0555 -0.598815 2.78491 0.261931 
3002 2 2.99887 2.4971 4.0401 -23.2878 -3.78847 -3.93351 -2.79481 
6002 1 1.16532 3.47875 5.04679 -8.0041 -0.23477 1.1978 -0.244 
9001 1 1.35725 3.36787 -0.394122 -6.48136 -0.121604 -0.0303864 0.00461568 
11002 1 0.851585 0.781461 5.36528 -7.17773 0.57016 -0.474684 -1.01832 
10361 1 3.72312 3.50622 5.6448 -7.28681 0.402936 0.477782 2.95787 
9162 1 3.76082 0.756149 5.00871 -8.42728 1.2604 -2.01534 0.649641 
5040 1 4.14026 3.96734 -0.165681 -7.26336 -0.843399 -2.37187 1.07377 
7361 1 0.90494 0.799202 2.00244 -7.47374 -0.116703 0.612026 1.22492 
11001 1 4.25566 0.92584 -0.81799 -7.95711 -0.412833 1.31725 2.73042 
7201 1 4.18757 3.69007 2.91777 -7.02433 -2.08853 3.61647 -2.82551 
4041 1 1.26276 6.45807 -0.254531 -7.7979 0.413561 0.207388 3.30576 
11041 1 3.39985 6.63459 2.31222 -8.44118 0.369372 2.34926 1.64178 
42 2 -0.16383 4.75176 3.73203 -24.0595 -0.562979 -0.0224363 -1.59698 
7242 1 3.99983 6.36003 5.23528 -6.29465 -3.77734 0.380591 -1.3911 
7041 1 1.1114 6.25624 4.87444 -8.09979 -0.564492 0.489744 -0.364548 
4201 1 6.61889 6.62509 -0.131258 -7.47598 0.940573 0.508649 -0.0148272 
7561 1 4.27891 1.07255 2.32393 -7.14121 -1.99437 -0.905719 -1.35738 
5961 1 1.54913 0.440184 -0.561064 -7.64329 0.906546 1.60952 -0.334993 
5201 1 6.02892 3.97101 5.2505 -7.31207 5.21476 -1.45886 2.0849 
10401 1 6.57661 3.69164 2.3997 -6.39273 2.79074 1.65129 1.00415 
41 3 0.218833 5.54876 -1.56416 -28.181 -4.23948 -5.76667 0.0100091 
4002 1 1.11473 3.68786 1.99385 -7.64139 -0.560498 1.69322 3.5211 
10040 1 3.81543 6.43962 -0.5349 -6.67102 0.0359165 1.80779 1.17462 
10201 1 0.313548 6.69242 2.13257 -7.42615 0.632656 0.163615 1.76262 
2002 3 2.5643 -0.18232 6.45717 -28.5046 -2.10143 -0.841358 1.00367 
5202 1 9.15565 3.93266 5.25774 -8.54124 -1.36823 -0.990365 -0.7017 
6162 1 6.90992 0.984403 2.49927 -6.77744 -1.43381 -1.91473 -1.27512 
7362 1 7.0391 1.15601 -0.193406 -7.04353 -3.05354 1.33198 -4.38408 
9202 1 6.75395 1.19454 5.09311 -7.7549 -2.07074 -1.7983 2.58162 
7241 1 6.73844 3.72289 -0.133678 -7.23863 3.13475 3.65958 -4.07686 
442 2 10.6037 4.93141 3.84758 -24.3358 2.37327 2.07723 0.628911 
1401 2 10.6517 2.01925 0.862486 -24.6836 0.0677419 0.404933 1.19778 
1402 2 10.0314 2.66685 6.99498 -23.5572 0.320446 -0.0970076 -0.712561 
2241 2 8.09905 5.02337 1.15054 -24.1404 -3.42993 -2.24795 -2.67234 
2242 2 7.68141 5.26326 6.31563 -23.7375 -0.0775078 0.344395 1.91913 
3202 2 8.03278 2.24238 3.8459 -25 1.59486 1.82057 -2.92552 
4402 1 12.2826 3.81135 2.48394 -7.72515 -0.98396 -0.661919 1.49024 
6201 1 9.4924 3.53038 -0.261429 -8.60667 1.00564 1.42034 -1.81494 
9401 1 12.467 3.7882 -0.373727 -8.25943 -1.71749 1.35044 0.178856 
11201 1 9.44151 0.632264 -0.361409 -6.50129 3.22119 0.817039 -1.01036 
7480 1 9.34026 3.70206 2.49994 -7.962 0.42246 -1.66019 0.527784 
8402 1 12.4793 0.658404 5.25762 -8.64669 0.148759 -0.670046 0.77883 
6362 1 9.52644 1.07642 5.02292 -7.8973 0.903842 -0.284285 2.64351 
8401 1 12.0557 0.999808 2.21454 -8.08865 0.835835 0.421435 3.59562 
4441 1 11.6202 3.97842 5.92525 -7.64217 0.164649 -0.9781 0.517254 
8280 1 12.5293 6.55666 -0.199775 -7.06816 -1.98406 -1.73835 -0.974034 
8480 1 11.9568 6.62641 2.33703 -7.36735 0.382717 -1.50271 0.360681 
11242 1 9.0826 6.66306 5.36752 -8.14343 0.452556 1.24821 -1.71023 
4241 1 9.50033 6.43866 -0.689784 -8.31219 0.401282 -0.727959 -0.338551 
8241 1 9.4032 6.23923 2.1206 -8.36365 0.231808 2.89207 2.76375 
2442 2 13.5734 4.93127 6.79313 -24.9676 -1.41091 2.54681 -3.62846 
3402 2 13.3199 2.01541 3.91017 -23.6077 3.15512 4.21499 -1.82721 
9363 1 7.51335 3.24464 7.31542 -7.44379 1.76001 0.279717 0.766654 
4401 1 12.5253 1.12646 -0.351204 -7.81935 -2.44887 -1.33401 -1.43379 
5161 1 9.50324 0.777968 2.39028 -6.24009 -0.228504 0.297904 -0.375279 
2601 2 19.4221 0.118575 1.16663 -22.8027 2.13126 -2.04507 2.99122 
641 3 16.3868 5.56363 -1.60415 -29.3143 0.188299 -0.503613 -1.07461 
10640 1 17.8848 3.81641 0.143669 -7.73095 2.75064 0.50258 0.261255 
2441 2 13.7119 4.94829 1.23169 -24.9345 -0.984893 1.96734 -1.72482 
642 2 16.3688 5.34508 3.62929 -25.0891 -2.84155 -1.17475 2.43154 
1601 2 16.5493 2.47191 1.29449 -24.2577 3.89084 1.45014 0.67892 
1602 2 16.4616 2.46344 6.83516 -23.7074 2.88447 -1.20657 -1.32586 
2641 3 19.0246 5.18037 1.41226 -27.8285 2.59739 -1.31585 -1.50159 
2642 3 19.4132 5.2969 6.63794 -26.7677 0.531578 0.15596 -0.205165 
3602 3 19.1677 2.52244 4.02939 -28.005 0.485251 -0.88521 -1.54556 
4601 1 18.0834 1.14811 -0.126349 -9.10425 -1.64754 -1.07376 -0.116406 
4602 1 17.9861 1.35084 5.4782 -8.06383 1.2244 0.219109 0.740195 
5401 1 15.0076 1.50792 0.501167 -6.52751 -2.63495 -3.39424 -3.64484 
6402 1 15.2462 3.81757 2.2507 -7.36089 -0.643595 1.21814 2.66476 
10601 1 16.521 3.9195 5.22254 -6.10785 3.52931 0.318885 1.73343 
8441 1 14.1565 3.97932 4.77402 -5.67968 -3.53343 -1.63424 0.191375 
8640 1 17.9265 0.966667 2.76511 -8.70252 -0.0178651 1.50323 -1.97596 
6401 1 17.9667 6.47803 2.57638 -8.96236 -0.240658 1.14787 -1.32562 
8601 1 20.0088 3.9578 5.19019 -8.40969 -1.07171 -0.189038 -1.49633 
9602 1 14.6305 6.48733 5.31816 -6.65638 -1.54442 1.3949 -0.812925 
9601 1 17.852 3.81165 2.93293 -8.13177 1.22669 0.114938 -1.18186 
11441 1 14.8207 6.67005 2.6794 -8.0536 0.719042 -2.93664 -2.62533 
9442 1 17.8978 6.6117 -0.334745 -7.27259 -1.50794 -1.65905 1.63812 
6439 1 15.3875 3.91583 -0.212292 -6.8768 -1.95212 1.65365 -2.96284 
11402 1 15.1233 1.28403 5.74042 -7.86527 -1.29782 -1.44176 -2.05438 
8801 1 20.3334 1.39157 7.25944 -7.24174 -2.59192 -2.38766 -2.24466 
6842 1 20.4622 6.70619 5.0386 -8.40821 -0.883279 -0.877932 2.22662 
7841 1 20.3448 3.02227 2.19855 -6.66064 -1.06914 -0.544513 -0.767162 
6601 1 20.4276 6.56691 -0.382334 -7.95894 1.0466 1.60405 1.98883 
3401 2 13.8339 2.58741 -1.48793 -24.8468 2.70262 -1.19678 -1.51593 
5480 1 15.067 6.67317 -0.172913 -7.93462 1.28226 0.16804 0.276018 
11602 1 14.7624 0.427964 2.73073 -8.22864 0.299352 -0.685032 3.59832 
3601 2 19.2672 2.55243 -1.35248 -24.3096 -0.109318 1.44907 -3.14651 
5402 1 18.3775 3.78192 7.33718 -8.46614 -2.79652 -0.945537 2.62584 
7641 1 17.6209 6.47265 7.48066 -7.99762 1.3872 -0.209007 0.22278 
1002 2 27.2909 2.23803 6.54322 -24.976 4.58611 -1.73675 -2.49456 
1001 2 27.4473 2.32007 0.756375 -25.0191 2.80879 1.79369 -2.50974 
10961 1 20.6543 0.831126 3.70262 -6.73426 -3.0815 0.186684 1.60546 
11641 1 20.7872 3.8898 -0.314323 -8.40789 -0.248275 -1.28038 -0.638842 
10801 1 23.861 3.57419 -0.0705126 -7.18988 -1.13269 -4.21121 -3.98521 
8001 1 25.676 3.95071 2.40673 -7.84131 5.09474 3.43685 -1.44255 
7601 1 23.9714 0.941122 -0.812457 -7.58996 -2.05034 2.09826 1.14529 
842 3 21.7559 4.93096 4.29567 -28.7303 -0.224408 0.121293 -5.13559 
1801 3 22.188 2.56467 0.748961 -27.6907 -0.321531 1.68909 3.18686 
1802 2 22.1934 2.25273 6.63185 -25.5986 0.409695 1.25837 -0.46621 
2841 3 24.8346 4.86372 0.933279 -29.0012 0.138854 4.20024 -2.00843 
2842 2 24.4131 5.1065 6.9885 -24.2202 2.01112 -0.611444 -2.84049 
3802 2 24.5936 2.73071 3.55754 -24.3717 -3.27084 -3.91055 2.76016 
5801 1 23.1237 4.46396 1.87642 -5.98443 -1.25686 -1.40283 3.76761 
11802 1 26.6302 1.31295 -1.28646 -6.89018 -0.998866 1.93452 1.92825 
11842 1 22.9698 0.94024 2.1826 -7.81046 1.12346 0.176638 -2.90569 
9802 1 22.5277 2.71981 4.17743 -6.82767 0.0330925 1.57268 1.22845 
4802 1 26.356 3.8475 -0.633657 -6.72291 0.669864 -1.30618 0.393678 
11963 1 25.8426 1.52772 1.78673 -7.76333 -2.44699 -3.5739 0.427586 
9002 1 26.1588 6.25828 -0.27649 -7.09283 0.341451 3.89526 2.2693 
4841 1 20.7104 5.72454 2.53494 -6.95737 -1.21732 1.37682 -0.3609 
8802 1 26.5362 2.29076 4.45256 -7.37383 -0.0114755 -0.369819 0.273982 
6801 1 23.1761 6.29152 -0.16365 -7.93639 1.65547 2.67167 1.04312 
5841 1 23.2251 6.36619 4.0764 -6.99496 -0.981854 1.28854 1.12753 
6802 1 25.9241 5.2741 4.89089 -7.01442 0.186664 -0.262203 1.51375 
6602 1 22.1937 -0.0379762 6.20604 -7.05711 0.863088 0.0221519 -1.07229 
10001 1 22.34 4.58738 6.01329 -7.09408 0.498308 2.06525 2.64433 
841 2 21.8304 5.34495 -1.5217 -24.5992 0.379688 0.329004 -2.2348 
7002 1 26.1301 0.838225 7.54225 -7.8363 -3.10433 -1.60773 1.86887 
9803 1 24.2489 3.05582 6.34001 -6.99778 2.20481 -2.38386 -1.29216 
9962 1 24.088 0.291258 4.5997 -7.60317 4.37055 0.977773 1.00846 
11640 1 20.9786 1.17284 -0.292187 -8.9865 -1.14606 0.418479 1.45639 
4242 1 3.83161 9.48882 2.49274 -7.30907 -1.4743 -2.3442 -2.80864 
11042 1 3.48716 8.98073 5.48205 -7.91015 -2.84437 2.42276 -0.558993 
282 2 4.96541 10.9631 3.9006 -25.2973 -0.755459 -0.111877 -0.001392 
1241 2 5.11943 8.02772 1.23227 -24.6756 -0.347333 -0.321561 -0.450704 
1242 2 5.08456 8.06977 6.44645 -24.8453 0.403999 -2.3187 2.1372 
2081 3 2.39834 10.9336 1.04952 -27.3351 -0.227001 0.219392 2.68822 
2082 2 2.19763 10.8188 6.39025 -25.0112 0.291041 1.78396 0.923668 
3042 2 2.08072 8.18354 3.68174 -24.1952 1.53149 0.100456 0.189708 
5041 1 3.58216 9.25654 -0.675893 -8.55597 0.1705 1.08506 2.28307 
6042 1 2.14826 10.7529 3.65712 -6.23992 -2.76708 -1.10368 2.59702 
7081 1 0.893551 12.727 2.38348 -7.25622 0.509907 -1.18979 -0.59175 
9042 1 0.210611 9.00743 4.57126 -7.96312 0.765384 -1.66587 0.375161 
10041 1 0.572093 9.67787 1.81633 -8.44733 0.301083 0.413299 1.65695 
9841 1 1.15919 12.0061 -0.454587 -8.44746 -0.416755 -2.91058 1.31414 
11082 1 3.83452 12.0613 5.3928 -7.06202 -0.121844 -2.28262 -0.921596 
9082 1 3.82073 12.0501 -0.205778 -8.45183 -1.56422 -0.247082 2.00455 
9241 1 6.27007 9.52207 3.01933 -7.18355 4.29731 -0.796094 0.848076 
6001 1 0.849808 9.09611 -0.426069 -8.63229 0.750449 1.47303 -3.55882 
8041 1 6.29624 9.82486 0.651022 -7.35073 -1.48185 -1.15099 -3.8309 
4282 1 6.2022 9.82796 5.58929 -7.82495 1.1066 -1.04371 0.497221 
7281 1 6.42304 12.1319 -0.732759 -8.08294 0.794402 0.842076 2.41787 
5082 1 6.52961 12.5785 4.95898 -7.39792 -1.07782 -0.575123 0.147641 
5241 1 3.65929 12.2481 2.47189 -7.40929 3.0618 -0.283354 -2.20769 
10081 1 0.919707 12.5545 5.38057 -7.25752 -0.464351 -3.08717 1.25786 
1282 2 5.22501 13.637 6.72176 -25.397 2.81789 0.68697 -2.86052 
10042 1 0.954672 9.3663 7.33186 -6.65721 0.734542 -1.46634 0.464029 
3081 2 2.38264 13.405 -1.51078 -25.1252 0.923215 2.82037 -2.14162 
3041 3 2.31651 7.99299 -1.57629 -27.5198 3.69641 0.169748 0.286481 
10202 1 6.25522 6.7769 2.67656 -7.91747 2.35311 0.0409422 -1.73828 
9243 1 6.38623 6.83927 5.15669 -8.04269 4.09377 0.883628 1.07549 
3082 2 2.43025 13.2863 4.00293 -26.5873 -0.621784 0.450411 -0.191048 
1041 3 -0.195603 8.13527 0.740028 -26.3077 -2.9684 -3.64649 2.15551 
1281 2 5.02142 13.495 1.02162 -24.565 1.20797 0.896537 1.76708 
281 2 5.04297 10.7399 -1.41261 -24.4008 1.07861 -2.91415 -3.06256 
4482 1 6.72163 12.4139 2.20239 -8.05866 -1.11323 0.481997 0.788961 
4442 1 9.06178 9.43002 5.59766 -8.92521 3.73869 -2.69205 -5.40067 
482 2 10.8061 10.55 3.88559 -24.7619 2.77009 0.715801 -1.25726 
1441 3 10.5678 7.69216 1.18272 -28.7546 2.49641 2.67217 -2.20372 
1442 3 10.541 7.93193 6.78491 -26.7611 0.740698 -1.71203 -1.31945 
2281 2 7.91189 11.0141 1.29172 -23.106 2.71539 -2.91387 -0.943229 
2282 2 8.03173 10.7526 6.63455 -23.5644 -4.05527 4.45197 3.36837 
3242 2 7.8267 8.20629 3.93797 -22.8886 -0.330776 -1.06555 0.56721 
6241 1 9.80104 9.14094 2.5542 -8.21744 -4.31419 -0.129539 2.34782 
7481 1 12.3171 9.37574 2.46243 -6.10262 1.44683 -0.286468 0.0918644 
9441 1 11.8919 9.21183 -0.146936 -5.92745 -0.387708 0.65749 -0.0880819 
4322 1 9.15836 9.15615 -0.0382438 -6.77929 -1.54104 -0.902146 -0.685274 
8282 1 11.4733 11.492 5.72737 -7.23514 -1.13908 3.49743 0.854328 
7482 1 11.9088 6.7659 4.93898 -6.89584 -1.78537 -1.25715 0.643367 
3442 3 13.2612 7.49139 3.63142 -28.6011 -0.388869 2.58525 1.0975 
8281 1 12.3103 12.0088 2.78077 -6.75699 -0.90915 -0.277709 0.278949 
8481 1 9.47623 12.3871 2.87365 -8.03809 -0.891934 -0.983381 -1.34238 
6281 1 9.30757 11.8838 -0.170387 -8.82504 0.801208 2.42755 0.982065 
2481 2 13.4931 11.0296 1.14561 -25.6371 -0.608478 -1.58959 -0.55593 
2482 2 13.199 10.7801 6.84927 -24.0701 0.956632 -0.296582 -1.1796 
9282 1 9.0197 12.6079 5.57258 -8.04607 0.384182 0.312541 1.61615 
5442 1 12.3109 9.36237 5.10414 -6.72329 0.570113 -2.19337 1.36472 
3281 2 8.0064 13.3246 -1.28129 -24.0845 2.75692 4.57396 -3.70831 
3282 3 7.9911 13.5427 4.10474 -26.9932 -0.501114 0.865513 -2.3305 
6442 1 12.2952 12.4469 -0.359516 -7.77524 -0.888852 -1.93608 1.10335 
3441 2 13.5055 8.08477 -1.44072 -25.7439 -1.66036 -0.907881 -0.960919 
1482 2 10.7213 13.5837 6.89591 -25.0076 1.00097 0.741192 -0.6278 
3482 2 13.8578 13.4469 4.11419 -24.3056 -1.26228 -0.030977 -3.04864 
8641 1 17.087 7.04722 4.9479 -7.72741 4.64288 -0.577429 -3.32004 
3682 2 18.9092 13.6141 3.70115 -23.8498 1.35289 -1.05055 0.541023 
10442 1 14.5529 11.5359 5.21574 -8.37193 0.28484 0.929602 -0.331536 
11442 1 17.6031 9.14584 0.080467 -7.03333 1.77443 3.24024 0.649272 
6680 1 17.7686 9.31221 2.68205 -7.99949 0.605902 0.220909 0.0260925 
682 2 16.3416 10.8249 3.93976 -24.3903 -0.217172 -0.0136271 -1.6728 
1641 2 16.3661 7.88704 1.14197 -24.2478 -1.12749 -0.519632 1.8855 
1642 2 15.957 7.87444 6.38943 -23.3102 3.68008 -2.21162 0.331522 
2681 2 18.8398 10.6227 1.25219 -24.4239 1.23009 0.0295258 -1.72692 
2682 3 19.2119 10.7521 6.55412 -28.2734 0.342983 -0.618619 -0.552973 
3642 3 18.921 8.09123 4.00061 -27.749 0.315904 0.221503 0.0894545 
11681 1 15.219 9.0683 2.72047 -6.91932 -0.399662 2.45132 0.476948 
11642 1 17.8256 9.75015 5.22715 -7.71844 -2.17471 -0.399679 0.967508 
9881 1 17.3694 12.2427 2.40602 -8.23782 3.45997 -0.256829 -0.310806 
9842 1 14.4957 9.68014 -0.513113 -7.37342 2.44271 0.955762 2.32412 
5681 1 17.9018 12.1126 -0.471451 -7.57951 0.0207197 0.682838 1.83277 
5641 1 17.3489 12.5211 5.14666 -7.72428 -0.617989 -0.666111 -0.844731 
5441 1 20.2945 9.1981 5.09728 -7.79956 2.13681 0.790174 0.700636 
4682 1 14.877 12.2132 2.39247 -6.75823 0.0715955 -0.789224 2.15158 
5481 1 15.1 12.1687 -0.216869 -7.42628 0.380595 1.1762 -1.39741 
8720 1 20.4881 11.8859 2.00011 -7.92674 -0.842256 1.13567 0.260369 
3641 2 19.3008 8.00036 -1.59263 -25.5324 -3.68236 1.10164 -1.07652 
10441 1 20.5322 9.21379 2.38838 -7.31665 -4.14951 -1.46912 0.0138962 
9882 1 19.9004 11.7645 4.68688 -7.836 1.47447 1.29746 -0.0461411 
5601 1 20.5961 9.56723 -0.315698 -7.32199 -1.93492 -1.29601 -0.16788 
6443 1 14.8468 9.23302 7.2591 -8.46744 -2.95242 4.39816 3.06888 
7080 1 25.6971 9.54871 0.0564201 -8.65707 1.33595 -1.4721 -0.576709 
3841 2 24.7109 7.87917 -1.32178 -24.7304 0.464469 -0.996653 -1.62432 
9801 1 23.0517 11.6107 0.208478 -8.44502 2.28486 -2.27278 -4.86499 
1881 2 22.1508 13.1868 1.00094 -23.9524 -1.63195 4.50377 4.50807 
82 2 27.4449 10.7656 3.51892 -25.1688 -1.02341 2.97465 0.955054 
5001 1 25.1712 7.03869 2.22529 -6.99674 0.403277 -0.035449 -2.60263 
1042 2 27.2663 7.60405 6.28643 -25.7681 1.67702 1.71922 1.09849 
8681 1 23.0793 11.8284 2.63467 -8.2128 0.835145 2.15729 2.06531 
7681 1 22.7742 9.2645 2.65673 -7.90368 3.84307 -2.07706 -0.135102 
4081 1 23.2207 9.48704 5.5131 -7.78425 -2.29458 -0.58541 -2.1636 
8880 1 23.0101 9.04996 -0.375335 -7.85947 2.38987 -0.399683 1.4152 
8841 1 25.2606 9.87902 2.80983 -7.36537 2.26206 -2.12178 0.802364 
882 3 21.6242 10.6565 3.737 -28.109 -0.430975 -0.314531 0.0774264 
1841 2 21.9575 7.99178 1.08639 -23.6383 -3.21255 -2.04948 0.581041 
1842 2 21.8916 8.0403 6.44138 -23.8423 -1.35544 0.403957 -1.11375 
2881 3 24.2871 10.5528 1.34852 -27.2186 0.398873 -0.377704 0.0922565 
2882 2 24.4719 10.612 6.85384 -26.8466 3.60489 1.74126 0.0734587 
3842 3 24.534 7.92921 3.70275 -28.1366 -1.7858 0.790758 -0.372834 
6841 1 26.2751 12.3596 -0.514131 -8.57703 -1.69198 -2.65828 -1.43056 
7881 1 23.1578 12.2125 5.51202 -7.39545 -0.576647 0.271213 -0.820204 
11882 1 26.0079 11.4449 5.12844 -6.22878 -0.755391 0.332366 -0.180956 
8882 1 25.4315 8.03429 5.25391 -6.35598 0.468472 -0.404369 0.52193 
11881 1 26.0682 12.2847 2.44919 -8.03377 -2.73217 -0.195807 0.38079 
1081 2 27.1441 13.4404 1.08777 -24.2662 2.3883 0.399179 -0.973724 
3881 3 25.0314 13.5966 -1.57189 -27.5227 -2.00887 0.501508 -2.48042 
81 2 27.4971 10.7509 -1.59938 -23.8003 -2.02263 0.414026 -1.0545 
3882 3 24.445 13.3286 3.88652 -28.1679 1.09515 -1.05004 2.85124 
5842 1 26.2342 9.27422 7.46483 -5.39091 -1.20404 -0.106425 1.35777 
6163 1 4.09824 0.798484 16.3024 -8.19527 -0.0227117 -0.521623 1.35095 
11044 1 3.85483 6.15267 16.527 -8.3709 -0.112401 2.11753 -2.20483 
4042 1 1.46692 3.56298 7.97849 -7.12669 0.510245 2.79048 -1.07693 
6803 1 0.994132 1.04879 8.12262 -6.47831 0.0997535 -0.608327 1.20245 
10002 1 5.1089 3.69675 8.42833 -6.38805 1.49959 0.285913 -2.11706 
4003 1 3.61778 1.00407 10.4977 -7.51985 4.58045 -1.26568 -0.616741 
5002 1 3.8103 1.37854 7.66787 -7.47045 -1.27435 -1.2404 0.763252 
243 3 5.19294 5.52694 9.11522 -27.5139 -0.524882 -0.00779367 1.42009 
244 2 5.71476 5.16113 15.6132 -24.5241 0.401864 -2.4902 -0.809815 
1203 2 5.32472 2.40138 12.4481 -24.5832 0.00850741 0.150915 -0.831534 
2043 2 2.6894 5.11795 11.932 -24.3238 0.853399 0.547829 -0.703076 
3003 2 2.48608 2.34574 9.40307 -25.4451 -1.36444 -0.768873 -2.22073 
3004 2 2.85801 2.05322 15.0559 -23.7752 -1.88068 -0.555694 -1.2093 
5003 1 3.31618 3.13211 12.6949 -6.96731 -1.26109 -0.0143135 2.00827 
8003 1 1.20526 0.530639 10.9872 -7.59537 -2.80925 3.20074 -0.753832 
9003 1 0.914317 3.51035 10.625 -8.14366 0.589997 -1.03192 3.18447 
10003 1 0.986583 2.21559 14.0178 -8.01348 -1.89713 0.121639 -0.860302 
5162 1 3.71324 3.76463 10.3709 -6.69244 0.693603 4.39714 1.20361 
8362 1 4.21493 0.475971 13.3486 -7.83791 0.0479781 0.998053 0.906768 
4043 1 1.21382 6.34372 10.6573 -8.47112 -1.83837 -0.683394 0.227204 
8363 1 6.41083 1.04475 10.7921 -8.8011 0.569193 -0.80031 0.138457 
11003 1 3.92954 6.23798 7.59889 -7.20574 -1.19818 0.349601 3.67177 
8043 1 3.91682 6.50159 13.2477 -7.20464 -0.389628 -0.466004 0.699149 
6004 1 4.4334 3.35611 15.1175 -6.91154 1.23682 0.98727 1.13284 
7203 1 6.3677 4.08752 13.6353 -7.35595 0.37118 0.501273 -0.72382 
4044 1 1.05212 6.17152 16.2748 -7.66942 -0.965122 -0.420973 0.612418 
9203 1 6.44971 6.25054 10.7608 -7.64087 0.381763 1.20678 -0.669606 
9004 1 1.39795 3.66017 16.6076 -7.66415 -1.02504 -3.78583 -2.47372 
1003 2 -0.179388 1.86931 12.2111 -23.0532 0.0366485 0.835019 -0.780598 
7043 1 1.25985 5.76313 13.6413 -8.69075 3.71006 0.273911 -4.37418 
7042 1 1.1407 6.46408 7.62308 -7.64988 -0.725804 0.32057 1.44316 
11804 1 1.16954 0.54006 16.1622 -8.65244 1.2402 1.989 0.80984 
9323 1 6.74736 0.639744 7.81221 -7.94664 -2.53591 0.337728 1.87995 
7441 1 12.047 6.61539 7.87106 -7.72784 0.119499 2.2303 -1.48709 
8242 1 9.37914 5.85682 7.96595 -8.09738 -1.33368 -0.0150444 -0.581338 
4404 1 12.3105 0.911938 16.3352 -8.33697 1.32491 0.734698 -1.63459 
6203 1 7.37534 3.75931 10.7749 -6.85552 -0.585488 -0.193594 1.19535 
7202 1 6.85906 1.3562 13.6544 -8.23423 0.840515 -1.3883 -0.240322 
9362 1 9.36518 0.810719 7.99414 -7.58178 0.383999 0.821825 -1.0421 
6441 1 11.5688 6.71804 10.4174 -6.32663 5.57189 1.56994 -0.548229 
9402 1 12.4834 4.34186 8.71292 -8.32312 1.48244 -2.59029 0.162131 
10402 1 9.28775 1.23965 10.8377 -7.17864 -1.54879 -3.15593 3.73587 
11203 1 8.23261 5.3661 15.4678 -6.70302 -1.05846 -0.105987 -0.513239 
6202 1 9.6078 3.1012 9.16782 -7.17937 2.80892 4.60403 -2.45646 
443 3 10.7991 5.26704 9.28725 -28.4288 -1.22527 -0.127857 2.20943 
444 2 10.4797 5.2921 14.6383 -25.4268 0.913617 1.46192 2.24643 
1403 2 10.7777 2.51216 12.7547 -24.991 3.59273 0.887726 -5.46524 
2243 2 7.82666 5.45636 12.5745 -24.7017 -3.15211 -4.05434 -4.41394 
3203 3 8.03111 2.22811 9.70336 -27.9384 -1.63499 -0.26566 -1.66591 
3204 2 8.25658 2.51827 15.2222 -25.2534 -1.04663 0.897188 0.75223 
4403 1 12.215 1.14546 8.14336 -7.3702 1.63817 2.35941 -3.14382 
9403 1 9.1375 3.79367 13.423 -8.30852 0.162455 0.866246 -0.566237 
7442 1 11.558 4.48624 11.5596 -6.79585 -1.70272 -1.74433 0.751576 
6403 1 9.75163 1.35197 14.1156 -7.76229 0.0193095 -3.23393 -1.07708 
9563 1 11.9376 1.63591 10.6525 -5.96206 1.24964 -0.841343 -0.0861771 
5403 1 11.8956 3.6378 14.3932 -7.07657 0.122468 0.617122 -1.31142 
11243 1 9.37657 6.47103 10.6719 -6.68506 -4.711 -0.690258 0.579823 
2443 2 13.3968 5.59724 11.6369 -24.3007 -3.94989 -0.518928 5.43656 
7403 1 12.6553 1.41412 13.2234 -7.15783 -0.0249433 -0.470139 1.97336 
3403 2 13.6659 2.52072 9.36239 -24.1733 -1.75298 -0.856008 3.32058 
7443 1 12.5791 6.35023 16.3736 -5.85678 1.30758 0.359031 -0.334946 
11204 1 10.1019 3.84175 16.3418 -6.96756 -0.525014 -0.141075 1.51668 
4204 1 6.86688 0.958611 16.5838 -7.71365 -0.17476 -0.882063 -0.245531 
5564 1 13.3159 3.6413 16.797 -6.77743 0.0178248 -0.931177 -0.618748 
10404 1 9.57108 1.30993 16.5909 -7.53143 -0.251046 -0.106196 3.22873 
6764 1 20.527 0.748112 16.3168 -6.82182 4.19658 -3.97665 -2.83358 
2403 2 14.0094 -0.108747 12.5265 -24.127 -0.316786 -0.109781 -2.08194 
3404 2 13.775 2.60265 14.9472 -24.9601 -0.713937 -1.90673 0.471692 
10763 1 18.368 0.281729 14.2262 -7.46368 -0.888345 -0.434466 -0.731858 
7602 1 14.8804 0.953854 8.40914 -8.30815 1.27562 -0.522136 -0.673951 
5562 1 15.1854 3.85898 7.89252 -9.75063 -1.33035 -2.04455 1.5871 
8403 1 18.1341 1.35459 11.1115 -5.64847 -1.1 -3.10814 -0.242076 
4603 1 15.1709 1.10927 11.0806 -7.54536 0.247731 -0.798513 -3.09512 
643 2 16.5169 5.23512 8.8152 -22.9822 0.986703 2.25083 3.14381 
644 3 16.5201 5.27645 14.7714 -27.1228 -1.57063 0.153432 1.94687 
1603 2 16.5603 2.60234 12.0528 -25.0154 -2.17523 -0.976945 -0.0695071 
2643 2 19.2258 4.98233 12.0116 -24.3539 -0.900381 0.88522 -0.0816795 
3603 2 19.2057 2.21226 8.91935 -25.8597 3.48287 2.69772 3.85554 
3604 2 19.6061 2.09553 14.7887 -25.1992 -1.16185 0.287291 1.17556 
9603 1 14.2719 3.67858 11.4244 -6.70708 1.40863 -1.26156 -2.924 
10603 1 15.0751 3.86939 13.9262 -7.47995 3.63012 0.834104 0.847336 
6603 1 17.2849 3.93031 10.4603 -7.59791 -1.29594 0.842923 -1.52889 
6404 1 18.5375 3.00749 12.8212 -7.13908 0.478519 2.77335 3.86379 
11604 1 20.6096 0.832661 13.1149 -8.23734 1.00954 -1.54423 2.49078 
5404 1 15.4427 1.05766 13.5128 -7.43828 2.08688 2.5523 4.22155 
4642 1 17.729 6.63406 10.5948 -7.95454 0.621177 -0.686815 -2.80864 
8443 1 14.8905 6.53493 13.1988 -7.19099 0.214463 1.3549 0.106776 
4443 1 14.8534 6.29026 10.4866 -8.10896 3.08788 2.15907 -4.08432 
11603 1 17.7174 0.877798 8.5585 -7.27749 -3.65506 -0.510311 -2.98891 
8442 1 14.9368 6.583 7.80524 -8.09359 -1.2371 -0.607872 2.85586 
9642 1 20.2439 6.59178 8.11218 -8.66353 2.14075 -2.6541 -1.39399 
5642 1 20.3349 6.55566 10.9237 -7.704 2.21205 -0.490694 -1.19487 
10602 1 20.0308 3.73634 10.4774 -6.63107 1.78869 1.87633 0.292613 
8643 1 20.321 6.26729 16.1796 -7.26444 3.85818 0.364205 -2.69208 
11444 1 18.3537 3.81612 15.4338 -7.88669 -1.09559 1.71616 -0.954147 
7644 1 17.9938 6.51769 16.4971 -6.85815 -2.63694 -0.318267 -2.19226 
11443 1 17.5852 6.23601 13.2515 -8.89783 1.75596 -1.24475 2.04041 
9605 1 18.2285 1.18179 16.5921 -6.82031 -4.92689 0.865912 1.96788 
7604 1 15.3767 1.54851 16.5519 -7.4853 0.0726592 -0.765322 -0.890985 
9764 1 23.1559 3.70962 16.1157 -7.83179 2.11606 -2.73351 1.73331 
4842 1 21.0552 3.63068 8.06279 -6.68542 0.114131 2.50455 0.256883 
5843 1 25.9543 6.04699 16.3327 -7.99389 0.64563 1.50728 -2.21555 
8843 1 25.8333 3.11553 16.5848 -7.72297 1.86497 0.620769 1.90288 
10804 1 23.1194 6.42702 16.5211 -7.84216 1.31581 -0.703858 -1.63164 
5603 1 21.2177 3.77595 13.6704 -8.41909 -1.74824 -1.95892 -1.11856 
10803 1 26.1041 6.53337 10.6235 -8.32904 1.99226 -1.52891 0.163551 
44 2 27.4302 5.36371 14.6099 -22.4497 -6.68242 -1.40802 5.35813 
8603 1 20.8487 1.35082 10.2104 -6.75142 2.19153 -2.475 -0.788279 
5802 1 23.3903 1.09331 8.2846 -8.07491 -0.108195 0.278234 0.565727 
43 2 27.4933 4.7996 9.5073 -23.5441 0.157732 2.35053 -0.918293 
4804 1 23.307 1.52375 13.7336 -7.71014 -1.22629 -1.0944 -0.247534 
6642 1 26.4065 0.648053 10.8605 -8.54645 -1.90406 1.07049 -0.913636 
5602 1 23.7503 3.94022 8.79944 -8.11286 0.394283 1.91336 0.673677 
7003 1 25.5678 3.79354 13.8234 -7.5521 1.00635 0.909016 -1.06384 
10802 1 26.698 3.73272 7.80945 -7.89663 -3.38102 1.97264 1.61584 
10963 1 23.489 0.558097 11.1762 -8.22287 0.5215 2.70513 -0.509051 
843 2 22.0081 5.36435 9.25423 -23.5086 -1.50161 -1.31753 1.15622 
844 2 22.0363 5.04815 15.0954 -23.3937 -1.46971 4.44961 -0.59965 
1803 2 21.7519 2.19759 12.0074 -24.5177 1.58839 2.0743 -1.26929 
2843 3 24.5438 5.12828 12.2924 -26.7091 1.18057 0.96427 0.214847 
3803 2 24.8996 2.1429 9.44469 -23.2604 -0.14504 -0.933782 -0.933543 
3804 2 24.678 1.80328 15.296 -24.0473 1.85349 2.28559 0.0538566 
11843 1 26.044 3.34468 10.7428 -8.44447 0.650559 1.80952 1.4954 
6964 1 26.1437 0.662891 13.72 -9.00332 1.25301 2.27795 0.306984 
9804 1 23.1599 4.02212 11.4861 -7.84662 -1.06898 -1.10287 0.218317 
4643 1 20.7153 6.55515 13.5282 -7.83377 -1.55486 -1.62574 1.42802 
5803 1 26.0961 6.64373 13.3275 -8.62635 1.04622 -0.194853 0.12672 
7803 1 23.5439 6.36639 13.8554 -8.51991 -1.20276 -1.25901 -0.738225 
8842 1 25.953 6.56907 7.68948 -7.7272 -0.590969 -1.82604 2.41924 
11765 1 26.2158 0.390603 16.4163 -8.07379 -0.359342 -0.720007 0.505195 
11643 1 23.4759 6.6959 10.9643 -7.84289 -1.90015 -4.12055 -0.876534 
11644 1 23.3574 0.75486 16.6951 -8.54234 -0.224161 0.714973 -0.241602 
3084 2 2.52272 13.0707 14.7224 -23.825 0.510761 2.54917 0.743759 
1283 3 5.38372 13.3387 12.1273 -28.7633 -1.807 1.11788 -0.0663775 
1083 2 0.240367 13.6396 12.2237 -24.2275 -3.07632 -0.243504 3.1309 
4243 1 6.46906 6.81471 7.87092 -8.2605 2.58371 -2.6015 0.1424 
6003 1 3.74116 7.09724 10.5436 -7.4103 1.45002 -1.53728 -0.245679 
7243 1 6.65253 6.98758 13.5872 -8.13226 -1.43879 1.16389 2.11096 
6044 1 1.24439 11.8409 16.6072 -7.66483 1.4014 -0.743667 0.995347 
1043 2 -0.229827 7.95487 12.086 -24.0704 -0.333647 1.00431 -0.430462 
8084 1 6.60649 12.6483 16.0643 -7.71267 0.795291 -2.30847 -1.56179 
9244 1 4.11607 8.95006 14.5164 -7.38341 0.70418 -1.25713 1.62752 
9242 1 2.89891 10.2063 8.79432 -6.62319 0.887315 -0.0771082 -1.5116 
8042 1 3.75912 12.7768 7.72937 -6.73265 -3.70164 -1.76085 6.55295 
6284 1 2.93379 12.9634 11.7758 -6.77145 -2.22215 -2.82106 -1.38961 
4082 1 1.01257 12.3089 8.22541 -6.40072 1.37512 0.43316 -1.58818 
7082 1 0.135637 11.6139 11.4248 -6.98728 2.5125 -1.18755 -0.0429305 
11043 1 4.03336 10.069 11.1957 -7.46968 0.960447 -0.152289 1.3283 
283 3 4.90547 10.6237 9.29776 -27.9825 0.760517 1.79376 0.632439 
284 2 5.47698 10.7433 15.2431 -23.3512 0.585154 -0.290916 -3.24976 
1243 2 5.26575 8.32938 12.5052 -24.6583 -2.37328 -0.220724 -1.84261 
2083 2 2.15974 10.758 12.344 -24.1085 0.747851 -0.262771 -1.65243 
3043 2 2.21559 7.88914 9.29777 -24.0211 1.56376 -0.270368 -3.58026 
3044 2 2.29573 7.43121 14.8841 -24.7981 1.53546 1.27452 0.363367 
5043 1 1.70068 8.6589 13.091 -7.75046 -0.297248 0.937541 -0.687412 
10043 1 1.14636 9.18684 10.4631 -7.81899 -1.83845 0.815278 2.89452 
5844 1 0.25099 8.22007 15.2525 -6.56778 0.794476 1.12125 0.446822 
8082 1 3.88051 11.465 13.6501 -7.89825 -0.487105 1.42349 2.01999 
10243 1 6.57871 9.79664 13.7292 -8.61057 2.21504 -1.9093 -1.43956 
5042 1 6.28563 11.726 7.69413 -6.95014 0.342228 -0.552668 -0.0320694 
7283 1 6.23061 12.274 10.3357 -6.93035 -1.69162 -2.23828 0.884362 
83 2 0.03174 10.7924 9.38342 -25.8426 -1.72373 0.0858042 -3.04472 
7282 1 5.26573 8.92951 8.57054 -7.05629 -0.102883 -0.322076 -1.65706 
9043 1 0.713482 12.1267 13.9255 -8.65897 0.976593 -1.39709 -0.265849 
4084 1 4.35146 11.5015 16.6941 -7.9567 -4.64046 1.33512 2.87556 
3483 2 13.6114 13.258 9.5107 -25.1604 -1.55576 3.6376 -0.148159 
1483 3 10.7221 13.5503 12.7641 -26.8891 1.68298 -0.112837 -3.18543 
10443 1 9.18991 9.5823 16.4137 -7.8094 3.85041 -0.715241 -2.76722 
8243 1 9.15847 6.73754 13.3588 -7.66798 4.42365 2.50726 1.33939 
5242 1 12.0947 6.8228 13.5064 -7.91519 0.277117 -0.766811 0.877218 
3284 2 8.1465 13.6168 14.803 -24.1208 -1.67633 -1.60347 1.40856 
8283 1 7.00536 9.27792 10.7745 -7.61769 0.319818 -0.262154 1.3168 
4283 1 6.89483 12.3761 13.2602 -7.85225 -1.72964 0.751261 -0.292492 
4284 1 9.48138 12.2046 16.3159 -7.94213 0.428557 -3.06449 -0.830558 
6242 1 8.8867 8.68422 8.00489 -8.37065 2.09786 2.05553 -0.955685 
10242 1 12.1863 9.44611 8.23307 -8.86503 -1.99371 -0.84461 0.993929 
8482 1 12.8783 8.56661 11.3488 -8.06412 0.0375097 -0.203867 -0.787063 
483 2 10.5373 10.9358 9.66121 -22.8121 4.04275 0.89249 -1.1432 
484 2 10.7965 10.7896 14.6853 -22.8503 -0.937564 -0.0416822 2.5299 
1443 2 10.8226 8.01925 12.2761 -24.5021 -0.299315 -2.64187 -1.60771 
2283 2 8.14189 10.7862 12.2761 -23.9736 -1.8024 -0.629591 -2.61453 
3243 2 7.96906 7.57149 9.43898 -23.8149 -2.44456 -0.9136 2.76879 
3244 2 7.97784 8.12009 15.0622 -24.1531 2.27191 -1.30167 0.090724 
5243 1 9.40601 9.35909 13.4111 -8.70978 0.782763 1.11934 2.90131 
7483 1 9.31364 12.1713 13.543 -8.7821 2.29842 -1.21095 -0.0685253 
11283 1 9.96584 9.43764 10.9438 -8.12314 -1.31014 0.053642 -0.606653 
11284 1 12.556 9.78703 13.9841 -8.37906 -1.01186 -1.09724 -0.750457 
11285 1 9.22339 12.2431 10.7907 -8.18777 0.192673 1.03059 2.69019 
6243 1 9.13675 11.7383 8.36723 -7.99545 -0.982286 1.245 -3.43089 
8483 1 11.7407 12.757 14.3971 -7.82132 -0.451453 -2.32817 0.883005 
11483 1 12.2258 11.7182 11.4229 -7.90084 -2.52823 0.419206 -0.808507 
10482 1 12.0054 12.2201 8.20536 -8.41772 0.224579 -1.27146 1.58605 
3443 2 13.5192 7.90746 9.2105 -23.7696 0.0710124 -0.768075 -0.103666 
6244 1 6.73608 9.32147 16.5529 -8.44985 -2.95573 -0.218527 -0.969859 
3444 2 13.6692 8.01682 15.0344 -24.8382 -0.923344 -1.1815 -0.0216736 
8484 1 12.511 11.4889 16.4947 -8.49768 -1.9042 2.24248 1.16942 