Siesta Version:                                        siesta-trunk-411
Architecture  : x86_64-unknown-linux-gnu--Intel
Compiler flags: mpif90 -shared-intel -O2
PARALLEL version

* Running on   72 nodes in parallel
>> Start of run:  26-MAR-2014   9:56:44

                           ***********************       
                           *  WELCOME TO SIESTA  *       
                           ***********************       

reinit: Reading from standard input
************************** Dump of input data file ****************************
# Final relaxed coordinates
SystemLabel      ssy_andrew_dimer_c_2
NumberOfAtoms    78
NumberOfSpecies  6
%block ChemicalSpeciesLabel
    1    6  C
    2   11  Na
    3   16  S
    4    7  N
    5    8  O
    6    1  H
%endblock ChemicalSpeciesLabel
LatticeConstant 1.0 Ang
%block LatticeParameters
  35.000000  24.000000  24.000000  90.000000  90.000000  90.000000
%endblock LatticeParameters
AtomicCoordinatesFormat NotScaledCartesianAng
%block AtomicCoordinatesAndAtomicSpecies
   25.71619444    7.87890534    9.82162027   2       1  Na
   25.96080215   15.04916520   11.66884850   2       2  Na
    9.10811053    8.41361693    9.36132837   2       3  Na
    9.30786306   15.51148285   11.67145829   2       4  Na
   11.07258410    8.18627558    8.39818071   5       5  O
    9.84781519   10.36955410    8.64321009   5       6  O
   10.80008458    9.22569179   10.66006955   5       7  O
   11.05730727    9.54439060    9.15412933   3       8  S
   17.56308345   14.67222121    8.80967490   5       9  O
   16.46370030   14.01972140    8.78655711   1      10  C
   15.17709651   15.80183157    8.72381133   6      11  H
   15.15235269   14.70866627    8.74370690   1      12  C
   13.00057676   14.53993283    8.78393724   6      13  H
   13.95669737   14.00710196    8.76210191   1      14  C
   13.90856399   12.53357768    8.80132895   1      15  C
   11.71212452   12.41889610    8.89883728   6      16  H
   12.64469988   11.84939519    8.86264836   1      17  C
   12.63847604   10.43719138    8.91777543   1      18  C
   13.78742423    8.57324254    8.92612437   6      19  H
   13.84006708    9.66347077    8.89485902   1      20  C
   16.01154330    9.75950299    8.84068509   6      21  H
   15.08280278   10.33331401    8.84315031   1      22  C
   15.14486895   11.77010288    8.81455796   1      23  C
   16.44623414   12.50612889    8.81591446   1      24  C
   17.56144350   11.74149201    8.86440119   4      25  N
   18.77700665   13.38506134    8.84215440   6      26  H
   18.76897735   12.33977076    8.86677752   4      27  N
   21.09502681    8.30226373    9.20479602   6      28  H
   21.10698921    9.39172772    9.13064683   1      29  C
   18.93574674    9.62282342    9.02998552   6      30  H
   19.90269376   10.12723883    9.02622698   1      31  C
   19.95722340   11.55885857    8.93205278   1      32  C
   21.24734886   13.33595578    8.86500321   6      33  H
   21.21587798   12.24415625    8.92490004   1      34  C
   23.38560206   12.02778060    9.07869687   6      35  H
   22.42479589   11.50839351    9.03910564   1      36  C
   22.34876974   10.09193184    9.14458988   1      37  C
   23.74202961    7.69695660    8.85801874   5      38  O
   25.12333625    9.79969770    8.85226835   5      39  O
   23.86735335    9.12451607    9.46057201   3      40  S
   24.11982159    8.95432934   10.98996415   5      41  O
   11.27613127   15.65333502   12.62618675   5      42  O
    9.93747914   13.53535078   12.42799436   5      43  O
   10.96689313   14.57666640   10.38926411   5      44  O
   11.19337329   14.27959096   11.90376567   3      45  S
   17.37677275    8.77800333   12.40498788   5      46  O
   16.31807171    9.49544524   12.39620737   1      47  C
   14.92515258    7.79392988   12.40409477   6      48  H
   14.96650926    8.88638139   12.39485363   1      49  C
   12.83009572    9.18405933   12.30171158   6      50  H
   13.81574569    9.65846236   12.35113348   1      51  C
   13.85813185   11.13193628   12.31884747   1      52  C
   11.67502309   11.37704969   12.17636585   6      53  H
   12.63928602   11.89030169   12.23028487   1      54  C
   12.71788993   13.30078077   12.17532394   1      55  C
   13.97599112   15.09236039   12.19325560   6      56  H
   13.96291712   14.00125821   12.22540531   1      57  C
   16.12255127   13.77537307   12.33504840   6      58  H
   15.16190177   13.25811228   12.30794182   1      59  C
   15.13791686   11.82021200   12.33801833   1      60  C
   16.39235167   11.00706473   12.37473398   1      61  C
   17.55303506   11.70199430   12.37175327   4      62  N
   18.66772789    9.98893809   12.42904413   6      63  H
   18.72217200   11.03321981   12.41260856   4      64  N
   21.29156147   14.92995878   12.17573608   6      65  H
   21.23789150   13.84145778   12.24661716   1      66  C
   19.05457688   13.73898391   12.27574005   6      67  H
   19.98910446   13.17799006   12.30798977   1      68  C
   19.95559106   11.74496129   12.39641846   1      69  C
   21.13627765    9.89603727   12.50685760   6      70  H
   21.17087927   10.98777238   12.44739313   1      71  C
   23.35285459   11.07560252   12.36925750   6      72  H
   22.42415598   11.65120138   12.37741746   1      73  C
   22.43647778   13.06972422   12.27121819   1      74  C
   23.99351749   15.36482674   12.61182087   5      75  O
   25.21733060   13.16869848   12.61673051   5      76  O
   24.02281726   13.93777814   11.99615466   3      77  S
   24.30924911   14.10525466   10.47226311   5      78  O
%endblock AtomicCoordinatesAndAtomicSpecies
PAO.SplitNorm         0.15
PAO.SplitNormH        0.5
PAO.EnergyShift  0.001 Ry
PAO.BasisSize  TZP
%block PAO.Basis                                   # Define Basis set
C     2
n=2    0    3
 9.0 2.7 3.6
 1.0 1.0 1.0
n=2    1    3  P 1
 9.0 2.5 3.6
 1.0 1.0 1.0
N     2
n=2    0    3
 9.0 2.5 4.3
 1.0 1.0 1.0
n=2    1    3  P 1
 9.0 2.4 3.8
 1.0 1.0 1.0
O     2
n=2    0    3
 8.5 2.5 5.0
 1.0 1.0 1.0
n=2    1 3 P 1
 9.0 2.4 5.4
 1.0 1.0 1.0
H  1
n=1  0  3 P 1
 8.0 1.8 4.1
 1.0 1.0 1.0
S     2
n=3    0    3
 8.5 2.5 5.0
 1.0 1.0 1.0
n=3    1    3  P 1
 8.5 2.4 5.4
 1.0 1.0 1.0
%endblock PAO.Basis
MD.TypeOfRun    CG
MD.NumCGSteps   0
#MD.Variable-cell True
MD.MaxForceTol  0.01 eV/Ang
#MD.MaxStressTol  200 bar
MaxSCFIterations  500
SolutionMethod diagon
DM.NumberPulay 5
DM.MixingWeight 0.25
DM.Tolerance         1.d-4
XC.Functional VDW
XC.Authors LMKLL
LongOutput true
UseSaveData true
WriteXML false
MeshCutoff  300.0 Ry
************************** End of input data file *****************************
 Processed:          148  lines.
 Processed:          148  lines.
 Processed:          148  lines.

reinit: -----------------------------------------------------------------------
reinit: System Name: 
reinit: -----------------------------------------------------------------------
reinit: System Label: ssy_andrew_dimer_c_2                                        
reinit: -----------------------------------------------------------------------
 Processed:          148  lines.
 Processed:          148  lines.
 Processed:          148  lines.
 Processed:          148  lines.
 Processed:          148  lines.
 Processed:          148  lines.
 Processed:          148  lines.
 Processed:          148  lines.
 Processed:          148  lines.
 Processed:          148  lines.
 Processed:          148  lines.
 Processed:          148  lines.
 Processed:          148  lines.
 Processed:          148  lines.
 Processed:          148  lines.
 Processed:          148  lines.
 Processed:          148  lines.
 Processed:          148  lines.
 Processed:          148  lines.
 Processed:          148  lines.
 Processed:          148  lines.
 Processed:          148  lines.
 Processed:          148  lines.
 Processed:          148  lines.
 Processed:          148  lines.
 Processed:          148  lines.
 Processed:          148  lines.
 Processed:          148  lines.
 Processed:          148  lines.
 Processed:          148  lines.
 Processed:          148  lines.
 Processed:          148  lines.
 Processed:          148  lines.
 Processed:          148  lines.
 Processed:          148  lines.
 Processed:          148  lines.
 Processed:          148  lines.
 Processed:          148  lines.
 Processed:          148  lines.
 Processed:          148  lines.
 Processed:          148  lines.
 Processed:          148  lines.
 Processed:          148  lines.
 Processed:          148  lines.
 Processed:          148  lines.
 Processed:          148  lines.
 Processed:          148  lines.
 Processed:          148  lines.
 Processed:          148  lines.
 Processed:          148  lines.
 Processed:          148  lines.
 Processed:          148  lines.
 Processed:          148  lines.
 Processed:          148  lines.
 Processed:          148  lines.
 Processed:          148  lines.
 Processed:          148  lines.
 Processed:          148  lines.
 Processed:          148  lines.
 Processed:          148  lines.
 Processed:          148  lines.
 Processed:          148  lines.
 Processed:          148  lines.
 Processed:          148  lines.
 Processed:          148  lines.
 Processed:          148  lines.
 Processed:          148  lines.
 Processed:          148  lines.

initatom: Reading input for the pseudopotentials and atomic orbitals ----------
 Species number:            1  Label: C Atomic number:           6
 Species number:            2  Label: Na Atomic number:          11
 Species number:            3  Label: S Atomic number:          16
 Species number:            4  Label: N Atomic number:           7
 Species number:            5  Label: O Atomic number:           8
 Species number:            6  Label: H Atomic number:           1
Ground state valence configuration:   2s02  2p02
Reading pseudopotential information in formatted form from C.psf

Valence configuration for pseudopotential generation:
2s( 2.00) rc: 1.56
2p( 2.00) rc: 1.56
3d( 0.00) rc: 1.56
4f( 0.00) rc: 1.56
Ground state valence configuration:   3s01
Reading pseudopotential information in formatted form from Na.psf

Valence configuration for pseudopotential generation:
3s( 1.00) rc: 2.94
3p( 0.00) rc: 3.50
3d( 0.00) rc: 2.94
Ground state valence configuration:   3s02  3p04
Reading pseudopotential information in formatted form from S.psf

Valence configuration for pseudopotential generation:
3s( 2.00) rc: 1.61
3p( 4.00) rc: 1.72
3d( 0.00) rc: 1.90
4f( 0.00) rc: 1.90
Ground state valence configuration:   2s02  2p03
Reading pseudopotential information in formatted form from N.psf

Valence configuration for pseudopotential generation:
2s( 2.00) rc: 1.48
2p( 3.00) rc: 1.48
3d( 0.00) rc: 1.48
4f( 0.00) rc: 1.48
Ground state valence configuration:   2s02  2p04
Reading pseudopotential information in formatted form from O.psf

Valence configuration for pseudopotential generation:
2s( 2.00) rc: 1.47
2p( 4.00) rc: 1.47
3d( 0.00) rc: 1.47
4f( 0.00) rc: 1.47
Ground state valence configuration:   1s01
Reading pseudopotential information in formatted form from H.psf

Valence configuration for pseudopotential generation:
1s( 1.00) rc: 1.25
2p( 0.00) rc: 1.25
3d( 0.00) rc: 1.25
4f( 0.00) rc: 1.25
For C, standard SIESTA heuristics set lmxkb to 3
 (one more than the basis l, including polarization orbitals).
Use PS.lmax or PS.KBprojectors blocks to override.
For Na, standard SIESTA heuristics set lmxkb to 2
 (one more than the basis l, including polarization orbitals).
Use PS.lmax or PS.KBprojectors blocks to override.
For S, standard SIESTA heuristics set lmxkb to 3
 (one more than the basis l, including polarization orbitals).
Use PS.lmax or PS.KBprojectors blocks to override.
For N, standard SIESTA heuristics set lmxkb to 3
 (one more than the basis l, including polarization orbitals).
Use PS.lmax or PS.KBprojectors blocks to override.
For O, standard SIESTA heuristics set lmxkb to 3
 (one more than the basis l, including polarization orbitals).
Use PS.lmax or PS.KBprojectors blocks to override.
For H, standard SIESTA heuristics set lmxkb to 2
 (one more than the basis l, including polarization orbitals).
Use PS.lmax or PS.KBprojectors blocks to override.

<basis_specs>
===============================================================================
C                    Z=   6    Mass=  12.010        Charge= 0.17977+309
Lmxo=1 Lmxkb= 3    BasisType=split      Semic=F
L=0  Nsemic=0  Cnfigmx=2
          n=1  nzeta=3  polorb=0
            splnorm:   0.15000    
               vcte:    0.0000    
               rinn:    0.0000    
                rcs:    9.0000      2.7000      3.6000    
            lambdas:    1.0000      1.0000      1.0000    
L=1  Nsemic=0  Cnfigmx=2
          n=1  nzeta=3  polorb=1
            splnorm:   0.15000    
               vcte:    0.0000    
               rinn:    0.0000    
                rcs:    9.0000      2.5000      3.6000    
            lambdas:    1.0000      1.0000      1.0000    
-------------------------------------------------------------------------------
L=0  Nkbl=1  erefs: 0.17977+309
L=1  Nkbl=1  erefs: 0.17977+309
L=2  Nkbl=1  erefs: 0.17977+309
L=3  Nkbl=1  erefs: 0.17977+309
===============================================================================
</basis_specs>

atom: Called for C                     (Z =   6)

read_vps: Pseudopotential generation method:
read_vps: ATM3.3    Troullier-Martins                       
Total valence charge:    4.00000

xc_check: Exchange-correlation functional:
xc_check: VDW LMKLL
xc_check: WARNING: Pseudopotential generated with Unknown atomic XC code functional
V l=0 = -2*Zval/r beyond r=  5.3157
V l=1 = -2*Zval/r beyond r=  5.3157
V l=2 = -2*Zval/r beyond r=  5.3157
V l=3 = -2*Zval/r beyond r=  5.3157
All V_l potentials equal beyond r=  1.5418
This should be close to max(r_c) in ps generation
All pots = -2*Zval/r beyond r=  5.3157
Using large-core scheme for Vlocal

atom: Estimated core radius    5.31569

atom: Including non-local core corrections could be a good idea
atom: Maximum radius for 4*pi*r*r*local-pseudopot. charge    5.72973
atom: Maximum radius for r*vlocal+2*Zval:    5.38256
GHOST: No ghost state for L =  0
GHOST: No ghost state for L =  1
GHOST: No ghost state for L =  2
GHOST: No ghost state for L =  3

KBgen: Kleinman-Bylander projectors: 
   l= 0   rc=  1.600766   el= -1.028746   Ekb=  4.362799   kbcos=  0.292106
   l= 1   rc=  1.600766   el= -0.417779   Ekb= -4.642779   kbcos= -0.389769
   l= 2   rc=  1.600766   el=  0.000137   Ekb= -1.256278   kbcos= -0.011586
   l= 3   rc=  1.600766   el=  0.001231   Ekb= -0.552397   kbcos= -0.001665

KBgen: Total number of  Kleinman-Bylander projectors:   16
atom: -------------------------------------------------------------------------

atom: SANKEY-TYPE ORBITALS:
atom: Selected multiple-zeta basis: split     

SPLIT: Orbitals with angular momentum L= 0

SPLIT: Basis orbitals for state 2s

   izeta = 1
                 lambda =    1.000000
                     rc =    9.099279
                 energy =   -1.028782
                kinetic =    0.818365
    potential(screened) =   -1.847147
       potential(ionic) =   -5.384555

   izeta = 2
                 rmatch =    2.740361
              splitnorm =    0.376993
                 energy =   -0.589586
                kinetic =    1.807161
    potential(screened) =   -2.396748
       potential(ionic) =   -6.344602

   izeta = 3
                 rmatch =    3.607901
              splitnorm =    0.134907
                 energy =   -0.911262
                kinetic =    1.252630
    potential(screened) =   -2.163892
       potential(ionic) =   -5.956700

SPLIT: Orbitals with angular momentum L= 1

SPLIT: Basis orbitals for state 2p

   izeta = 1
                 lambda =    1.000000
                     rc =    9.099279
                 energy =   -0.417701
                kinetic =    2.341737
    potential(screened) =   -2.759439
       potential(ionic) =   -6.120003

   izeta = 2
                 rmatch =    2.542323
              splitnorm =    0.421681
                 energy =    0.194476
                kinetic =    5.514744
    potential(screened) =   -5.320268
       potential(ionic) =   -9.401931

   izeta = 3
                 rmatch =    3.607901
              splitnorm =    0.186223
                 energy =   -0.262948
                kinetic =    3.720245
    potential(screened) =   -3.983193
       potential(ionic) =   -7.803234

POLgen: Perturbative polarization orbital with L=  2

POLgen: Polarization orbital for state 2p

   izeta = 1
                     rc =    9.099279
                 energy =    0.851019
                kinetic =    1.874696
    potential(screened) =   -1.023677
       potential(ionic) =   -3.588173
atom: Total number of Sankey-type orbitals: 17

atm_pop: Valence configuration (for local Pseudopot. screening):
 2s( 2.00)                                                            
 2p( 2.00)                                                            
Vna: chval, zval:    4.00000   4.00000

Vna:  Cut-off radius for the neutral-atom potential:   9.099279

atom: _________________________________________________________________________

<basis_specs>
===============================================================================
Na                   Z=  11    Mass=  22.990        Charge= 0.17977+309
Lmxo=0 Lmxkb= 2    BasisType=split      Semic=F
L=0  Nsemic=0  Cnfigmx=3
          n=1  nzeta=3  polorb=1
            splnorm:   0.15000    
               vcte:    0.0000    
               rinn:    0.0000    
                rcs:    0.0000      0.0000      0.0000    
            lambdas:    1.0000      1.0000      1.0000    
-------------------------------------------------------------------------------
L=0  Nkbl=1  erefs: 0.17977+309
L=1  Nkbl=1  erefs: 0.17977+309
L=2  Nkbl=1  erefs: 0.17977+309
===============================================================================
</basis_specs>

atom: Called for Na                    (Z =  11)

read_vps: Pseudopotential generation method:
read_vps: ATM3.3    Troullier-Martins                       
Total valence charge:    1.00000

xc_check: Exchange-correlation functional:
xc_check: VDW LMKLL
xc_check: WARNING: Pseudopotential generated with Unknown atomic XC code functional
V l=0 = -2*Zval/r beyond r= 10.7734
V l=1 = -2*Zval/r beyond r= 10.7734
V l=2 = -2*Zval/r beyond r= 10.7734
All V_l potentials equal beyond r=  3.2447
This should be close to max(r_c) in ps generation
All pots = -2*Zval/r beyond r= 10.7734
Using large-core scheme for Vlocal

atom: Estimated core radius   10.77344

atom: Including non-local core corrections could be a good idea
atom: Maximum radius for 4*pi*r*r*local-pseudopot. charge   11.32582
atom: Maximum radius for r*vlocal+2*Zval:   10.90896
GHOST: No ghost state for L =  0
GHOST: No ghost state for L =  1
GHOST: No ghost state for L =  2

KBgen: Kleinman-Bylander projectors: 
   l= 0   rc=  3.326887   el= -0.223037   Ekb=  0.939964   kbcos=  0.286137
   l= 1   rc=  3.497472   el= -0.067121   Ekb=  0.240696   kbcos=  0.324664
   l= 2   rc=  3.368737   el=  0.000162   Ekb= -1.792814   kbcos= -0.038461

KBgen: Total number of  Kleinman-Bylander projectors:    9
atom: -------------------------------------------------------------------------

atom: SANKEY-TYPE ORBITALS:
atom: Selected multiple-zeta basis: split     

SPLIT: Orbitals with angular momentum L= 0

SPLIT: Basis orbitals for state 3s

SPLIT: PAO cut-off radius determined from an
SPLIT: energy shift=  0.001000 Ry

   izeta = 1
                 lambda =    1.000000
                     rc =   11.612537
                 energy =   -0.222079
                kinetic =    0.147697
    potential(screened) =   -0.369777
       potential(ionic) =   -0.537811

   izeta = 2
                 rmatch =    8.710933
              splitnorm =    0.150000
                 energy =   -0.200365
                kinetic =    0.229153
    potential(screened) =   -0.429518
       potential(ionic) =   -0.594738

   izeta = 3
                 rmatch =    9.748190
              splitnorm =    0.075000
                 energy =   -0.210516
                kinetic =    0.202428
    potential(screened) =   -0.412944
       potential(ionic) =   -0.579751

POLgen: Perturbative polarization orbital with L=  1

POLgen: Polarization orbital for state 3s

   izeta = 1
                     rc =   11.612537
                 energy =   -0.044013
                kinetic =    0.282735
    potential(screened) =   -0.326748
       potential(ionic) =   -0.491619
atom: Total number of Sankey-type orbitals:  6

atm_pop: Valence configuration (for local Pseudopot. screening):
 3s( 1.00)                                                            
Vna: chval, zval:    1.00000   1.00000

Vna:  Cut-off radius for the neutral-atom potential:  11.612537

atom: _________________________________________________________________________

<basis_specs>
===============================================================================
S                    Z=  16    Mass=  32.070        Charge= 0.17977+309
Lmxo=1 Lmxkb= 3    BasisType=split      Semic=F
L=0  Nsemic=0  Cnfigmx=3
          n=1  nzeta=3  polorb=0
            splnorm:   0.15000    
               vcte:    0.0000    
               rinn:    0.0000    
                rcs:    8.5000      2.5000      5.0000    
            lambdas:    1.0000      1.0000      1.0000    
L=1  Nsemic=0  Cnfigmx=3
          n=1  nzeta=3  polorb=1
            splnorm:   0.15000    
               vcte:    0.0000    
               rinn:    0.0000    
                rcs:    8.5000      2.4000      5.4000    
            lambdas:    1.0000      1.0000      1.0000    
-------------------------------------------------------------------------------
L=0  Nkbl=1  erefs: 0.17977+309
L=1  Nkbl=1  erefs: 0.17977+309
L=2  Nkbl=1  erefs: 0.17977+309
L=3  Nkbl=1  erefs: 0.17977+309
===============================================================================
</basis_specs>

atom: Called for S                     (Z =  16)

read_vps: Pseudopotential generation method:
read_vps: ATM3.3    Troullier-Martins                       
Total valence charge:    6.00000

xc_check: Exchange-correlation functional:
xc_check: VDW LMKLL
xc_check: WARNING: Pseudopotential generated with Unknown atomic XC code functional
V l=0 = -2*Zval/r beyond r=  6.0641
V l=1 = -2*Zval/r beyond r=  6.0641
V l=2 = -2*Zval/r beyond r=  6.0641
V l=3 = -2*Zval/r beyond r=  6.0641
All V_l potentials equal beyond r=  1.8726
This should be close to max(r_c) in ps generation
All pots = -2*Zval/r beyond r=  6.0641
Using large-core scheme for Vlocal

atom: Estimated core radius    6.06410

atom: Including non-local core corrections could be a good idea
atom: Maximum radius for 4*pi*r*r*local-pseudopot. charge    2.55960
atom: Maximum radius for r*vlocal+2*Zval:    6.14038
GHOST: No ghost state for L =  0
GHOST: No ghost state for L =  1
GHOST: No ghost state for L =  2
GHOST: No ghost state for L =  3

KBgen: Kleinman-Bylander projectors: 
   l= 0   rc=  1.944163   el= -1.280897   Ekb=  6.395246   kbcos=  0.283459
   l= 1   rc=  1.944163   el= -0.534686   Ekb=  1.645939   kbcos=  0.250402
   l= 2   rc=  1.944163   el=  0.000165   Ekb= -3.764048   kbcos= -0.059734
   l= 3   rc=  1.944163   el=  0.001272   Ekb= -1.091229   kbcos= -0.004621

KBgen: Total number of  Kleinman-Bylander projectors:   16
atom: -------------------------------------------------------------------------

atom: SANKEY-TYPE ORBITALS:
atom: Selected multiple-zeta basis: split     

SPLIT: Orbitals with angular momentum L= 0

SPLIT: Basis orbitals for state 3s

   izeta = 1
                 lambda =    1.000000
                     rc =    8.605429
                 energy =   -1.280962
                kinetic =    0.826070
    potential(screened) =   -2.107032
       potential(ionic) =   -7.040627

   izeta = 2
                 rmatch =    2.527802
              splitnorm =    0.583939
                 energy =    0.038605
                kinetic =    3.083455
    potential(screened) =   -3.044850
       potential(ionic) =   -8.363708

   izeta = 3
                 rmatch =    5.090524
              splitnorm =    0.013701
                 energy =   -1.269004
* WARNING: effective split_norm is quite small. Orbitals will be very similar.
                kinetic =    0.936613
    potential(screened) =   -2.205617
       potential(ionic) =   -7.226785

SPLIT: Orbitals with angular momentum L= 1

SPLIT: Basis orbitals for state 3p

   izeta = 1
                 lambda =    1.000000
                     rc =    8.605429
                 energy =   -0.534578
                kinetic =    1.389438
    potential(screened) =   -1.924015
       potential(ionic) =   -6.449639

   izeta = 2
                 rmatch =    2.404512
              splitnorm =    0.643930
                 energy =    0.750024
                kinetic =    4.180831
    potential(screened) =   -3.430807
       potential(ionic) =   -8.937179

   izeta = 3
                 rmatch =    5.487008
              splitnorm =    0.036903
                 energy =   -0.510885
* WARNING: effective split_norm is quite small. Orbitals will be very similar.
                kinetic =    1.634978
    potential(screened) =   -2.145863
       potential(ionic) =   -6.883370

POLgen: Perturbative polarization orbital with L=  2

POLgen: Polarization orbital for state 3p

   izeta = 1
                     rc =    8.605429
                 energy =    0.525734
                kinetic =    1.769545
    potential(screened) =   -1.243810
       potential(ionic) =   -5.158576
atom: Total number of Sankey-type orbitals: 17

atm_pop: Valence configuration (for local Pseudopot. screening):
 3s( 2.00)                                                            
 3p( 4.00)                                                            
Vna: chval, zval:    6.00000   6.00000

Vna:  Cut-off radius for the neutral-atom potential:   8.605429

atom: _________________________________________________________________________

<basis_specs>
===============================================================================
N                    Z=   7    Mass=  14.010        Charge= 0.17977+309
Lmxo=1 Lmxkb= 3    BasisType=split      Semic=F
L=0  Nsemic=0  Cnfigmx=2
          n=1  nzeta=3  polorb=0
            splnorm:   0.15000    
               vcte:    0.0000    
               rinn:    0.0000    
                rcs:    9.0000      2.5000      4.3000    
            lambdas:    1.0000      1.0000      1.0000    
L=1  Nsemic=0  Cnfigmx=2
          n=1  nzeta=3  polorb=1
            splnorm:   0.15000    
               vcte:    0.0000    
               rinn:    0.0000    
                rcs:    9.0000      2.4000      3.8000    
            lambdas:    1.0000      1.0000      1.0000    
-------------------------------------------------------------------------------
L=0  Nkbl=1  erefs: 0.17977+309
L=1  Nkbl=1  erefs: 0.17977+309
L=2  Nkbl=1  erefs: 0.17977+309
L=3  Nkbl=1  erefs: 0.17977+309
===============================================================================
</basis_specs>

atom: Called for N                     (Z =   7)

read_vps: Pseudopotential generation method:
read_vps: ATM3.3    Troullier-Martins                       
Total valence charge:    5.00000

xc_check: Exchange-correlation functional:
xc_check: VDW LMKLL
xc_check: WARNING: Pseudopotential generated with Unknown atomic XC code functional
V l=0 = -2*Zval/r beyond r=  4.3886
V l=1 = -2*Zval/r beyond r=  4.3886
V l=2 = -2*Zval/r beyond r=  4.3886
V l=3 = -2*Zval/r beyond r=  4.3886
All V_l potentials equal beyond r=  1.4606
This should be close to max(r_c) in ps generation
All pots = -2*Zval/r beyond r=  4.3886
Using large-core scheme for Vlocal

atom: Estimated core radius    4.38860

atom: Including non-local core corrections could be a good idea
atom: Maximum radius for 4*pi*r*r*local-pseudopot. charge    4.78993
atom: Maximum radius for r*vlocal+2*Zval:    4.44380
GHOST: No ghost state for L =  0
GHOST: No ghost state for L =  1
GHOST: No ghost state for L =  2
GHOST: No ghost state for L =  3

KBgen: Kleinman-Bylander projectors: 
   l= 0   rc=  1.516426   el= -1.384037   Ekb=  5.003330   kbcos=  0.248027
   l= 1   rc=  1.516426   el= -0.553554   Ekb= -6.239124   kbcos= -0.455113
   l= 2   rc=  1.516426   el=  0.000157   Ekb= -1.621527   kbcos= -0.009557
   l= 3   rc=  1.516426   el=  0.001260   Ekb= -0.721831   kbcos= -0.001322

KBgen: Total number of  Kleinman-Bylander projectors:   16
atom: -------------------------------------------------------------------------

atom: SANKEY-TYPE ORBITALS:
atom: Selected multiple-zeta basis: split     

SPLIT: Orbitals with angular momentum L= 0

SPLIT: Basis orbitals for state 2s

   izeta = 1
                 lambda =    1.000000
                     rc =    9.061646
                 energy =   -1.384083
                kinetic =    1.138478
    potential(screened) =   -2.522561
       potential(ionic) =   -8.023340

   izeta = 2
                 rmatch =    2.531849
              splitnorm =    0.279302
                 energy =   -0.984788
                kinetic =    2.167047
    potential(screened) =   -3.151835
       potential(ionic) =   -9.249578

   izeta = 3
                 rmatch =    4.280232
              splitnorm =    0.017802
                 energy =   -1.364927
* WARNING: effective split_norm is quite small. Orbitals will be very similar.
                kinetic =    1.305680
    potential(screened) =   -2.670607
       potential(ionic) =   -8.325817

SPLIT: Orbitals with angular momentum L= 1

SPLIT: Basis orbitals for state 2p

   izeta = 1
                 lambda =    1.000000
                     rc =    9.061646
                 energy =   -0.553581
                kinetic =    3.375830
    potential(screened) =   -3.929411
       potential(ionic) =   -9.175051

   izeta = 2
                 rmatch =    2.408352
              splitnorm =    0.319803
                 energy =   -0.019422
                kinetic =    6.675109
    potential(screened) =   -6.694530
       potential(ionic) =  -12.919528

   izeta = 3
                 rmatch =    3.777250
              splitnorm =    0.083818
                 energy =   -0.477376
                kinetic =    4.399373
    potential(screened) =   -4.876748
       potential(ionic) =  -10.589170

POLgen: Perturbative polarization orbital with L=  2

POLgen: Polarization orbital for state 2p

   izeta = 1
                     rc =    9.061646
                 energy =    1.274251
                kinetic =    2.706331
    potential(screened) =   -1.432079
       potential(ionic) =   -5.376240
atom: Total number of Sankey-type orbitals: 17

atm_pop: Valence configuration (for local Pseudopot. screening):
 2s( 2.00)                                                            
 2p( 3.00)                                                            
Vna: chval, zval:    5.00000   5.00000

Vna:  Cut-off radius for the neutral-atom potential:   9.061646

atom: _________________________________________________________________________

<basis_specs>
===============================================================================
O                    Z=   8    Mass=  16.000        Charge= 0.17977+309
Lmxo=1 Lmxkb= 3    BasisType=split      Semic=F
L=0  Nsemic=0  Cnfigmx=2
          n=1  nzeta=3  polorb=0
            splnorm:   0.15000    
               vcte:    0.0000    
               rinn:    0.0000    
                rcs:    8.5000      2.5000      5.0000    
            lambdas:    1.0000      1.0000      1.0000    
L=1  Nsemic=0  Cnfigmx=2
          n=1  nzeta=3  polorb=1
            splnorm:   0.15000    
               vcte:    0.0000    
               rinn:    0.0000    
                rcs:    9.0000      2.4000      5.4000    
            lambdas:    1.0000      1.0000      1.0000    
-------------------------------------------------------------------------------
L=0  Nkbl=1  erefs: 0.17977+309
L=1  Nkbl=1  erefs: 0.17977+309
L=2  Nkbl=1  erefs: 0.17977+309
L=3  Nkbl=1  erefs: 0.17977+309
===============================================================================
</basis_specs>

atom: Called for O                     (Z =   8)

read_vps: Pseudopotential generation method:
read_vps: ATM3.3    Troullier-Martins                       
Total valence charge:    6.00000

xc_check: Exchange-correlation functional:
xc_check: VDW LMKLL
xc_check: WARNING: Pseudopotential generated with Unknown atomic XC code functional
V l=0 = -2*Zval/r beyond r=  2.6723
V l=1 = -2*Zval/r beyond r=  2.6723
V l=2 = -2*Zval/r beyond r=  2.6723
V l=3 = -2*Zval/r beyond r=  2.6723
All V_l potentials equal beyond r=  1.4482
This should be close to max(r_c) in ps generation
All pots = -2*Zval/r beyond r=  2.6723
Using large-core scheme for Vlocal

atom: Estimated core radius    2.67231

atom: Including non-local core corrections could be a good idea
atom: Maximum radius for 4*pi*r*r*local-pseudopot. charge    3.14389
atom: Maximum radius for r*vlocal+2*Zval:    2.70593
GHOST: No ghost state for L =  0
GHOST: No ghost state for L =  1
GHOST: No ghost state for L =  2
GHOST: No ghost state for L =  3

KBgen: Kleinman-Bylander projectors: 
   l= 0   rc=  1.503585   el= -1.779675   Ekb= -9.464596   kbcos= -0.084701
   l= 1   rc=  1.503585   el= -0.699088   Ekb= -8.000316   kbcos= -0.523182
   l= 2   rc=  1.503585   el=  0.000197   Ekb= -1.973137   kbcos= -0.008602
   l= 3   rc=  1.503585   el=  0.001319   Ekb= -0.877897   kbcos= -0.001222

KBgen: Total number of  Kleinman-Bylander projectors:   16
atom: -------------------------------------------------------------------------

atom: SANKEY-TYPE ORBITALS:
atom: Selected multiple-zeta basis: split     

SPLIT: Orbitals with angular momentum L= 0

SPLIT: Basis orbitals for state 2s

   izeta = 1
                 lambda =    1.000000
                     rc =    8.546503
                 energy =   -1.779728
                kinetic =    1.517373
    potential(screened) =   -3.297102
       potential(ionic) =  -11.177458

   izeta = 2
                 rmatch =    2.510382
              splitnorm =    0.165477
                 energy =   -1.504871
                kinetic =    2.431996
    potential(screened) =   -3.936867
       potential(ionic) =  -12.514426

   izeta = 3
                 rmatch =    5.055603
              splitnorm =    0.001104
                 energy =   -1.778115
* WARNING: effective split_norm is quite small. Orbitals will be very similar.
                kinetic =    1.561881
    potential(screened) =   -3.339996
       potential(ionic) =  -11.273025

SPLIT: Orbitals with angular momentum L= 1

SPLIT: Basis orbitals for state 2p

   izeta = 1
                 lambda =    1.000000
                     rc =    8.984708
                 energy =   -0.699155
                kinetic =    4.481222
    potential(screened) =   -5.180377
       potential(ionic) =  -12.692538

   izeta = 2
                 rmatch =    2.387934
              splitnorm =    0.223278
                 energy =   -0.294690
                kinetic =    7.512089
    potential(screened) =   -7.806779
       potential(ionic) =  -16.470490

   izeta = 3
                 rmatch =    5.449379
              splitnorm =    0.004964
                 energy =   -0.694858
* WARNING: effective split_norm is quite small. Orbitals will be very similar.
                kinetic =    4.668557
    potential(screened) =   -5.363415
       potential(ionic) =  -13.004195

POLgen: Perturbative polarization orbital with L=  2

POLgen: Polarization orbital for state 2p

   izeta = 1
                     rc =    8.984708
                 energy =    1.782562
                kinetic =    3.710549
    potential(screened) =   -1.927987
       potential(ionic) =   -7.553219
atom: Total number of Sankey-type orbitals: 17

atm_pop: Valence configuration (for local Pseudopot. screening):
 2s( 2.00)                                                            
 2p( 4.00)                                                            
Vna: chval, zval:    6.00000   6.00000

Vna:  Cut-off radius for the neutral-atom potential:   8.984708

atom: _________________________________________________________________________

<basis_specs>
===============================================================================
H                    Z=   1    Mass=  1.0100        Charge= 0.17977+309
Lmxo=0 Lmxkb= 2    BasisType=split      Semic=F
L=0  Nsemic=0  Cnfigmx=1
          n=1  nzeta=3  polorb=1
            splnorm:   0.50000    
               vcte:    0.0000    
               rinn:    0.0000    
                rcs:    8.0000      1.8000      4.1000    
            lambdas:    1.0000      1.0000      1.0000    
-------------------------------------------------------------------------------
L=0  Nkbl=1  erefs: 0.17977+309
L=1  Nkbl=1  erefs: 0.17977+309
L=2  Nkbl=1  erefs: 0.17977+309
===============================================================================
</basis_specs>

atom: Called for H                     (Z =   1)

read_vps: Pseudopotential generation method:
read_vps: ATM3.3    Troullier-Martins                       
Total valence charge:    1.00000

xc_check: Exchange-correlation functional:
xc_check: VDW LMKLL
xc_check: WARNING: Pseudopotential generated with Unknown atomic XC code functional
V l=0 = -2*Zval/r beyond r=  1.3644
V l=1 = -2*Zval/r beyond r=  1.3474
V l=2 = -2*Zval/r beyond r=  1.3474
All V_l potentials equal beyond r=  1.2343
This should be close to max(r_c) in ps generation
All pots = -2*Zval/r beyond r=  1.3644

VLOCAL1: 99.0% of the norm of Vloc inside     28.493 Ry
VLOCAL1: 99.9% of the norm of Vloc inside     64.935 Ry
atom: Maximum radius for 4*pi*r*r*local-pseudopot. charge    1.45251
atom: Maximum radius for r*vlocal+2*Zval:    1.21892
GHOST: No ghost state for L =  0
GHOST: No ghost state for L =  1
GHOST: No ghost state for L =  2

KBgen: Kleinman-Bylander projectors: 
   l= 0   rc=  1.625762   el= -0.519992   Ekb= -2.047279   kbcos= -0.354363
   l= 1   rc=  2.519390   el= -0.000771   Ekb= -0.506821   kbcos= -0.022580
   l= 2   rc=  2.927514   el=  0.000176   Ekb= -0.221733   kbcos= -0.002090

KBgen: Total number of  Kleinman-Bylander projectors:    9
atom: -------------------------------------------------------------------------

atom: SANKEY-TYPE ORBITALS:
atom: Selected multiple-zeta basis: split     

SPLIT: Orbitals with angular momentum L= 0

SPLIT: Basis orbitals for state 1s

   izeta = 1
                 lambda =    1.000000
                     rc =    7.962068
                 energy =   -0.519774
                kinetic =    0.910189
    potential(screened) =   -1.429963
       potential(ionic) =   -1.906963

   izeta = 2
                 rmatch =    1.819640
              splitnorm =    0.711859
                 energy =    1.124022
                kinetic =    4.644871
    potential(screened) =   -3.520849
       potential(ionic) =   -3.960301

   izeta = 3
                 rmatch =    4.155379
              splitnorm =    0.140914
                 energy =   -0.434175
                kinetic =    1.462160
    potential(screened) =   -1.896335
       potential(ionic) =   -2.393173

POLgen: Perturbative polarization orbital with L=  1

POLgen: Polarization orbital for state 1s

   izeta = 1
                     rc =    7.962068
                 energy =    0.477749
                kinetic =    1.090716
    potential(screened) =   -0.612967
       potential(ionic) =   -1.043837
atom: Total number of Sankey-type orbitals:  6

atm_pop: Valence configuration (for local Pseudopot. screening):
 1s( 1.00)                                                            
Vna: chval, zval:    1.00000   1.00000

Vna:  Cut-off radius for the neutral-atom potential:   7.962068

atom: _________________________________________________________________________

prinput: Basis input ----------------------------------------------------------

PAO.BasisType split     

%block ChemicalSpeciesLabel
    1    6 C                       # Species index, atomic number, species label
    2   11 Na                      # Species index, atomic number, species label
    3   16 S                       # Species index, atomic number, species label
    4    7 N                       # Species index, atomic number, species label
    5    8 O                       # Species index, atomic number, species label
    6    1 H                       # Species index, atomic number, species label
%endblock ChemicalSpeciesLabel

%block PAO.Basis                 # Define Basis set
C                     2                    # Species label, number of l-shells
 n=2   0   3                         # n, l, Nzeta 
   9.099      2.740      3.608   
   1.000      1.000      1.000   
 n=2   1   3 P   1                   # n, l, Nzeta, Polarization, NzetaPol
   9.099      2.542      3.608   
   1.000      1.000      1.000   
Na                    1                    # Species label, number of l-shells
 n=3   0   3 P   1                   # n, l, Nzeta, Polarization, NzetaPol
  11.613      8.711      9.748   
   1.000      1.000      1.000   
S                     2                    # Species label, number of l-shells
 n=3   0   3                         # n, l, Nzeta 
   8.605      2.528      5.091   
   1.000      1.000      1.000   
 n=3   1   3 P   1                   # n, l, Nzeta, Polarization, NzetaPol
   8.605      2.405      5.487   
   1.000      1.000      1.000   
N                     2                    # Species label, number of l-shells
 n=2   0   3                         # n, l, Nzeta 
   9.062      2.532      4.280   
   1.000      1.000      1.000   
 n=2   1   3 P   1                   # n, l, Nzeta, Polarization, NzetaPol
   9.062      2.408      3.777   
   1.000      1.000      1.000   
O                     2                    # Species label, number of l-shells
 n=2   0   3                         # n, l, Nzeta 
   8.547      2.510      5.056   
   1.000      1.000      1.000   
 n=2   1   3 P   1                   # n, l, Nzeta, Polarization, NzetaPol
   8.985      2.388      5.449   
   1.000      1.000      1.000   
H                     1                    # Species label, number of l-shells
 n=1   0   3 P   1                   # n, l, Nzeta, Polarization, NzetaPol
   7.962      1.820      4.155   
   1.000      1.000      1.000   
%endblock PAO.Basis

prinput: ----------------------------------------------------------------------

coor:   Atomic-coordinates input format  =     Cartesian coordinates
coor:                                          (in Angstroms)

siesta: WARNING: XV file not found

siesta: Atomic coordinates (Bohr) and species
siesta:     48.59658  14.88898  18.56018  2        1
siesta:     49.05883  28.43881  22.05094  2        2
siesta:     17.21184  15.89944  17.69035  2        3
siesta:     17.58932  29.31247  22.05587  2        4
siesta:     20.92416  15.46982  15.87027  5        5
siesta:     18.60968  19.59563  16.33331  5        6
siesta:     20.40921  17.43404  20.14462  5        7
siesta:     20.89529  18.03629  17.29880  3        8
siesta:     33.18943  27.72649  16.64788  5        9
siesta:     31.11190  26.49344  16.60419  1       10
siesta:     28.68057  29.86115  16.48562  6       11
siesta:     28.63381  27.79536  16.52322  1       12
siesta:     24.56754  27.47650  16.59924  6       13
siesta:     26.37435  26.46960  16.55798  1       14
siesta:     26.28339  23.68504  16.63211  1       15
siesta:     22.13272  23.46832  16.81637  6       16
siesta:     23.89503  22.39212  16.74798  1       17
siesta:     23.88327  19.72344  16.85216  1       18
siesta:     26.05447  16.20109  16.86794  6       19
siesta:     26.15395  18.26132  16.80885  1       20
siesta:     30.25744  18.44280  16.70648  6       21
siesta:     28.50238  19.52714  16.71114  1       22
siesta:     28.61967  22.24228  16.65711  1       23
siesta:     31.07889  23.63317  16.65967  1       24
siesta:     33.18633  22.18821  16.75130  4       25
siesta:     35.48341  25.29411  16.70926  6       26
siesta:     35.46824  23.31880  16.75579  4       27
siesta:     39.86384  15.68901  17.39455  6       28
siesta:     39.88644  17.74780  17.25443  1       29
siesta:     35.78339  18.18451  17.06421  6       30
siesta:     37.61066  19.13772  17.05710  1       31
siesta:     37.71370  21.84309  16.87914  1       32
siesta:     40.15169  25.20131  16.75243  6       33
siesta:     40.09221  23.13811  16.86562  1       34
siesta:     44.19240  22.72922  17.15626  6       35
siesta:     42.37674  21.74772  17.08144  1       36
siesta:     42.23307  19.07099  17.28078  1       37
siesta:     44.86595  14.54515  16.73924  5       38
siesta:     47.47624  18.51875  16.72837  5       39
siesta:     45.10278  17.24284  17.87790  3       40
siesta:     45.57988  16.92124  20.76803  5       41
siesta:     21.30881  29.58053  23.86004  5       42
siesta:     18.77912  25.57812  23.48551  5       43
siesta:     20.72443  27.54592  19.63287  5       44
siesta:     21.15242  26.98453  22.49487  3       45
siesta:     32.83735  16.58803  23.44204  5       46
siesta:     30.83670  17.94380  23.42545  1       47
siesta:     28.20446  14.72840  23.44035  6       48
siesta:     28.28261  16.79283  23.42289  1       49
siesta:     24.24538  17.35536  23.24688  6       50
siesta:     26.10799  18.25186  23.34027  1       51
siesta:     26.18808  21.03632  23.27926  1       52
siesta:     22.06260  21.49952  23.01001  6       53
siesta:     23.88480  22.46942  23.11190  1       54
siesta:     24.03334  25.13484  23.00804  1       55
siesta:     26.41081  28.52044  23.04192  6       56
siesta:     26.38610  26.45855  23.10268  1       57
siesta:     30.46722  26.03169  23.30987  6       58
siesta:     28.65185  25.05421  23.25865  1       59
siesta:     28.60653  22.33697  23.31548  1       60
siesta:     30.97707  20.80035  23.38487  1       61
siesta:     33.17044  22.11357  23.37923  4       62
siesta:     35.27691  18.87636  23.48750  6       63
siesta:     35.37979  20.84977  23.45644  4       64
siesta:     40.23524  28.21354  23.00882  6       65
siesta:     40.13381  26.15657  23.14276  1       66
siesta:     36.00795  25.96293  23.19780  6       67
siesta:     37.77395  24.90280  23.25874  1       68
siesta:     37.71062  22.19477  23.42585  1       69
siesta:     39.94179  18.70081  23.63454  6       70
siesta:     40.00718  20.76389  23.52217  1       71
siesta:     44.13052  20.92986  23.37452  6       72
siesta:     42.37553  22.01759  23.38994  1       73
siesta:     42.39882  24.69821  23.18925  1       74
siesta:     45.34119  29.03533  23.83290  5       75
siesta:     47.65387  24.88524  23.84217  5       76
siesta:     45.39656  26.33859  22.66946  3       77
siesta:     45.93784  26.65508  19.78972  5       78

siesta: System type = molecule  

initatomlists: Number of atoms, orbitals, and projectors:     78  1062  1080

siesta: ******************** Simulation parameters ****************************
siesta:
siesta: The following are some of the parameters of the simulation.
siesta: A complete list of the parameters used, including default values,
siesta: can be found in file out.fdf
siesta:
redata: Non-Collinear-spin run           =     F
redata: SpinPolarized (Up/Down) run      =     F
redata: Number of spin components        =     1
redata: Long output                      =     T
redata: Number of Atomic Species         =        6
redata: Charge density info will appear in .RHO file
redata: Write Mulliken Pop.              =     Atomic and Orbital charges
redata: Mesh Cutoff                      =   300.0000  Ry
redata: Net charge of the system         =     0.0000 |e|
redata: Max. number of SCF Iter          =      500
redata: Performing Pulay mixing using    =     5 iterations
redata: Mix DM in first SCF step ?       =     F
redata: Write Pulay info on disk?        =     F
redata: Discard 1st Pulay DM after  kick =     F
redata: New DM Mixing Weight             =     0.2500
redata: New DM Occupancy tolerance       = 0.000000000001
redata: No kicks to SCF
redata: DM Mixing Weight for Kicks       =     0.5000
redata: DM Tolerance for SCF             =     0.000100
redata: Require Energy convergence for SCF =     F
redata: DM Energy tolerance for SCF      =     0.000100 eV
redata: Require Harris convergence for SCF =     F
redata: DM Harris energy tolerance for SCF =     0.000100 eV
redata: Using Saved Data (generic)   =     T
redata: Use continuation files for DM    =     T
redata: Neglect nonoverlap interactions  =     F
redata: Method of Calculation            =     Diagonalization
redata: Divide and Conquer               =     T
redata: Electronic Temperature           =     0.0019  Ry
redata: Fix the spin of the system       =     F
redata: Dynamics option                  =     CG coord. optimization
redata: Variable cell                    =     F
redata: Use continuation files for CG    =     T
redata: Max atomic displ per move        =     0.2000  Bohr
redata: Maximum number of CG moves       =        0
redata: Force tolerance                  =     0.0004  Ry/Bohr
redata: ***********************************************************************
Total number of electrons:   280.000000
Total ionic charge:   280.000000

* ProcessorY, Blocksize:    8  15

 Kpoints in:            1 . Kpoints trimmed:            1

siesta: k-point coordinates (Bohr**-1) and weights:
siesta:    1    0.000000    0.000000    0.000000       1.000000

siesta: k-grid: Number of k-points =     1
siesta: k-grid: Cutoff (effective) =    12.000 Ang
siesta: k-grid: Supercell and displacements
siesta: k-grid:    1   0   0      0.000
siesta: k-grid:    0   1   0      0.000
siesta: k-grid:    0   0   1      0.000

siesta:                 ==============================
                            Begin CG move =      0
                        ==============================

outcoor: Atomic coordinates (Ang):                          
   25.71619444    7.87890534    9.82162027   2       1  Na
   25.96080215   15.04916520   11.66884850   2       2  Na
    9.10811053    8.41361693    9.36132837   2       3  Na
    9.30786306   15.51148285   11.67145829   2       4  Na
   11.07258410    8.18627558    8.39818071   5       5  O
    9.84781519   10.36955410    8.64321009   5       6  O
   10.80008458    9.22569179   10.66006955   5       7  O
   11.05730727    9.54439060    9.15412933   3       8  S
   17.56308345   14.67222121    8.80967490   5       9  O
   16.46370030   14.01972140    8.78655711   1      10  C
   15.17709651   15.80183157    8.72381133   6      11  H
   15.15235269   14.70866627    8.74370690   1      12  C
   13.00057676   14.53993283    8.78393724   6      13  H
   13.95669737   14.00710196    8.76210191   1      14  C
   13.90856399   12.53357768    8.80132895   1      15  C
   11.71212452   12.41889610    8.89883728   6      16  H
   12.64469988   11.84939519    8.86264836   1      17  C
   12.63847604   10.43719138    8.91777543   1      18  C
   13.78742423    8.57324254    8.92612437   6      19  H
   13.84006708    9.66347077    8.89485902   1      20  C
   16.01154330    9.75950299    8.84068509   6      21  H
   15.08280278   10.33331401    8.84315031   1      22  C
   15.14486895   11.77010288    8.81455796   1      23  C
   16.44623414   12.50612889    8.81591446   1      24  C
   17.56144350   11.74149201    8.86440119   4      25  N
   18.77700665   13.38506134    8.84215440   6      26  H
   18.76897735   12.33977076    8.86677752   4      27  N
   21.09502681    8.30226373    9.20479602   6      28  H
   21.10698921    9.39172772    9.13064683   1      29  C
   18.93574674    9.62282342    9.02998552   6      30  H
   19.90269376   10.12723883    9.02622698   1      31  C
   19.95722340   11.55885857    8.93205278   1      32  C
   21.24734886   13.33595578    8.86500321   6      33  H
   21.21587798   12.24415625    8.92490004   1      34  C
   23.38560206   12.02778060    9.07869687   6      35  H
   22.42479589   11.50839351    9.03910564   1      36  C
   22.34876974   10.09193184    9.14458988   1      37  C
   23.74202961    7.69695660    8.85801874   5      38  O
   25.12333625    9.79969770    8.85226835   5      39  O
   23.86735335    9.12451607    9.46057201   3      40  S
   24.11982159    8.95432934   10.98996415   5      41  O
   11.27613127   15.65333502   12.62618675   5      42  O
    9.93747914   13.53535078   12.42799436   5      43  O
   10.96689313   14.57666640   10.38926411   5      44  O
   11.19337329   14.27959096   11.90376567   3      45  S
   17.37677275    8.77800333   12.40498788   5      46  O
   16.31807171    9.49544524   12.39620737   1      47  C
   14.92515258    7.79392988   12.40409477   6      48  H
   14.96650926    8.88638139   12.39485363   1      49  C
   12.83009572    9.18405933   12.30171158   6      50  H
   13.81574569    9.65846236   12.35113348   1      51  C
   13.85813185   11.13193628   12.31884747   1      52  C
   11.67502309   11.37704969   12.17636585   6      53  H
   12.63928602   11.89030169   12.23028487   1      54  C
   12.71788993   13.30078077   12.17532394   1      55  C
   13.97599112   15.09236039   12.19325560   6      56  H
   13.96291712   14.00125821   12.22540531   1      57  C
   16.12255127   13.77537307   12.33504840   6      58  H
   15.16190177   13.25811228   12.30794182   1      59  C
   15.13791686   11.82021200   12.33801833   1      60  C
   16.39235167   11.00706473   12.37473398   1      61  C
   17.55303506   11.70199430   12.37175327   4      62  N
   18.66772789    9.98893809   12.42904413   6      63  H
   18.72217200   11.03321981   12.41260856   4      64  N
   21.29156147   14.92995878   12.17573608   6      65  H
   21.23789150   13.84145778   12.24661716   1      66  C
   19.05457688   13.73898391   12.27574005   6      67  H
   19.98910446   13.17799006   12.30798977   1      68  C
   19.95559106   11.74496129   12.39641846   1      69  C
   21.13627765    9.89603727   12.50685760   6      70  H
   21.17087927   10.98777238   12.44739313   1      71  C
   23.35285459   11.07560252   12.36925750   6      72  H
   22.42415598   11.65120138   12.37741746   1      73  C
   22.43647778   13.06972422   12.27121819   1      74  C
   23.99351749   15.36482674   12.61182087   5      75  O
   25.21733060   13.16869848   12.61673051   5      76  O
   24.02281726   13.93777814   11.99615466   3      77  S
   24.30924911   14.10525466   10.47226311   5      78  O

outcell: Unit cell vectors (Ang):
       35.000000    0.000000    0.000000
        0.000000   24.000000    0.000000
        0.000000    0.000000   24.000000

outcell: Cell vector modules (Ang)   :   35.000000   24.000000   24.000000
outcell: Cell angles (23,13,12) (deg):     90.0000     90.0000     90.0000
outcell: Cell volume (Ang**3)        :  20160.0000
New_DM. Step:     1
Initializing Density Matrix...
New grid distribution:   1
           1       1:  192    1:   16    1:   15
           2       1:  192    1:   16   16:   30
           3       1:  192    1:   16   31:   44
           4       1:  192    1:   16   45:   58
           5       1:  192    1:   16   59:   72
           6       1:  192    1:   16   73:   86
           7       1:  192    1:   16   87:  100
           8       1:  192    1:   16  101:  114
           9       1:  192    1:   16  115:  128
          10       1:  192   17:   32    1:   15
          11       1:  192   17:   32   16:   30
          12       1:  192   17:   32   31:   44
          13       1:  192   17:   32   45:   58
          14       1:  192   17:   32   59:   72
          15       1:  192   17:   32   73:   86
          16       1:  192   17:   32   87:  100
          17       1:  192   17:   32  101:  114
          18       1:  192   17:   32  115:  128
          19       1:  192   33:   48    1:   15
          20       1:  192   33:   48   16:   30
          21       1:  192   33:   48   31:   44
          22       1:  192   33:   48   45:   58
          23       1:  192   33:   48   59:   72
          24       1:  192   33:   48   73:   86
          25       1:  192   33:   48   87:  100
          26       1:  192   33:   48  101:  114
          27       1:  192   33:   48  115:  128
          28       1:  192   49:   64    1:   15
          29       1:  192   49:   64   16:   30
          30       1:  192   49:   64   31:   44
          31       1:  192   49:   64   45:   58
          32       1:  192   49:   64   59:   72
          33       1:  192   49:   64   73:   86
          34       1:  192   49:   64   87:  100
          35       1:  192   49:   64  101:  114
          36       1:  192   49:   64  115:  128
          37       1:  192   65:   80    1:   15
          38       1:  192   65:   80   16:   30
          39       1:  192   65:   80   31:   44
          40       1:  192   65:   80   45:   58
          41       1:  192   65:   80   59:   72
          42       1:  192   65:   80   73:   86
          43       1:  192   65:   80   87:  100
          44       1:  192   65:   80  101:  114
          45       1:  192   65:   80  115:  128
          46       1:  192   81:   96    1:   15
          47       1:  192   81:   96   16:   30
          48       1:  192   81:   96   31:   44
          49       1:  192   81:   96   45:   58
          50       1:  192   81:   96   59:   72
          51       1:  192   81:   96   73:   86
          52       1:  192   81:   96   87:  100
          53       1:  192   81:   96  101:  114
          54       1:  192   81:   96  115:  128
          55       1:  192   97:  112    1:   15
          56       1:  192   97:  112   16:   30
          57       1:  192   97:  112   31:   44
          58       1:  192   97:  112   45:   58
          59       1:  192   97:  112   59:   72
          60       1:  192   97:  112   73:   86
          61       1:  192   97:  112   87:  100
          62       1:  192   97:  112  101:  114
          63       1:  192   97:  112  115:  128
          64       1:  192  113:  128    1:   15
          65       1:  192  113:  128   16:   30
          66       1:  192  113:  128   31:   44
          67       1:  192  113:  128   45:   58
          68       1:  192  113:  128   59:   72
          69       1:  192  113:  128   73:   86
          70       1:  192  113:  128   87:  100
          71       1:  192  113:  128  101:  114
          72       1:  192  113:  128  115:  128

InitMesh: MESH =   384 x   256 x   256 =    25165824
InitMesh: (bp) =   192 x   128 x   128 =     3145728
InitMesh: Mesh cutoff (required, used) =   300.000   314.455 Ry
ExtMesh (bp) on 0 =   328 x   148 x   147 =     7135968
New grid distribution:   2
           1     113:  192    1:   52    1:   47
           2      84:   92   52:   64   64:  128
           3       1:   74   64:   72   50:   57
           4     113:  192    1:   50   48:   57
           5       1:   73   54:   63    1:   48
           6     111:  192    1:   52   64:  128
           7      75:   83   52:   64   64:  128
           8      75:   83   70:  128   48:   57
           9       1:   74    1:   56   65:  128
          10       1:   74   64:   71    1:   49
          11      93:  108   71:  128   50:   57
          12       1:   73   65:   72   58:   65
          13       1:   73    1:   54   49:   57
          14      93:  110    1:   55   58:   65
          15      93:  110    1:   55   66:  128
          16     112:  192   64:   71   58:   64
          17     109:  192   63:   69    1:   48
          18      74:   92   56:   63    1:   47
          19       1:   73    1:   53    1:   48
          20     109:  192   63:   68   49:   57
          21     111:  192   55:   63   58:   63
          22      93:  112    1:   54   50:   57
          23       1:   74    1:   55   58:   64
          24      75:   92    1:   51   64:  128
          25     111:  192    1:   54   58:   63
          26     109:  121   69:  128   49:   57
          27     113:  124   51:   62   48:   57
          28      93:  112    1:   55    1:   49
          29      74:   92    1:   55    1:   47
          30     113:  192   53:   62    1:   47
          31     125:  192   51:   62   48:   57
          32       1:   74   56:   64   58:   64
          33     124:  192   53:   63   64:  128
          34       1:   74   57:   64   65:  128
          35      93:  110   56:   63   66:  128
          36      93:  112   55:   62   50:   57
          37      93:  108   71:  128    1:   49
          38      75:   92   64:   72    1:   47
          39      93:  111   64:   71   58:   65
          40     112:  192   72:  128   58:   64
          41       1:   73   73:  128   58:   65
          42       1:   73   65:   74   66:  128
          43      93:  111   64:   70   66:  128
          44      83:   92   52:   63   48:   57
          45     112:  192   64:   69   65:  128
          46     109:  192   70:  128    1:   48
          47      93:  112   56:   62    1:   49
          48      93:  110   56:   63   58:   65
          49      84:   92   70:  128   48:   57
          50      93:  111   72:  128   58:   65
          51     126:  192   70:  128   65:  128
          52      83:   92   70:  128   64:  128
          53       1:   73   75:  128   66:  128
          54      74:   82   70:  128   64:  128
          55      93:  108   63:   70    1:   49
          56      75:   92   64:   69   48:   57
          57      74:   82   52:   63   48:   57
          58     122:  192   69:  128   49:   57
          59      74:   92   73:  128   58:   63
          60      93:  111   71:  128   66:  128
          61      74:   92    1:   51   48:   57
          62      74:   92   65:   69   64:  128
          63      93:  108   63:   70   50:   57
          64       1:   74   72:  128    1:   49
          65      75:   92   73:  128    1:   47
          66      75:   92    1:   55   58:   63
          67       1:   74   73:  128   50:   57
          68      75:   92   56:   64   58:   63
          69     112:  125   70:  128   65:  128
          70     111:  123   53:   63   64:  128
          71       1:   73   55:   63   49:   57
          72      74:   92   65:   72   58:   63
New grid distribution:   3
           1     134:  192    1:   39    1:   39
           2      96:  133   67:   81   73:  128
           3       1:   59   60:   84   47:   57
           4      53:   95    1:   33   39:   57
           5     129:  145   39:   66   67:  128
           6       1:   60    1:   49   69:  128
           7      96:  133   44:   58    1:   42
           8     127:  192   59:   75   44:   57
           9     129:  192    1:   38   67:  128
          10     134:  192   88:  128   58:   69
          11       1:   52   40:   59   43:   57
          12      96:  133    1:   39   43:   57
          13     134:  192    1:   29   40:   57
          14     129:  192    1:   40   58:   66
          15      96:  128    1:   50   73:  128
          16      60:   95   60:   75   39:   57
          17      96:  126   59:   75    1:   42
          18      96:  128   45:   66   58:   72
          19       1:   52    1:   41    1:   42
          20     134:  192   40:   58    1:   39
          21      53:   95   45:   59    1:   38
          22       1:   52    1:   39   43:   57
          23     129:  192   41:   66   58:   66
          24      61:   95    1:   42   70:  128
          25      53:   95    1:   44    1:   38
          26      79:   95   43:   68   70:  128
          27      53:   74   34:   59   39:   57
          28     127:  192   59:   76    1:   43
          29      96:  133    1:   43    1:   42
          30       1:   52   42:   59    1:   42
          31      96:  128    1:   44   58:   72
          32       1:   60   44:   68   58:   68
          33     146:  192   39:   66   67:  128
          34      96:  128   51:   66   73:  128
          35      61:   78   43:   68   70:  128
          36      96:  133   40:   58   43:   57
          37      96:  126   76:  128    1:   42
          38       1:   59   60:   78    1:   46
          39      60:   95   60:   77    1:   38
          40     127:  148   76:  128   44:   57
          41       1:   53   69:   89   58:   72
          42       1:   60   50:   68   69:  128
          43       1:   53   69:   86   73:  128
          44      54:   95   69:   79   70:  128
          45     134:  192   67:   79   70:  128
          46     127:  192   77:  128    1:   43
          47     154:  192   30:   58   40:   57
          48      96:  133   67:   85   58:   72
          49      96:  126   81:  128   43:   57
          50     134:  192   67:   87   58:   69
          51     150:  192   80:  128   70:  128
          52     134:  149   80:  128   70:  128
          53      54:   68   80:  128   70:  128
          54      61:   95    1:   44   58:   69
          55       1:   59   79:  128    1:   46
          56     134:  153   30:   58   40:   57
          57      75:   95   34:   59   39:   57
          58     149:  192   76:  128   44:   57
          59      96:  133   86:  128   58:   72
          60       1:   53   87:  128   73:  128
          61      96:  133   82:  128   73:  128
          62       1:   59   85:  128   47:   57
          63      60:   77   76:  128   39:   57
          64      96:  126   59:   80   43:   57
          65      60:   95   78:  128    1:   38
          66      54:   95   69:   88   58:   69
          67      54:   95   89:  128   58:   69
          68       1:   53   90:  128   58:   72
          69      69:   95   80:  128   70:  128
          70       1:   60    1:   43   58:   68
          71      78:   95   76:  128   39:   57
          72      61:   95   45:   68   58:   69
Setting up quadratic distribution...
ExtMesh (bp) on 0 =   216 x   184 x   179 =     7114176
PhiOnMesh: Number of (b)points on node 0 =               195520
PhiOnMesh: nlist on node 0 =              1355629

stepf: Fermi-Dirac step function

siesta: Program's energy decomposition (eV):
siesta: Ebs     =     -4840.464293
siesta: Eions   =     18316.795456
siesta: Ena     =      2204.494430
siesta: Ekin    =      8067.495154
siesta: Enl     =     -2124.875411
siesta: DEna    =         0.000005
siesta: DUscf   =         0.000000
siesta: DUext   =         0.000000
siesta: Exc     =     -3535.905294
siesta: eta*DQ  =         0.000000
siesta: Emadel  =         0.000000
siesta: Emeta   =         0.000000
siesta: Emolmec =         0.000000
siesta: Ekinion =         0.000000
siesta: Eharris =    -13741.420107
siesta: Etot    =    -13705.586572
siesta: FreeEng =    -13705.586572

siesta: iscf   Eharris(eV)      E_KS(eV)   FreeEng(eV)   dDmax  Ef(eV)
siesta:    1   -13741.4201   -13705.5866   -13705.5866 11.1191 -8.2751
timer: Routine,Calls,Time,% =    IterSCF     1      33.403  53.49
siesta:    2   -13827.8230   -13621.2556   -13621.2556 45.1828 -1.4350
siesta:    3   -13707.5258   -13714.6568   -13714.7090 17.7579 -7.6853
siesta:    4   -13715.7797   -13682.3032   -13682.3032 11.2162 -6.8940
siesta:    5   -13740.3379   -13588.3049   -13588.3049  9.2686 -5.2019
siesta:    6   -13704.8471   -13586.0370   -13586.0406 11.2208 -5.0269
siesta:    7   -13737.4873   -13539.4703   -13539.4927 14.5505 -3.7223
siesta:    8   -13703.0270   -13655.8136   -13655.8174  7.1042 -4.2747
siesta:    9   -13694.3219   -13657.9662   -13658.0669  4.4876 -4.3109
siesta:   10   -13706.9798   -13669.2936   -13669.2936  8.7961 -3.5613
siesta:   11   -13689.9920   -13669.9832   -13670.0191  2.1268 -4.7905
siesta:   12   -13689.5956   -13675.9130   -13675.9130  2.3646 -4.9328
siesta:   13   -13689.9779   -13678.0690   -13678.0690  2.2120 -4.8613
siesta:   14   -13690.1332   -13683.1660   -13683.1660  0.9311 -4.8010
siesta:   15   -13689.9406   -13683.0028   -13683.0219  0.8202 -4.8129
siesta:   16   -13689.3982   -13684.4277   -13684.4307  0.9961 -4.9810
siesta:   17   -13689.3056   -13686.2354   -13686.2354  0.4348 -4.9899
siesta:   18   -13689.2815   -13688.8478   -13688.8478  0.0924 -4.8476
siesta:   19   -13689.2818   -13689.2075   -13689.2075  0.1115 -4.8716
siesta:   20   -13689.2781   -13689.3581   -13689.3581  0.0379 -4.8648
siesta:   21   -13689.2781   -13689.3326   -13689.3326  0.0273 -4.8691
siesta:   22   -13689.2780   -13689.2888   -13689.2888  0.0127 -4.8679
siesta:   23   -13689.2780   -13689.2894   -13689.2894  0.0121 -4.8680
siesta:   24   -13689.2780   -13689.3054   -13689.3054  0.0097 -4.8681
siesta:   25   -13689.2780   -13689.3014   -13689.3014  0.0086 -4.8688
siesta:   26   -13689.2780   -13689.2847   -13689.2847  0.0019 -4.8693
siesta:   27   -13689.2780   -13689.2808   -13689.2808  0.0016 -4.8696
siesta:   28   -13689.2780   -13689.2767   -13689.2767  0.0006 -4.8697
siesta:   29   -13689.2780   -13689.2786   -13689.2786  0.0004 -4.8697
siesta:   30   -13689.2780   -13689.2785   -13689.2785  0.0003 -4.8697
siesta:   31   -13689.2780   -13689.2781   -13689.2781  0.0001 -4.8697
siesta:   32   -13689.2780   -13689.2781   -13689.2781  0.0000 -4.8697

siesta: E_KS(eV) =           -13689.2781

siesta: E_KS - E_eggbox =    -13689.2781

siesta: Atomic forces (eV/Ang):
     1    0.074940   -0.060627    0.018509
     2    0.082335    0.054706   -0.016083
     3   -0.073229   -0.046164    0.014488
     4   -0.073818    0.050101   -0.019389
     5   -0.017524    0.276718    0.169883
     6    0.264151   -0.193725    0.121240
     7    0.029523    0.051187   -0.336826
     8   -0.042319    0.006185   -0.038078
     9   -0.585142   -0.319577   -0.003837
    10    0.005404    0.129129   -0.001440
    11   -0.016699   -0.357501    0.013599
    12   -0.168102   -0.353711    0.022645
    13    0.316651   -0.163719   -0.017651
    14    0.416959   -0.007796   -0.000260
    15   -0.085471   -0.043007    0.017146
    16    0.300879   -0.187059   -0.012734
    17    0.325465   -0.282118    0.001090
    18    0.395458    0.261931   -0.012857
    19    0.027637    0.356898   -0.009509
    20    0.050873    0.402556   -0.019996
    21   -0.311428    0.176777    0.001277
    22   -0.342419    0.148782    0.004134
    23   -0.059485   -0.100864   -0.001187
    24    0.028727   -0.086519    0.002678
    25    0.007605    0.645783   -0.035889
    26    0.005723   -0.390414    0.008506
    27   -0.154979   -0.153697    0.008893
    28   -0.008940    0.362436   -0.015043
    29   -0.006577    0.396700   -0.026160
    30    0.325010    0.153178   -0.003477
    31    0.356929    0.151589   -0.005134
    32    0.246619   -0.135493    0.011178
    33   -0.008506   -0.347095    0.012996
    34    0.020110   -0.381072    0.037628
    35   -0.323391   -0.176904   -0.013792
    36   -0.364875   -0.180057   -0.006773
    37   -0.391183    0.240296   -0.021840
    38    0.049066    0.290274    0.149596
    39   -0.267438   -0.160561    0.142603
    40    0.010394   -0.001345   -0.055526
    41   -0.028728    0.019054   -0.332754
    42   -0.033318   -0.277481   -0.165913
    43    0.267279    0.175053   -0.124653
    44    0.022773   -0.042677    0.335063
    45   -0.041227    0.001064    0.036407
    46   -0.573495    0.352932   -0.008211
    47    0.001856   -0.131533    0.005072
    48    0.004887    0.340258   -0.001311
    49   -0.140570    0.352846   -0.022381
    50    0.325779    0.145538    0.023758
    51    0.422641   -0.024530    0.009046
    52   -0.090826    0.042142   -0.022594
    53    0.317067    0.174230    0.013717
    54    0.333541    0.258098    0.006596
    55    0.382567   -0.280283    0.027162
    56    0.008021   -0.340457    0.007623
    57    0.026775   -0.397723    0.021168
    58   -0.310546   -0.151877   -0.011753
    59   -0.352383   -0.132085   -0.014444
    60   -0.050822    0.096306    0.002449
    61    0.034862    0.080441    0.001890
    62   -0.031931   -0.637159    0.033488
    63    0.032336    0.401996   -0.003534
    64   -0.140985    0.156490   -0.015271
    65   -0.029523   -0.356909    0.012030
    66   -0.025620   -0.389657    0.024525
    67    0.310536   -0.170604    0.007742
    68    0.350175   -0.183470    0.017232
    69    0.253633    0.136856    0.005782
    70    0.015694    0.350298   -0.018033
    71    0.045944    0.380299   -0.031368
    72   -0.307942    0.193656    0.000855
    73   -0.353467    0.214477   -0.006883
    74   -0.409229   -0.230222    0.010285
    75    0.025779   -0.294236   -0.148112
    76   -0.252145    0.178506   -0.158687
    77    0.003958   -0.002879    0.055666
    78   -0.035734   -0.022519    0.329498
----------------------------------------
   Tot    0.016543    0.010440   -0.014237
----------------------------------------
   Max    0.645783
   Res    0.204941    sqrt( Sum f_i^2 / 3N )
----------------------------------------
   Max    0.645783    constrained

Stress-tensor-Voigt (kbar):        2.01        2.05        0.20        0.01       -0.09        0.03
(Free)E + p*V (eV/cell)   -13707.1168
Target enthalpy (eV/cell)   -13689.2781
 
mulliken: Atomic and Orbital Populations:

Species: C                   
Atom  Qatom  Qorb
               2s      2s      2s      2py     2pz     2px     2py     2pz     
               2px     2py     2pz     2px     2Pdxy   2Pdyz   2Pdz2   2Pdxz   
               2Pdx2-y2
  10  3.817   0.982   0.148  -0.017   0.409   0.522   0.393   0.151   0.029
              0.187   0.252   0.223   0.194   0.094   0.042   0.010   0.069

              0.130
  12  3.947   0.966   0.117   0.053   0.410   0.736   0.511   0.166   0.005
              0.147   0.289   0.196   0.193   0.040   0.011   0.004   0.032

              0.072
  14  3.887   0.973   0.121   0.042   0.477   0.649   0.414   0.147   0.007
              0.178   0.232   0.189   0.278   0.061   0.037   0.006   0.022

              0.056
  15  3.925   1.001   0.105   0.035   0.416   0.676   0.470   0.140   0.005
              0.145   0.242   0.235   0.218   0.073   0.039   0.005   0.041

              0.077
  17  3.916   0.959   0.123   0.048   0.449   0.681   0.451   0.162   0.006
              0.164   0.229   0.192   0.277   0.062   0.039   0.006   0.020

              0.047
  18  3.603   0.684   0.118   0.251   0.301   0.675   0.044   0.150   0.007
              0.142   0.312   0.283   0.435   0.077   0.038   0.004   0.025

              0.058
  20  3.912   0.937   0.127   0.057   0.386   0.683   0.502   0.177   0.007
              0.153   0.298   0.201   0.206   0.041   0.012   0.006   0.046

              0.075
  22  3.909   0.959   0.123   0.040   0.491   0.700   0.403   0.154   0.006
              0.169   0.217   0.196   0.278   0.067   0.031   0.005   0.019

              0.051
  23  3.921   1.012   0.105   0.038   0.425   0.673   0.436   0.148   0.003
              0.135   0.240   0.223   0.251   0.076   0.043   0.006   0.044

              0.062
  24  3.921   0.938   0.122   0.047   0.450   0.688   0.428   0.131   0.011
              0.146   0.234   0.245   0.233   0.078   0.037   0.007   0.043

              0.083
  29  3.907   0.940   0.127   0.054   0.384   0.673   0.494   0.177   0.008
              0.154   0.303   0.205   0.208   0.040   0.012   0.005   0.047

              0.075
  31  3.924   0.944   0.123   0.049   0.489   0.734   0.399   0.151   0.008
              0.170   0.213   0.193   0.285   0.057   0.032   0.004   0.017

              0.056
  32  3.839   0.900   0.136   0.043   0.467   0.668   0.361   0.157   0.014
              0.150   0.199   0.241   0.226   0.091   0.052   0.008   0.054

              0.072
  34  3.905   0.933   0.118   0.064   0.408   0.711   0.475   0.169   0.006
              0.150   0.286   0.205   0.213   0.039   0.011   0.005   0.040

              0.073
  36  3.905   0.930   0.127   0.061   0.472   0.669   0.425   0.157   0.009
              0.172   0.221   0.198   0.287   0.060   0.039   0.007   0.019

              0.053
  37  3.590   0.672   0.117   0.257   0.275   0.669   0.073   0.146   0.008
              0.142   0.324   0.283   0.423   0.079   0.037   0.004   0.026

              0.054
  47  3.818   0.983   0.148  -0.017   0.411   0.522   0.391   0.153   0.029
              0.185   0.247   0.222   0.200   0.088   0.044   0.010   0.067

              0.135
  49  3.947   0.965   0.117   0.053   0.407   0.736   0.514   0.169   0.005
              0.144   0.289   0.196   0.194   0.038   0.011   0.003   0.031

              0.074
  51  3.888   0.971   0.121   0.043   0.477   0.647   0.418   0.147   0.007
              0.177   0.229   0.190   0.278   0.057   0.039   0.006   0.020

              0.060
  52  3.923   0.999   0.106   0.036   0.410   0.675   0.477   0.141   0.005
              0.144   0.245   0.235   0.216   0.073   0.040   0.005   0.040

              0.077
  54  3.916   0.959   0.123   0.048   0.456   0.680   0.445   0.161   0.006
              0.165   0.224   0.193   0.281   0.059   0.041   0.007   0.018

              0.050
  55  3.604   0.683   0.118   0.251   0.279   0.672   0.072   0.149   0.007
              0.141   0.323   0.284   0.422   0.081   0.037   0.004   0.026

              0.054
  57  3.911   0.936   0.127   0.057   0.385   0.682   0.503   0.178   0.007
              0.152   0.299   0.201   0.204   0.039   0.012   0.006   0.045

              0.076
  59  3.909   0.958   0.123   0.041   0.491   0.700   0.403   0.154   0.007
              0.169   0.214   0.196   0.281   0.063   0.033   0.005   0.018

              0.055
  60  3.923   1.014   0.105   0.038   0.421   0.673   0.441   0.148   0.003
              0.135   0.243   0.223   0.249   0.078   0.043   0.006   0.044

              0.061
  61  3.919   0.937   0.122   0.047   0.448   0.689   0.428   0.130   0.011
              0.147   0.238   0.244   0.228   0.081   0.037   0.007   0.043

              0.081
  66  3.908   0.940   0.127   0.055   0.386   0.674   0.491   0.177   0.008
              0.155   0.300   0.205   0.212   0.041   0.012   0.005   0.047

              0.074
  68  3.923   0.942   0.123   0.049   0.487   0.734   0.401   0.152   0.007
              0.170   0.216   0.193   0.282   0.061   0.031   0.004   0.019

              0.052
  69  3.837   0.898   0.136   0.044   0.473   0.668   0.355   0.158   0.014
              0.149   0.201   0.242   0.225   0.089   0.051   0.008   0.055

              0.074
  71  3.906   0.934   0.118   0.064   0.408   0.711   0.475   0.168   0.006
              0.150   0.286   0.205   0.213   0.040   0.011   0.005   0.040

              0.072
  73  3.905   0.931   0.127   0.061   0.465   0.671   0.427   0.158   0.008
              0.172   0.226   0.197   0.284   0.064   0.037   0.007   0.021

              0.049
  74  3.591   0.673   0.116   0.256   0.302   0.675   0.043   0.146   0.007
              0.143   0.312   0.281   0.436   0.075   0.038   0.004   0.024

              0.059

Species: Na                  
Atom  Qatom  Qorb
               3s      3s      3s      3Ppy    3Ppz    3Ppx    
   1  0.185   0.021   0.052   0.062   0.016   0.016   0.018
   2  0.185   0.020   0.050   0.065   0.016   0.016   0.018
   3  0.186   0.029   0.072   0.036   0.015   0.016   0.018
   4  0.185   0.029   0.071   0.037   0.015   0.016   0.018

Species: S                   
Atom  Qatom  Qorb
               3s      3s      3s      3py     3pz     3px     3py     3pz     
               3px     3py     3pz     3px     3Pdxy   3Pdyz   3Pdz2   3Pdxz   
               3Pdx2-y2
   8  6.143   0.908   0.064   0.417   0.363   0.442   0.492   0.033   0.040
              0.019   0.622   0.502   0.601   0.351   0.329   0.346   0.315

              0.297
  40  6.144   0.883   0.065   0.438   0.356   0.461   0.468   0.032   0.040
              0.021   0.640   0.488   0.610   0.363   0.333   0.343   0.321

              0.282
  45  6.142   0.910   0.064   0.415   0.372   0.447   0.477   0.032   0.040
              0.021   0.624   0.498   0.605   0.362   0.329   0.345   0.319

              0.284
  77  6.143   0.881   0.065   0.440   0.345   0.456   0.481   0.033   0.040
              0.020   0.639   0.492   0.609   0.349   0.335   0.344   0.315

              0.297

Species: N                   
Atom  Qatom  Qorb
               2s      2s      2s      2py     2pz     2px     2py     2pz     
               2px     2py     2pz     2px     2Pdxy   2Pdyz   2Pdz2   2Pdxz   
               2Pdx2-y2
  25  5.168   1.315   0.116   0.075   1.492   0.861   0.669   0.046   0.014
              0.169  -0.030   0.204   0.084   0.043   0.016   0.011   0.047

              0.036
  27  4.865   0.665   0.197   0.419   0.442   0.970   0.456   0.193   0.010
              0.184   0.442   0.405   0.318   0.050   0.009   0.009   0.040

              0.058
  62  5.168   1.310   0.116   0.078   1.484   0.860   0.679   0.045   0.014
              0.171  -0.028   0.204   0.081   0.044   0.016   0.011   0.047

              0.035
  64  4.867   0.670   0.196   0.416   0.444   0.971   0.455   0.193   0.010
              0.183   0.437   0.404   0.322   0.049   0.009   0.009   0.040

              0.059

Species: O                   
Atom  Qatom  Qorb
               2s      2s      2s      2py     2pz     2px     2py     2pz     
               2px     2py     2pz     2px     2Pdxy   2Pdyz   2Pdz2   2Pdxz   
               2Pdx2-y2
   5  6.402   1.848  -0.020  -0.014   1.526   1.941   1.663   0.120   0.009
             -0.050  -0.359  -0.357   0.063   0.004   0.012   0.002   0.002

              0.010
   6  6.387   1.893  -0.013  -0.070   1.578   1.968   1.448   0.012  -0.013
              0.093  -0.033  -0.298  -0.208   0.011   0.003   0.002   0.008

              0.008
   7  6.380   1.727  -0.020   0.114   1.791   1.242   1.011  -0.036   0.145
             -0.040  -0.080  -0.165   0.660  -0.001   0.007   0.016   0.009

              0.000
   9  6.364   1.450   0.041   0.277   1.846   1.139   1.216  -0.007  -0.011
              0.093  -0.150   0.290   0.132   0.015   0.006   0.004   0.012

              0.012
  38  6.398   1.821  -0.020   0.012   1.455   1.970   1.607   0.138  -0.009
             -0.049  -0.353  -0.323   0.117   0.005   0.011   0.002   0.001

              0.012
  39  6.387   1.916  -0.013  -0.092   1.645   1.930   1.470  -0.005  -0.003
              0.103  -0.037  -0.297  -0.262   0.009   0.003   0.002   0.009

              0.008
  41  6.386   1.715  -0.019   0.123   1.604   1.262   1.542  -0.042   0.154
             -0.042   0.120  -0.213   0.152  -0.001   0.007   0.017   0.008

              0.000
  42  6.402   1.850  -0.020  -0.017   1.505   1.957   1.652   0.124   0.005
             -0.050  -0.354  -0.356   0.076   0.004   0.012   0.002   0.002

              0.011
  43  6.390   1.885  -0.014  -0.060   1.595   1.966   1.449   0.000  -0.013
              0.102  -0.012  -0.301  -0.241   0.010   0.003   0.002   0.008

              0.009
  44  6.376   1.726  -0.019   0.113   1.710   1.245   1.052  -0.037   0.148
             -0.041  -0.001  -0.178   0.625  -0.001   0.007   0.016   0.009

              0.000
  46  6.364   1.455   0.040   0.273   1.820   1.136   1.245   0.002  -0.011
              0.085  -0.157   0.292   0.135   0.015   0.007   0.004   0.011

              0.013
  75  6.398   1.813  -0.020   0.020   1.469   1.970   1.602   0.137  -0.007
             -0.050  -0.361  -0.328   0.120   0.005   0.011   0.002   0.001

              0.012
  76  6.386   1.924  -0.013  -0.101   1.634   1.923   1.473   0.007  -0.001
              0.090  -0.064  -0.295  -0.222   0.010   0.004   0.002   0.009

              0.007
  78  6.388   1.709  -0.020   0.130   1.692   1.264   1.489  -0.041   0.152
             -0.041   0.038  -0.208   0.195  -0.001   0.006   0.017   0.008

              0.000

Species: H                   
Atom  Qatom  Qorb
               1s      1s      1s      1Ppy    1Ppz    1Ppx    
  11  1.114   0.632   0.065   0.326   0.034   0.033   0.023
  13  1.074   0.543   0.067   0.366   0.026   0.034   0.039
  16  1.076   0.565   0.067   0.341   0.033   0.032   0.037
  19  1.086   0.596   0.066   0.333   0.034   0.031   0.026
  21  1.099   0.592   0.066   0.342   0.028   0.032   0.039
  26  0.991   0.485   0.075   0.256   0.088   0.051   0.036
  28  1.085   0.585   0.066   0.341   0.035   0.031   0.026
  30  1.097   0.584   0.067   0.345   0.029   0.034   0.039
  33  1.096   0.602   0.066   0.337   0.033   0.034   0.025
  35  1.062   0.541   0.068   0.353   0.032   0.032   0.036
  48  1.114   0.632   0.065   0.327   0.034   0.033   0.023
  50  1.074   0.542   0.067   0.367   0.025   0.034   0.040
  53  1.076   0.567   0.067   0.341   0.032   0.031   0.038
  56  1.086   0.595   0.066   0.333   0.035   0.031   0.026
  58  1.099   0.592   0.066   0.342   0.028   0.032   0.039
  63  0.991   0.485   0.075   0.255   0.085   0.051   0.039
  65  1.085   0.585   0.066   0.341   0.035   0.031   0.026
  67  1.097   0.583   0.067   0.346   0.029   0.034   0.039
  70  1.096   0.603   0.066   0.336   0.033   0.034   0.025
  72  1.062   0.542   0.068   0.352   0.033   0.032   0.036

mulliken: Qtot =      280.000

siesta: Eigenvalues (eV):
  ik is    eps
   1  1 -27.56 -27.55 -27.47 -27.46 -26.30 -26.28 -25.45 -25.44 -23.99 -23.99
        -23.90 -23.90 -23.90 -23.89 -23.80 -23.80 -22.31 -22.22 -21.84 -21.74
        -21.09 -21.04 -20.41 -20.35 -19.47 -19.43 -19.08 -19.07 -18.80 -18.79
        -18.70 -18.65 -17.58 -17.57 -16.46 -16.44 -16.42 -16.42 -16.18 -16.15
        -15.80 -15.79 -15.17 -15.13 -14.84 -14.82 -14.71 -14.69 -14.04 -14.02
        -13.72 -13.68 -13.06 -13.04 -12.69 -12.68 -12.55 -12.54 -12.29 -12.28
        -11.90 -11.88 -11.83 -11.81 -11.65 -11.60 -11.58 -11.38 -11.37 -11.34
        -11.32 -11.24 -11.24 -11.21 -11.20 -11.17 -11.16 -11.14 -10.97 -10.96
        -10.89 -10.87 -10.80 -10.79 -10.54 -10.53 -10.48 -10.22 -10.20 -10.04
         -9.83  -9.69  -9.65  -9.52  -9.44  -9.44  -9.37  -9.19  -9.18  -9.15
         -8.40  -8.39  -8.17  -8.17  -8.16  -8.14  -8.14  -8.09  -8.08  -8.05
         -8.04  -8.04  -7.93  -7.91  -7.86  -7.86  -7.83  -7.78  -7.45  -7.33
         -7.23  -7.21  -7.13  -7.11  -7.09  -7.09  -6.98  -6.97  -6.86  -6.61
         -6.55  -6.25  -6.25  -6.17  -6.14  -6.13  -6.05  -6.04  -5.81  -5.78
         -4.06  -4.05  -2.77  -2.58  -2.28  -2.24  -2.14  -2.11  -1.96  -1.91
         -1.84  -1.76  -1.74  -1.65  -0.92  -0.90  -0.53  -0.45  -0.43  -0.23
         -0.10  -0.05  -0.04   0.00   0.02   0.08   0.10   0.15   0.27   0.38
          0.39   0.41   0.52   0.61   0.69   0.71   0.79   0.81   0.86   0.91
          0.99   1.03   1.07   1.11   1.12   1.29   1.39   1.47   1.50   1.60
          1.62   1.80   1.80   1.93   2.05   2.06   2.12   2.13   2.20   2.24
          2.27   2.33   2.34   2.39   2.42   2.46   2.51   2.65   2.66   2.74
          2.79   2.85   2.86   2.91   2.94   3.02   3.13   3.18   3.25   3.34
          3.40   3.46   3.53   3.55   3.58   3.64   3.76   3.88   3.88   3.93
          4.02   4.06   4.08   4.20   4.21   4.28   4.28   4.32   4.51   4.60
          4.68   4.74   4.83   4.84   4.93   4.98   5.04   5.13   5.15   5.23
          5.26   5.40   5.40   5.48   5.52   5.55   5.67   5.72   5.81   5.84
          5.95   5.97   6.03   6.04   6.09   6.18   6.20   6.29   6.34   6.41
          6.43   6.43   6.47   6.53   6.55   6.58   6.73   6.74   6.80   6.87
          6.92   6.92   7.00   7.05   7.11   7.14   7.15   7.24   7.31   7.32
          7.37   7.45   7.49   7.60   7.62   7.63   7.65   7.72   7.77   7.79
          7.94   7.99   8.07   8.08   8.13   8.18   8.24   8.34   8.38   8.55
          8.57   8.63   8.67   8.70   8.73   8.80   8.81   8.86   8.93   9.01
          9.02   9.08   9.09   9.15   9.22   9.31   9.44   9.53   9.57   9.66
          9.70   9.81   9.84   9.86   9.96  10.06  10.11  10.15  10.20  10.31
         10.35  10.48  10.52  10.58  10.71  10.74  10.80  10.90  10.97  11.05
         11.11  11.15  11.16  11.35  11.45  11.51  11.57  11.59  12.00  12.10
         12.26  12.28  12.35  12.48  12.58  12.62  12.73  12.93  12.94  13.13
         13.16  13.18  13.24  13.26  13.34  13.43  13.51  13.59  13.68  13.75
         13.78  13.80  13.82  13.94  14.02  14.04  14.17  14.36  14.38  14.53
         14.56  14.67  14.82  14.88  14.90  15.04  15.14  15.25  15.30  15.33
         15.45  15.54  15.71  15.72  15.78  15.85  16.01  16.02  16.09  16.10
         16.37  16.40  16.50  16.51  16.67  16.72  16.84  16.89  17.01  17.18
         17.23  17.38  17.40  17.46  17.49  17.58  17.63  17.71  17.77  17.86
         17.93  18.02  18.04  18.16  18.24  18.31  18.57  18.63  18.72  18.74
         18.83  18.85  18.92  19.01  19.05  19.19  19.34  19.36  19.56  19.65
         19.67  19.72  19.79  19.86  20.18  20.30  20.36  20.47  20.58  20.62
         20.82  20.91  21.12  21.13  21.23  21.31  21.41  21.67  21.79  21.88
         21.90  21.93  22.05  22.07  22.30  22.38  22.44  22.48  22.73  22.76
         22.88  22.90  23.17  23.40  23.50  23.57  23.70  23.78  23.90  23.93
         24.22  24.28  24.38  24.51  24.70  24.83  24.86  25.06  25.10  25.23
         25.29  25.42  25.48  25.66  25.70  25.74  25.75  25.89  25.99  26.05
         26.07  26.19  26.35  26.46  26.50  26.61  26.74  26.79  26.85  27.03
         27.20  27.30  27.48  27.53  27.68  27.71  27.95  27.98  28.06  28.46
         28.51  28.60  28.77  28.79  28.80  28.82  28.92  28.95  28.96  29.06
         29.16  29.19  29.22  29.39  29.45  29.58  29.61  29.62  29.67  29.80
         29.82  29.90  30.04  30.07  30.16  30.20  30.26  30.27  30.41  30.48
         30.55  30.63  30.67  30.72  30.75  30.84  30.96  31.03  31.17  31.22
         31.30  31.43  31.62  31.64  31.75  31.80  31.98  32.04  32.14  32.22
         32.36  32.42  32.58  32.69  32.72  32.84  32.90  33.10  33.25  33.46
         33.49  33.57  33.67  33.74  33.90  33.98  34.09  34.16  34.24  34.39
         34.43  34.49  34.66  34.75  34.82  34.97  35.07  35.12  35.15  35.40
         35.45  35.57  35.63  35.65  35.69  35.84  35.93  35.96  36.16  36.27
         36.37  36.42  36.47  36.54  36.63  36.77  36.95  36.98  37.06  37.12
         37.16  37.20  37.42  37.45  37.49  37.53  37.70  37.86  38.03  38.19
         38.25  38.34  38.38  38.48  38.52  38.59  38.70  38.75  38.97  38.99
         39.27  39.29  39.48  39.62  39.68  39.71  39.82  39.95  40.17  40.36
         40.37  40.45  40.60  40.61  40.75  40.87  40.99  41.03  41.10  41.14
         41.21  41.24  41.30  41.51  41.54  41.83  41.92  42.03  42.08  42.17
         42.32  42.35  42.48  42.64  42.75  42.77  42.86  43.02  43.03  43.12
         43.23  43.32  43.35  43.37  43.62  43.67  43.70  43.98  44.11  44.20
         44.25  44.25  44.31  44.59  44.81  44.84  45.01  45.11  45.18  45.28
         45.42  45.61  45.79  45.86  46.02  46.12  46.17  46.19  46.29  46.38
         46.42  46.48  46.50  46.63  46.68  46.85  47.13  47.32  47.37  47.41
         47.45  47.59  47.68  47.74  47.82  47.92  48.02  48.13  48.21  48.24
         48.32  48.33  48.49  48.54  48.56  48.59  48.65  48.71  48.92  49.01
         49.05  49.15  49.16  49.20  49.48  49.52  49.56  49.72  49.85  49.88
         49.90  49.96  50.07  50.33  50.35  50.54  50.59  50.65  50.71  50.99
         51.16  51.35  51.50  51.57  51.76  51.80  51.92  52.09  52.14  52.23
         52.31  52.46  52.50  52.67  52.80  52.89  53.24  53.43  53.50  53.66
         53.73  53.84  54.10  54.17  54.31  54.33  54.44  54.46  54.61  54.69
         54.85  55.17  55.23  55.42  55.61  55.64  55.86  55.93  56.37  56.60
         56.76  56.89  56.97  57.10  57.64  57.74  58.00  58.12  58.27  58.49
         58.64  58.87  58.91  58.96  59.15  59.20  59.27  59.29  59.46  59.46
         59.66  59.71  59.73  59.97  60.15  60.25  60.28  60.69  60.72  61.00
         61.03  61.15  61.27  61.31  61.50  61.72  61.93  61.95  62.04  62.12
         62.15  62.19  62.45  62.63  62.81  62.97  63.20  63.24  63.56  63.66
         63.78  63.85  64.01  64.13  64.24  64.50  64.52  64.64  64.78  65.03
         65.27  65.38  65.46  65.56  65.65  65.93  65.97  66.09  66.29  66.47
         66.55  66.87  67.04  67.25  67.35  67.58  67.69  67.98  68.11  68.24
         68.34  68.39  68.49  68.79  68.92  68.93  69.07  69.17  69.43  69.55
         69.63  69.86  69.94  69.95  70.14  70.52  70.69  70.73  70.78  70.87
         71.02  71.29  71.37  71.43  71.53  71.79  72.01  72.09  72.20  72.32
         72.53  72.62  72.83  73.14  73.36  73.43  73.65  73.70  74.14  74.22
         74.41  74.58  74.62  74.70  74.75  74.88  75.26  75.47  75.49  75.78
         76.14  76.22  76.47  76.72  77.12  77.27  77.59  77.86  78.01  78.12
         78.16  78.93  79.17  79.26  79.76  80.95  81.03  82.06  82.35  83.24
         84.69  85.07  85.33  86.19  86.31  87.33  87.89  88.36  88.97  89.45
         89.53  90.17  90.23  90.52  90.84  91.05  91.13  91.43  91.74  91.93
         92.21  92.83  93.21  93.92  94.64  95.81  96.12  96.44  96.74  97.07
         97.36  97.54  97.63  97.99  98.06  98.45  98.55  98.76  98.95  99.12
         99.73  99.91 100.51 100.85 101.28 101.42 101.46 102.66 103.29 103.79
        104.21 104.46 104.96 105.08 105.28 105.53 106.50 107.25 107.39 107.70
        107.82 108.57 108.80 109.15 110.32 110.52 111.35 111.52 111.83 111.93
        113.09 113.44 115.09 115.36 116.21 116.46 116.90 117.47 118.09 118.41
        118.57 118.72 119.31 119.43 120.13 120.25 120.64 120.93 122.04 122.47
        125.22 125.51 128.54 128.94 130.36 131.17 132.39 133.12 135.67 135.82
        138.70 139.12
siesta: Fermi energy =      -4.869659 eV

siesta: Program's energy decomposition (eV):
siesta: Ebs     =     -3714.939367
siesta: Eions   =     18316.795456
siesta: Ena     =      2204.494430
siesta: Ekin    =      9266.560891
siesta: Enl     =     -2883.100327
siesta: DEna    =      -295.558573
siesta: DUscf   =        45.276101
siesta: DUext   =         0.000000
siesta: Exc     =     -3710.155138
siesta: eta*DQ  =         0.000000
siesta: Emadel  =         0.000000
siesta: Emeta   =         0.000000
siesta: Emolmec =         0.000000
siesta: Ekinion =         0.000000
siesta: Eharris =    -13689.278026
siesta: Etot    =    -13689.278072
siesta: FreeEng =    -13689.278072

siesta: Final energy (eV):
siesta:  Band Struct. =   -3714.939367
siesta:       Kinetic =    9266.560891
siesta:       Hartree =   61246.282614
siesta:    Ext. field =       0.000000
siesta:   Exch.-corr. =   -3710.155138
siesta:  Ion-electron = -130720.882968
siesta:       Ion-ion =   50228.916529
siesta:       Ekinion =       0.000000
siesta:         Total =  -13689.278072

siesta: Atomic forces (eV/Ang):
siesta:      1    0.074940   -0.060627    0.018509
siesta:      2    0.082335    0.054706   -0.016083
siesta:      3   -0.073229   -0.046164    0.014488
siesta:      4   -0.073818    0.050101   -0.019389
siesta:      5   -0.017524    0.276718    0.169883
siesta:      6    0.264151   -0.193725    0.121240
siesta:      7    0.029523    0.051187   -0.336826
siesta:      8   -0.042319    0.006185   -0.038078
siesta:      9   -0.585142   -0.319577   -0.003837
siesta:     10    0.005404    0.129129   -0.001440
siesta:     11   -0.016699   -0.357501    0.013599
siesta:     12   -0.168102   -0.353711    0.022645
siesta:     13    0.316651   -0.163719   -0.017651
siesta:     14    0.416959   -0.007796   -0.000260
siesta:     15   -0.085471   -0.043007    0.017146
siesta:     16    0.300879   -0.187059   -0.012734
siesta:     17    0.325465   -0.282118    0.001090
siesta:     18    0.395458    0.261931   -0.012857
siesta:     19    0.027637    0.356898   -0.009509
siesta:     20    0.050873    0.402556   -0.019996
siesta:     21   -0.311428    0.176777    0.001277
siesta:     22   -0.342419    0.148782    0.004134
siesta:     23   -0.059485   -0.100864   -0.001187
siesta:     24    0.028727   -0.086519    0.002678
siesta:     25    0.007605    0.645783   -0.035889
siesta:     26    0.005723   -0.390414    0.008506
siesta:     27   -0.154979   -0.153697    0.008893
siesta:     28   -0.008940    0.362436   -0.015043
siesta:     29   -0.006577    0.396700   -0.026160
siesta:     30    0.325010    0.153178   -0.003477
siesta:     31    0.356929    0.151589   -0.005134
siesta:     32    0.246619   -0.135493    0.011178
siesta:     33   -0.008506   -0.347095    0.012996
siesta:     34    0.020110   -0.381072    0.037628
siesta:     35   -0.323391   -0.176904   -0.013792
siesta:     36   -0.364875   -0.180057   -0.006773
siesta:     37   -0.391183    0.240296   -0.021840
siesta:     38    0.049066    0.290274    0.149596
siesta:     39   -0.267438   -0.160561    0.142603
siesta:     40    0.010394   -0.001345   -0.055526
siesta:     41   -0.028728    0.019054   -0.332754
siesta:     42   -0.033318   -0.277481   -0.165913
siesta:     43    0.267279    0.175053   -0.124653
siesta:     44    0.022773   -0.042677    0.335063
siesta:     45   -0.041227    0.001064    0.036407
siesta:     46   -0.573495    0.352932   -0.008211
siesta:     47    0.001856   -0.131533    0.005072
siesta:     48    0.004887    0.340258   -0.001311
siesta:     49   -0.140570    0.352846   -0.022381
siesta:     50    0.325779    0.145538    0.023758
siesta:     51    0.422641   -0.024530    0.009046
siesta:     52   -0.090826    0.042142   -0.022594
siesta:     53    0.317067    0.174230    0.013717
siesta:     54    0.333541    0.258098    0.006596
siesta:     55    0.382567   -0.280283    0.027162
siesta:     56    0.008021   -0.340457    0.007623
siesta:     57    0.026775   -0.397723    0.021168
siesta:     58   -0.310546   -0.151877   -0.011753
siesta:     59   -0.352383   -0.132085   -0.014444
siesta:     60   -0.050822    0.096306    0.002449
siesta:     61    0.034862    0.080441    0.001890
siesta:     62   -0.031931   -0.637159    0.033488
siesta:     63    0.032336    0.401996   -0.003534
siesta:     64   -0.140985    0.156490   -0.015271
siesta:     65   -0.029523   -0.356909    0.012030
siesta:     66   -0.025620   -0.389657    0.024525
siesta:     67    0.310536   -0.170604    0.007742
siesta:     68    0.350175   -0.183470    0.017232
siesta:     69    0.253633    0.136856    0.005782
siesta:     70    0.015694    0.350298   -0.018033
siesta:     71    0.045944    0.380299   -0.031368
siesta:     72   -0.307942    0.193656    0.000855
siesta:     73   -0.353467    0.214477   -0.006883
siesta:     74   -0.409229   -0.230222    0.010285
siesta:     75    0.025779   -0.294236   -0.148112
siesta:     76   -0.252145    0.178506   -0.158687
siesta:     77    0.003958   -0.002879    0.055666
siesta:     78   -0.035734   -0.022519    0.329498
siesta: ----------------------------------------
siesta:    Tot    0.016543    0.010440   -0.014237

siesta: Stress tensor (static) (eV/Ang**3):
siesta:     0.001256    0.000005    0.000017
siesta:     0.000005    0.001277   -0.000056
siesta:     0.000017   -0.000056    0.000122

siesta: Cell volume =      20160.000000 Ang**3

siesta: Pressure (static):
siesta:                Solid            Molecule  Units
siesta:          -0.00000964         -0.00000014  Ry/Bohr**3
siesta:          -0.00088486         -0.00001242  eV/Ang**3
siesta:          -1.41771089         -0.01990010  kBar
(Free)E+ p_basis*V_orbitals  =      -13558.171009
(Free)Eharris+ p_basis*V_orbitals  =      -13558.170905

siesta: Electric dipole (a.u.)  =   -0.631664   -0.004219    0.002573
siesta: Electric dipole (Debye) =   -1.605531   -0.010724    0.006539
>> End of run:  26-MAR-2014  10:13:08
