ITEM: TIMESTEP
0
ITEM: NUMBER OF ATOMS
18000
ITEM: BOX BOUNDS pp pp pp
-1.9420237842722088e-01 2.7535202378427158e+01
-1.9313364375005904e-01 2.7534133643750025e+01
-2.3834948998332095e+00 3.3047549489982600e+02
ITEM: ATOMS id type x y z c_peratom fx fy fz 
362 2 5.7176 5.22131 3.49586 -24.3519 -0.542908 1.28895 -0.248492 
1801 2 5.59761 2.71341 0.606839 -25.6501 -1.34626 -1.8479 -1.1345 
3061 2 2.52035 5.18695 0.659016 -24.9246 1.91237 0.386001 -2.00164 
4502 2 2.70965 2.71683 3.25731 -25.6317 -0.851508 -2.32804 -0.592702 
6001 1 1.10338 0.904163 -0.853482 -7.82916 -0.0897592 -0.826817 0.436246 
7501 1 4.25705 3.76362 1.93676 -7.70558 -0.692503 2.74898 1.00668 
9001 1 4.09052 3.65821 -0.896639 -6.78173 0.24916 0.7276 0.190048 
10501 1 1.20811 1.31535 1.93487 -6.91755 1.09824 0.328821 -0.48814 
12001 1 4.03498 1.25547 2.14475 -6.11447 0.546747 -0.428438 -0.260094 
13501 1 1.47059 3.51645 -0.791065 -7.45389 -0.702532 1.74376 0.8944 
15001 1 1.11123 4.11894 1.89633 -7.30414 1.64828 -0.748269 -0.299832 
16501 1 4.0119 0.949001 -0.564213 -7.3854 -0.744545 -0.602038 -1.49141 
4501 2 2.73035 2.2228 -2.11955 -25.7257 0.158814 0.667551 0.0592262 
1501 2 -0.136355 2.47873 0.411993 -25.2379 2.21676 -2.75111 2.27218 
16561 1 4.19566 6.47598 -0.756808 -7.2558 -0.68759 -0.213224 0.149355 
6061 1 1.39566 6.32745 -1.00764 -7.0305 0.843645 -0.960446 0.856182 
12061 1 3.73822 6.44797 2.18274 -7.74653 2.38162 -0.863863 -1.42538 
13502 1 1.43309 4.02244 4.48766 -7.08873 -1.40774 0.46288 1.12377 
6301 1 6.6749 1.25981 -0.985529 -7.41005 0.642769 -0.194288 -0.905266 
2 2 -0.00110468 -0.123705 3.22583 -26.2352 -0.410918 -0.890056 0.411317 
61 2 0.0681076 4.98887 -2.10358 -25.1858 -1.00206 0.548448 -1.68518 
361 2 5.34844 5.1946 -2.33923 -25.4707 0.0470906 0.521992 2.22964 
13801 1 6.7398 4.00494 -0.712376 -7.17944 1.60314 0.655016 -0.625003 
10801 1 6.80224 1.17774 1.63017 -7.59378 0.267456 -0.500194 1.34386 
6361 1 6.89809 6.69906 -0.791418 -7.03682 0.651862 -0.382609 0.159586 
15301 1 7.11902 4.08908 2.12511 -8.05351 -0.253323 -0.324207 -0.493303 
6302 1 6.97752 0.983613 4.38199 -7.95875 0.161333 0.794325 1.30794 
662 2 11.2335 5.30356 3.27219 -24.7923 -0.111944 1.99663 -0.426664 
2101 2 11.0253 2.6373 0.496233 -24.5197 -1.03148 -0.553329 0.0580519 
3361 2 8.39467 5.46367 0.542451 -25.0576 -1.80352 -1.77968 0.648655 
4802 2 8.4755 2.61257 3.31091 -24.9712 -1.17913 -0.0430492 -0.0834017 
6601 1 12.1212 1.5246 -1.06698 -7.58557 1.12388 0.804752 -0.155143 
7801 1 9.87682 4.11476 2.05481 -7.95691 -0.353236 -1.07353 -1.2553 
9301 1 9.57108 3.76773 -0.81282 -7.54655 0.410517 0.468077 0.0862494 
11101 1 12.3431 1.10154 1.74652 -7.68911 -0.794863 1.76132 0.612149 
12301 1 9.50436 1.29716 1.80452 -7.78182 1.01754 -0.275412 -0.262324 
14101 1 12.4883 4.58076 -1.35306 -7.19737 1.9602 -3.58271 2.42039 
15601 1 12.5655 4.04301 1.58426 -8.47677 -0.22317 -0.823744 0.636164 
16801 1 9.3965 1.12488 -1.05192 -7.25287 0.536088 -0.34051 0.442073 
3301 2 8.14427 -0.130747 0.370772 -25.2585 1.05115 -0.500251 0.021446 
6662 1 12.774 6.71288 4.54146 -7.64055 -1.58211 -0.15036 0.758701 
601 2 11.0554 -0.192321 -2.29324 -25.8976 -0.932602 -0.0234131 -0.871811 
16861 1 9.57967 6.43746 -0.992529 -8.19899 1.37568 2.47977 -1.90354 
4801 2 8.2395 2.5396 -2.28085 -25.1565 -1.12163 0.383906 -0.367756 
5102 2 13.7702 2.70338 3.04005 -24.4572 0.741633 -1.41148 0.866393 
3661 2 13.8568 5.56369 0.364976 -25.3776 -3.07035 0.148734 -1.90891 
962 2 16.4832 5.42353 3.08415 -24.9379 1.16175 -2.36796 0.461139 
2401 2 16.5964 2.62206 0.366176 -25.0645 -0.790592 0.647074 -0.473816 
3961 2 19.3335 5.41675 0.428069 -25.8278 0.759398 1.06374 -1.60085 
5402 2 19.3288 2.48978 3.02865 -24.7681 0.064944 1.65933 2.25527 
6901 1 17.8689 1.31655 -0.898598 -8.08016 0.476198 -0.737757 -1.07418 
8101 1 15.3005 4.23278 1.40753 -7.79278 0.173557 -2.67242 0.775 
9601 1 15.4238 3.68561 -1.46695 -7.27002 0.515842 0.579277 1.77325 
11401 1 17.9102 1.44015 1.83035 -7.41592 -1.03803 -1.10219 -1.94284 
12601 1 15.0137 1.20685 1.75238 -7.67466 1.03054 0.915018 -0.108143 
14401 1 18.1241 4.12302 -1.14003 -7.72685 -0.305721 0.731521 0.0356821 
15901 1 18.0512 4.09874 1.60844 -7.29053 0.22322 -2.55563 1.48049 
17101 1 15.046 1.08516 -0.995312 -7.24462 -0.155818 0.897568 -0.363806 
17401 1 20.5986 0.961402 -1.19235 -7.64569 0.290602 0.0266639 0.93565 
11461 1 17.686 6.51809 1.61662 -7.52998 0.0406379 2.42687 1.364 
12661 1 14.9463 6.66901 1.84917 -7.51378 2.22332 0.906471 0.236265 
17102 1 15.4632 1.23218 4.43314 -7.28487 -2.72735 0.319196 1.4908 
17161 1 15.1609 6.54904 -1.09088 -7.5856 2.68853 0.234179 -0.425025 
902 2 16.5857 -0.17081 3.1416 -25.6574 -0.559767 0.33743 0.450792 
6902 1 17.9491 1.1663 4.39242 -6.95374 0.520217 0.137055 2.17429 
9602 1 15.257 3.92171 4.40707 -7.58285 -0.598654 0.00172532 -0.982132 
5401 2 19.2429 2.57461 -2.31477 -25.099 1.14403 -0.718351 -1.07453 
62 2 27.49 5.29841 3.32344 -25.392 0.693784 -0.0725651 -0.268432 
17461 1 20.642 6.56959 -1.05056 -6.57936 1.39343 -1.77735 0.0923652 
12901 1 20.7368 1.27573 1.85094 -8.1095 -0.462004 -0.0235375 -1.71678 
9901 1 20.9519 3.73275 -1.05761 -7.00684 -1.78773 -0.577153 -0.428123 
9902 1 21.2064 3.73067 4.36211 -7.45136 -3.96404 1.30563 -2.723 
8401 1 20.9825 4.19902 1.51336 -7.51506 -1.22679 -0.419452 1.4034 
1262 2 22.2722 5.35278 3.07248 -25.6744 -0.54029 -1.02051 2.02256 
2701 2 22.1508 2.53623 0.459349 -25.064 0.232138 0.878549 -0.890621 
4261 2 24.8701 5.19277 0.332332 -25.1866 -0.107418 0.659651 -1.05761 
5702 2 24.9077 2.43052 3.02195 -25.2259 0.498605 0.369554 2.47781 
7201 1 23.3969 1.10337 -0.811844 -7.57547 -0.657932 0.215416 0.776611 
8701 1 26.3836 3.69402 1.77521 -7.55522 -2.73935 1.55298 0.739573 
10201 1 26.4722 3.6279 -0.913619 -7.57541 -2.27423 2.25952 -1.58525 
11701 1 23.323 1.1824 1.96632 -7.74616 1.59241 0.833448 -1.11709 
13201 1 26.3297 0.929811 1.8355 -7.43495 -1.71435 2.23333 -2.04026 
14701 1 23.5428 3.85401 -1.20032 -6.98497 1.40942 -1.10148 0.503036 
16201 1 23.6406 4.04217 1.80089 -7.91891 0.670148 -1.53809 -1.27132 
17701 1 25.926 1.14198 -1.09402 -7.42133 2.71939 -1.91201 1.57847 
7261 1 23.4212 6.44581 -0.920265 -6.77654 0.0483614 1.6592 -0.20817 
17761 1 26.3226 6.3839 -0.875014 -6.90977 0.593512 0.690896 -0.0102131 
14702 1 23.7112 4.0472 4.44836 -6.68153 1.27379 -1.28759 0.708749 
7262 1 23.5889 6.69748 4.54773 -6.87599 0.317185 0.658063 0.206457 
17702 1 26.3469 1.15402 4.45949 -6.88864 -1.84652 0.0903508 1.11592 
10561 1 1.16705 6.77318 1.9963 -7.95001 -2.81041 -0.922304 -2.23428 
121 2 0.00582632 10.7736 -2.31758 -24.3476 -1.85234 -0.275516 0.219672 
422 2 5.37404 10.8699 3.24774 -24.9521 -0.401286 -1.14559 1.22082 
1861 2 5.43643 7.93489 0.632795 -25.4621 0.534084 -0.232657 -0.749032 
3121 2 2.81158 10.6424 0.328552 -24.708 -2.2342 0.362387 2.73939 
4562 2 2.49791 7.91444 3.08304 -24.7578 1.16118 4.69642 4.41921 
6121 1 1.15914 11.9674 -0.839676 -7.45118 1.12642 0.0105672 1.05343 
7561 1 3.98874 9.42563 2.18898 -7.47899 -0.33746 -0.76209 -3.16335 
9061 1 4.11132 9.1731 -0.716595 -7.68677 -0.782502 0.877613 -0.310341 
10621 1 1.46043 12.184 1.92602 -7.26367 -0.341775 1.92629 0.0617234 
12121 1 4.25613 12.2582 1.94486 -7.28637 -2.21216 0.119779 -1.45075 
13561 1 1.39399 8.85239 -0.666894 -7.53298 -0.44422 2.88076 -1.13647 
15061 1 1.13155 9.62652 1.88564 -7.30779 -0.579338 -1.67303 -0.0613944 
16621 1 3.97983 11.9535 -1.03273 -8.1476 0.547368 0.0408521 0.311365 
4622 2 2.58667 13.5782 3.32101 -24.9946 1.28074 0.888656 -1.63642 
10921 1 6.71161 12.14 1.9487 -8.06838 2.71558 0.450839 -0.0721191 
15361 1 6.72972 9.50327 1.61517 -7.2799 0.850374 1.1482 1.87227 
13861 1 6.69531 9.25515 -0.958757 -7.26355 1.29628 1.92983 -0.783873 
421 2 5.58237 10.7671 -2.23739 -24.4653 -1.08024 -0.24117 -0.531906 
1921 2 5.49713 13.5631 0.551588 -24.8512 -1.43092 -1.07603 -1.84568 
4621 2 2.71613 13.4858 -2.30389 -25.2013 1.5181 0.667166 0.124988 
4561 2 2.74793 7.98678 -2.33218 -25.1322 -1.07801 -1.25838 1.67838 
6661 1 12.5516 7.06497 -1.00089 -6.52163 -1.98042 0.347891 -0.170483 
11161 1 12.3685 6.88734 1.78663 -6.58434 -1.41318 -2.86341 0.510184 
12361 1 9.66682 6.90287 1.71348 -7.59613 -1.15058 -0.195554 0.454778 
10861 1 6.81724 6.92176 2.11118 -7.34298 -0.355292 -1.3566 -0.156345 
6421 1 6.8727 12.2268 -0.936207 -8.36379 -1.45407 -1.27171 0.7527 
722 2 11.0324 11.1165 3.5824 -24.2853 1.13738 -0.568842 -4.55561 
2161 2 10.8541 8.26826 0.486987 -25.301 3.95561 0.0602587 -0.106257 
3421 2 8.10117 10.9678 0.485576 -24.7084 1.62059 -0.969227 0.305746 
4862 2 8.5276 8.29314 3.3622 -24.9385 -1.58076 -3.26935 -0.517573 
6721 1 12.412 12.41 -0.96675 -8.07128 -0.508539 0.0656352 -0.606197 
7861 1 9.69721 9.6025 2.02246 -7.77276 -0.0285656 0.452127 -0.791755 
9361 1 9.53735 9.49433 -0.888578 -8.38241 -0.292418 -0.317944 -0.104548 
11221 1 12.3833 12.1006 1.75483 -7.30007 0.112129 1.03032 0.493223 
12421 1 9.62532 12.2825 1.70865 -7.19282 -0.961757 0.765819 1.81109 
14161 1 12.3801 9.7163 -0.960442 -6.72975 -2.89101 -0.0130036 -1.68469 
15661 1 12.8004 9.26584 1.58867 -6.34952 -0.93068 2.49104 0.0841059 
16921 1 9.53781 12.3422 -0.850195 -7.57046 0.542621 -0.939979 -1.3881 
2221 2 11.0639 13.5971 0.304516 -25.4194 -1.4436 1.37571 1.69908 
4922 2 8.10121 13.5816 3.19228 -24.6658 1.05906 0.601329 -0.45589 
16862 1 9.99155 6.74462 4.44846 -7.33654 0.860347 1.02005 0.598742 
14162 1 12.3969 9.58592 4.40171 -7.49779 -0.0331487 -0.528073 -0.261208 
4861 2 8.26942 8.06653 -2.17028 -24.5424 -0.907827 -0.732066 -1.10582 
6722 1 12.6678 12.4108 4.49792 -7.96648 -1.38578 -1.60808 1.37175 
4921 2 8.16469 13.4304 -2.3345 -25.3291 1.4989 2.21436 -0.998551 
721 2 11.0881 10.9913 -2.33169 -25.5108 -0.080437 -0.00153928 -1.42998 
12961 1 20.4245 6.97305 1.79479 -7.26742 0.753085 -1.69277 -0.0933709 
6961 1 18.1959 7.1855 -0.889231 -6.80707 -2.18687 -2.04192 -1.01876 
3721 2 13.7905 10.8222 0.257934 -25.7657 -0.725511 0.822233 1.07113 
5162 2 13.8501 8.10668 3.09391 -25.9089 -0.54848 0.742686 1.70423 
1022 2 16.6479 10.9132 2.98441 -24.8429 1.32796 -0.27947 1.09777 
2461 2 16.5073 7.95781 0.322522 -25.4882 -0.0829368 1.90016 -0.00557869 
4021 2 19.5397 10.6677 0.337781 -25.4229 -1.73812 0.950753 0.511374 
5462 2 19.129 8.06305 3.16375 -25.1425 2.55521 0.45475 -1.21512 
7021 1 17.8995 12.3119 -1.17466 -7.07783 0.261075 -0.153092 1.59383 
8161 1 15.5617 9.22625 2.07203 -7.36467 -0.577371 0.687605 -0.454358 
9661 1 14.9612 9.38178 -0.84454 -7.02458 2.77692 -1.20454 -0.221959 
11521 1 18.2367 12.3376 1.82543 -7.89216 -1.89067 0.156594 -0.548174 
12721 1 15.1834 12.1933 1.43728 -8.11357 0.92005 -0.291198 1.03827 
14461 1 17.9133 9.78821 -0.906447 -6.44108 -0.562614 -0.381555 0.135232 
15961 1 18.0837 9.42886 1.68239 -6.90066 -1.29349 0.244424 0.670619 
17221 1 15.0756 12.1304 -1.21273 -6.93976 0.401221 -0.280189 1.52183 
2521 2 16.6911 13.4674 0.442681 -24.5931 -0.0864995 1.447 -1.60427 
14462 1 17.9691 9.22111 4.49969 -7.56515 -1.4397 1.62084 0.122813 
17222 1 15.3339 12.3295 4.1142 -7.60303 -0.484628 0.597568 1.09849 
17522 1 20.6023 12.2569 4.53686 -7.97742 0.212008 0.993102 0.662627 
8461 1 20.5761 9.59906 1.86769 -6.5606 1.76785 0.160339 0.647659 
1021 2 16.5156 10.8053 -2.34628 -26.0577 -0.402036 0.815642 0.305548 
5521 2 19.3435 13.6 -2.305 -25.4618 0.247018 0.279084 -0.0716583 
13261 1 26.0857 6.82659 1.7172 -8.01502 -0.893127 -0.89149 1.61112 
1561 2 27.4362 8.15645 0.659966 -24.5638 0.77289 -0.150282 -1.46621 
122 2 27.4991 10.8572 3.38095 -25.4622 0.897849 0.0375499 -0.075517 
11761 1 23.1966 6.77841 1.80958 -7.52725 1.87867 1.299 -0.711964 
9961 1 20.693 9.0728 -0.97992 -7.48563 0.0465155 3.81736 -0.829152 
17521 1 20.9065 12.0502 -0.807459 -8.17831 0.0220667 -0.654764 -1.55536 
13021 1 20.9567 12.3804 1.80016 -7.18692 0.202514 0.0549948 0.829688 
1322 2 22.1313 11.0141 3.21681 -25.9922 -0.506252 -2.18659 0.618659 
2761 2 22.0277 8.03826 0.334362 -25.8265 0.369467 -1.04051 1.20981 
4321 2 24.8936 10.8496 0.471248 -25.7755 0.328949 0.206369 0.779594 
5762 2 24.7337 8.1683 3.19463 -25.3246 -0.590882 -0.193329 1.41187 
7321 1 23.7729 12.0603 -0.900809 -7.53164 -3.53367 0.847328 -0.21027 
8761 1 25.9473 9.69042 2.0109 -8.00553 1.67673 -2.5392 0.259999 
10261 1 26.0526 9.33143 -0.90505 -7.921 2.27472 0.132034 -0.417478 
11821 1 23.7718 12.1542 1.99016 -7.15093 -1.96461 2.08685 0.188759 
13321 1 26.3425 12.2193 1.95718 -6.62984 1.87991 0.216333 -0.0598408 
14761 1 23.4835 9.4023 -0.908524 -7.57959 -0.959292 -0.631721 -0.981353 
16261 1 23.2337 9.60074 1.81637 -6.99179 0.686519 -1.34136 -0.0589528 
17821 1 26.231 12.2873 -0.974904 -6.79786 1.57821 -0.334812 0.519847 
2821 2 22.117 13.5528 0.367185 -24.7719 0.835046 1.06657 1.18909 
5821 2 24.8678 13.5791 -2.26292 -25.3406 2.18325 0.570597 0.159378 
1321 2 22.3398 10.8786 -2.25688 -24.6619 -0.845356 -0.62975 -1.40599 
4681 2 2.95464 19.2765 -2.27867 -25.7842 -0.868822 -2.42234 0.99617 
482 2 5.60446 16.4281 3.17857 -25.0449 -1.83726 -0.135269 -0.841149 
1981 2 5.57613 19.0037 0.661592 -25.577 0.118183 1.12825 0.00330594 
3181 2 2.95771 16.3825 0.269829 -25.3707 -1.22565 0.296741 1.3719 
4682 2 2.6811 19.2794 3.28053 -25.2366 1.29951 0.332843 -0.254818 
6181 1 1.55313 17.8786 -1.03351 -6.77869 0.297042 -1.17261 0.775934 
7621 1 3.94436 15.0618 1.78399 -7.09853 1.59785 -0.725671 0.102496 
9121 1 4.53521 14.6751 -1.09174 -7.38471 -0.883458 0.3972 -0.395407 
10681 1 1.39591 18.1248 1.81535 -7.0666 2.81688 -3.18832 1.90793 
12181 1 4.22346 17.7891 2.01972 -7.71043 -0.150571 0.180272 -1.76524 
13621 1 1.79366 15.0345 -1.00725 -7.16571 -0.537877 -0.724124 0.289509 
15121 1 1.40249 15.1948 1.68975 -7.31222 -1.85355 -0.532723 0.757023 
16681 1 4.29756 17.4778 -1.0636 -7.03245 -0.118239 -0.100071 1.26112 
1681 2 0.207926 19.1554 0.570653 -25.8814 -3.45483 1.68563 -2.3042 
9181 1 4.4928 20.152 -0.768976 -7.0134 -0.744579 1.34728 -2.37977 
15421 1 6.67879 14.87 1.63064 -7.70966 2.15512 2.51294 2.48195 
13622 1 1.31539 15.1001 4.39612 -7.69281 0.923151 -1.53618 1.29661 
1621 2 0.0105258 13.6803 0.774712 -25.27 -0.734596 -1.04439 -1.46688 
182 2 0.0346581 16.4369 3.36254 -24.9833 -1.37489 0.986263 -2.51818 
13681 1 1.72998 20.4061 -0.611295 -7.41159 -0.333865 1.90543 -0.468762 
181 2 -0.0249579 16.4305 -2.12749 -26.0777 2.25011 0.0891117 -0.488497 
6182 1 1.44848 17.804 4.45228 -8.01609 -0.201902 0.758046 2.18345 
6481 1 6.90684 17.7791 -0.721832 -7.5808 0.515586 0.144618 -2.11804 
10981 1 7.10761 17.8454 1.84672 -7.63638 0.559681 -1.52563 0.75409 
13921 1 7.23891 14.9312 -1.02086 -6.80339 -0.92045 1.26926 -0.484902 
15481 1 6.81003 20.455 1.86846 -6.81072 0.725441 1.26712 -0.805884 
782 2 10.9257 16.4597 3.05987 -25.8031 0.774209 0.34552 0.914918 
2281 2 11.3006 19.3083 0.507916 -24.7106 -1.34424 2.0208 0.35445 
3481 2 8.35955 16.5615 0.447325 -25.5299 0.42204 -2.66972 0.173929 
4982 2 8.47142 19.4973 3.1396 -24.7868 -3.13422 -0.115378 -0.537549 
6781 1 12.5813 18.0198 -0.603338 -8.05393 0.744666 -0.277879 -1.25112 
7921 1 9.58631 15.1342 1.78008 -7.39176 -0.652573 -0.502501 0.878152 
9421 1 9.86481 15.1847 -0.844691 -6.24086 -0.77522 -0.571307 0.0874179 
11281 1 12.5031 18.0366 2.15648 -7.36381 0.836629 -1.71554 -1.80537 
12481 1 10.0836 17.9618 1.57477 -7.00093 -3.26612 -1.51328 2.18341 
14221 1 12.3479 15.3121 -0.996183 -7.15653 1.81886 -1.09534 0.917995 
15721 1 12.4231 15.1348 1.84946 -8.01888 -0.58568 -0.801747 -0.995906 
16981 1 9.64603 17.8136 -0.838582 -7.81198 0.560875 1.34448 -2.35672 
9481 1 9.89588 20.536 -0.987458 -7.82443 -0.598299 -0.606174 1.32088 
16982 1 9.6099 18.1983 4.32782 -7.48049 0.156573 -1.03772 1.56969 
13922 1 6.90751 15.098 4.38997 -7.88252 -0.535654 -0.592852 0.234834 
6482 1 6.91158 17.8542 4.42651 -8.07674 0.157812 1.49478 -1.42489 
14222 1 12.2689 14.863 4.48428 -7.25821 0.15171 1.03636 0.550467 
9422 1 9.51678 15.4407 4.5053 -7.43531 0.928329 -1.96279 0.186596 
781 2 11.0111 16.6627 -2.16464 -25.529 1.16526 -2.89686 -1.33533 
4981 2 8.34229 19.0098 -2.18539 -24.7106 -1.09924 1.76712 -0.608648 
5222 2 13.8245 13.6855 3.05804 -24.9434 -1.39132 -1.33761 0.410637 
5522 2 19.3457 13.8456 3.32505 -25.1417 -0.869856 -1.97737 -2.26256 
5282 2 13.8668 19.2038 3.26386 -24.2951 -2.95847 1.79403 1.03624 
3781 2 13.7805 16.3917 0.622751 -24.7422 0.585392 0.9808 -2.0721 
1082 2 16.287 16.6698 3.26156 -24.5387 3.21884 -1.14825 -1.59122 
2581 2 16.7096 19.4262 0.504608 -24.3404 -0.103851 -1.12728 -0.493852 
4081 2 19.3676 16.2519 0.510199 -25.3357 -0.713551 1.30834 -0.727901 
5582 2 19.33 19.0913 3.21501 -24.0098 -0.108991 1.82059 0.335265 
7081 1 18.1931 17.8019 -1.01441 -7.63084 -0.845859 -0.47524 0.243589 
8221 1 15.0779 15.0744 2.03192 -7.89392 1.60837 1.05151 -2.82335 
9721 1 15.0045 14.8339 -0.890503 -6.90732 1.40132 1.43181 3.02298 
11581 1 17.8985 17.932 1.95838 -8.15565 1.08068 1.51143 -0.413287 
12781 1 15.259 17.9975 1.64319 -7.73869 -0.962658 -2.05598 -0.178284 
14521 1 17.9495 14.8552 -0.868501 -7.22158 -0.55411 1.49244 0.198024 
16021 1 17.9777 15.2927 2.03227 -7.29668 -0.804887 -1.28524 -0.918745 
17281 1 15.3307 17.8562 -1.15226 -7.56183 0.290009 0.678135 0.0533545 
8281 1 15.2891 20.3774 2.33752 -7.43678 1.33262 2.14097 -4.07539 
10021 1 20.5665 14.8484 -0.686076 -7.23719 1.33694 -1.3415 -1.17879 
14581 1 18.2421 20.5397 -1.081 -7.60963 0.372742 -0.111613 1.65171 
5281 2 13.8866 19.2869 -2.20085 -24.5952 0.59255 0.496572 -0.571023 
5221 2 13.77 13.7139 -2.20654 -25.7036 -0.737466 -0.4521 -2.37743 
9722 1 15.0667 15.2014 4.4902 -8.34306 0.353328 -1.0348 2.33266 
17282 1 14.9581 17.8972 4.48869 -8.53256 -0.252489 -0.979874 2.44455 
5881 2 24.9783 19.2389 -2.07635 -24.7655 0.87602 -2.86512 -3.06352 
5822 2 24.6501 13.7847 3.5036 -25.0712 1.48098 -1.87691 -1.33656 
13081 1 20.9906 17.8052 1.85608 -8.26283 -2.92067 1.54344 0.111266 
10081 1 21.1235 20.1272 -1.16861 -7.6378 -0.840055 1.76679 0.94232 
17581 1 20.8668 17.5006 -0.9014 -7.33129 -0.216291 0.785122 -0.144063 
8521 1 20.707 15.2155 1.94488 -7.03173 0.26791 -1.00556 0.463932 
8581 1 20.7249 20.556 2.01926 -8.05242 -1.00116 -0.609715 -1.48405 
1382 2 22.0553 16.6849 3.29945 -24.4738 1.49521 -2.45942 1.43143 
2881 2 22.2071 19.0203 0.502868 -24.6155 1.17611 1.03495 -0.956512 
4381 2 24.9821 16.3764 0.719302 -25.5624 1.22933 -0.947631 0.109739 
5882 2 24.8423 19.2241 3.36589 -25.5618 3.32583 2.35473 1.01563 
7381 1 23.593 17.4153 -0.59242 -7.86579 -0.0903095 2.03007 -1.28774 
8821 1 26.1019 14.7951 2.03851 -7.2141 0.950185 1.21262 -0.535013 
10321 1 26.7673 15.2136 -0.669443 -6.7724 -1.88821 -3.75273 1.2254 
11881 1 23.7003 18.0524 2.12379 -7.68432 -2.22884 -1.9651 -2.90315 
13381 1 26.3912 17.5973 1.97023 -6.78421 -0.0308872 0.23451 2.3979 
14821 1 23.6095 14.7164 -0.8558 -7.74809 -0.270788 0.914276 0.0956525 
16321 1 23.4423 15.2016 2.10447 -7.57026 -0.0734563 -0.213359 -0.514608 
17881 1 26.6409 17.5974 -0.479887 -6.38865 -1.9155 2.53601 -1.95866 
10381 1 26.6936 20.333 -1.09478 -7.48005 -0.147148 0.511643 2.50939 
8881 1 26.2705 20.4394 1.85749 -7.01992 -0.880657 0.856814 -1.0155 
14881 1 23.8791 20.4571 -0.823711 -7.67009 -1.32467 0.410825 1.72584 
301 2 5.3193 27.4805 -2.07854 -25.243 0.931018 -0.78019 -0.447794 
7681 1 4.04493 20.6397 1.81258 -7.17555 -1.08106 0.266323 1.56372 
302 2 5.54624 27.5075 3.12353 -25.4761 -2.22376 1.1159 0.98123 
15181 1 1.14497 20.7466 2.21911 -7.46674 2.13827 0.226062 -1.3072 
3001 2 2.55688 27.2418 0.437594 -24.7877 2.54218 4.32556 -2.98057 
542 2 5.33816 22.0955 3.3219 -25.3351 -0.0412299 -0.0568999 -1.69073 
2041 2 5.63994 24.7639 0.48703 -25.7008 -1.22583 -1.68985 -1.34978 
3241 2 2.64366 22.1083 0.499319 -24.9704 1.15025 -1.58932 0.959112 
4742 2 2.80514 24.8981 3.09208 -25.1377 -0.0803759 -0.11177 2.26265 
6241 1 1.08478 23.2696 -1.03559 -7.65868 1.43318 -1.80659 0.0590993 
7741 1 3.91348 26.323 1.78223 -7.60979 1.25433 -1.49694 1.05774 
9241 1 4.21302 25.8317 -0.931232 -6.86444 -0.0631997 0.63867 -0.0665325 
10741 1 1.58271 23.548 1.796 -8.07824 -0.950266 -0.0100032 -0.00130988 
12241 1 4.28793 23.4556 1.69424 -7.48689 -0.355186 0.0167535 0.941135 
13741 1 1.66766 25.814 -1.09035 -7.30964 -2.51197 1.52857 1.18838 
15241 1 1.1755 26.2981 1.58042 -7.97252 -2.21951 -2.20122 2.8245 
16741 1 3.90717 23.0408 -0.938413 -6.94154 0.335994 -0.347277 -1.79681 
242 2 -0.02268 22.0628 3.45004 -25.3641 -2.20054 0.282742 -0.199449 
1741 2 0.0986804 24.7017 0.347378 -25.217 -2.24765 -0.0809036 0.639773 
13742 1 1.42199 26.3258 4.52921 -7.04061 0.62175 -1.33273 -2.06725 
6541 1 6.6957 23.368 -1.01126 -6.9576 -0.364295 0.290681 -0.0433295 
15541 1 6.56648 25.9654 2.03055 -7.65791 1.78106 0.971104 0.510038 
13982 1 6.7195 20.8464 4.34307 -7.20464 1.79655 -1.8995 2.12881 
16742 1 3.96908 23.4695 4.38438 -6.80339 0.193232 -1.07253 -0.177352 
1 2 -0.116356 27.476 -2.37512 -25.1956 -1.13485 -0.841021 0.308825 
541 2 5.65667 21.7024 -2.16409 -25.3197 -0.635656 1.22307 -0.111926 
15781 1 12.4492 20.783 1.94441 -8.30875 0.282631 0.00819312 -0.749462 
13981 1 7.12903 20.6818 -0.863957 -7.35035 1.20591 -0.956177 -0.398243 
14281 1 12.6089 20.8409 -0.901354 -8.29578 -0.563807 -1.25613 -0.591294 
7981 1 9.63755 20.6844 1.80335 -7.83701 1.47558 0.523702 -0.323363 
841 2 10.7003 22.0105 -2.28363 -24.3029 3.27686 1.57372 -0.667783 
14041 1 6.8017 26.1687 -0.801934 -7.64222 1.30408 0.861516 -0.583832 
602 2 10.9989 27.5318 3.30489 -25.1085 1.0808 1.2319 -1.62881 
11041 1 7.08779 23.4173 1.79211 -7.28833 -0.59139 -0.685417 1.01155 
842 2 11.1959 22.035 3.48417 -24.8583 -1.13671 1.35486 -1.04568 
2341 2 10.8208 24.7333 0.765647 -25.4257 0.148173 2.21845 -1.92789 
3541 2 8.35668 22.0439 0.538929 -25.1092 -2.15232 -1.35077 1.08635 
5042 2 8.21929 24.8459 3.41377 -24.98 -0.339296 -0.992353 -0.82891 
6841 1 11.9943 23.6654 -0.840253 -7.75882 0.404698 -1.35922 -0.913193 
8041 1 9.30504 26.1301 1.9069 -7.95419 1.18947 0.603168 -0.146508 
9541 1 9.70851 26.208 -0.903708 -6.72393 -1.17967 -0.665314 0.141361 
11341 1 12.2901 23.6449 2.00536 -7.51494 1.75144 -2.70851 0.36901 
12541 1 9.7222 23.3543 2.13495 -7.45827 -0.591151 -0.0678356 0.0519543 
14341 1 12.2988 26.4435 -0.780812 -7.01793 0.11946 -0.75666 -2.36027 
15841 1 12.4359 26.1709 1.78379 -6.66066 -1.25239 0.0991501 1.4005 
17041 1 9.24482 23.428 -0.780003 -7.891 2.50211 0.308071 -1.55878 
5341 2 13.3898 24.7898 -2.27467 -25.7394 0.890837 0.544975 -0.562495 
9781 1 15.4443 20.8456 -0.7498 -8.4274 -0.925008 -0.707155 0.457576 
16081 1 17.8773 21.1219 1.76556 -7.83913 0.802035 -3.30229 -2.14595 
14582 1 18.223 20.6251 4.4165 -7.71585 -0.634803 0.21035 1.121 
3601 2 13.7663 27.4718 0.503245 -25.894 0.352761 0.194491 0.0704339 
5342 2 13.9451 24.5877 3.29739 -25.1136 -1.01011 2.36538 -0.103622 
3841 2 13.7231 21.9396 0.538353 -23.5149 1.54701 2.60433 0.299767 
3901 2 19.3414 27.4871 0.273773 -24.6017 -0.889792 0.251472 0.322242 
1142 2 16.5558 21.8777 3.3296 -25.3464 0.441618 1.39084 0.0906132 
2641 2 16.5886 24.7311 0.563951 -24.484 -1.2119 1.27557 -1.57712 
4141 2 19.4728 21.8435 0.363994 -24.0524 0.207945 1.6018 -0.199496 
5642 2 19.2991 24.7441 3.36733 -24.7205 -0.862603 1.04691 -1.84964 
7141 1 18.012 23.3461 -1.15406 -7.93 -1.5996 -0.983167 2.1692 
8341 1 15.1922 26.0518 1.99275 -7.68276 0.745405 -0.581731 -1.69952 
9841 1 14.9489 26.2036 -0.958007 -6.19664 0.990667 -0.38752 2.65745 
11641 1 17.9029 23.6814 1.90015 -7.07132 1.00295 0.628638 -1.25759 
12841 1 15.1404 23.1517 1.94263 -8.32316 -0.568702 0.274965 -1.50077 
14641 1 17.7833 26.1428 -0.94365 -7.80761 1.08233 -0.0113084 0.652863 
16141 1 17.9434 26.4484 1.85068 -7.44757 0.0224523 -1.18778 -0.844242 
17341 1 14.9561 23.5354 -1.19473 -7.46637 0.15499 -1.23656 1.91615 
7142 1 17.8653 23.313 4.39673 -7.50793 1.78912 0.602663 2.14666 
8641 1 20.5732 26.273 1.75908 -8.14279 1.49056 -1.42269 0.0365599 
5641 2 19.1998 24.6726 -2.31224 -25.2449 0.466105 1.4281 -2.14581 
16381 1 23.4641 20.85 1.84846 -7.3686 -0.0722614 -1.61049 -0.458331 
1201 2 22.3928 27.4994 -2.32032 -23.8267 -6.19701 -3.49883 3.45442 
17641 1 20.8202 23.354 -1.07127 -7.87858 -0.522073 -1.63748 0.32258 
1202 2 21.9981 27.4711 3.07358 -24.8739 0.55588 0.321085 1.74396 
4201 2 25.0255 27.4434 0.376606 -25.1597 -1.2071 -0.572733 0.729127 
10141 1 20.7983 25.9246 -1.12336 -7.96942 0.216801 1.3281 0.482368 
13141 1 20.843 23.3104 1.61712 -7.92051 -0.22128 0.179241 0.856469 
1442 2 22.145 21.9853 3.20792 -25.4872 -0.20925 -0.359445 0.352364 
2941 2 22.0946 24.7428 0.340505 -24.116 0.506558 -0.407222 0.433167 
4441 2 24.9376 21.9448 0.538336 -24.9165 0.075545 -0.257798 1.3317 
5942 2 24.7912 24.8529 3.21682 -25.6636 1.78469 -0.414274 -0.368391 
7441 1 23.5327 23.2058 -1.23501 -8.12565 -0.243849 0.79462 2.05461 
8941 1 26.1532 26.183 1.87686 -6.63219 0.671527 -0.95922 -0.0480794 
10441 1 26.2864 26.0446 -0.982135 -7.703 2.39758 0.265614 1.13451 
11941 1 23.694 23.4797 1.77202 -7.54962 -0.882345 0.304753 -1.12496 
13441 1 26.4897 23.5574 2.10321 -6.82699 0.496357 -1.36756 -0.605721 
14941 1 23.7491 26.1434 -1.16089 -8.25161 -2.14855 -0.733563 1.39761 
16441 1 23.5167 26.1842 1.80675 -7.70569 -1.86506 -0.159124 -1.48799 
17941 1 26.2016 23.2662 -0.606201 -7.51792 -0.177927 -0.223531 -0.673578 
14942 1 23.4794 26.1736 4.51435 -7.65329 -0.669393 -0.991952 0.690133 
5941 2 24.9246 24.5923 -2.15719 -24.359 2.20835 0.80558 -1.32087 
7442 1 23.3197 23.3752 4.50244 -7.83614 1.3693 1.06206 1.57137 
6002 1 1.19907 1.19884 4.67987 -7.14142 1.98844 0.783968 0.330284 
9002 1 3.8897 3.89523 4.81349 -7.76155 2.84085 0.197247 -0.546512 
16502 1 4.01392 1.04598 4.70873 -7.66616 1.37575 1.3461 -0.213194 
6062 1 1.14756 6.71438 4.76411 -7.53215 1.11972 -0.0468918 -0.6332 
363 2 5.41311 5.3798 8.82908 -26.0492 0.468606 1.74246 0.622062 
1802 2 5.35692 2.31054 5.98798 -23.5873 0.330593 1.11829 -0.24076 
3062 2 2.67651 5.55029 5.83552 -25.2404 0.411418 -1.00662 1.79184 
4503 2 2.82729 2.63077 8.69667 -25.0989 -0.477821 0.568467 0.86942 
6003 1 1.60913 1.15231 10.1436 -7.54271 -0.6086 -0.0127633 -1.2172 
7502 1 4.43109 3.95272 7.48966 -7.53941 -0.0435508 -2.57963 -1.13261 
9003 1 4.03353 4.13321 10.1128 -7.39495 -1.08263 -1.46746 0.969416 
10502 1 1.26617 1.33713 7.44735 -7.91925 0.378929 -0.598087 0.966563 
12002 1 4.04695 0.956399 7.35163 -8.5243 1.40525 1.99309 0.89516 
13503 1 1.27341 4.04011 9.85896 -7.19293 -0.129252 -0.334914 1.46841 
15002 1 1.50708 4.13524 7.32103 -7.47919 0.469422 -0.728784 -1.58718 
16503 1 4.40667 1.27019 10.1028 -7.68041 -1.67189 0.0219164 0.0840542 
3002 2 2.74594 -0.162737 5.96398 -25.5078 -2.0695 -2.58502 -0.00561139 
1502 2 0.087709 2.49863 6.07526 -25.3148 -2.20718 1.62136 -1.72971 
12062 1 4.04789 6.67608 7.29843 -6.9105 -0.501517 -0.180099 1.93996 
13803 1 6.66348 4.313 10.337 -6.37254 0.423456 -0.951895 2.84299 
63 2 -0.0431 5.34433 8.53435 -25.7743 -0.417984 -0.464662 1.98004 
3 2 -0.169374 -0.103151 8.86195 -24.0236 1.79861 -1.74977 -2.4672 
303 2 5.63684 -0.0211383 8.76965 -24.6496 0.238582 -0.828661 0.94522 
1503 2 -0.0877603 2.55234 11.4088 -25.2908 2.29725 1.61728 1.4649 
3003 2 2.91359 -0.145244 11.4561 -24.8402 -0.0388908 0.209643 0.708063 
6362 1 7.34851 6.53217 4.7564 -7.22438 -1.76237 -0.689089 0.35564 
14102 1 12.4788 3.96822 4.57632 -8.20379 0.00527455 0.57392 -0.0239598 
6602 1 12.5076 1.33965 4.63485 -7.27493 0.832621 -0.000891853 -1.26489 
16802 1 9.87577 1.3438 4.57956 -7.47401 -0.986698 -0.653437 0.87862 
13802 1 6.82271 3.6695 4.88833 -8.34729 -0.517167 0.71506 0.879358 
9302 1 9.58192 3.8901 4.78631 -7.71834 0.678755 1.1672 1.59904 
10802 1 7.07833 1.40226 7.48124 -8.43971 -1.3465 0.486151 -1.77261 
15302 1 7.31457 4.52274 8.04133 -6.71228 0.559986 -3.93993 -1.23988 
6303 1 6.96542 1.34004 10.2251 -7.15969 1.23539 -0.128348 -0.606806 
663 2 11.3336 5.38474 8.7667 -24.2704 0.196941 1.6676 1.23383 
2102 2 11.1599 2.68253 6.1932 -24.5824 -0.333747 -0.867248 -2.33147 
3362 2 8.27517 5.14347 6.29328 -24.6446 1.34383 2.62471 -2.30896 
4803 2 8.55381 2.55492 8.82508 -24.7998 -1.87391 1.65578 0.973445 
6603 1 12.4614 1.2045 10.0408 -7.29664 0.269829 0.661638 0.310729 
7802 1 9.9318 4.20124 7.67502 -8.35955 -0.892737 -2.80077 -1.60975 
9303 1 9.63751 3.8873 10.5559 -7.03988 1.49444 -2.99251 -3.45247 
11102 1 12.6775 1.31104 7.23811 -7.91522 -1.22372 0.346259 1.13764 
12302 1 9.82886 1.15216 7.49039 -7.70933 0.012614 2.47603 -3.47774 
14103 1 12.6127 3.98651 10.0161 -8.07691 0.306124 0.139712 0.676004 
15602 1 12.5524 3.99265 7.41957 -8.41121 0.913724 1.29352 -1.38602 
16803 1 9.6923 1.09934 9.91234 -7.15936 0.997374 0.739427 3.25403 
16863 1 9.9315 6.49517 10.0898 -7.72848 -0.0883507 2.15203 -0.5962 
14402 1 18.0484 3.99144 4.56486 -7.28725 0.931859 -1.53381 -0.308666 
17402 1 20.4514 1.07739 4.6104 -7.42692 2.32541 0.746485 -1.10171 
17162 1 15.3452 6.57889 4.61183 -8.01406 1.51332 1.39438 -0.147783 
5103 2 13.9947 2.64202 8.51113 -24.697 0.4571 -1.43521 2.88014 
3662 2 13.9956 5.34502 5.91474 -24.4649 -0.652429 0.297357 -0.391139 
963 2 16.5904 5.08624 8.60964 -25.3425 2.5726 1.75213 1.34395 
2402 2 16.7171 2.48581 5.91406 -25.3672 0.960261 0.781552 -0.310344 
3962 2 19.6983 5.1175 5.89267 -24.954 -3.62694 1.4348 -0.629341 
5403 2 19.4569 2.5205 8.87775 -25.8148 0.859042 -1.094 -2.04968 
6903 1 17.9306 0.937664 10.1578 -6.96859 1.96673 1.54312 1.87456 
8102 1 15.3294 3.99122 7.09929 -8.56275 -0.593894 -0.639885 0.934225 
9603 1 15.4381 3.8316 10.077 -7.57226 -2.00033 0.372631 -0.951878 
11402 1 18.1876 1.34695 7.60388 -6.78089 -1.22186 -2.72836 -3.06276 
12602 1 15.3574 1.21506 7.39124 -7.58273 0.417702 1.24765 -1.7429 
14403 1 18.0347 3.70338 10.0086 -7.57051 0.26698 1.58462 3.20178 
15902 1 18.0729 3.78597 7.4537 -6.59566 -0.226093 1.29826 -2.04885 
17103 1 15.2887 1.06221 10.0598 -6.73585 -0.957089 1.14222 -0.087909 
11462 1 18.1095 6.47173 7.46479 -7.33145 -0.00437142 0.538731 -1.49752 
6962 1 18.2945 6.53303 4.59715 -7.63767 -1.16545 1.08989 -0.30287 
17163 1 15.7581 6.65109 10.2208 -6.94075 -2.40364 -0.571433 -0.702644 
3602 2 13.8508 0.0332837 5.88715 -25.4255 0.994126 -2.13651 -0.530967 
903 2 16.6647 -0.174449 8.81119 -26.2768 -0.146966 -0.979137 -0.905514 