LAMMPS data file via write_data, version 22 Dec 2022, timestep = 9

8 atoms
2 atom types

0.010360751007349605 4.3603392489926485 xlo xhi
0.010360751007349605 4.3603392489926485 ylo yhi
0.010360751007349605 4.3603392489926485 zlo zhi

Masses

1 183.85
2 12.011

Atoms # atomic

1 1 0.01036075100734963 0.010360751007349789 0.010360751007349766 0 0 0
7 2 0.010360751007349662 0.010360751007349634 2.185349999999999 0 0 0
2 1 0.010360751007349768 2.185349999999999 2.185349999999999 0 0 0
8 2 0.01036075100734965 2.185349999999999 4.360339248992648 0 0 -1
3 1 2.185349999999999 0.010360751007349803 2.185349999999999 0 0 0
4 1 2.185349999999999 2.185349999999999 0.01036075100734987 0 0 0
6 2 2.185349999999999 2.185349999999999 2.185349999999999 0 0 0
5 2 2.185349999999999 4.360339248992648 4.360339248992648 0 -1 -1

Velocities

1 0 0 0
7 0 0 0
2 0 0 0
8 0 0 0
3 0 0 0
4 0 0 0
6 0 0 0
5 0 0 0
