LAMMPS (22 Dec 2022)
  using 1 OpenMP thread(s) per MPI task
Loaded 1 plugins from C:\Program Files\LAMMPS 64-bit 23Jun2022\plugins
Loaded 0 plugins from C:\Program Files\LAMMPS 64-bit 23Jun2022-MPI\plugins
Loaded 1 plugins from C:\Program Files\LAMMPS 64-bit 22Dec2022-MSMPI\plugins
Loaded 1 plugins from C:\Program Files\LAMMPS 64-bit 28Mar2023-MPI\plugins
# Compute elastic constant tensor for a crystal
#
# Written by Aidan Thompson (Sandia, athomps@sandia.gov)
#
#  This script uses the following three include files.
#
#   init.mod      (must be modified for different crystal structures)
# 	       	  Define units, deformation parameters and initial
#		  configuration of the atoms and simulation cell.
#
#
#   potential.mod    (must be modified for different pair styles)
# 		     Define pair style and other attributes
#		     not stored in restart file
#
#
#   displace.mod    (displace.mod should not need to be modified)
# 		    Perform positive and negative box displacements
# 		    in direction ${dir} and size ${up}.
# 		    It uses the resultant changes
#		    in stress to compute one
# 		    row of the elastic stiffness tensor
#
#		    Inputs variables:
#		    	   dir = the Voigt deformation component
#		    		    (1,2,3,4,5,6)
#		    Global constants:
#       	    	   up = the deformation magnitude (strain units)
#       		   cfac = conversion from LAMMPS pressure units to
#               	   output units for elastic constants
#
#
#  To run this on a different system, it should only be necessary to
#  modify the files init.mod and potential.mod. In order to calculate
#  the elastic constants correctly, care must be taken to specify
#  the correct units in init.mod (units, cfac and cunits). It is also
#  important to verify that the minimization of energy w.r.t atom
#  positions in the deformed cell is fully converged.
#  One indication of this is that the elastic constants are insensitive
#  to the choice of the variable ${up} in init.mod. Another is to check
#  the final max and two-norm forces reported in the log file. If you know
#  that minimization is not required, you can set maxiter = 0.0 in
#  init.mod.
#

include init.mod
# NOTE: This script can be modified for different atomic structures,
# units, etc. See in.elastic for more info.
#

# Define the finite deformation size. Try several values of this
# variable to verify that results do not depend on it.
variable up equal 1.0e-6

# Define the amount of random jiggle for atoms
# This prevents atoms from staying on saddle points
variable atomjiggle equal 1.0e-5

# Uncomment one of these blocks, depending on what units
# you are using in LAMMPS and for output

# metal units, elastic constants in eV/A^3
#units		metal
#variable cfac equal 6.2414e-7
#variable cunits string eV/A^3

# metal units, elastic constants in GPa
units		metal
variable cfac equal 1.0e-4
variable cunits string GPa

# real units, elastic constants in GPa
#units		real
#variable cfac equal 1.01325e-4
#variable cunits string GPa

# Define minimization parameters
variable etol equal 0.0
variable ftol equal 1.0e-10
variable maxiter equal 1000
variable maxeval equal 100000
variable dmax equal 1.0e-2

# generate the box and atom positions using a diamond lattice

dimension    3
boundary     p p p
read_data    data.in
Reading data file ...
  orthogonal box = (0.010360751 0.010360751 0.010360751) to (4.3603392 4.3603392 4.3603392)
  1 by 2 by 2 MPI processor grid
  reading atoms ...
  8 atoms
  reading velocities ...
  8 velocities
  read_data CPU = 0.001 seconds
#replicate    2 3 4
replicate    2 3 4
Replication is creating a 2x3x4 = 24 times larger system...
  orthogonal box = (0.010360751 0.010360751 0.010360751) to (8.7103177 13.060296 17.410275)
  1 by 2 by 2 MPI processor grid
  192 atoms
  replicate CPU = 0.000 seconds
change_box   all triclinic
Changing box ...
  triclinic box = (0.010360751 0.010360751 0.010360751) to (8.7103177 13.060296 17.410275) with tilt (0 0 0)

# Need to set mass to something, just to satisfy LAMMPS
mass 1 1.0e-20

include potential.mod
# NOTE: This script can be modified for different pair styles
# See in.elastic for more info.

# Choose potential
#-----------------------
#pair_style	sw
#pair_coeff * * Si.sw Si
#-----------------------
#pair_style morse	2.83994742	# D0[eV] a[1/A] r0[A] rc[A], 1NN for BCC
#pair_coeff 1 1	2.1173	1.0202	2.4595	2.6497	#	Fe-Fe
#-----------------------
#pair_style smatb # R0(A)   p       q     A(eV)   xi(eV)  Rcs(A)   Rc(A), 4NN: Rcs=4NN, Rc=(4NN+5NN)/2
#pair_coeff 1 1	2.4802	7.0149	2.3779	0.3144	3.0551	4.033	4.176	#	Co	Co
#-----------------------
#pair_style eam/alloy
#pair_coeff * * AlCrFeCoNi_Zhou04.eam.alloy Fe
#-----------------------
pair_style meam
pair_coeff * * ./../../library.meam W C ./../../WC.meam W C
#-----------------------

# Setup neighbor style
neighbor 1.0 nsq
neigh_modify once no every 1 delay 0 check yes

# Setup minimization style
min_style	     cg
min_modify	     dmax ${dmax} line quadratic
min_modify	     dmax 0.01 line quadratic

# Setup output
thermo		1
thermo_style custom step temp pe press pxx pyy pzz pxy pxz pyz lx ly lz vol
thermo_modify norm no

# Compute initial state
fix 3 all box/relax  aniso 0.0
minimize ${etol} ${ftol} ${maxiter} ${maxeval}
minimize 0 ${ftol} ${maxiter} ${maxeval}
minimize 0 1e-10 ${maxiter} ${maxeval}
minimize 0 1e-10 1000 ${maxeval}
minimize 0 1e-10 1000 100000
Neighbor list info ...
  update: every = 1 steps, delay = 0 steps, check = yes
  max neighbors/atom: 2000, page size: 100000
  master list distance cutoff = 5.8
  ghost atom cutoff = 5.8
  2 neighbor lists, perpetual/occasional/extra = 2 0 0
  (1) pair meam, perpetual
      attributes: full, newton on
      pair build: full/nsq
      stencil: none
      bin: none
  (2) pair meam, perpetual, half/full from (1)
      attributes: half, newton on
      pair build: halffull/newton
      stencil: none
      bin: none
Per MPI rank memory allocation (min/avg/max) = 9.886 | 9.901 | 9.916 Mbytes
   Step          Temp          PotEng         Press           Pxx            Pyy            Pzz            Pxy            Pxz            Pyz             Lx             Ly             Lz           Volume    
         0   0             -1528.3299      3.7713048e-09  3.9436519e-09  3.6934179e-09  3.6768444e-09 -1.2932931e-10 -5.1476227e-11  9.1989769e-11  8.699957       13.049935      17.399914      1975.4797    
         1   0             -1528.3299     -9.3431763e-10 -6.8500469e-10 -1.1788489e-09 -9.3909927e-10 -1.239155e-10   2.8160822e-10  1.9730584e-11  8.699957       13.049935      17.399914      1975.4797    
Loop time of 0.003749 on 4 procs for 1 steps with 192 atoms

0.0% CPU use with 4 MPI tasks x 1 OpenMP threads

Minimization stats:
  Stopping criterion = force tolerance
  Energy initial, next-to-last, final = 
     -1528.32994179395  -1528.32994179395  -1528.32994179395
  Force two-norm initial, final = 8.0679073e-12 2.0904892e-12
  Force max component initial, final = 4.8625132e-12 1.4535179e-12
  Final line search alpha, max atom move = 1 1.4535179e-12
  Iterations, force evaluations = 1 2

MPI task timing breakdown:
Section |  min time  |  avg time  |  max time  |%varavg| %total
---------------------------------------------------------------
Pair    | 0.00289    | 0.0032245  | 0.003559   |   0.6 | 86.01
Neigh   | 0          | 0          | 0          |   0.0 |  0.00
Comm    | 7.7e-05    | 0.0004145  | 0.000754   |   0.0 | 11.06
Output  | 0          | 0          | 0          |   0.0 |  0.00
Modify  | 0          | 0          | 0          |   0.0 |  0.00
Other   |            | 0.00011    |            |       |  2.93

Nlocal:             48 ave          64 max          32 min
Histogram: 2 0 0 0 0 0 0 0 0 2
Nghost:            600 ave         616 max         584 min
Histogram: 2 0 0 0 0 0 0 0 0 2
Neighs:           1920 ave        2560 max        1280 min
Histogram: 2 0 0 0 0 0 0 0 0 2
FullNghs:         3840 ave        5120 max        2560 min
Histogram: 2 0 0 0 0 0 0 0 0 2

Total # of neighbors = 15360
Ave neighs/atom = 80
Neighbor list builds = 0
Dangerous builds = 0

variable tmp equal pxx
variable pxx0 equal ${tmp}
variable pxx0 equal -6.85004688148565e-10
variable tmp equal pyy
variable pyy0 equal ${tmp}
variable pyy0 equal -1.17884894180324e-09
variable tmp equal pzz
variable pzz0 equal ${tmp}
variable pzz0 equal -9.39099270633066e-10
variable tmp equal pyz
variable pyz0 equal ${tmp}
variable pyz0 equal 1.97305841773307e-11
variable tmp equal pxz
variable pxz0 equal ${tmp}
variable pxz0 equal 2.81608223683294e-10
variable tmp equal pxy
variable pxy0 equal ${tmp}
variable pxy0 equal -1.23915497147931e-10

variable tmp equal lx
variable lx0 equal ${tmp}
variable lx0 equal 8.6999569959706
variable tmp equal ly
variable ly0 equal ${tmp}
variable ly0 equal 13.0499354939559
variable tmp equal lz
variable lz0 equal ${tmp}
variable lz0 equal 17.3999139919412

# These formulas define the derivatives w.r.t. strain components
# Constants uses $, variables use v_
variable d1 equal -(v_pxx1-${pxx0})/(v_delta/v_len0)*${cfac}
variable d1 equal -(v_pxx1--6.85004688148565e-10)/(v_delta/v_len0)*${cfac}
variable d1 equal -(v_pxx1--6.85004688148565e-10)/(v_delta/v_len0)*0.0001
variable d2 equal -(v_pyy1-${pyy0})/(v_delta/v_len0)*${cfac}
variable d2 equal -(v_pyy1--1.17884894180324e-09)/(v_delta/v_len0)*${cfac}
variable d2 equal -(v_pyy1--1.17884894180324e-09)/(v_delta/v_len0)*0.0001
variable d3 equal -(v_pzz1-${pzz0})/(v_delta/v_len0)*${cfac}
variable d3 equal -(v_pzz1--9.39099270633066e-10)/(v_delta/v_len0)*${cfac}
variable d3 equal -(v_pzz1--9.39099270633066e-10)/(v_delta/v_len0)*0.0001
variable d4 equal -(v_pyz1-${pyz0})/(v_delta/v_len0)*${cfac}
variable d4 equal -(v_pyz1-1.97305841773307e-11)/(v_delta/v_len0)*${cfac}
variable d4 equal -(v_pyz1-1.97305841773307e-11)/(v_delta/v_len0)*0.0001
variable d5 equal -(v_pxz1-${pxz0})/(v_delta/v_len0)*${cfac}
variable d5 equal -(v_pxz1-2.81608223683294e-10)/(v_delta/v_len0)*${cfac}
variable d5 equal -(v_pxz1-2.81608223683294e-10)/(v_delta/v_len0)*0.0001
variable d6 equal -(v_pxy1-${pxy0})/(v_delta/v_len0)*${cfac}
variable d6 equal -(v_pxy1--1.23915497147931e-10)/(v_delta/v_len0)*${cfac}
variable d6 equal -(v_pxy1--1.23915497147931e-10)/(v_delta/v_len0)*0.0001

displace_atoms all random ${atomjiggle} ${atomjiggle} ${atomjiggle} 87287 units box
displace_atoms all random 1e-05 ${atomjiggle} ${atomjiggle} 87287 units box
displace_atoms all random 1e-05 1e-05 ${atomjiggle} 87287 units box
displace_atoms all random 1e-05 1e-05 1e-05 87287 units box
Displacing atoms ...

# Write restart
unfix 3
write_restart restart.equil
System init for write_restart ...

# uxx Perturbation

variable dir equal 1
include displace.mod
# NOTE: This script should not need to be
# modified. See in.elastic for more info.
#
# Find which reference length to use

if "${dir} == 1" then    "variable len0 equal ${lx0}"
variable len0 equal ${lx0}
variable len0 equal 8.6999569959706
if "${dir} == 2" then    "variable len0 equal ${ly0}"
if "${dir} == 3" then    "variable len0 equal ${lz0}"
if "${dir} == 4" then    "variable len0 equal ${lz0}"
if "${dir} == 5" then    "variable len0 equal ${lz0}"
if "${dir} == 6" then    "variable len0 equal ${ly0}"

# Reset box and simulation parameters

clear
  using 1 OpenMP thread(s) per MPI task
Loaded 1 plugins from C:\Program Files\LAMMPS 64-bit 23Jun2022\plugins
Loaded 0 plugins from C:\Program Files\LAMMPS 64-bit 23Jun2022-MPI\plugins
Loaded 1 plugins from C:\Program Files\LAMMPS 64-bit 22Dec2022-MSMPI\plugins
Loaded 1 plugins from C:\Program Files\LAMMPS 64-bit 28Mar2023-MPI\plugins
box tilt large

The 'box' command has been removed and will be ignored

read_restart restart.equil
Reading restart file ...
  restart file = 22 Dec 2022, LAMMPS = 22 Dec 2022
  restoring atom style atomic from restart
  triclinic box = (0.010360751 0.010360751 0.010360751) to (8.7103177 13.060296 17.410275) with tilt (0 0 0)
  1 by 2 by 2 MPI processor grid
  pair style meam stores no restart info
  192 atoms
  read_restart CPU = 0.000 seconds
include potential.mod
# NOTE: This script can be modified for different pair styles
# See in.elastic for more info.

# Choose potential
#-----------------------
#pair_style	sw
#pair_coeff * * Si.sw Si
#-----------------------
#pair_style morse	2.83994742	# D0[eV] a[1/A] r0[A] rc[A], 1NN for BCC
#pair_coeff 1 1	2.1173	1.0202	2.4595	2.6497	#	Fe-Fe
#-----------------------
#pair_style smatb # R0(A)   p       q     A(eV)   xi(eV)  Rcs(A)   Rc(A), 4NN: Rcs=4NN, Rc=(4NN+5NN)/2
#pair_coeff 1 1	2.4802	7.0149	2.3779	0.3144	3.0551	4.033	4.176	#	Co	Co
#-----------------------
#pair_style eam/alloy
#pair_coeff * * AlCrFeCoNi_Zhou04.eam.alloy Fe
#-----------------------
pair_style meam
pair_coeff * * ./../../library.meam W C ./../../WC.meam W C
#-----------------------

# Setup neighbor style
neighbor 1.0 nsq
neigh_modify once no every 1 delay 0 check yes

# Setup minimization style
min_style	     cg
min_modify	     dmax ${dmax} line quadratic
min_modify	     dmax 0.01 line quadratic

# Setup output
thermo		1
thermo_style custom step temp pe press pxx pyy pzz pxy pxz pyz lx ly lz vol
thermo_modify norm no

# Negative deformation

variable delta equal -${up}*${len0}
variable delta equal -1e-06*${len0}
variable delta equal -1e-06*8.6999569959706
variable deltaxy equal -${up}*xy
variable deltaxy equal -1e-06*xy
variable deltaxz equal -${up}*xz
variable deltaxz equal -1e-06*xz
variable deltayz equal -${up}*yz
variable deltayz equal -1e-06*yz
if "${dir} == 1" then    "change_box all x delta 0 ${delta} xy delta ${deltaxy} xz delta ${deltaxz} remap units box"
change_box all x delta 0 ${delta} xy delta ${deltaxy} xz delta ${deltaxz} remap units box
change_box all x delta 0 -8.6999569959706e-06 xy delta ${deltaxy} xz delta ${deltaxz} remap units box
change_box all x delta 0 -8.6999569959706e-06 xy delta -0 xz delta ${deltaxz} remap units box
change_box all x delta 0 -8.6999569959706e-06 xy delta -0 xz delta -0 remap units box
Changing box ...
  triclinic box = (0.010360751 0.010360751 0.010360751) to (8.710309 13.060296 17.410275) with tilt (0 0 0)
  triclinic box = (0.010360751 0.010360751 0.010360751) to (8.710309 13.060296 17.410275) with tilt (0 0 0)
  triclinic box = (0.010360751 0.010360751 0.010360751) to (8.710309 13.060296 17.410275) with tilt (0 0 0)
if "${dir} == 2" then    "change_box all y delta 0 ${delta} yz delta ${deltayz} remap units box"
if "${dir} == 3" then    "change_box all z delta 0 ${delta} remap units box"
if "${dir} == 4" then    "change_box all yz delta ${delta} remap units box"
if "${dir} == 5" then    "change_box all xz delta ${delta} remap units box"
if "${dir} == 6" then    "change_box all xy delta ${delta} remap units box"

# Relax atoms positions

minimize ${etol} ${ftol} ${maxiter} ${maxeval}
minimize 0 ${ftol} ${maxiter} ${maxeval}
minimize 0 1e-10 ${maxiter} ${maxeval}
minimize 0 1e-10 1000 ${maxeval}
minimize 0 1e-10 1000 100000
Neighbor list info ...
  update: every = 1 steps, delay = 0 steps, check = yes
  max neighbors/atom: 2000, page size: 100000
  master list distance cutoff = 5.8
  ghost atom cutoff = 5.8
  2 neighbor lists, perpetual/occasional/extra = 2 0 0
  (1) pair meam, perpetual
      attributes: full, newton on
      pair build: full/nsq
      stencil: none
      bin: none
  (2) pair meam, perpetual, half/full from (1)
      attributes: half, newton on
      pair build: halffull/newton
      stencil: none
      bin: none
Per MPI rank memory allocation (min/avg/max) = 9.871 | 9.875 | 9.877 Mbytes
   Step          Temp          PotEng         Press           Pxx            Pyy            Pzz            Pxy            Pxz            Pyz             Lx             Ly             Lz           Volume    
         1   0             -1528.3299      5.2423949      7.7932482      3.9669582      3.9669783      2.3420833e-05 -0.00012678619  0.00058575957  8.6999483      13.049935      17.399914      1975.4777    
         2   0             -1528.3299      5.242241       7.7930987      3.9668028      3.9668216     -3.6904759e-05 -2.7728015e-05  0.00019624752  8.6999483      13.049935      17.399914      1975.4777    
         3   0             -1528.3299      5.2421765      7.7930323      3.9667448      3.9667523     -1.3924728e-05 -1.986717e-05   6.8920917e-05  8.6999483      13.049935      17.399914      1975.4777    
         4   0             -1528.3299      5.2421305      7.7929884      3.9667002      3.9667029     -1.3991625e-07 -1.1663637e-05  1.0861554e-05  8.6999483      13.049935      17.399914      1975.4777    
         5   0             -1528.3299      5.2421168      7.792977       3.9666859      3.9666876     -1.428824e-06  -2.9477238e-06 -3.0505038e-07  8.6999483      13.049935      17.399914      1975.4777    
         6   0             -1528.3299      5.2421116      7.7929727      3.9666807      3.9666815     -8.195174e-07  -1.4123746e-06 -2.2153241e-06  8.6999483      13.049935      17.399914      1975.4777    
         7   0             -1528.3299      5.2421085      7.7929698      3.9666777      3.966678       1.4667594e-08 -8.0944132e-07 -3.0651568e-07  8.6999483      13.049935      17.399914      1975.4777    
         8   0             -1528.3299      5.2421072      7.7929686      3.9666765      3.9666765      8.5853181e-08 -2.9150251e-07 -1.9656651e-07  8.6999483      13.049935      17.399914      1975.4777    
         9   0             -1528.3299      5.2421064      7.792968       3.9666757      3.9666756     -1.0813695e-07  1.9263408e-07 -1.1845071e-07  8.6999483      13.049935      17.399914      1975.4777    
        10   0             -1528.3299      5.242106       7.7929676      3.9666752      3.9666751     -5.0424625e-08  7.9605671e-08  7.5968883e-08  8.6999483      13.049935      17.399914      1975.4777    
        11   0             -1528.3299      5.2421058      7.7929675      3.966675       3.9666749     -1.0439189e-08  3.7074164e-08 -3.7366824e-08  8.6999483      13.049935      17.399914      1975.4777    
        12   0             -1528.3299      5.2421056      7.7929673      3.9666748      3.9666748     -8.4452838e-09 -2.9267025e-09  5.4174557e-08  8.6999483      13.049935      17.399914      1975.4777    
        13   0             -1528.3299      5.2421055      7.7929672      3.9666747      3.9666747     -3.9337849e-09  1.5483714e-08  7.6718086e-09  8.6999483      13.049935      17.399914      1975.4777    
        14   0             -1528.3299      5.2421055      7.7929672      3.9666746      3.9666746     -6.8850241e-09  4.611252e-09   2.0389882e-08  8.6999483      13.049935      17.399914      1975.4777    
        15   0             -1528.3299      5.2421054      7.7929671      3.9666746      3.9666746     -2.5593734e-09  6.6497003e-09  8.7934547e-09  8.6999483      13.049935      17.399914      1975.4777    
        16   0             -1528.3299      5.2421054      7.7929671      3.9666745      3.9666746     -4.1275568e-10  4.7435613e-10  5.4510999e-09  8.6999483      13.049935      17.399914      1975.4777    
        17   0             -1528.3299      5.2421054      7.7929671      3.9666745      3.9666745      5.0928144e-10 -1.3400969e-09 -8.5981327e-10  8.6999483      13.049935      17.399914      1975.4777    
        18   0             -1528.3299      5.2421054      7.7929671      3.9666745      3.9666745      3.1262821e-10 -5.1209809e-10  7.7362839e-10  8.6999483      13.049935      17.399914      1975.4777    
        19   0             -1528.3299      5.2421054      7.7929671      3.9666745      3.9666745      1.7936503e-10  1.2780434e-10 -4.5786558e-10  8.6999483      13.049935      17.399914      1975.4777    
        20   0             -1528.3299      5.2421054      7.7929671      3.9666745      3.9666745      9.5085078e-11 -9.164798e-11   3.9832495e-10  8.6999483      13.049935      17.399914      1975.4777    
        21   0             -1528.3299      5.2421054      7.7929671      3.9666745      3.9666745      2.4419577e-10 -3.4121958e-10 -1.5252368e-10  8.6999483      13.049935      17.399914      1975.4777    
        22   0             -1528.3299      5.2421054      7.7929671      3.9666745      3.9666745      7.203415e-12  -7.1592378e-11  1.3981988e-10  8.6999483      13.049935      17.399914      1975.4777    
        23   0             -1528.3299      5.2421054      7.7929671      3.9666745      3.9666745      1.7648367e-10  2.591119e-10  -1.671779e-10   8.6999483      13.049935      17.399914      1975.4777    
        24   0             -1528.3299      5.2421054      7.7929671      3.9666745      3.9666745     -1.231784e-10  -1.4493074e-10 -6.3093296e-10  8.6999483      13.049935      17.399914      1975.4777    
        25   0             -1528.3299      5.2421054      7.7929671      3.9666745      3.9666745     -7.9957907e-11  2.4406352e-10  9.4337972e-11  8.6999483      13.049935      17.399914      1975.4777    
        26   0             -1528.3299      5.2421054      7.7929671      3.9666745      3.9666745      1.1237327e-10  2.8454474e-10  1.0869121e-10  8.6999483      13.049935      17.399914      1975.4777    
        27   0             -1528.3299      5.2421054      7.7929671      3.9666745      3.9666745     -3.9618783e-11  4.0475595e-11 -6.5839264e-11  8.6999483      13.049935      17.399914      1975.4777    
        28   0             -1528.3299      5.2421054      7.7929671      3.9666745      3.9666745      9.2203712e-11  9.1832286e-11  1.8878959e-10  8.6999483      13.049935      17.399914      1975.4777    
        29   0             -1528.3299      5.2421054      7.7929671      3.9666745      3.9666745     -6.4830735e-12  2.9818339e-10 -1.5022724e-10  8.6999483      13.049935      17.399914      1975.4777    
        30   0             -1528.3299      5.2421054      7.7929671      3.9666745      3.9666745     -4.3940832e-11 -4.3569405e-11 -2.9666577e-10  8.6999483      13.049935      17.399914      1975.4777    
        31   0             -1528.3299      5.2421054      7.7929671      3.9666745      3.9666745     -3.4576392e-11  2.9684964e-10  4.4011808e-10  8.6999483      13.049935      17.399914      1975.4777    
        32   0             -1528.3299      5.2421054      7.7929671      3.9666745      3.9666745     -4.8983222e-11  3.1253254e-11  4.7785981e-10  8.6999483      13.049935      17.399914      1975.4777    
        33   0             -1528.3299      5.2421054      7.7929671      3.9666745      3.9666745     -3.3135709e-11  6.7433531e-12 -3.5838902e-12  8.6999483      13.049935      17.399914      1975.4777    
        34   0             -1528.3299      5.2421054      7.7929671      3.9666745      3.9666745     -3.8898441e-11 -1.7029042e-10 -1.1475605e-10  8.6999483      13.049935      17.399914      1975.4777    
        35   0             -1528.3299      5.2421054      7.7929671      3.9666745      3.9666745      5.0423905e-11  1.1832172e-10  2.6115292e-11  8.6999483      13.049935      17.399914      1975.4777    
        36   0             -1528.3299      5.2421054      7.7929671      3.9666745      3.9666745     -1.1381396e-10 -1.2967132e-10 -1.7331731e-10  8.6999483      13.049935      17.399914      1975.4777    
        37   0             -1528.3299      5.2421054      7.7929671      3.9666745      3.9666745     -1.0444952e-10  1.4777553e-10  2.7347744e-10  8.6999483      13.049935      17.399914      1975.4777    
        38   0             -1528.3299      5.2421054      7.7929671      3.9666745      3.9666745      1.0084781e-10  1.2446291e-10  1.9285039e-10  8.6999483      13.049935      17.399914      1975.4777    
        39   0             -1528.3299      5.2421054      7.7929671      3.9666745      3.9666745     -2.9534002e-11 -1.5996365e-10 -8.3276989e-11  8.6999483      13.049935      17.399914      1975.4777    
        40   0             -1528.3299      5.2421054      7.7929671      3.9666745      3.9666745     -5.1144247e-11 -1.7241346e-10  3.0643027e-10  8.6999483      13.049935      17.399914      1975.4777    
        41   0             -1528.3299      5.2421054      7.7929671      3.9666745      3.9666745      1.8008538e-11  1.9183032e-10  1.5091172e-10  8.6999483      13.049935      17.399914      1975.4777    
        42   0             -1528.3299      5.2421054      7.7929671      3.9666745      3.9666745      1.6567855e-10 -2.3400547e-10  2.0194843e-10  8.6999483      13.049935      17.399914      1975.4777    
        43   0             -1528.3299      5.2421054      7.7929671      3.9666745      3.9666745     -1.058902e-10  -4.2778859e-10 -2.0881894e-10  8.6999483      13.049935      17.399914      1975.4777    
        44   0             -1528.3299      5.2421054      7.7929671      3.9666745      3.9666745     -5.1144247e-11  2.0162527e-11  4.2709343e-10  8.6999483      13.049935      17.399914      1975.4777    
        45   0             -1528.3299      5.2421054      7.7929671      3.9666745      3.9666745     -7.9237565e-12  4.3280003e-10  4.3358801e-10  8.6999483      13.049935      17.399914      1975.4777    
        46   0             -1528.3299      5.2421054      7.7929671      3.9666745      3.9666745      7.2754492e-11 -2.853087e-11  -7.4819406e-11  8.6999483      13.049935      17.399914      1975.4777    
        47   0             -1528.3299      5.2421054      7.7929671      3.9666745      3.9666745      4.7542539e-11 -1.795606e-10   9.4987242e-11  8.6999483      13.049935      17.399914      1975.4777    
        48   0             -1528.3299      5.2421054      7.7929671      3.9666745      3.9666745     -3.0254343e-11 -2.5925259e-11  1.0595031e-10  8.6999483      13.049935      17.399914      1975.4777    
        49   0             -1528.3299      5.2421054      7.7929671      3.9666745      3.9666745      5.762732e-11  -9.3998938e-11  8.8601367e-12  8.6999483      13.049935      17.399914      1975.4777    
Loop time of 0.108106 on 4 procs for 48 steps with 192 atoms

65.0% CPU use with 4 MPI tasks x 1 OpenMP threads

Minimization stats:
  Stopping criterion = force tolerance
  Energy initial, next-to-last, final = 
     -1528.32994136109  -1528.32994178914  -1528.32994178914
  Force two-norm initial, final = 0.0075080735 7.2651227e-11
  Force max component initial, final = 0.00081997167 9.8654418e-12
  Final line search alpha, max atom move = 1 9.8654418e-12
  Iterations, force evaluations = 48 96

MPI task timing breakdown:
Section |  min time  |  avg time  |  max time  |%varavg| %total
---------------------------------------------------------------
Pair    | 0.098163   | 0.099963   | 0.10379    |   0.7 | 92.47
Neigh   | 0          | 0          | 0          |   0.0 |  0.00
Comm    | 0.003033   | 0.0068613  | 0.008665   |   2.8 |  6.35
Output  | 0.000517   | 0.000579   | 0.000696   |   0.0 |  0.54
Modify  | 0          | 0          | 0          |   0.0 |  0.00
Other   |            | 0.0007025  |            |       |  0.65

Nlocal:             48 ave          50 max          45 min
Histogram: 1 0 0 0 1 0 0 0 0 2
Nghost:            600 ave         603 max         598 min
Histogram: 2 0 0 0 0 0 1 0 0 1
Neighs:           1920 ave        2038 max        1842 min
Histogram: 2 0 0 0 0 1 0 0 0 1
FullNghs:         3840 ave        4000 max        3600 min
Histogram: 1 0 0 0 1 0 0 0 0 2

Total # of neighbors = 15360
Ave neighs/atom = 80
Neighbor list builds = 0
Dangerous builds = 0

# Obtain new stress tensor

variable tmp equal pxx
variable pxx1 equal ${tmp}
variable pxx1 equal 7.79296710526863
variable tmp equal pyy
variable pyy1 equal ${tmp}
variable pyy1 equal 3.96667453064021
variable tmp equal pzz
variable pzz1 equal ${tmp}
variable pzz1 equal 3.96667453035891
variable tmp equal pxy
variable pxy1 equal ${tmp}
variable pxy1 equal 5.76273200277383e-11
variable tmp equal pxz
variable pxz1 equal ${tmp}
variable pxz1 equal -9.39989381272766e-11
variable tmp equal pyz
variable pyz1 equal ${tmp}
variable pyz1 equal 8.86013670333852e-12

# Compute elastic constant from pressure tensor

variable C1neg equal ${d1}
variable C1neg equal 779.296710595364
variable C2neg equal ${d2}
variable C2neg equal 396.667453181906
variable C3neg equal ${d3}
variable C3neg equal 396.667453129801
variable C4neg equal ${d4}
variable C4neg equal -1.08704474739922e-09
variable C5neg equal ${d5}
variable C5neg equal -3.75607161810571e-08
variable C6neg equal ${d6}
variable C6neg equal 1.81542817175669e-08

# Reset box and simulation parameters

clear
  using 1 OpenMP thread(s) per MPI task
Loaded 1 plugins from C:\Program Files\LAMMPS 64-bit 23Jun2022\plugins
Loaded 0 plugins from C:\Program Files\LAMMPS 64-bit 23Jun2022-MPI\plugins
Loaded 1 plugins from C:\Program Files\LAMMPS 64-bit 22Dec2022-MSMPI\plugins
Loaded 1 plugins from C:\Program Files\LAMMPS 64-bit 28Mar2023-MPI\plugins
box tilt large

The 'box' command has been removed and will be ignored

read_restart restart.equil
Reading restart file ...
  restart file = 22 Dec 2022, LAMMPS = 22 Dec 2022
  restoring atom style atomic from restart
  triclinic box = (0.010360751 0.010360751 0.010360751) to (8.7103177 13.060296 17.410275) with tilt (0 0 0)
  1 by 2 by 2 MPI processor grid
  pair style meam stores no restart info
  192 atoms
  read_restart CPU = 0.000 seconds
include potential.mod
# NOTE: This script can be modified for different pair styles
# See in.elastic for more info.

# Choose potential
#-----------------------
#pair_style	sw
#pair_coeff * * Si.sw Si
#-----------------------
#pair_style morse	2.83994742	# D0[eV] a[1/A] r0[A] rc[A], 1NN for BCC
#pair_coeff 1 1	2.1173	1.0202	2.4595	2.6497	#	Fe-Fe
#-----------------------
#pair_style smatb # R0(A)   p       q     A(eV)   xi(eV)  Rcs(A)   Rc(A), 4NN: Rcs=4NN, Rc=(4NN+5NN)/2
#pair_coeff 1 1	2.4802	7.0149	2.3779	0.3144	3.0551	4.033	4.176	#	Co	Co
#-----------------------
#pair_style eam/alloy
#pair_coeff * * AlCrFeCoNi_Zhou04.eam.alloy Fe
#-----------------------
pair_style meam
pair_coeff * * ./../../library.meam W C ./../../WC.meam W C
#-----------------------

# Setup neighbor style
neighbor 1.0 nsq
neigh_modify once no every 1 delay 0 check yes

# Setup minimization style
min_style	     cg
min_modify	     dmax ${dmax} line quadratic
min_modify	     dmax 0.01 line quadratic

# Setup output
thermo		1
thermo_style custom step temp pe press pxx pyy pzz pxy pxz pyz lx ly lz vol
thermo_modify norm no

# Positive deformation

variable delta equal ${up}*${len0}
variable delta equal 1e-06*${len0}
variable delta equal 1e-06*8.6999569959706
variable deltaxy equal ${up}*xy
variable deltaxy equal 1e-06*xy
variable deltaxz equal ${up}*xz
variable deltaxz equal 1e-06*xz
variable deltayz equal ${up}*yz
variable deltayz equal 1e-06*yz
if "${dir} == 1" then    "change_box all x delta 0 ${delta} xy delta ${deltaxy} xz delta ${deltaxz} remap units box"
change_box all x delta 0 ${delta} xy delta ${deltaxy} xz delta ${deltaxz} remap units box
change_box all x delta 0 8.6999569959706e-06 xy delta ${deltaxy} xz delta ${deltaxz} remap units box
change_box all x delta 0 8.6999569959706e-06 xy delta 0 xz delta ${deltaxz} remap units box
change_box all x delta 0 8.6999569959706e-06 xy delta 0 xz delta 0 remap units box
Changing box ...
  triclinic box = (0.010360751 0.010360751 0.010360751) to (8.7103264 13.060296 17.410275) with tilt (0 0 0)
  triclinic box = (0.010360751 0.010360751 0.010360751) to (8.7103264 13.060296 17.410275) with tilt (0 0 0)
  triclinic box = (0.010360751 0.010360751 0.010360751) to (8.7103264 13.060296 17.410275) with tilt (0 0 0)
if "${dir} == 2" then    "change_box all y delta 0 ${delta} yz delta ${deltayz} remap units box"
if "${dir} == 3" then    "change_box all z delta 0 ${delta} remap units box"
if "${dir} == 4" then    "change_box all yz delta ${delta} remap units box"
if "${dir} == 5" then    "change_box all xz delta ${delta} remap units box"
if "${dir} == 6" then    "change_box all xy delta ${delta} remap units box"

# Relax atoms positions

minimize ${etol} ${ftol} ${maxiter} ${maxeval}
minimize 0 ${ftol} ${maxiter} ${maxeval}
minimize 0 1e-10 ${maxiter} ${maxeval}
minimize 0 1e-10 1000 ${maxeval}
minimize 0 1e-10 1000 100000
Neighbor list info ...
  update: every = 1 steps, delay = 0 steps, check = yes
  max neighbors/atom: 2000, page size: 100000
  master list distance cutoff = 5.8
  ghost atom cutoff = 5.8
  2 neighbor lists, perpetual/occasional/extra = 2 0 0
  (1) pair meam, perpetual
      attributes: full, newton on
      pair build: full/nsq
      stencil: none
      bin: none
  (2) pair meam, perpetual, half/full from (1)
      attributes: half, newton on
      pair build: halffull/newton
      stencil: none
      bin: none
Per MPI rank memory allocation (min/avg/max) = 9.871 | 9.875 | 9.877 Mbytes
   Step          Temp          PotEng         Press           Pxx            Pyy            Pzz            Pxy            Pxz            Pyz             Lx             Ly             Lz           Volume    
         1   0             -1528.3299     -5.2417644     -7.7925796     -3.9663669     -3.9663468      2.3420342e-05 -0.00012678694  0.00058575872  8.6999657      13.049935      17.399914      1975.4817    
         2   0             -1528.3299     -5.2419183     -7.7927291     -3.9665223     -3.9665035     -3.6904413e-05 -2.7729216e-05  0.00019624746  8.6999657      13.049935      17.399914      1975.4817    
         3   0             -1528.3299     -5.2419828     -7.7927955     -3.9665803     -3.9665728     -1.3924752e-05 -1.9867626e-05  6.8921848e-05  8.6999657      13.049935      17.399914      1975.4817    
         4   0             -1528.3299     -5.2420288     -7.7928393     -3.9666249     -3.9666222     -1.3955436e-07 -1.1663931e-05  1.0861831e-05  8.6999657      13.049935      17.399914      1975.4817    
         5   0             -1528.3299     -5.2420425     -7.7928507     -3.9666392     -3.9666375     -1.4283731e-06 -2.9481309e-06 -3.0500658e-07  8.6999657      13.049935      17.399914      1975.4817    
         6   0             -1528.3299     -5.2420477     -7.792855      -3.9666444     -3.9666436     -8.1915487e-07 -1.4127043e-06 -2.2162207e-06  8.6999657      13.049935      17.399914      1975.4817    
         7   0             -1528.3299     -5.2420508     -7.7928579     -3.9666473     -3.9666471      1.4630107e-08 -8.09726e-07   -3.0678519e-07  8.6999657      13.049935      17.399914      1975.4817    
         8   0             -1528.3299     -5.2420521     -7.7928591     -3.9666486     -3.9666486      8.5951696e-08 -2.9161661e-07 -1.9682849e-07  8.6999657      13.049935      17.399914      1975.4817    
         9   0             -1528.3299     -5.2420529     -7.7928597     -3.9666494     -3.9666495     -1.0810575e-07  1.9274187e-07 -1.1804593e-07  8.6999657      13.049935      17.399914      1975.4817    
        10   0             -1528.3299     -5.2420533     -7.7928601     -3.9666499     -3.96665       -5.0369058e-08  7.9777415e-08  7.6147862e-08  8.6999657      13.049935      17.399914      1975.4817    
        11   0             -1528.3299     -5.2420535     -7.7928603     -3.9666501     -3.9666502     -1.048599e-08   3.7102142e-08 -3.7440956e-08  8.6999657      13.049935      17.399914      1975.4817    
        12   0             -1528.3299     -5.2420537     -7.7928604     -3.9666503     -3.9666503     -8.350182e-09  -2.6305131e-09  5.4007426e-08  8.6999657      13.049935      17.399914      1975.4817    
        13   0             -1528.3299     -5.2420538     -7.7928605     -3.9666504     -3.9666504     -4.0778451e-09  1.5220245e-08  7.8548259e-09  8.6999657      13.049935      17.399914      1975.4817    
        14   0             -1528.3299     -5.2420539     -7.7928606     -3.9666505     -3.9666505     -6.7596711e-09  4.4357078e-09  2.0779579e-08  8.6999657      13.049935      17.399914      1975.4817    
        15   0             -1528.3299     -5.2420539     -7.7928606     -3.9666505     -3.9666505     -2.5413597e-09  6.5583769e-09  8.8271117e-09  8.6999657      13.049935      17.399914      1975.4817    
        16   0             -1528.3299     -5.2420539     -7.7928606     -3.9666505     -3.9666505     -3.7097513e-10  3.2236765e-10  4.74269e-09    8.6999657      13.049935      17.399914      1975.4817    
        17   0             -1528.3299     -5.2420539     -7.7928607     -3.9666506     -3.9666506      6.1084837e-10 -1.17731e-09   -1.896615e-10   8.6999657      13.049935      17.399914      1975.4817    
        18   0             -1528.3299     -5.2420539     -7.7928607     -3.9666506     -3.9666506      3.2991575e-10 -4.9836558e-10  7.2407021e-10  8.6999657      13.049935      17.399914      1975.4817    
        19   0             -1528.3299     -5.2420539     -7.7928607     -3.9666506     -3.9666506      3.1190725e-10  1.6262662e-10  2.8737097e-10  8.6999657      13.049935      17.399914      1975.4817    
        20   0             -1528.3299     -5.2420539     -7.7928607     -3.9666506     -3.9666506      1.5127141e-11 -5.3983297e-11  2.4753485e-10  8.6999657      13.049935      17.399914      1975.4817    
        21   0             -1528.3299     -5.2420539     -7.7928607     -3.9666506     -3.9666506      6.9152646e-11 -5.0183081e-10 -2.8426934e-10  8.6999657      13.049935      17.399914      1975.4817    
        22   0             -1528.3299     -5.2420539     -7.7928607     -3.9666506     -3.9666506      6.6991626e-11  2.7834812e-10  3.3258613e-10  8.6999657      13.049935      17.399914      1975.4817    
        23   0             -1528.3299     -5.2420539     -7.7928607     -3.9666506     -3.9666506      1.0877135e-10 -1.2445985e-10 -4.7330219e-10  8.6999657      13.049935      17.399914      1975.4817    
        24   0             -1528.3299     -5.2420539     -7.7928607     -3.9666506     -3.9666506      1.1381373e-10 -9.8045035e-11 -3.5156278e-10  8.6999657      13.049935      17.399914      1975.4817    
        25   0             -1528.3299     -5.2420539     -7.7928607     -3.9666506     -3.9666506     -2.2330542e-11 -1.8488119e-10  3.3683009e-10  8.6999657      13.049935      17.399914      1975.4817    
        26   0             -1528.3299     -5.2420539     -7.7928607     -3.9666506     -3.9666506      1.1381373e-10 -1.6530538e-10  2.0168172e-10  8.6999657      13.049935      17.399914      1975.4817    
        27   0             -1528.3299     -5.2420539     -7.7928607     -3.9666506     -3.9666506      7.5635706e-11  2.5946452e-10  1.3091161e-11  8.6999657      13.049935      17.399914      1975.4817    
        28   0             -1528.3299     -5.2420539     -7.7928607     -3.9666506     -3.9666506     -2.6652582e-11 -2.5031817e-11 -1.4929944e-10  8.6999657      13.049935      17.399914      1975.4817    
        29   0             -1528.3299     -5.2420539     -7.7928607     -3.9666506     -3.9666506      1.2677985e-10  6.5981461e-11 -1.1450443e-10  8.6999657      13.049935      17.399914      1975.4817    
        30   0             -1528.3299     -5.2420539     -7.7928607     -3.9666506     -3.9666506     -2.4491562e-11  2.561428e-11  -2.4154545e-10  8.6999657      13.049935      17.399914      1975.4817    
        31   0             -1528.3299     -5.2420539     -7.7928607     -3.9666506     -3.9666506     -5.0423804e-12 -2.7375877e-10  4.7231505e-11  8.6999657      13.049935      17.399914      1975.4817    
        32   0             -1528.3299     -5.2420539     -7.7928607     -3.9666506     -3.9666506     -3.3135643e-11  9.9496971e-12  1.3629548e-10  8.6999657      13.049935      17.399914      1975.4817    
        33   0             -1528.3299     -5.2420539     -7.7928607     -3.9666506     -3.9666506     -1.0156795e-10 -3.5385299e-11  2.2843598e-10  8.6999657      13.049935      17.399914      1975.4817    
        34   0             -1528.3299     -5.2420539     -7.7928607     -3.9666506     -3.9666506      5.6906865e-11 -4.7358138e-11 -1.692632e-10   8.6999657      13.049935      17.399914      1975.4817    
        35   0             -1528.3299     -5.2420539     -7.7928607     -3.9666506     -3.9666506      9.0042507e-11  2.260292e-10  -1.1575685e-10  8.6999657      13.049935      17.399914      1975.4817    
        36   0             -1528.3299     -5.2420539     -7.7928607     -3.9666506     -3.9666506      1.8008501e-11 -3.5200993e-11 -6.1644373e-11  8.6999657      13.049935      17.399914      1975.4817    
        37   0             -1528.3299     -5.2420539     -7.7928607     -3.9666506     -3.9666506     -4.2500064e-11  5.1985479e-11  3.9281945e-11  8.6999657      13.049935      17.399914      1975.4817    
        38   0             -1528.3299     -5.2420539     -7.7928607     -3.9666506     -3.9666506     -3.0974623e-11 -4.2661859e-11 -2.0896528e-10  8.6999657      13.049935      17.399914      1975.4817    
        39   0             -1528.3299     -5.2420539     -7.7928607     -3.9666506     -3.9666506      7.7796726e-11 -4.8787563e-11  3.4145774e-10  8.6999657      13.049935      17.399914      1975.4817    
        40   0             -1528.3299     -5.2420539     -7.7928607     -3.9666506     -3.9666506     -2.9533942e-11  2.2426212e-12  1.4438828e-10  8.6999657      13.049935      17.399914      1975.4817    
        41   0             -1528.3299     -5.2420539     -7.7928607     -3.9666506     -3.9666506     -6.1949245e-11 -4.7659218e-11 -1.6889513e-10  8.6999657      13.049935      17.399914      1975.4817    
        42   0             -1528.3299     -5.2420539     -7.7928607     -3.9666506     -3.9666506     -8.0678087e-11  2.6284533e-10  2.7316903e-10  8.6999657      13.049935      17.399914      1975.4817    
        43   0             -1528.3299     -5.2420539     -7.7928607     -3.9666506     -3.9666506     -1.2966121e-10 -5.4306887e-12 -2.613056e-10   8.6999657      13.049935      17.399914      1975.4817    
        44   0             -1528.3299     -5.2420539     -7.7928607     -3.9666506     -3.9666506      2.3050882e-11  1.2466667e-10  1.6528888e-10  8.6999657      13.049935      17.399914      1975.4817    
        45   0             -1528.3299     -5.2420539     -7.7928607     -3.9666506     -3.9666506     -3.0254283e-11 -7.0203611e-11  2.5970848e-10  8.6999657      13.049935      17.399914      1975.4817    
        46   0             -1528.3299     -5.2420539     -7.7928607     -3.9666506     -3.9666506     -5.8347545e-11  2.4296704e-10 -4.7307777e-10  8.6999657      13.049935      17.399914      1975.4817    
        47   0             -1528.3299     -5.2420539     -7.7928607     -3.9666506     -3.9666506      4.1779723e-11 -5.3938276e-11 -2.9186846e-10  8.6999657      13.049935      17.399914      1975.4817    
        48   0             -1528.3299     -5.2420539     -7.7928607     -3.9666506     -3.9666506     -1.0156795e-10  2.252146e-10  -1.9921005e-10  8.6999657      13.049935      17.399914      1975.4817    
        49   0             -1528.3299     -5.2420539     -7.7928607     -3.9666506     -3.9666506     -8.7161147e-11 -2.6419879e-10 -2.1488184e-10  8.6999657      13.049935      17.399914      1975.4817    
Loop time of 0.0975005 on 4 procs for 48 steps with 192 atoms

48.1% CPU use with 4 MPI tasks x 1 OpenMP threads

Minimization stats:
  Stopping criterion = force tolerance
  Energy initial, next-to-last, final = 
     -1528.32994136109  -1528.32994178914  -1528.32994178914
  Force two-norm initial, final = 0.0075080638 7.2682381e-11
  Force max component initial, final = 0.0008199704 9.8343321e-12
  Final line search alpha, max atom move = 1 9.8343321e-12
  Iterations, force evaluations = 48 96

MPI task timing breakdown:
Section |  min time  |  avg time  |  max time  |%varavg| %total
---------------------------------------------------------------
Pair    | 0.090327   | 0.092264   | 0.094191   |   0.5 | 94.63
Neigh   | 0          | 0          | 0          |   0.0 |  0.00
Comm    | 0.002093   | 0.004006   | 0.005936   |   2.3 |  4.11
Output  | 0.000526   | 0.00056075 | 0.000665   |   0.0 |  0.58
Modify  | 0          | 0          | 0          |   0.0 |  0.00
Other   |            | 0.0006698  |            |       |  0.69

Nlocal:             48 ave          50 max          45 min
Histogram: 1 0 0 0 1 0 0 0 0 2
Nghost:            600 ave         603 max         598 min
Histogram: 2 0 0 0 0 0 1 0 0 1
Neighs:           1920 ave        2038 max        1842 min
Histogram: 2 0 0 0 0 1 0 0 0 1
FullNghs:         3840 ave        4000 max        3600 min
Histogram: 1 0 0 0 1 0 0 0 0 2

Total # of neighbors = 15360
Ave neighs/atom = 80
Neighbor list builds = 0
Dangerous builds = 0

# Obtain new stress tensor

variable tmp equal pe
variable e1 equal ${tmp}
variable e1 equal -1528.32994178914
variable tmp equal press
variable p1 equal ${tmp}
variable p1 equal -5.2420539310831
variable tmp equal pxx
variable pxx1 equal ${tmp}
variable pxx1 equal -7.7928606616934
variable tmp equal pyy
variable pyy1 equal ${tmp}
variable pyy1 equal -3.96665056556567
variable tmp equal pzz
variable pzz1 equal ${tmp}
variable pzz1 equal -3.96665056599022
variable tmp equal pxy
variable pxy1 equal ${tmp}
variable pxy1 equal -8.71611472194854e-11
variable tmp equal pxz
variable pxz1 equal ${tmp}
variable pxz1 equal -2.64198786023991e-10
variable tmp equal pyz
variable pyz1 equal ${tmp}
variable pyz1 equal -2.14881838603233e-10

# Compute elastic constant from pressure tensor

variable C1pos equal ${d1}
variable C1pos equal 779.28606610084
variable C2pos equal ${d2}
variable C2pos equal 396.665056438682
variable C3pos equal ${d3}
variable C3pos equal 396.665056505112
variable C4pos equal ${d4}
variable C4pos equal 2.34612422780564e-08
variable C5pos equal ${d5}
variable C5pos equal 5.45807009707285e-08
variable C6pos equal ${d6}
variable C6pos equal -3.67543499284456e-09

# Combine positive and negative

variable C1${dir} equal 0.5*(${C1neg}+${C1pos})
variable C11 equal 0.5*(${C1neg}+${C1pos})
variable C11 equal 0.5*(779.296710595364+${C1pos})
variable C11 equal 0.5*(779.296710595364+779.28606610084)
variable C2${dir} equal 0.5*(${C2neg}+${C2pos})
variable C21 equal 0.5*(${C2neg}+${C2pos})
variable C21 equal 0.5*(396.667453181906+${C2pos})
variable C21 equal 0.5*(396.667453181906+396.665056438682)
variable C3${dir} equal 0.5*(${C3neg}+${C3pos})
variable C31 equal 0.5*(${C3neg}+${C3pos})
variable C31 equal 0.5*(396.667453129801+${C3pos})
variable C31 equal 0.5*(396.667453129801+396.665056505112)
variable C4${dir} equal 0.5*(${C4neg}+${C4pos})
variable C41 equal 0.5*(${C4neg}+${C4pos})
variable C41 equal 0.5*(-1.08704474739922e-09+${C4pos})
variable C41 equal 0.5*(-1.08704474739922e-09+2.34612422780564e-08)
variable C5${dir} equal 0.5*(${C5neg}+${C5pos})
variable C51 equal 0.5*(${C5neg}+${C5pos})
variable C51 equal 0.5*(-3.75607161810571e-08+${C5pos})
variable C51 equal 0.5*(-3.75607161810571e-08+5.45807009707285e-08)
variable C6${dir} equal 0.5*(${C6neg}+${C6pos})
variable C61 equal 0.5*(${C6neg}+${C6pos})
variable C61 equal 0.5*(1.81542817175669e-08+${C6pos})
variable C61 equal 0.5*(1.81542817175669e-08+-3.67543499284456e-09)

# Delete dir to make sure it is not reused

variable dir delete

# uyy Perturbation

variable dir equal 2
include displace.mod
# NOTE: This script should not need to be
# modified. See in.elastic for more info.
#
# Find which reference length to use

if "${dir} == 1" then    "variable len0 equal ${lx0}"
if "${dir} == 2" then    "variable len0 equal ${ly0}"
variable len0 equal ${ly0}
variable len0 equal 13.0499354939559
if "${dir} == 3" then    "variable len0 equal ${lz0}"
if "${dir} == 4" then    "variable len0 equal ${lz0}"
if "${dir} == 5" then    "variable len0 equal ${lz0}"
if "${dir} == 6" then    "variable len0 equal ${ly0}"

# Reset box and simulation parameters

clear
  using 1 OpenMP thread(s) per MPI task
Loaded 1 plugins from C:\Program Files\LAMMPS 64-bit 23Jun2022\plugins
Loaded 0 plugins from C:\Program Files\LAMMPS 64-bit 23Jun2022-MPI\plugins
Loaded 1 plugins from C:\Program Files\LAMMPS 64-bit 22Dec2022-MSMPI\plugins
Loaded 1 plugins from C:\Program Files\LAMMPS 64-bit 28Mar2023-MPI\plugins
box tilt large

The 'box' command has been removed and will be ignored

read_restart restart.equil
Reading restart file ...
  restart file = 22 Dec 2022, LAMMPS = 22 Dec 2022
  restoring atom style atomic from restart
  triclinic box = (0.010360751 0.010360751 0.010360751) to (8.7103177 13.060296 17.410275) with tilt (0 0 0)
  1 by 2 by 2 MPI processor grid
  pair style meam stores no restart info
  192 atoms
  read_restart CPU = 0.000 seconds
include potential.mod
# NOTE: This script can be modified for different pair styles
# See in.elastic for more info.

# Choose potential
#-----------------------
#pair_style	sw
#pair_coeff * * Si.sw Si
#-----------------------
#pair_style morse	2.83994742	# D0[eV] a[1/A] r0[A] rc[A], 1NN for BCC
#pair_coeff 1 1	2.1173	1.0202	2.4595	2.6497	#	Fe-Fe
#-----------------------
#pair_style smatb # R0(A)   p       q     A(eV)   xi(eV)  Rcs(A)   Rc(A), 4NN: Rcs=4NN, Rc=(4NN+5NN)/2
#pair_coeff 1 1	2.4802	7.0149	2.3779	0.3144	3.0551	4.033	4.176	#	Co	Co
#-----------------------
#pair_style eam/alloy
#pair_coeff * * AlCrFeCoNi_Zhou04.eam.alloy Fe
#-----------------------
pair_style meam
pair_coeff * * ./../../library.meam W C ./../../WC.meam W C
#-----------------------

# Setup neighbor style
neighbor 1.0 nsq
neigh_modify once no every 1 delay 0 check yes

# Setup minimization style
min_style	     cg
min_modify	     dmax ${dmax} line quadratic
min_modify	     dmax 0.01 line quadratic

# Setup output
thermo		1
thermo_style custom step temp pe press pxx pyy pzz pxy pxz pyz lx ly lz vol
thermo_modify norm no

# Negative deformation

variable delta equal -${up}*${len0}
variable delta equal -1e-06*${len0}
variable delta equal -1e-06*13.0499354939559
variable deltaxy equal -${up}*xy
variable deltaxy equal -1e-06*xy
variable deltaxz equal -${up}*xz
variable deltaxz equal -1e-06*xz
variable deltayz equal -${up}*yz
variable deltayz equal -1e-06*yz
if "${dir} == 1" then    "change_box all x delta 0 ${delta} xy delta ${deltaxy} xz delta ${deltaxz} remap units box"
if "${dir} == 2" then    "change_box all y delta 0 ${delta} yz delta ${deltayz} remap units box"
change_box all y delta 0 ${delta} yz delta ${deltayz} remap units box
change_box all y delta 0 -1.30499354939559e-05 yz delta ${deltayz} remap units box
change_box all y delta 0 -1.30499354939559e-05 yz delta -0 remap units box
Changing box ...
  triclinic box = (0.010360751 0.010360751 0.010360751) to (8.7103177 13.060283 17.410275) with tilt (0 0 0)
  triclinic box = (0.010360751 0.010360751 0.010360751) to (8.7103177 13.060283 17.410275) with tilt (0 0 0)
if "${dir} == 3" then    "change_box all z delta 0 ${delta} remap units box"
if "${dir} == 4" then    "change_box all yz delta ${delta} remap units box"
if "${dir} == 5" then    "change_box all xz delta ${delta} remap units box"
if "${dir} == 6" then    "change_box all xy delta ${delta} remap units box"

# Relax atoms positions

minimize ${etol} ${ftol} ${maxiter} ${maxeval}
minimize 0 ${ftol} ${maxiter} ${maxeval}
minimize 0 1e-10 ${maxiter} ${maxeval}
minimize 0 1e-10 1000 ${maxeval}
minimize 0 1e-10 1000 100000
Neighbor list info ...
  update: every = 1 steps, delay = 0 steps, check = yes
  max neighbors/atom: 2000, page size: 100000
  master list distance cutoff = 5.8
  ghost atom cutoff = 5.8
  2 neighbor lists, perpetual/occasional/extra = 2 0 0
  (1) pair meam, perpetual
      attributes: full, newton on
      pair build: full/nsq
      stencil: none
      bin: none
  (2) pair meam, perpetual, half/full from (1)
      attributes: half, newton on
      pair build: halffull/newton
      stencil: none
      bin: none
Per MPI rank memory allocation (min/avg/max) = 9.871 | 9.875 | 9.877 Mbytes
   Step          Temp          PotEng         Press           Pxx            Pyy            Pzz            Pxy            Pxz            Pyz             Lx             Ly             Lz           Volume    
         1   0             -1528.3299      5.2423949      3.9669556      7.7932508      3.9669783      2.34203e-05   -0.00012678652  0.00058575924  8.699957       13.049922      17.399914      1975.4777    
         2   0             -1528.3299      5.242241       3.9668061      7.7930953      3.9668216     -3.6904822e-05 -2.772867e-05   0.0001962471   8.699957       13.049922      17.399914      1975.4777    
         3   0             -1528.3299      5.2421765      3.9667397      7.7930374      3.9667523     -1.3925188e-05 -1.9867509e-05  6.8921146e-05  8.699957       13.049922      17.399914      1975.4777    
         4   0             -1528.3299      5.2421305      3.9666959      7.7929927      3.9667029     -1.4019718e-07 -1.1663659e-05  1.0861718e-05  8.699957       13.049922      17.399914      1975.4777    
         5   0             -1528.3299      5.2421168      3.9666845      7.7929785      3.9666876     -1.4288982e-06 -2.9483013e-06 -3.0474614e-07  8.699957       13.049922      17.399914      1975.4777    
         6   0             -1528.3299      5.2421116      3.9666802      7.7929733      3.9666815     -8.1940502e-07 -1.4126839e-06 -2.2152616e-06  8.699957       13.049922      17.399914      1975.4777    
         7   0             -1528.3299      5.2421085      3.9666773      7.7929703      3.966678       1.4481025e-08 -8.0992258e-07 -3.0671808e-07  8.699957       13.049922      17.399914      1975.4777    
         8   0             -1528.3299      5.2421072      3.9666761      7.792969       3.9666765      8.5843817e-08 -2.9145108e-07 -1.9654891e-07  8.699957       13.049922      17.399914      1975.4777    
         9   0             -1528.3299      5.2421064      3.9666755      7.7929682      3.9666756     -1.0811173e-07  1.9279853e-07 -1.1821153e-07  8.699957       13.049922      17.399914      1975.4777    
        10   0             -1528.3299      5.242106       3.9666751      7.7929678      3.9666751     -5.0273354e-08  8.0048909e-08  7.6142206e-08  8.699957       13.049922      17.399914      1975.4777    
        11   0             -1528.3299      5.2421058      3.9666749      7.7929675      3.9666749     -1.0638003e-08  3.7076668e-08 -3.7823514e-08  8.699957       13.049922      17.399914      1975.4777    
        12   0             -1528.3299      5.2421056      3.9666747      7.7929674      3.9666748     -8.3206647e-09 -2.6949214e-09  5.3913695e-08  8.699957       13.049922      17.399914      1975.4777    
        13   0             -1528.3299      5.2421055      3.9666747      7.7929672      3.9666747     -3.9806071e-09  1.4782706e-08  7.9412742e-09  8.699957       13.049922      17.399914      1975.4777    
        14   0             -1528.3299      5.2421055      3.9666746      7.7929672      3.9666746     -6.8180323e-09  4.5230102e-09  2.0545755e-08  8.699957       13.049922      17.399914      1975.4777    
        15   0             -1528.3299      5.2421054      3.9666746      7.7929671      3.9666746     -2.586026e-09   6.5203047e-09  8.259158e-09   8.699957       13.049922      17.399914      1975.4777    
        16   0             -1528.3299      5.2421054      3.9666745      7.7929671      3.9666745     -4.8406949e-10  1.3846455e-10  5.154562e-09   8.699957       13.049922      17.399914      1975.4777    
        17   0             -1528.3299      5.2421054      3.9666745      7.7929671      3.9666745      6.1084959e-10 -8.4704422e-10 -2.2581466e-10  8.699957       13.049922      17.399914      1975.4777    
        18   0             -1528.3299      5.2421054      3.9666745      7.7929671      3.9666745      4.149167e-10  -4.8170305e-10  3.765943e-10   8.699957       13.049922      17.399914      1975.4777    
        19   0             -1528.3299      5.2421054      3.9666745      7.7929671      3.9666745      1.7792435e-10 -7.5396682e-11 -2.0003841e-10  8.699957       13.049922      17.399914      1975.4777    
        20   0             -1528.3299      5.2421054      3.9666745      7.7929671      3.9666745     -9.8686786e-11  7.4331645e-11  4.9373823e-10  8.699957       13.049922      17.399914      1975.4777    
        21   0             -1528.3299      5.2421054      3.9666745      7.7929671      3.9666745      1.6351752e-10 -9.4388654e-11 -6.0377248e-10  8.699957       13.049922      17.399914      1975.4777    
        22   0             -1528.3299      5.2421054      3.9666745      7.7929671      3.9666745      1.527124e-10  -2.5728432e-10  2.1125237e-10  8.699957       13.049922      17.399914      1975.4777    
        23   0             -1528.3299      5.2421054      3.9666745      7.7929671      3.9666745      2.0889904e-11  7.9893188e-11  8.7453521e-12  8.699957       13.049922      17.399914      1975.4777    
        24   0             -1528.3299      5.2421054      3.9666745      7.7929671      3.9666745      8.7881663e-11 -2.8162257e-11 -4.8640282e-10  8.699957       13.049922      17.399914      1975.4777    
        25   0             -1528.3299      5.2421054      3.9666745      7.7929671      3.9666745     -2.0889904e-11 -1.5866225e-10  7.1053584e-11  8.699957       13.049922      17.399914      1975.4777    
        26   0             -1528.3299      5.2421054      3.9666745      7.7929671      3.9666745     -1.0805123e-10  1.4468594e-10 -2.5069832e-10  8.699957       13.049922      17.399914      1975.4777    
        27   0             -1528.3299      5.2421054      3.9666745      7.7929671      3.9666745      7.203415e-13  -2.4801273e-10  6.2887992e-11  8.699957       13.049922      17.399914      1975.4777    
        28   0             -1528.3299      5.2421054      3.9666745      7.7929671      3.9666745      8.8602005e-11 -7.7795475e-11  4.5094976e-11  8.699957       13.049922      17.399914      1975.4777    
        29   0             -1528.3299      5.2421054      3.9666745      7.7929671      3.9666745      5.9788345e-11 -7.4154374e-11 -5.8995586e-10  8.699957       13.049922      17.399914      1975.4777    
        30   0             -1528.3299      5.2421054      3.9666745      7.7929671      3.9666745     -2.0601767e-10  1.5297831e-10  7.5776923e-11  8.699957       13.049922      17.399914      1975.4777    
        31   0             -1528.3299      5.2421054      3.9666745      7.7929671      3.9666745     -2.377127e-11  -4.4948184e-11 -2.0448149e-10  8.699957       13.049922      17.399914      1975.4777    
        32   0             -1528.3299      5.2421054      3.9666745      7.7929671      3.9666745     -8.0678248e-11  3.5648463e-11 -8.1804617e-11  8.699957       13.049922      17.399914      1975.4777    
        33   0             -1528.3299      5.2421054      3.9666745      7.7929671      3.9666745     -2.9534002e-11  4.0718992e-11  1.7774549e-10  8.699957       13.049922      17.399914      1975.4777    
        34   0             -1528.3299      5.2421054      3.9666745      7.7929671      3.9666745      6.3390052e-11 -1.3724053e-10  7.33594e-11    8.699957       13.049922      17.399914      1975.4777    
        35   0             -1528.3299      5.2421054      3.9666745      7.7929671      3.9666745      1.9449221e-11  1.5413901e-10 -4.211528e-11   8.699957       13.049922      17.399914      1975.4777    
        36   0             -1528.3299      5.2421054      3.9666745      7.7929671      3.9666745      3.5296734e-11 -3.4819226e-10 -4.4708916e-10  8.699957       13.049922      17.399914      1975.4777    
        37   0             -1528.3299      5.2421054      3.9666745      7.7929671      3.9666745      5.0423905e-12 -4.6006186e-13 -7.2741906e-11  8.699957       13.049922      17.399914      1975.4777    
        38   0             -1528.3299      5.2421054      3.9666745      7.7929671      3.9666745      4.0339124e-11 -2.1487843e-11 -2.4567232e-10  8.699957       13.049922      17.399914      1975.4777    
        39   0             -1528.3299      5.2421054      3.9666745      7.7929671      3.9666745      7.9237565e-12 -2.4121592e-11 -3.8791368e-10  8.699957       13.049922      17.399914      1975.4777    
        40   0             -1528.3299      5.2421054      3.9666745      7.7929671      3.9666745     -4.4661173e-11  3.1611174e-10  2.7148426e-10  8.699957       13.049922      17.399914      1975.4777    
        41   0             -1528.3299      5.2421054      3.9666745      7.7929671      3.9666745      3.6017075e-12  2.4479652e-10 -9.0406233e-11  8.699957       13.049922      17.399914      1975.4777    
        42   0             -1528.3299      5.2421054      3.9666745      7.7929671      3.9666745     -5.0423905e-12  3.22796e-10    4.430656e-10   8.699957       13.049922      17.399914      1975.4777    
        43   0             -1528.3299      5.2421054      3.9666745      7.7929671      3.9666745      1.440683e-12   1.2286747e-10  2.0196821e-10  8.699957       13.049922      17.399914      1975.4777    
        44   0             -1528.3299      5.2421054      3.9666745      7.7929671      3.9666745      8.139859e-11   2.1454077e-10  1.4674327e-10  8.699957       13.049922      17.399914      1975.4777    
        45   0             -1528.3299      5.2421054      3.9666745      7.7929671      3.9666745     -7.9237565e-11  2.5730401e-10  2.4778421e-10  8.699957       13.049922      17.399914      1975.4777    
        46   0             -1528.3299      5.2421054      3.9666745      7.7929671      3.9666745      4.8262881e-11 -2.2500964e-10 -7.2050736e-11  8.699957       13.049922      17.399914      1975.4777    
        47   0             -1528.3299      5.2421054      3.9666745      7.7929671      3.9666745      1.5559376e-10 -2.5646408e-10 -3.0172807e-10  8.699957       13.049922      17.399914      1975.4777    
        48   0             -1528.3299      5.2421054      3.9666745      7.7929671      3.9666745      1.0156815e-10 -1.293829e-10   2.5757502e-10  8.699957       13.049922      17.399914      1975.4777    
        49   0             -1528.3299      5.2421054      3.9666745      7.7929671      3.9666745     -1.1957669e-10  1.1270671e-10  4.043801e-10   8.699957       13.049922      17.399914      1975.4777    
Loop time of 0.100486 on 4 procs for 48 steps with 192 atoms

50.5% CPU use with 4 MPI tasks x 1 OpenMP threads

Minimization stats:
  Stopping criterion = force tolerance
  Energy initial, next-to-last, final = 
     -1528.32994136109  -1528.32994178914  -1528.32994178914
  Force two-norm initial, final = 0.0075080738 7.2679206e-11
  Force max component initial, final = 0.00081997151 9.7644566e-12
  Final line search alpha, max atom move = 1 9.7644566e-12
  Iterations, force evaluations = 48 96

MPI task timing breakdown:
Section |  min time  |  avg time  |  max time  |%varavg| %total
---------------------------------------------------------------
Pair    | 0.091959   | 0.093913   | 0.096625   |   0.6 | 93.46
Neigh   | 0          | 0          | 0          |   0.0 |  0.00
Comm    | 0.002505   | 0.0052128  | 0.007155   |   2.5 |  5.19
Output  | 0.000514   | 0.0005465  | 0.000623   |   0.0 |  0.54
Modify  | 0          | 0          | 0          |   0.0 |  0.00
Other   |            | 0.0008135  |            |       |  0.81

Nlocal:             48 ave          50 max          45 min
Histogram: 1 0 0 0 1 0 0 0 0 2
Nghost:            600 ave         603 max         598 min
Histogram: 2 0 0 0 0 0 1 0 0 1
Neighs:           1920 ave        2038 max        1842 min
Histogram: 2 0 0 0 0 1 0 0 0 1
FullNghs:         3840 ave        4000 max        3600 min
Histogram: 1 0 0 0 1 0 0 0 0 2

Total # of neighbors = 15360
Ave neighs/atom = 80
Neighbor list builds = 0
Dangerous builds = 0

# Obtain new stress tensor

variable tmp equal pxx
variable pxx1 equal ${tmp}
variable pxx1 equal 3.96667453057402
variable tmp equal pyy
variable pyy1 equal ${tmp}
variable pyy1 equal 7.79296710386963
variable tmp equal pzz
variable pzz1 equal ${tmp}
variable pzz1 equal 3.96667453017117
variable tmp equal pxy
variable pxy1 equal ${tmp}
variable pxy1 equal -1.19576689057557e-10
variable tmp equal pxz
variable pxz1 equal ${tmp}
variable pxz1 equal 1.12706713381399e-10
variable tmp equal pyz
variable pyz1 equal ${tmp}
variable pyz1 equal 4.0438010499245e-10

# Compute elastic constant from pressure tensor

variable C1neg equal ${d1}
variable C1neg equal 396.667453125903
variable C2neg equal ${d2}
variable C2neg equal 779.296710504848
variable C3neg equal ${d3}
variable C3neg equal 396.667453111027
variable C4neg equal ${d4}
variable C4neg equal 3.84649520815119e-08
variable C5neg equal ${d5}
variable C5neg equal -1.68901510301895e-08
variable C6neg equal ${d6}
variable C6neg equal 4.338808090374e-10

# Reset box and simulation parameters

clear
  using 1 OpenMP thread(s) per MPI task
Loaded 1 plugins from C:\Program Files\LAMMPS 64-bit 23Jun2022\plugins
Loaded 0 plugins from C:\Program Files\LAMMPS 64-bit 23Jun2022-MPI\plugins
Loaded 1 plugins from C:\Program Files\LAMMPS 64-bit 22Dec2022-MSMPI\plugins
Loaded 1 plugins from C:\Program Files\LAMMPS 64-bit 28Mar2023-MPI\plugins
box tilt large

The 'box' command has been removed and will be ignored

read_restart restart.equil
Reading restart file ...
  restart file = 22 Dec 2022, LAMMPS = 22 Dec 2022
  restoring atom style atomic from restart
  triclinic box = (0.010360751 0.010360751 0.010360751) to (8.7103177 13.060296 17.410275) with tilt (0 0 0)
  1 by 2 by 2 MPI processor grid
  pair style meam stores no restart info
  192 atoms
  read_restart CPU = 0.000 seconds
include potential.mod
# NOTE: This script can be modified for different pair styles
# See in.elastic for more info.

# Choose potential
#-----------------------
#pair_style	sw
#pair_coeff * * Si.sw Si
#-----------------------
#pair_style morse	2.83994742	# D0[eV] a[1/A] r0[A] rc[A], 1NN for BCC
#pair_coeff 1 1	2.1173	1.0202	2.4595	2.6497	#	Fe-Fe
#-----------------------
#pair_style smatb # R0(A)   p       q     A(eV)   xi(eV)  Rcs(A)   Rc(A), 4NN: Rcs=4NN, Rc=(4NN+5NN)/2
#pair_coeff 1 1	2.4802	7.0149	2.3779	0.3144	3.0551	4.033	4.176	#	Co	Co
#-----------------------
#pair_style eam/alloy
#pair_coeff * * AlCrFeCoNi_Zhou04.eam.alloy Fe
#-----------------------
pair_style meam
pair_coeff * * ./../../library.meam W C ./../../WC.meam W C
#-----------------------

# Setup neighbor style
neighbor 1.0 nsq
neigh_modify once no every 1 delay 0 check yes

# Setup minimization style
min_style	     cg
min_modify	     dmax ${dmax} line quadratic
min_modify	     dmax 0.01 line quadratic

# Setup output
thermo		1
thermo_style custom step temp pe press pxx pyy pzz pxy pxz pyz lx ly lz vol
thermo_modify norm no

# Positive deformation

variable delta equal ${up}*${len0}
variable delta equal 1e-06*${len0}
variable delta equal 1e-06*13.0499354939559
variable deltaxy equal ${up}*xy
variable deltaxy equal 1e-06*xy
variable deltaxz equal ${up}*xz
variable deltaxz equal 1e-06*xz
variable deltayz equal ${up}*yz
variable deltayz equal 1e-06*yz
if "${dir} == 1" then    "change_box all x delta 0 ${delta} xy delta ${deltaxy} xz delta ${deltaxz} remap units box"
if "${dir} == 2" then    "change_box all y delta 0 ${delta} yz delta ${deltayz} remap units box"
change_box all y delta 0 ${delta} yz delta ${deltayz} remap units box
change_box all y delta 0 1.30499354939559e-05 yz delta ${deltayz} remap units box
change_box all y delta 0 1.30499354939559e-05 yz delta 0 remap units box
Changing box ...
  triclinic box = (0.010360751 0.010360751 0.010360751) to (8.7103177 13.060309 17.410275) with tilt (0 0 0)
  triclinic box = (0.010360751 0.010360751 0.010360751) to (8.7103177 13.060309 17.410275) with tilt (0 0 0)
if "${dir} == 3" then    "change_box all z delta 0 ${delta} remap units box"
if "${dir} == 4" then    "change_box all yz delta ${delta} remap units box"
if "${dir} == 5" then    "change_box all xz delta ${delta} remap units box"
if "${dir} == 6" then    "change_box all xy delta ${delta} remap units box"

# Relax atoms positions

minimize ${etol} ${ftol} ${maxiter} ${maxeval}
minimize 0 ${ftol} ${maxiter} ${maxeval}
minimize 0 1e-10 ${maxiter} ${maxeval}
minimize 0 1e-10 1000 ${maxeval}
minimize 0 1e-10 1000 100000
Neighbor list info ...
  update: every = 1 steps, delay = 0 steps, check = yes
  max neighbors/atom: 2000, page size: 100000
  master list distance cutoff = 5.8
  ghost atom cutoff = 5.8
  2 neighbor lists, perpetual/occasional/extra = 2 0 0
  (1) pair meam, perpetual
      attributes: full, newton on
      pair build: full/nsq
      stencil: none
      bin: none
  (2) pair meam, perpetual, half/full from (1)
      attributes: half, newton on
      pair build: halffull/newton
      stencil: none
      bin: none
Per MPI rank memory allocation (min/avg/max) = 9.871 | 9.875 | 9.877 Mbytes
   Step          Temp          PotEng         Press           Pxx            Pyy            Pzz            Pxy            Pxz            Pyz             Lx             Ly             Lz           Volume    
         1   0             -1528.3299     -5.2417644     -3.9663695     -7.792577      -3.9663468      2.3421095e-05 -0.00012678658  0.00058575901  8.699957       13.049949      17.399914      1975.4817    
         2   0             -1528.3299     -5.2419183     -3.966519      -7.7927324     -3.9665035     -3.6904401e-05 -2.77286e-05    0.0001962482   8.699957       13.049949      17.399914      1975.4817    
         3   0             -1528.3299     -5.2419828     -3.9665854     -7.7927904     -3.9665728     -1.3924648e-05 -1.9867239e-05  6.8922419e-05  8.699957       13.049949      17.399914      1975.4817    
         4   0             -1528.3299     -5.2420288     -3.9666292     -7.792835      -3.9666222     -1.3929792e-07 -1.1664105e-05  1.0861916e-05  8.699957       13.049949      17.399914      1975.4817    
         5   0             -1528.3299     -5.2420425     -3.9666406     -7.7928493     -3.9666375     -1.4284725e-06 -2.9479895e-06 -3.0510958e-07  8.699957       13.049949      17.399914      1975.4817    
         6   0             -1528.3299     -5.2420477     -3.9666449     -7.7928545     -3.9666436     -8.1899711e-07 -1.4124117e-06 -2.2157892e-06  8.699957       13.049949      17.399914      1975.4817    
         7   0             -1528.3299     -5.2420508     -3.9666478     -7.7928574     -3.9666471      1.4746802e-08 -8.0965044e-07 -3.0695053e-07  8.699957       13.049949      17.399914      1975.4817    
         8   0             -1528.3299     -5.2420521     -3.966649      -7.7928587     -3.9666486      8.5910637e-08 -2.9151402e-07 -1.9700209e-07  8.699957       13.049949      17.399914      1975.4817    
         9   0             -1528.3299     -5.2420529     -3.9666496     -7.7928595     -3.9666495     -1.0805965e-07  1.9255982e-07 -1.1839375e-07  8.699957       13.049949      17.399914      1975.4817    
        10   0             -1528.3299     -5.2420533     -3.96665       -7.79286       -3.96665       -5.0327999e-08  7.9789855e-08  7.5453443e-08  8.699957       13.049949      17.399914      1975.4817    
        11   0             -1528.3299     -5.2420535     -3.9666502     -7.7928602     -3.9666502     -1.0502558e-08  3.6945241e-08 -3.7443946e-08  8.699957       13.049949      17.399914      1975.4817    
        12   0             -1528.3299     -5.2420537     -3.9666504     -7.7928604     -3.9666503     -8.2702242e-09 -2.5644866e-09  5.3968572e-08  8.699957       13.049949      17.399914      1975.4817    
        13   0             -1528.3299     -5.2420538     -3.9666504     -7.7928605     -3.9666504     -4.1628452e-09  1.4899176e-08  7.7068954e-09  8.699957       13.049949      17.399914      1975.4817    
        14   0             -1528.3299     -5.2420539     -3.9666505     -7.7928606     -3.9666505     -6.5853488e-09  4.5870566e-09  2.0153852e-08  8.699957       13.049949      17.399914      1975.4817    
        15   0             -1528.3299     -5.2420539     -3.9666505     -7.7928606     -3.9666505     -2.5773767e-09  6.4206132e-09  8.2466336e-09  8.699957       13.049949      17.399914      1975.4817    
        16   0             -1528.3299     -5.2420539     -3.9666505     -7.7928606     -3.9666505     -4.0555145e-10  1.1400226e-11  5.2259661e-09  8.699957       13.049949      17.399914      1975.4817    
        17   0             -1528.3299     -5.2420539     -3.9666506     -7.7928607     -3.9666506      5.2368722e-10 -9.8138736e-10 -5.8216258e-10  8.699957       13.049949      17.399914      1975.4817    
        18   0             -1528.3299     -5.2420539     -3.9666506     -7.7928607     -3.9666506      2.967801e-10  -7.4056726e-10  4.2648224e-10  8.699957       13.049949      17.399914      1975.4817    
        19   0             -1528.3299     -5.2420539     -3.9666506     -7.7928607     -3.9666506      2.6724616e-10  1.7282393e-10 -1.0832693e-10  8.699957       13.049949      17.399914      1975.4817    
        20   0             -1528.3299     -5.2420539     -3.9666506     -7.7928607     -3.9666506      6.4110265e-11  4.4444419e-12  5.8955215e-10  8.699957       13.049949      17.399914      1975.4817    
        21   0             -1528.3299     -5.2420539     -3.9666506     -7.7928607     -3.9666506      2.6220378e-10  1.2286159e-10 -2.34408e-10    8.699957       13.049949      17.399914      1975.4817    
        22   0             -1528.3299     -5.2420539     -3.9666506     -7.7928607     -3.9666506      3.6737343e-11  1.1800493e-10  9.2178863e-11  8.699957       13.049949      17.399914      1975.4817    
        23   0             -1528.3299     -5.2420539     -3.9666506     -7.7928607     -3.9666506      5.1864484e-11  1.018634e-10  -4.7036574e-10  8.699957       13.049949      17.399914      1975.4817    
        24   0             -1528.3299     -5.2420539     -3.9666506     -7.7928607     -3.9666506     -8.1398427e-11  2.1447844e-10  3.7971482e-10  8.699957       13.049949      17.399914      1975.4817    
        25   0             -1528.3299     -5.2420539     -3.9666506     -7.7928607     -3.9666506     -1.3974597e-10  1.080904e-10  -1.5848205e-10  8.699957       13.049949      17.399914      1975.4817    
        26   0             -1528.3299     -5.2420539     -3.9666506     -7.7928607     -3.9666506      8.2839107e-11 -4.985119e-11  -3.9896107e-11  8.699957       13.049949      17.399914      1975.4817    
        27   0             -1528.3299     -5.2420539     -3.9666506     -7.7928607     -3.9666506      1.4406801e-11 -1.6749595e-10 -1.9039521e-10  8.699957       13.049949      17.399914      1975.4817    
        28   0             -1528.3299     -5.2420539     -3.9666506     -7.7928607     -3.9666506     -3.0254283e-11 -2.2688461e-10 -9.9079128e-11  8.699957       13.049949      17.399914      1975.4817    
        29   0             -1528.3299     -5.2420539     -3.9666506     -7.7928607     -3.9666506     -5.9788225e-11 -9.3136312e-11  3.0830279e-10  8.699957       13.049949      17.399914      1975.4817    
        30   0             -1528.3299     -5.2420539     -3.9666506     -7.7928607     -3.9666506     -5.9067885e-11  2.3039345e-10  9.1173458e-11  8.699957       13.049949      17.399914      1975.4817    
        31   0             -1528.3299     -5.2420539     -3.9666506     -7.7928607     -3.9666506      1.2966121e-10  1.0934537e-11 -1.2482553e-10  8.699957       13.049949      17.399914      1975.4817    
        32   0             -1528.3299     -5.2420539     -3.9666506     -7.7928607     -3.9666506      7.2034006e-13 -1.7095414e-11  3.9613691e-11  8.699957       13.049949      17.399914      1975.4817    
        33   0             -1528.3299     -5.2420539     -3.9666506     -7.7928607     -3.9666506     -2.3050882e-11 -2.3252774e-10  6.1094457e-11  8.699957       13.049949      17.399914      1975.4817    
        34   0             -1528.3299     -5.2420539     -3.9666506     -7.7928607     -3.9666506     -6.3389925e-11 -1.3103014e-10 -3.037963e-10   8.699957       13.049949      17.399914      1975.4817    
        35   0             -1528.3299     -5.2420539     -3.9666506     -7.7928607     -3.9666506      1.3686461e-11  1.2952755e-10  2.1358433e-10  8.699957       13.049949      17.399914      1975.4817    
        36   0             -1528.3299     -5.2420539     -3.9666506     -7.7928607     -3.9666506      2.0169522e-11 -1.5782482e-10  1.4660125e-10  8.699957       13.049949      17.399914      1975.4817    
        37   0             -1528.3299     -5.2420539     -3.9666506     -7.7928607     -3.9666506      1.3686461e-11  2.036452e-10   2.2450576e-10  8.699957       13.049949      17.399914      1975.4817    
        38   0             -1528.3299     -5.2420539     -3.9666506     -7.7928607     -3.9666506      1.2173747e-10 -1.8913147e-11 -4.753533e-10   8.699957       13.049949      17.399914      1975.4817    
        39   0             -1528.3299     -5.2420539     -3.9666506     -7.7928607     -3.9666506     -3.0974623e-11  2.1828133e-10 -6.4394143e-11  8.699957       13.049949      17.399914      1975.4817    
        40   0             -1528.3299     -5.2420539     -3.9666506     -7.7928607     -3.9666506      1.9449182e-11 -6.7824519e-11  1.2993712e-10  8.699957       13.049949      17.399914      1975.4817    
        41   0             -1528.3299     -5.2420539     -3.9666506     -7.7928607     -3.9666506      2.8813602e-11 -3.3411961e-10  2.6501989e-10  8.699957       13.049949      17.399914      1975.4817    
        42   0             -1528.3299     -5.2420539     -3.9666506     -7.7928607     -3.9666506      3.0974623e-11  2.9162798e-10  5.3617624e-10  8.699957       13.049949      17.399914      1975.4817    
        43   0             -1528.3299     -5.2420539     -3.9666506     -7.7928607     -3.9666506     -1.0733067e-10 -1.1614499e-10  2.2887486e-10  8.699957       13.049949      17.399914      1975.4817    
        44   0             -1528.3299     -5.2420539     -3.9666506     -7.7928607     -3.9666506     -9.5805228e-11 -9.9222622e-11  2.5370884e-10  8.699957       13.049949      17.399914      1975.4817    
        45   0             -1528.3299     -5.2420539     -3.9666506     -7.7928607     -3.9666506      9.3644208e-11 -6.8454816e-11  3.639491e-10   8.699957       13.049949      17.399914      1975.4817    
        46   0             -1528.3299     -5.2420539     -3.9666506     -7.7928607     -3.9666506      1.0588999e-10  9.9751622e-11 -7.2067838e-11  8.699957       13.049949      17.399914      1975.4817    
        47   0             -1528.3299     -5.2420539     -3.9666506     -7.7928607     -3.9666506      8.3559447e-11 -1.7983318e-10  1.6533787e-10  8.699957       13.049949      17.399914      1975.4817    
        48   0             -1528.3299     -5.2420539     -3.9666506     -7.7928607     -3.9666506     -1.4406801e-12  1.8358542e-10  5.7306958e-10  8.699957       13.049949      17.399914      1975.4817    
[...]
        13   0             -1528.3299      3.531235e-06   2.6594403e-06  7.5903028e-06  3.4396182e-07 -3.4159898      1.5246844e-08  7.5306747e-09  8.699957       13.049935      17.399914      1975.4797    
        14   0             -1528.3299      3.4702803e-06  2.6026897e-06  7.5249503e-06  2.8320099e-07 -3.4159898      4.5719213e-09  2.0803478e-08  8.699957       13.049935      17.399914      1975.4797    
        15   0             -1528.3299      3.4304456e-06  2.5652984e-06  7.4835648e-06  2.4247364e-07 -3.4159898      6.5290492e-09  8.378298e-09   8.699957       13.049935      17.399914      1975.4797    
        16   0             -1528.3299      3.4158632e-06  2.5514631e-06  7.4699135e-06  2.2621303e-07 -3.4159898      9.1898319e-11  4.9898424e-09  8.699957       13.049935      17.399914      1975.4797    
        17   0             -1528.3299      3.4051041e-06  2.540974e-06   7.4596226e-06  2.1471558e-07 -3.4159898     -8.8798462e-10 -4.7167769e-10  8.699957       13.049935      17.399914      1975.4797    
        18   0             -1528.3299      3.4007685e-06  2.5368628e-06  7.4554395e-06  2.1000338e-07 -3.4159898     -6.6494911e-10  3.0425927e-10  8.699957       13.049935      17.399914      1975.4797    
        19   0             -1528.3299      3.3990398e-06  2.5355086e-06  7.453804e-06   2.0780688e-07 -3.4159898     -1.6404636e-11 -3.9994799e-10  8.699957       13.049935      17.399914      1975.4797    
        20   0             -1528.3299      3.3983623e-06  2.5347947e-06  7.4533514e-06  2.0694085e-07 -3.4159898     -8.1328162e-11  7.1646906e-10  8.699957       13.049935      17.399914      1975.4797    
        21   0             -1528.3299      3.3981499e-06  2.5344337e-06  7.4526494e-06  2.0736657e-07 -3.4159898     -1.8207739e-10 -1.9239739e-10  8.699957       13.049935      17.399914      1975.4797    
        22   0             -1528.3299      3.3978171e-06  2.5341131e-06  7.4526371e-06  2.0670116e-07 -3.4159898      6.6276979e-11  1.4585823e-10  8.699957       13.049935      17.399914      1975.4797    
        23   0             -1528.3299      3.3976612e-06  2.5340966e-06  7.4523552e-06  2.0653161e-07 -3.4159898      1.2756504e-11  6.6964565e-11  8.699957       13.049935      17.399914      1975.4797    
        24   0             -1528.3299      3.3973992e-06  2.5338859e-06  7.4523131e-06  2.0599855e-07 -3.4159898     -4.2377704e-11 -1.1449853e-10  8.699957       13.049935      17.399914      1975.4797    
        25   0             -1528.3299      3.3974381e-06  2.533573e-06   7.4523541e-06  2.0638736e-07 -3.4159898     -1.6657881e-10 -8.5639314e-11  8.699957       13.049935      17.399914      1975.4797    
        26   0             -1528.3299      3.3973712e-06  2.5338024e-06  7.4520909e-06  2.0622024e-07 -3.4159898      3.2430108e-10  1.1374427e-10  8.699957       13.049935      17.399914      1975.4797    
        27   0             -1528.3299      3.3973974e-06  2.5335845e-06  7.4521489e-06  2.0645885e-07 -3.4159898     -2.5455324e-11  8.892654e-11   8.699957       13.049935      17.399914      1975.4797    
        28   0             -1528.3299      3.397352e-06   2.5337537e-06  7.4520095e-06  2.0629299e-07 -3.4159898     -7.8555132e-11 -1.1559548e-11  8.699957       13.049935      17.399914      1975.4797    
        29   0             -1528.3299      3.3973754e-06  2.53382e-06    7.452005e-06   2.063011e-07  -3.4159898     -6.443392e-11  -1.4545496e-11  8.699957       13.049935      17.399914      1975.4797    
        30   0             -1528.3299      3.3972884e-06  2.5337917e-06  7.452187e-06   2.0588636e-07 -3.4159898      1.2405619e-10 -3.7101925e-11  8.699957       13.049935      17.399914      1975.4797    
        31   0             -1528.3299      3.3969664e-06  2.5336557e-06  7.4517974e-06  2.0544605e-07 -3.4159898      8.374665e-11  -5.2271421e-11  8.699957       13.049935      17.399914      1975.4797    
        32   0             -1528.3299      3.3973733e-06  2.5339109e-06  7.4521389e-06  2.0607014e-07 -3.4159898     -3.3956752e-10  1.9405977e-10  8.699957       13.049935      17.399914      1975.4797    
        33   0             -1528.3299      3.3972505e-06  2.5338531e-06  7.4522106e-06  2.0568782e-07 -3.4159898      9.9104541e-11 -7.0177686e-11  8.699957       13.049935      17.399914      1975.4797    
        34   0             -1528.3299      3.3973287e-06  2.5335951e-06  7.4522854e-06  2.0610552e-07 -3.4159898     -1.1824281e-10  1.3535938e-10  8.699957       13.049935      17.399914      1975.4797    
        35   0             -1528.3299      3.3973864e-06  2.533703e-06   7.451867e-06   2.0658914e-07 -3.4159898     -7.1527588e-12 -2.7665218e-10  8.699957       13.049935      17.399914      1975.4797    
        36   0             -1528.3299      3.3972786e-06  2.5336905e-06  7.4521014e-06  2.0604403e-07 -3.4159898      2.463073e-10   3.4284883e-10  8.699957       13.049935      17.399914      1975.4797    
        37   0             -1528.3299      3.3970748e-06  2.5337385e-06  7.451741e-06   2.0574481e-07 -3.4159898     -2.0752005e-10 -1.0792115e-10  8.699957       13.049935      17.399914      1975.4797    
        38   0             -1528.3299      3.397297e-06   2.5336952e-06  7.4520685e-06  2.0612723e-07 -3.4159898      1.6561085e-10 -2.3617617e-11  8.699957       13.049935      17.399914      1975.4797    
        39   0             -1528.3299      3.3974067e-06  2.5337077e-06  7.4519372e-06  2.0657519e-07 -3.4159898     -5.4875336e-11 -2.2312021e-11  8.699957       13.049935      17.399914      1975.4797    
        40   0             -1528.3299      3.3971875e-06  2.5336592e-06  7.4516405e-06  2.0626274e-07 -3.4159898      2.2078586e-10  3.181497e-10   8.699957       13.049935      17.399914      1975.4797    
        41   0             -1528.3299      3.3970618e-06  2.533596e-06   7.451716e-06   2.0587339e-07 -3.4159898      3.8541046e-11 -4.3636201e-10  8.699957       13.049935      17.399914      1975.4797    
        42   0             -1528.3299      3.397103e-06   2.5336775e-06  7.4519133e-06  2.0571816e-07 -3.4159898     -1.0940176e-10  7.3302665e-11  8.699957       13.049935      17.399914      1975.4797    
        43   0             -1528.3299      3.3972932e-06  2.5337243e-06  7.4517989e-06  2.0635656e-07 -3.4159898     -2.0083439e-10  6.4016352e-11  8.699957       13.049935      17.399914      1975.4797    
        44   0             -1528.3299      3.3972937e-06  2.5337682e-06  7.4518669e-06  2.0624599e-07 -3.4159898      2.6617436e-11 -2.3704814e-10  8.699957       13.049935      17.399914      1975.4797    
        45   0             -1528.3299      3.3972637e-06  2.533747e-06   7.4519795e-06  2.0606465e-07 -3.4159898      6.5816918e-11  4.0650142e-10  8.699957       13.049935      17.399914      1975.4797    
        46   0             -1528.3299      3.3971533e-06  2.5337257e-06  7.4518531e-06  2.0588123e-07 -3.4159898     -4.7230156e-11 -7.654676e-12   8.699957       13.049935      17.399914      1975.4797    
        47   0             -1528.3299      3.3972786e-06  2.5335918e-06  7.4519909e-06  2.0625319e-07 -3.4159898     -1.1821749e-10  3.8459521e-11  8.699957       13.049935      17.399914      1975.4797    
        48   0             -1528.3299      3.3970045e-06  2.5336755e-06  7.4515415e-06  2.0579641e-07 -3.4159898     -2.7656443e-10 -3.9068787e-10  8.699957       13.049935      17.399914      1975.4797    
        49   0             -1528.3299      3.3972055e-06  2.5338289e-06  7.4520512e-06  2.0573626e-07 -3.4159898      5.3645691e-12  1.1704368e-10  8.699957       13.049935      17.399914      1975.4797    
Loop time of 0.094835 on 4 procs for 48 steps with 192 atoms

90.6% CPU use with 4 MPI tasks x 1 OpenMP threads

Minimization stats:
  Stopping criterion = force tolerance
  Energy initial, next-to-last, final = 
     -1528.32994136379  -1528.32994179184  -1528.32994179184
  Force two-norm initial, final = 0.0075080677 7.2600697e-11
  Force max component initial, final = 0.00081997086 9.6843349e-12
  Final line search alpha, max atom move = 1 9.6843349e-12
  Iterations, force evaluations = 48 96

MPI task timing breakdown:
Section |  min time  |  avg time  |  max time  |%varavg| %total
---------------------------------------------------------------
Pair    | 0.088353   | 0.089902   | 0.091834   |   0.5 | 94.80
Neigh   | 0          | 0          | 0          |   0.0 |  0.00
Comm    | 0.001952   | 0.0038478  | 0.005366   |   2.2 |  4.06
Output  | 0.00051    | 0.00052775 | 0.000577   |   0.0 |  0.56
Modify  | 0          | 0          | 0          |   0.0 |  0.00
Other   |            | 0.0005577  |            |       |  0.59

Nlocal:             48 ave          50 max          45 min
Histogram: 1 0 0 0 1 0 0 0 0 2
Nghost:            600 ave         603 max         598 min
Histogram: 2 0 0 0 0 0 1 0 0 1
Neighs:           1920 ave        2038 max        1842 min
Histogram: 2 0 0 0 0 1 0 0 0 1
FullNghs:         3840 ave        4000 max        3600 min
Histogram: 1 0 0 0 1 0 0 0 0 2

Total # of neighbors = 15360
Ave neighs/atom = 80
Neighbor list builds = 0
Dangerous builds = 0

# Obtain new stress tensor

variable tmp equal pe
variable e1 equal ${tmp}
variable e1 equal -1528.32994179184
variable tmp equal press
variable p1 equal ${tmp}
variable p1 equal 3.39720545556448e-06
variable tmp equal pxx
variable pxx1 equal ${tmp}
variable pxx1 equal 2.53382894798115e-06
variable tmp equal pyy
variable pyy1 equal ${tmp}
variable pyy1 equal 7.45205115866279e-06
variable tmp equal pzz
variable pzz1 equal ${tmp}
variable pzz1 equal 2.05736260049501e-07
variable tmp equal pxy
variable pxy1 equal ${tmp}
variable pxy1 equal -3.41598981728341
variable tmp equal pxz
variable pxz1 equal ${tmp}
variable pxz1 equal 5.36456912921862e-12
variable tmp equal pyz
variable pyz1 equal ${tmp}
variable pyz1 equal 1.17043681765041e-10

# Compute elastic constant from pressure tensor

variable C1pos equal ${d1}
variable C1pos equal -0.00025345139526693
variable C2pos equal ${d2}
variable C2pos equal -0.000745323000760459
variable C3pos equal ${d3}
variable C3pos equal -2.06675359320134e-05
variable C4pos equal ${d4}
variable C4pos equal -9.73130975877103e-09
variable C5pos equal ${d5}
variable C5pos equal 2.76243654554075e-08
variable C6pos equal ${d6}
variable C6pos equal 341.598981715949

# Combine positive and negative

variable C1${dir} equal 0.5*(${C1neg}+${C1pos})
variable C16 equal 0.5*(${C1neg}+${C1pos})
variable C16 equal 0.5*(0.000253441346513049+${C1pos})
variable C16 equal 0.5*(0.000253441346513049+-0.00025345139526693)
variable C2${dir} equal 0.5*(${C2neg}+${C2pos})
variable C26 equal 0.5*(${C2neg}+${C2pos})
variable C26 equal 0.5*(0.000745282049387116+${C2pos})
variable C26 equal 0.5*(0.000745282049387116+-0.000745323000760459)
variable C3${dir} equal 0.5*(${C3neg}+${C3pos})
variable C36 equal 0.5*(${C3neg}+${C3pos})
variable C36 equal 0.5*(2.06531921462315e-05+${C3pos})
variable C36 equal 0.5*(2.06531921462315e-05+-2.06675359320134e-05)
variable C4${dir} equal 0.5*(${C4neg}+${C4pos})
variable C46 equal 0.5*(${C4neg}+${C4pos})
variable C46 equal 0.5*(-1.36607018852093e-08+${C4pos})
variable C46 equal 0.5*(-1.36607018852093e-08+-9.73130975877103e-09)
variable C5${dir} equal 0.5*(${C5neg}+${C5pos})
variable C56 equal 0.5*(${C5neg}+${C5pos})
variable C56 equal 0.5*(-1.75360772463695e-08+${C5pos})
variable C56 equal 0.5*(-1.75360772463695e-08+2.76243654554075e-08)
variable C6${dir} equal 0.5*(${C6neg}+${C6pos})
variable C66 equal 0.5*(${C6neg}+${C6pos})
variable C66 equal 0.5*(341.598981739724+${C6pos})
variable C66 equal 0.5*(341.598981739724+341.598981715949)

# Delete dir to make sure it is not reused

variable dir delete

# Output final values

variable C11all equal ${C11}
variable C11all equal 779.291388348102
variable C22all equal ${C22}
variable C22all equal 779.291388254929
variable C33all equal ${C33}
variable C33all equal 779.291388366227

variable C12all equal 0.5*(${C12}+${C21})
variable C12all equal 0.5*(396.666254759893+${C21})
variable C12all equal 0.5*(396.666254759893+396.666254810294)
variable C13all equal 0.5*(${C13}+${C31})
variable C13all equal 0.5*(396.666254820371+${C31})
variable C13all equal 0.5*(396.666254820371+396.666254817456)
variable C23all equal 0.5*(${C23}+${C32})
variable C23all equal 0.5*(396.666254827695+${C32})
variable C23all equal 0.5*(396.666254827695+396.666254763778)

variable C44all equal ${C44}
variable C44all equal 341.598981787801
variable C55all equal ${C55}
variable C55all equal 341.598981749324
variable C66all equal ${C66}
variable C66all equal 341.598981727837

variable C14all equal 0.5*(${C14}+${C41})
variable C14all equal 0.5*(5.94281143501303e-10+${C41})
variable C14all equal 0.5*(5.94281143501303e-10+1.11870987653286e-08)
variable C15all equal 0.5*(${C15}+${C51})
variable C15all equal 0.5*(7.20340780026221e-11+${C51})
variable C15all equal 0.5*(7.20340780026221e-11+8.5099923948357e-09)
variable C16all equal 0.5*(${C16}+${C61})
variable C16all equal 0.5*(-5.02437694048638e-09+${C61})
variable C16all equal 0.5*(-5.02437694048638e-09+7.23942336236117e-09)

variable C24all equal 0.5*(${C24}+${C42})
variable C24all equal 0.5*(-4.30403616051437e-09+${C42})
variable C24all equal 0.5*(-4.30403616051437e-09+3.43606349955774e-08)
variable C25all equal 0.5*(${C25}+${C52})
variable C25all equal 0.5*(-3.63321880915052e-09+${C52})
variable C25all equal 0.5*(-3.63321880915052e-09+5.866702705812e-09)
variable C26all equal 0.5*(${C26}+${C62})
variable C26all equal 0.5*(-2.0475686671466e-08+${C62})
variable C26all equal 0.5*(-2.0475686671466e-08+-8.4640076587227e-09)

variable C34all equal 0.5*(${C34}+${C43})
variable C34all equal 0.5*(1.66578805374626e-08+${C43})
variable C34all equal 0.5*(1.66578805374626e-08+9.63111890237306e-09)
variable C35all equal 0.5*(${C35}+${C53})
variable C35all equal 0.5*(-4.52464052450073e-09+${C53})
variable C35all equal 0.5*(-4.52464052450073e-09+1.62232141375955e-09)
variable C36all equal 0.5*(${C36}+${C63})
variable C36all equal 0.5*(-7.17189289094971e-09+${C63})
variable C36all equal 0.5*(-7.17189289094971e-09+4.35807248813065e-09)

variable C45all equal 0.5*(${C45}+${C54})
variable C45all equal 0.5*(2.15319670181469e-08+${C54})
variable C45all equal 0.5*(2.15319670181469e-08+-1.37640662146644e-08)
variable C46all equal 0.5*(${C46}+${C64})
variable C46all equal 0.5*(-1.16960058219902e-08+${C64})
variable C46all equal 0.5*(-1.16960058219902e-08+5.6186580840408e-09)
variable C56all equal 0.5*(${C56}+${C65})
variable C56all equal 0.5*(5.044144104519e-09+${C65})
variable C56all equal 0.5*(5.044144104519e-09+9.7246005300706e-10)

# Average moduli for cubic crystals

variable C11cubic equal (${C11all}+${C22all}+${C33all})/3.0
variable C11cubic equal (779.291388348102+${C22all}+${C33all})/3.0
variable C11cubic equal (779.291388348102+779.291388254929+${C33all})/3.0
variable C11cubic equal (779.291388348102+779.291388254929+779.291388366227)/3.0
variable C12cubic equal (${C12all}+${C13all}+${C23all})/3.0
variable C12cubic equal (396.666254785093+${C13all}+${C23all})/3.0
variable C12cubic equal (396.666254785093+396.666254818914+${C23all})/3.0
variable C12cubic equal (396.666254785093+396.666254818914+396.666254795737)/3.0
variable C44cubic equal (${C44all}+${C55all}+${C66all})/3.0
variable C44cubic equal (341.598981787801+${C55all}+${C66all})/3.0
variable C44cubic equal (341.598981787801+341.598981749324+${C66all})/3.0
variable C44cubic equal (341.598981787801+341.598981749324+341.598981727837)/3.0

variable bulkmodulus equal (${C11cubic}+2*${C12cubic})/3.0
variable bulkmodulus equal (779.291388323086+2*${C12cubic})/3.0
variable bulkmodulus equal (779.291388323086+2*396.666254799915)/3.0
variable shearmodulus1 equal ${C44cubic}
variable shearmodulus1 equal 341.598981754987
variable shearmodulus2 equal (${C11cubic}-${C12cubic})/2.0
variable shearmodulus2 equal (779.291388323086-${C12cubic})/2.0
variable shearmodulus2 equal (779.291388323086-396.666254799915)/2.0
variable poissonratio equal 1.0/(1.0+${C11cubic}/${C12cubic})
variable poissonratio equal 1.0/(1.0+779.291388323086/${C12cubic})
variable poissonratio equal 1.0/(1.0+779.291388323086/396.666254799915)

# For Stillinger-Weber silicon, the analytical results
# are known to be (E. R. Cowley, 1988):
#               C11 = 151.4 GPa
#               C12 = 76.4 GPa
#               C44 = 56.4 GPa

print "========================================="
=========================================
print "Components of the Elastic Constant Tensor"
Components of the Elastic Constant Tensor
print "========================================="
=========================================

print "Elastic Constant C11all = ${C11all} ${cunits}"
Elastic Constant C11all = 779.291388348102 GPa
print "Elastic Constant C22all = ${C22all} ${cunits}"
Elastic Constant C22all = 779.291388254929 GPa
print "Elastic Constant C33all = ${C33all} ${cunits}"
Elastic Constant C33all = 779.291388366227 GPa

print "Elastic Constant C12all = ${C12all} ${cunits}"
Elastic Constant C12all = 396.666254785093 GPa
print "Elastic Constant C13all = ${C13all} ${cunits}"
Elastic Constant C13all = 396.666254818914 GPa
print "Elastic Constant C23all = ${C23all} ${cunits}"
Elastic Constant C23all = 396.666254795737 GPa

print "Elastic Constant C44all = ${C44all} ${cunits}"
Elastic Constant C44all = 341.598981787801 GPa
print "Elastic Constant C55all = ${C55all} ${cunits}"
Elastic Constant C55all = 341.598981749324 GPa
print "Elastic Constant C66all = ${C66all} ${cunits}"
Elastic Constant C66all = 341.598981727837 GPa

print "Elastic Constant C14all = ${C14all} ${cunits}"
Elastic Constant C14all = 5.89068995441495e-09 GPa
print "Elastic Constant C15all = ${C15all} ${cunits}"
Elastic Constant C15all = 4.29101323641916e-09 GPa
print "Elastic Constant C16all = ${C16all} ${cunits}"
Elastic Constant C16all = 1.10752321093739e-09 GPa

print "Elastic Constant C24all = ${C24all} ${cunits}"
Elastic Constant C24all = 1.50282994175315e-08 GPa
print "Elastic Constant C25all = ${C25all} ${cunits}"
Elastic Constant C25all = 1.11674194833074e-09 GPa
print "Elastic Constant C26all = ${C26all} ${cunits}"
Elastic Constant C26all = -1.44698471650943e-08 GPa

print "Elastic Constant C34all = ${C34all} ${cunits}"
Elastic Constant C34all = 1.31444997199178e-08 GPa
print "Elastic Constant C35all = ${C35all} ${cunits}"
Elastic Constant C35all = -1.45115955537059e-09 GPa
print "Elastic Constant C36all = ${C36all} ${cunits}"
Elastic Constant C36all = -1.40691020140953e-09 GPa

print "Elastic Constant C45all = ${C45all} ${cunits}"
Elastic Constant C45all = 3.88395040174125e-09 GPa
print "Elastic Constant C46all = ${C46all} ${cunits}"
Elastic Constant C46all = -3.0386738689747e-09 GPa
print "Elastic Constant C56all = ${C56all} ${cunits}"
Elastic Constant C56all = 3.00830207876303e-09 GPa

print "========================================="
=========================================
print "Average properties for a cubic crystal"
Average properties for a cubic crystal
print "========================================="
=========================================

print "Bulk Modulus = ${bulkmodulus} ${cunits}"
Bulk Modulus = 524.207965974305 GPa
print "Shear Modulus 1 = ${shearmodulus1} ${cunits}"
Shear Modulus 1 = 341.598981754987 GPa
print "Shear Modulus 2 = ${shearmodulus2} ${cunits}"
Shear Modulus 2 = 191.312566761586 GPa
print "Poisson Ratio = ${poissonratio}"
Poisson Ratio = 0.337313386344839
Total wall time: 0:00:01
