LAMMPS data file via write_data, version 22 Dec 2022, timestep = 100000

6250 atoms
5 atom types

0 100 xlo xhi
0 100 ylo yhi
0 10 zlo zhi

Masses

1 26.9815
2 28.086
3 24.305
4 63.54
5 55.847

Atoms # atomic

3 1 2.717499724081462 0.24602785965381466 2.120000202575293 0 0 0
2501 1 1.068196197838911 0.6404772088881343 4.360826659804605 0 0 0
4 1 1.1902634822722322 2.4324912586245633 2.032223808899829 0 0 0
1298 1 0.6922417093246169 0.15518102136560105 0.3093373930531656 1 0 0
2502 1 3.7404558284435514 2.3105221723167464 3.447774219440668 0 0 0
2 1 3.0297109247463334 2.2273645906081816 0.4184762072013846 0 0 0
2503 1 5.11423200584436 0.3204319591900194 3.559569232048672 0 0 0
2504 1 6.080574199587326 2.5294483427849466 1.9495287598889122 0 0 0
1401 1 49.99038591381064 14.602601248882301 8.625197307157025 0 0 -1
2505 1 8.20293027589454 0.7790503965088796 1.6374066246630714 0 0 0
3756 1 8.078528361810216 2.508501789488991 3.7190477705997838 0 0 0
2506 1 9.953956486704907 2.718823888626626 1.5931483266825273 0 0 0
3755 1 9.887327100943363 0.8376204022018632 3.5617169209138297 0 0 0
2507 1 12.137832979727383 0.7721717119345872 1.4931336732268186 0 0 0
3758 1 12.07524805378078 2.6522091187386994 3.333102277613682 0 0 0
3757 1 14.204441928793402 0.645693418719986 3.225967058007516 0 0 0
2508 1 14.078288117117577 2.9617275253198074 1.4352171975191914 0 0 0
2509 1 15.996171709498936 0.9359358104736077 1.14267934556672 0 0 0
3760 1 16.30371514177767 2.4313513700605487 3.428959835510269 0 0 0
2510 1 18.210237654807774 2.767683770328683 1.5723489096043377 0 0 0
2511 1 20.156038727991035 0.5014495214220376 1.24623568385053 0 0 0
3759 1 18.053249835634364 0.6056668886754284 3.040098693914448 0 0 0
3762 1 20.052195988645764 2.4487927493892765 3.51825421612192 0 0 0
2512 1 22.02956376211858 2.742297964218775 1.3950481412670785 0 0 0
3761 1 22.131364995051722 0.48344407926893795 2.943825925676856 0 0 0
3764 1 24.149482820828432 2.386466072561661 3.407735810847525 0 0 0
2513 1 24.118751324131882 0.7464072531919422 1.1424685153435783 0 0 0
2514 1 26.067930632018992 2.641981422629234 1.6645514533768766 0 0 0
2515 1 28.063633054547644 0.775396473227568 1.1709493803907431 0 0 0
3766 1 28.134561338579065 1.9777316891392145 3.5158145360549833 0 0 0
3763 1 26.074411828618047 0.32565660534427265 3.182789909660155 0 0 0
3765 1 30.424637147885793 0.3587006988502864 3.364172712408901 0 0 0
2516 1 30.09390310324741 2.8887674214681778 1.5785319292290991 0 0 0
3768 1 32.249518972154966 2.3509312330148955 3.4700166987244017 0 0 0
2517 1 32.150365126416226 0.5476409995862421 1.4232241912717238 0 0 0
2518 1 34.14965866191369 2.51752815608512 1.446033005581726 0 0 0
3767 1 34.07173739416453 0.25623880818564654 3.2216129089911045 0 0 0
2520 1 38.16376115430303 2.5175195753356823 1.5279930249163605 0 0 0
2519 1 36.30170351449334 0.671263517056172 1.1712583394793497 0 0 0
3770 1 36.107489466292336 2.1326211602713876 3.4160423893570324 0 0 0
3769 1 38.20123224400756 0.40266552388039206 3.3248646742291865 0 0 0
2521 1 40.11679898114215 0.6155857207569649 1.3390983478995875 0 0 0
2522 1 42.463337426099436 2.543593922044272 1.868532882086407 0 0 0
3772 1 40.14201096366928 2.3012100873926 3.7294959804441503 0 0 0
3771 1 42.123068451948924 0.13676397661603917 3.133441624455256 0 0 0
3774 1 44.42428433213866 2.0565264494519444 3.9030560615946697 0 0 0
2523 1 44.21556497537103 0.35993018649330244 1.3388352191422224 0 0 0
48 1 44.15153819342359 2.7418422872243484 0.010792061371105888 0 0 0
2524 1 46.31248637054191 2.27060281561794 1.9821633377700318 0 0 0
5050 1 48.41193223045688 1.9239899803341263 3.940658908327204 0 0 0
2525 1 48.203745492219404 0.26116743810617343 1.6390770006690025 0 0 0
3798 1 46.41253697969425 3.978367630474232 4.129397818000599 0 0 0
53 1 1.8612593422374653 4.411390751170795 3.6677385899996753 0 0 0
52 1 2.1031424887646484 6.742700009029368 2.1024639224239756 0 0 0
55 1 1.95746118240426 4.899174612345779 0.06139286518006653 0 0 0
249 1 47.65591382085253 16.484232158180365 8.902067833526035 0 0 -1
104 1 0.07054464640838333 10.957498965273835 0.5923508983982169 0 0 0
8 1 3.971672153098135 4.386468814353854 1.6721392183892634 0 0 0
2528 1 4.021875832987542 6.349871003515201 3.768605848048916 0 0 0
2529 1 6.1675186975773375 6.728709849766048 2.0243826561298914 0 0 0
3778 1 6.034069624443468 4.303006241339138 3.7916140462712926 0 0 0
58 1 4.282107907283383 6.723687724310543 0.13174693150838065 0 0 0
2530 1 8.052547884457727 4.872867541993387 1.8616254629092308 0 0 0
3781 1 8.015909935715866 6.439356038465168 4.020699742247628 0 0 0
2531 1 10.319355089384679 6.8546507721012295 2.221522879819469 0 0 0
3780 1 10.014786405859788 4.528723717302725 4.005651012799827 0 0 0
62 1 8.001533911278164 7.0709271378849 0.21956081481913917 0 0 0
61 1 10.174706031218534 5.3355913192701765 9.885900836878006 0 0 -1
2532 1 12.038392088460913 4.684367413843103 1.7187577648762016 0 0 0
3783 1 12.357997318489602 6.341253653566291 3.9407571613573453 0 0 0
66 1 12.29821755646188 7.126308698488937 0.18714326291184352 0 0 0
2533 1 14.402977277511333 6.6977107785351775 2.160608297431365 0 0 0
3782 1 14.203812959052634 4.449871736835975 3.688138069381612 0 0 0
65 1 14.183465277096316 5.363730053898181 0.03383455434879858 0 0 0
2534 1 16.237430406611093 4.746004066868466 1.8571023056805966 0 0 0
3785 1 16.42010928563122 6.319576100551531 4.091364025822073 0 0 0
70 1 16.385574011426577 7.038071743775749 0.4358756418233851 0 0 0
2535 1 18.25748940667535 6.696878832102026 2.2338552215733922 0 0 0
2536 1 20.170936439167967 4.501785243597383 1.681950727018606 0 0 0
3784 1 18.186364120651977 4.39288497259474 3.6667052325111444 0 0 0
3787 1 20.21816015208439 6.392062083065308 4.265998696785412 0 0 0
74 1 20.335281651007048 7.127174884333802 0.2530264958015849 0 0 0
69 1 18.358392586166506 5.112747847065519 9.938888421206332 0 0 -1
2537 1 22.14850628747195 6.518752452829884 2.2175537989264935 0 0 0
2538 1 24.100386867602644 4.6017726975310955 1.9502764941106878 0 0 0
3786 1 22.06709835050753 4.096025638200205 3.784721827204283 0 0 0
3789 1 24.096057063921915 6.218441636404269 4.062404916505917 0 0 0
78 1 24.239999338534684 6.995544516951975 0.3173526302320252 0 0 0
73 1 22.330264079973645 5.107909091532743 9.793749173616222 0 0 -1
2539 1 26.16466332755405 6.589314415711365 2.454905685002414 0 0 0
3788 1 26.202734003625604 4.3670808955029035 3.8589456808702334 0 0 0
2540 1 28.330979363979296 4.598386322602258 2.2693048925251125 0 0 0
3791 1 28.19143097502559 6.270818169250167 4.426704759122922 0 0 0
77 1 26.233149845176335 5.15870415546018 0.3336940076710109 0 0 0
82 1 28.215367788431745 7.070358074507207 0.38170073784545466 0 0 0
3790 1 30.164741325967963 4.3743115803987305 4.045019962489667 0 0 0
2541 1 30.19673135898846 6.717952569372367 2.450664056432946 0 0 0
81 1 30.20390054075174 5.219211899163825 0.143543622647943 0 0 0
3792 1 34.20291049095134 4.306848551796859 3.660863940530253 0 0 0
86 1 32.157966676676295 7.001332063494909 0.5021556927047751 0 0 0
2542 1 32.252922465894756 4.624396595246796 1.8971900217944153 0 0 0
2543 1 34.113975792726656 6.5501138144982445 2.320977604208229 0 0 0
3793 1 32.301848712466594 6.597182095200768 4.416847390081967 0 0 0
3794 1 38.1740523897072 4.198559524942382 3.8260358374904953 0 0 0
89 1 38.291862271523236 4.935366340989463 0.20196683013172229 0 0 0
90 1 36.110899864179785 7.052499724826557 0.30640763263397747 0 0 0
2544 1 36.141676502800046 4.570268832971859 1.8588806254696988 0 0 0
2545 1 38.36515787569741 6.636970346425928 2.237133599800812 0 0 0
3795 1 36.410980836288495 6.156327426187566 3.9628504875163726 0 0 0
3796 1 42.165133292098645 4.111362073878595 3.971501066402485 0 0 0
94 1 40.476670703163876 6.943878324298056 0.4164606474087493 0 0 0
2546 1 40.22971422077327 4.395483126286039 2.0238964290558066 0 0 0
2547 1 42.3480924781964 6.3710084278309225 2.436527823004644 0 0 0
3797 1 40.19690289247349 5.971009813443603 4.368325275957621 0 0 0
93 1 42.143065446119294 4.642430749805783 0.1369371719410982 0 0 0
3821 1 42.26143275218382 7.780056243412123 4.800980046894219 0 0 0
98 1 44.2257954670828 6.675851637343566 0.6843074295783248 0 0 0
2548 1 44.46348034999224 4.452981061752405 2.102401136756135 0 0 0
3799 1 44.33759881385471 5.960532349842203 4.382518314207745 0 0 0
97 1 46.39799288010572 4.679961489032369 0.35759315849073403 0 0 0
2549 1 46.412554801976285 6.4378764011273 2.788520391628784 0 0 0
100 1 48.363780284223786 6.649945725802798 0.7417389390108855 0 0 0
2550 1 48.39944143849424 4.44253167951015 2.3758336351805065 0 0 0
3800 1 48.82627147625311 6.4891694132316 4.411022372207466 0 0 0
7 1 5.657399792555704 0.3329015575462901 0.882792392298528 0 0 0
2552 1 2.159339861670069 10.603281807590877 2.5419705573702522 0 0 0
3801 1 2.1802708990149093 8.172772821524028 4.235907071810245 0 0 0
103 1 2.1535843000357637 9.134042484321125 0.28705354517628223 0 0 0
3802 1 0.14839053714267436 10.369142024057838 4.320848481468758 0 0 0
107 1 6.156682111212205 9.083417058588525 0.5836715368607686 0 0 0
108 1 4.231853243385768 10.95962676131053 0.9041064563589843 0 0 0
2553 1 4.089375664147311 8.571648316714475 2.2126338446710214 0 0 0
2554 1 6.2701026883768955 10.584214665873034 2.856715299305861 0 0 0
3803 1 5.995270749261451 8.191810831249445 4.364374353351955 0 0 0
3804 1 3.9936002082212188 10.210090184709335 4.5666235759086025 0 0 0
112 1 8.16097434569721 11.045683653274466 1.0031405183223479 0 0 0
2555 1 8.279053466131558 8.82480892980809 2.5531591610731494 0 0 0
111 1 10.148769027392742 9.110741801001684 0.6280997834383867 0 0 0
3805 1 10.215984800676644 8.248669621427787 4.4067112101578045 0 0 0
2556 1 10.254574789480081 10.687347524293521 2.96025086932655 0 0 0
116 1 12.233107891250262 11.011809921850594 1.2253763697548574 0 0 0
2557 1 12.162142966168856 8.765620497785118 2.6500597446040755 0 0 0
3808 1 12.034691438232583 10.391274888132878 4.843091213973165 0 0 0
3807 1 14.190206470574648 8.429456433227001 4.429630996180527 0 0 0
2558 1 14.290980361224266 10.569740165925523 2.8969702371592296 0 0 0
115 1 14.390206418028228 9.13180791461334 0.5423002459612333 0 0 0
120 1 16.185386352250422 11.06240001243367 1.0831846068371846 0 0 0
2559 1 16.271255072230225 8.758215483177295 2.578778563262916 0 0 0
124 1 20.483518238173225 11.016456879073255 0.9686176423484054 0 0 0
2560 1 18.317986630098783 10.36886638920626 2.8934073444130735 0 0 0
2561 1 20.44958016392954 8.550422846466816 2.7306825660634084 0 0 0
3809 1 18.274203401402847 8.31128664342842 4.450614402382373 0 0 0
119 1 18.41372157871067 8.97853937450291 0.7110120481129666 0 0 0
3812 1 20.352185569882984 10.251970117011709 4.901177397466563 0 0 0
3811 1 22.24504852274384 8.186626420236971 4.380377807230989 0 0 0
123 1 22.339358122373277 9.022694444159294 0.6037708578656437 0 0 0
128 1 24.390128949741946 10.903607752411562 1.1660902821548182 0 0 0
2562 1 22.381312190320124 10.517548569136968 2.943553303579659 0 0 0
2563 1 24.284213854912522 8.62843940023283 2.6620489273455723 0 0 0
3814 1 24.385043087586826 10.2192174644837 4.9130978523921085 0 0 0
3813 1 26.36574784820939 8.290724909715221 4.449953694595057 0 0 0
127 1 26.211301213904388 8.85949899624123 0.949844945042115 0 0 0
2564 1 26.20814885743144 10.752077548674563 3.082112240620117 0 0 0
132 1 28.365569643002917 11.010815026577783 1.1390490657248726 0 0 0
2565 1 28.19882333057875 8.489413011803194 2.5582874826615454 0 0 0
3816 1 28.482123297794153 10.195539686167452 4.9443803145369225 0 0 0
131 1 30.30685898662375 9.240853664197495 0.9656968508901155 0 0 0
2566 1 30.369660369712214 10.689120605538761 3.166097720055384 0 0 0
3815 1 30.24166677216415 8.386686596023717 4.719706579731178 0 0 0
3817 1 34.34641172455092 8.362823279878041 4.677285256833579 0 0 0
2567 1 32.06520025425116 8.694486958385935 2.8510609399331313 0 0 0
135 1 34.21014021000055 8.884591199974599 0.6951772461304112 0 0 0
136 1 32.457953249632325 10.922359297660224 1.176354928203417 0 0 0
2568 1 34.43856293779532 10.45625621716581 3.0026064720187455 0 0 0
3818 1 32.597638526222404 10.218452830003917 5.003753482026975 0 0 0
139 1 38.422899329798014 9.000203727085882 0.6817375051008435 0 0 0
140 1 36.616843860412104 10.888072825455682 1.0896607281920145 0 0 0
2569 1 36.38478869430799 8.622511831045651 2.4399969095813687 0 0 0
2570 1 38.416672219288245 10.452796514471318 3.1093523508755143 0 0 0
3819 1 38.44792160689213 8.093753602580268 4.543602672667857 0 0 0
143 1 42.35134569853228 8.92761158108315 1.2730525235805479 0 0 0
144 1 40.36571202960016 10.834549117971074 1.353953300256286 0 0 0
2571 1 40.40383992451189 8.454833302257876 2.678981477290476 0 0 0
2572 1 42.619970205361305 10.338127757437965 3.8352976993351455 0 0 0
148 1 44.4194010841711 10.734708168063428 1.48487816764032 0 0 0
2573 1 44.53297911692619 8.459706464054301 3.048751509302859 0 0 0
147 1 46.31415572384477 8.698642783774808 1.055041698230618 0 0 0
3823 1 46.90166740643782 8.538061535760507 4.915900017414146 0 0 0
2574 1 46.48681059039891 10.533226876781102 3.1190719866678154 0 0 0
150 1 48.228788101653095 10.883633727968515 0.8102725072509175 0 0 0
2575 1 48.44913331683542 8.53866356206545 2.786917272491983 0 0 0
3825 1 48.81582454820479 10.652273512606108 4.431158487874352 0 0 0
153 1 2.4056556062456105 12.911335524298577 1.2131034762264912 0 0 0
2577 1 2.2014440204827443 14.62605133125462 3.6835554870600755 0 0 0
154 1 0.4330186172739663 14.8861485009304 1.4196742600257106 0 0 0
2576 1 0.31813641757119093 12.547841964208843 2.9770376084375987 0 0 0
157 1 6.014496665270817 12.933304023318998 1.3719976126005244 0 0 0
158 1 3.99555419604659 15.09474753381537 1.7798487577810695 0 0 0
2578 1 4.370842260668751 12.528196598050515 3.3350002334366073 0 0 0
2579 1 6.327997937686028 14.47498100636871 3.606108868389997 0 0 0
162 1 8.37383987993444 14.977263861912002 1.8207847923914027 0 0 0
2580 1 8.376103235733076 12.588960589028991 3.3280340286450976 0 0 0
2581 1 10.522567279632092 14.62891558814489 3.6258916647276855 0 0 0
161 1 10.231821917759625 13.033953036784652 1.3112094967826855 0 0 0
166 1 12.290142726983388 15.132779679252579 1.5178488982997906 0 0 0
2582 1 12.329801142425827 12.691984457838103 3.2314808295623703 0 0 0
165 1 14.196318496651912 12.869560719005415 1.3966887650300568 0 0 0
2583 1 14.374612597236199 14.580202705531761 3.493088988816638 0 0 0
170 1 16.257838394916792 14.752738421458936 1.6428692700884167 0 0 0
2584 1 16.58270589980477 12.580537618161424 3.412354413423996 0 0 0
169 1 18.457105989653254 12.965822141958158 1.262063852390418 0 0 0
174 1 20.383497319719307 14.722874926860126 1.69940154817386 0 0 0
2585 1 18.47384499134305 14.620648474205165 3.803423664229644 0 0 0
2586 1 20.390469126566735 12.381564880660244 3.197524293865898 0 0 0
173 1 22.56327716290239 12.998788602807863 1.3209753583967578 0 0 0
178 1 24.44613024707517 15.037573759150014 1.829070348383219 0 0 0
2587 1 22.374317365738445 14.534828091698788 3.6730620350535976 0 0 0
2588 1 24.421453846303066 12.605117048005729 3.2861394829766004 0 0 0
177 1 26.5272289287242 12.829147692946698 1.3187746642574085 0 0 0
2589 1 26.46016195456564 14.411237526186438 3.662589620489352 0 0 0
2590 1 28.470047074487802 12.614820055670142 3.3618483141766746 0 0 0
182 1 28.689304188845025 15.071953377097257 1.829179330748451 0 0 0
181 1 30.38860768186591 12.82521804577599 1.5694687116009238 0 0 0
2591 1 30.341575099283578 14.550227484894602 3.8377912202276154 0 0 0
2592 1 32.41816310373144 12.534999856046708 3.443947965558279 0 0 0
185 1 34.56534621668509 12.955796073145594 1.680819080827448 0 0 0
186 1 32.449097149232344 14.9023065910448 1.9129624606883908 0 0 0
2593 1 34.32552750141541 14.515263173677484 3.7889360422258926 0 0 0
189 1 38.48483342117332 12.78573608773051 1.4629558316528986 0 0 0
190 1 36.54102591642502 14.850286565200273 2.039136858033718 0 0 0
2594 1 36.32444137369463 12.653970480697328 3.439649642755969 0 0 0
2595 1 38.471580660361084 14.42006268860143 3.9336106280567593 0 0 0
194 1 40.59779808508779 14.704612427049197 2.042727272882636 0 0 0
2596 1 40.43020310708001 12.406883631291212 3.616080080459776 0 0 0
193 1 42.39671439515242 12.534420058540709 1.8851316897098591 0 0 0
2597 1 42.56960233611632 14.411035119956244 4.093685926561761 0 0 0
241 1 42.31444757155463 15.303553973503107 9.828201547146104 0 0 -1
2598 1 44.65503827058379 12.496222422525747 3.4273490817682792 0 0 0
198 1 44.250336119911424 14.529364442851199 1.7998933569982816 0 0 0
197 1 46.412362801039855 12.801672119028302 1.2246446839867187 0 0 0
2599 1 46.58819735469272 14.590578959239734 3.2293729587858095 0 0 0
200 1 48.34575680370579 14.84595349950259 0.8892867076333365 0 0 0
2600 1 48.65802846056616 12.833967103470396 2.8299118830120484 0 0 0
3850 1 49.12745743532071 14.6544398823687 4.666689865432417 0 0 0
203 1 2.3858500580180304 17.03370232108581 2.0123799198179793 0 0 0
204 1 0.5190529399160602 19.073846211634272 2.4062321787847627 0 0 0
2602 1 2.5883003112810683 18.531154378381203 4.162599032139212 0 0 0
202 1 2.5734808582815867 19.36512707143736 0.4610536758623073 0 0 0
2601 1 0.45772487908628 16.757819110898915 3.946333399275423 0 0 0
207 1 6.369348805121234 16.87567064941325 1.8938398999113382 0 0 0
208 1 4.519593152058894 18.8799789168475 2.1680120091179775 0 0 0
2603 1 4.502644019230291 16.53892896510363 3.929231325975247 0 0 0
2604 1 6.595396720340504 18.6690518639059 4.322533413767252 0 0 0
206 1 6.464810513548429 19.326514062126783 0.33466483249906326 0 0 0
205 1 4.571419114634771 17.1337000992625 0.009078142956959296 0 0 0
212 1 8.568372013080525 18.967900739700564 2.497755278345298 0 0 0
2605 1 8.435517011991077 16.54331044961298 3.94089312634226 0 0 0
210 1 10.335772947068552 19.423392135933565 0.516655917063985 0 0 0
2606 1 10.470961177029976 18.462710221501794 4.433512500677933 0 0 0
211 1 10.31730139189386 17.182565741963757 1.9374104231279559 0 0 0
209 1 8.240392677515546 17.334949402386954 9.993311318456316 0 0 -1
216 1 12.309355407052326 18.8801830842723 2.303505097549429 0 0 0
2607 1 12.554614788174568 16.67170794473909 3.9920111508603235 0 0 0
213 1 12.325205922091069 17.355679933569025 0.09919281823965778 0 0 0
215 1 14.303000637587308 16.76875247238661 1.9751647323229744 0 0 0
214 1 14.575613492396798 19.118967112515712 0.6345240119646427 0 0 0
2608 1 14.35781769940513 18.65438691349427 4.305325621700771 0 0 0
220 1 16.382143902812565 18.77164919333649 2.510581424260692 0 0 0
2609 1 16.36462109288628 16.368268116739348 4.058560201050205 0 0 0
217 1 16.452862442822614 17.212925616828276 0.23463373407777932 0 0 0
219 1 18.32080887380693 16.79907893692747 2.2145981633336547 0 0 0
224 1 20.410086886106445 18.832264199916445 2.394582993157925 0 0 0
2610 1 18.506317981905635 18.433827998274037 4.267586852001328 0 0 0
2611 1 20.370701565357887 16.432053866262113 4.123444731084345 0 0 0
218 1 18.355983951773236 19.183474534248678 0.5781954965075106 0 0 0
221 1 20.270205030145622 17.188675345426166 0.29601529947354205 0 0 0
223 1 22.52925002989141 16.865334712282458 2.1348212050446977 0 0 0
222 1 22.715583983409125 19.4177902142433 0.5414408783135592 0 0 0
228 1 24.47540187381041 18.922588148462484 2.747511884033995 0 0 0
2613 1 24.596396400300243 16.53278278236498 4.222882671304489 0 0 0
225 1 24.343912239917906 17.38602187913477 0.42928316774078107 0 0 0
2612 1 22.37271049367542 18.327072547089756 4.465609575351085 0 0 0
227 1 26.499391545264395 17.10547518742378 2.2277213012048906 0 0 0
2614 1 26.491730582354766 18.57808404595888 4.652828257500748 0 0 0
226 1 26.652962880094787 19.246451388656862 0.3790928277714861 0 0 0
229 1 28.553858716348824 17.297561938702884 0.14385873761767914 0 0 0
232 1 28.51810086524457 18.777725336206363 2.6158880250023024 0 0 0
2615 1 28.28787469132149 16.685688071502096 4.037639633927544 0 0 0
231 1 30.814420392638265 17.084754110573016 2.1682219203215674 0 0 0
230 1 30.71132642829134 19.252230926232638 0.8462744131206714 0 0 0
2616 1 30.584940293254533 18.560451850750784 4.540805903468588 0 0 0
2617 1 32.388942896875996 16.40669084781798 4.179783869112661 0 0 0
236 1 32.8319419550782 18.829416248940923 2.7980395215729086 0 0 0
233 1 32.86905805227502 17.236570954880868 0.32568855454744633 0 0 0
2619 1 34.7184083909715 16.833692987290583 2.3362248808428063 0 0 0
240 1 34.69956445692509 19.07394095926014 0.5112700295356738 0 0 0
2618 1 34.5421027299813 18.516728205496925 4.4491036731263245 0 0 0
237 1 36.58561838486589 18.738763207505116 2.807295855205924 0 0 0
2620 1 36.65155390105658 16.22237850513559 4.399134436007959 0 0 0
5120 1 36.79085602701923 17.23347127410505 0.624242484368964 0 0 1
239 1 38.56692506792978 16.52980493438517 2.3862679916381584 0 0 0
3869 1 38.58060091812313 18.22551074781866 4.667457428713916 0 0 0
287 1 39.20789478645614 19.9034000387938 0.5685468394034264 0 0 0
244 1 40.36949401504646 18.438061616145433 2.5137158454001556 0 0 0
2621 1 40.73650419161517 16.143827851416834 4.210355995481906 0 0 0
243 1 42.67951713011692 16.995917627042118 1.938766805427244 0 0 0
2622 1 42.552851919157966 18.488396995578103 4.091204918722684 0 0 0
242 1 40.97801962694528 17.650652196782826 0.19710839870038083 0 0 0
248 1 44.63695974613158 18.833734467461188 2.0083461526850184 0 0 0
2623 1 44.54778361915837 16.445694944967066 3.6236918828101485 0 0 0
247 1 46.516910916013934 16.78098200949499 1.1946110255905278 0 0 0
2624 1 46.805749079396605 18.60091699451389 3.3699572948321386 0 0 0
250 1 48.32940452243411 18.996051382730155 0.979500980764757 0 0 0
2625 1 48.78831752159637 16.510049946413222 2.8503685232235143 0 0 0
3875 1 48.92795847209937 18.68808827409418 4.836512606530424 0 0 0
3752 1 1.2814769928967515 2.882697156778886 5.8858065949648 0 0 0
5001 1 0.7971633376724011 1.0775511773667592 7.8916326017457195 0 0 0
3751 1 3.211139095782726 0.6268051911130762 5.7421993260230435 0 0 0
5 1 3.394038784816084 0.38685270097662683 8.848893600376798 0 0 -1
5017 1 32.14793351975694 0.05877029848038396 5.246498088609823 0 0 0
5002 1 3.2183494359615903 2.807123905101903 7.866327570932147 0 0 0
3754 1 5.54277893474288 2.214567884850755 5.340291263638745 0 0 0
6 1 5.541243750336439 2.3005068068777628 9.311909073402457 0 0 -1
5004 1 5.821964311204412 4.039530665040238 7.433110974191889 0 0 0
5003 1 5.3474715875498235 0.33999725804133374 7.217469974524781 0 0 0
3753 1 7.198091736854023 0.22926031722755083 5.040759545380672 0 0 0
9 1 7.711225842146373 0.2880204210287069 9.036318362608476 0 0 -1
12 1 8.233212838909127 2.977070338495315 9.678021031920366 0 0 -1
5005 1 7.945748819968058 1.8596759356089032 7.007615839279608 0 0 0
11 1 10.327188531463468 1.0977994122968402 9.160111785596726 0 0 -1
5006 1 10.162134653386525 2.3339689038689615 5.546304252656512 0 0 0
10 1 9.941293794097634 3.661009423087478 7.801285284998016 0 0 -1
16 1 12.204107984971309 3.0363338844439998 9.667688664546503 0 0 -1
13 1 12.129526067055684 1.878820920672551 7.346994168689605 0 0 -1
5007 1 12.259171085444565 0.47471536224831745 4.986489760486297 0 0 0
15 1 14.279414569699046 1.201665202174275 9.314734893294032 0 0 -1
14 1 14.180715935562437 3.779217227541157 7.786656140906652 0 0 -1
5008 1 14.249005303278045 2.2208762830809405 5.572491109566913 0 0 0
5032 1 12.185308344154697 4.147465676238243 5.676935046121752 0 0 0
20 1 16.181186930752116 2.995150531661188 9.57392333899558 0 0 -1
17 1 16.363766274859042 1.4183612078338588 7.4804426035199185 0 0 -1
5034 1 16.284079698573013 3.992912718951762 5.600320653947862 0 0 0
5126 1 0.6190267820906766 19.809270003119973 8.601561733836586 0 0 0
24 1 20.221016968784074 2.9919662993512377 9.56874488069481 0 0 -1
5011 1 18.023812710202716 1.9052116079124823 5.439463947525267 0 0 0
5010 1 18.268541386735333 3.5134315158109755 7.709426549655916 0 0 0
19 1 18.412343124283446 0.9146211949106939 9.329859759738614 0 0 -1
21 1 20.372888128435523 1.3879064095945615 7.323719076472151 0 0 -1
5036 1 20.321057079066026 3.8797059057994976 5.819858140542607 0 0 0
5128 1 4.594118943917759 19.695159460571702 8.619143282226434 0 0 0
28 1 24.189692543281428 3.023621796880465 9.659453041261324 0 0 -1
5012 1 22.13210901476209 1.768922156793245 5.344858126746568 0 0 0
23 1 22.261089248546995 1.147586956097172 9.35986767453326 0 0 -1
25 1 24.132579865882146 1.3163834484972128 7.433207711888236 0 0 -1
22 1 22.37602422849009 3.3922901741353066 7.640328746148044 0 0 -1
5038 1 24.190375048241766 3.674628401567661 5.640376283540043 0 0 0
32 1 28.05372813168302 3.1342075433174448 9.829672218881791 0 0 -1
27 1 26.100178827126825 1.091592438988622 9.189131118436702 0 0 -1
26 1 26.218375976524463 3.5196598436189133 7.70276825002846 0 0 -1
5014 1 26.217079297588704 1.6990847933932316 5.449213721712413 0 0 0
29 1 28.406492297877776 1.513950411997561 7.505304675099812 0 0 -1
5124 1 47.41313138235873 18.49579633150067 7.084944158324724 0 0 0
31 1 30.20585103272473 1.3990459494561571 9.40259886772191 0 0 -1
30 1 30.19038176741674 3.728434112762949 7.780558858215045 0 0 -1
5016 1 29.88115607622843 2.0250586486954982 5.524224160940602 0 0 0
36 1 32.27325037752337 3.0625425253716863 9.609737196940472 0 0 -1
33 1 32.132398830922654 1.8034520172685282 7.2820715087036145 0 0 -1
35 1 34.30952745513119 1.0432707369646534 9.182931750820224 0 0 -1
34 1 34.320568504081635 3.6349094172024787 7.654185908964399 0 0 -1
5018 1 34.04792195648691 1.9841400816110404 5.3117173886873355 0 0 0
5042 1 32.22103716380924 3.978649174318491 5.8221219045444625 0 0 0
40 1 36.338124303104095 2.8947300226550947 9.736912176868458 0 0 -1
39 1 38.40708819066922 0.8848122086851512 8.948115486995032 0 0 -1
38 1 38.18699351171978 3.505308211562933 7.804161173560892 0 0 -1
37 1 36.42900353823754 1.4493680468619277 7.385649408572718 0 0 -1
5020 1 38.11559181839562 1.8975010131584398 5.348359517765083 0 0 0
5044 1 36.23903572570119 3.8898486557893373 5.735378103287024 0 0 0
44 1 40.11801045121401 2.7708440383129656 9.436862965324957 0 0 -1
43 1 42.100978189620335 0.768525096974236 9.483960926031726 0 0 -1
91 1 42.00286870658728 3.389006988273315 8.027159521719822 0 0 -1
41 1 39.95691486188548 1.399263186332975 7.322540035988678 0 0 -1
5022 1 42.118304775630364 1.7204439273108956 5.731000876748423 0 0 0
5046 1 40.24768337320163 3.843302755646038 5.8784678292663815 0 0 0
47 1 46.04186459920816 0.6648639440022904 9.739184840494158 0 0 -1
42 1 44.364891841225706 3.4267785482585063 6.175657440868088 0 0 -1
45 1 44.03354824783277 1.0580178138975684 7.599443001939166 0 0 -1
46 1 45.91729129139868 2.78790428850524 8.092613843972748 0 0 -1
50 1 48.165121100272174 2.6258297345061234 0.264794393383486 0 0 0
5048 1 46.30226250042404 1.3193462679966352 5.72008200975961 0 0 0
49 1 47.754814351397116 0.8159568044967493 7.903642730396968 0 0 -1
5024 1 47.84510909219059 3.239726424635406 6.313248729509282 0 0 0
3775 1 49.16983392405038 0.3694053554725561 5.8441046647161174 0 0 0
1251 1 49.64489634840498 2.8382436748834787 8.146988365282878 0 0 -1
3777 1 1.7315022688258541 5.677024692730228 5.980487015625654 0 0 0
5053 1 1.99357001709893 7.395261042525604 8.26917722020753 0 0 0
57 1 6.138339940000575 4.848985548092648 0.010449966554373701 0 0 0
3776 1 3.8381556263574104 4.134335606146252 5.5613492350356255 0 0 0
5029 1 5.910433541911721 6.0188816558229385 5.946633717748428 0 0 0
5028 1 3.705166810249753 5.177367768485499 7.96148808857983 0 0 0
56 1 6.1188867814219945 7.339504492096495 8.349455171615002 0 0 -1
5030 1 7.981850628946969 4.149336665103149 5.715978676504067 0 0 0
59 1 8.044140473544363 5.43617521185304 8.13785859177423 0 0 -1
60 1 9.963850794887577 7.539681253440557 8.326193435579036 0 0 -1
5031 1 10.130888626861573 6.033756160354766 6.055388278675377 0 0 0
5055 1 8.089565472497714 7.899248368153392 6.164850268509624 0 0 0
63 1 12.091230523741164 5.740895555118478 7.8414351580004364 0 0 -1
5057 1 12.315713248366666 8.03251028629213 6.254464749170003 0 0 0
5033 1 14.236765813241945 5.928585721898035 5.914027310562379 0 0 0
64 1 14.30973739252679 7.464906257510295 8.367574056688294 0 0 -1
67 1 16.15567040904638 5.585708048946791 8.004185541330386 0 0 -1
5059 1 16.15994865011603 7.866918043364232 6.479948980747077 0 0 0
68 1 18.41169611643088 7.580494165802025 8.440087230971306 0 0 -1
18 1 18.220024178417486 5.933580877989452 6.272161792879206 0 0 -1
71 1 20.435009700023162 5.475233227082931 7.879654285683484 0 0 -1
5035 1 20.228824451884794 7.993353896692727 6.609690201454959 0 0 0
72 1 22.171605058616905 7.489787855393253 8.203057998228653 0 0 -1
5037 1 22.201023462085466 5.889683825504323 5.9882455817357405 0 0 0
75 1 24.124200502116967 5.224563956979565 7.965387462676526 0 0 -1
5063 1 24.105017445511496 7.699264807343921 6.420971657670547 0 0 0
5040 1 28.102161469827408 3.8383822815269983 5.679199119215826 0 0 0
76 1 26.143902802369162 7.5872167386854406 8.4449351544498 0 0 -1
5039 1 25.93684188623986 5.9758284198968825 6.227393862121087 0 0 0
79 1 28.056176051207302 5.356465847092109 8.045157629309985 0 0 -1
5065 1 28.329124553526437 8.137742558910602 6.575638619186705 0 0 0
80 1 30.308106743206235 7.300184097690556 8.668919295547854 0 0 -1
5041 1 30.25348464357694 5.854841989586965 6.1688669087126256 0 0 0
83 1 32.284417763557315 5.427882420413911 8.221235728426212 0 0 -1
85 1 34.30434848760404 5.0723857851980485 9.943296529164003 0 0 -1
84 1 34.34624084163639 7.313703918010442 8.532823882765944 0 0 -1
5043 1 34.299660425470016 5.913060653320546 6.094084310516 0 0 0
137 1 38.334949423011295 7.310700476705723 8.4569801682463 0 0 -1
87 1 36.389886156881914 5.394148618317013 8.121105608670106 0 0 -1