LAMMPS data file via write_data, version 18 Jun 2019, timestep = 30000

320 atoms
4 atom types

0.0000000000000000e+00 1.8228500000000000e+01 xlo xhi
0.0000000000000000e+00 1.4582800000000001e+01 ylo yhi
0.0000000000000000e+00 1.4582800000000001e+01 zlo zhi

Masses

1 58.933
2 58.69
3 51.96
4 55.847

Atoms # atomic

1 1 1.8215991448490914e+01 1.8210691046828076e+00 1.8074930450712172e+00 -1 0 0
2 2 6.8059162469158066e-02 1.4570922709875900e+01 1.4531043651860641e+01 0 -1 -1
3 3 1.9869246674928545e+00 1.4576574680211440e+01 1.7713368688180846e+00 0 -1 0
4 4 1.8586400559223573e+00 1.8822730413384368e+00 2.5194000291089435e-02 0 0 0
81 1 1.8080414064447364e+01 1.9770432128765540e+00 5.5000461323750223e+00 -1 0 0
82 2 1.8123805512143370e+01 4.0174079755767582e-02 3.7102027001361417e+00 -1 0 0
83 3 1.7031656499035415e+00 1.0009440181357812e-02 5.5331093770525781e+00 0 0 0
84 4 1.7151595043046985e+00 1.7100867418160894e+00 3.6608305915945145e+00 0 0 0
161 1 1.1310521124467736e-01 1.8454467926496645e+00 9.0971626141980142e+00 0 0 0
162 2 2.6304111987371127e-02 1.4580143179952037e+01 7.3501331408442780e+00 0 -1 0
163 3 1.8083433658995203e+00 1.4540906632041098e+01 9.0160646286587287e+00 0 -1 0
164 4 1.9476929884572229e+00 1.8021840378223948e+00 7.2539412071164913e+00 0 0 0
241 1 1.1434139306422907e-02 1.8303931269765292e+00 1.2842510601965545e+01 0 0 0
242 2 1.8201468782207613e+01 3.6830478090923983e-02 1.0825955004524928e+01 -1 0 0
243 3 1.8143813198447678e+00 1.4489986978483845e+01 1.2688347978733493e+01 0 -1 0
244 4 1.8054864569989522e+00 1.7052358491277038e+00 1.0897033595890059e+01 0 0 0
21 1 1.8122113831764320e+01 5.4518631289403121e+00 1.8898130897518723e+00 -1 0 0
22 2 1.6015116472501689e-01 3.5895788353576443e+00 1.4551537207697244e+01 0 0 -1
23 3 2.0481082799544712e+00 3.6185193714471078e+00 1.7691977501430376e+00 0 0 0
24 4 1.7459389373546432e+00 5.4832705842877454e+00 6.2125780270970085e-03 0 0 0
101 1 5.3423179374394014e-03 5.6186652652413613e+00 5.6652193013913417e+00 0 0 0
102 2 5.6184761206657663e-02 3.6098314487224203e+00 3.6055033777675023e+00 0 0 0
103 3 1.7329385101520289e+00 3.7489438311144561e+00 5.3693982735766932e+00 0 0 0
104 4 1.7782354103319018e+00 5.5058207037453650e+00 3.6219283200494559e+00 0 0 0
181 1 9.7540256297206598e-02 5.3974281936894997e+00 8.9966520781893546e+00 0 0 0
182 2 1.8211438027989839e+01 3.6894574688437212e+00 7.2921639133556360e+00 -1 0 0
183 3 1.8889406220905784e+00 3.5571875197825200e+00 9.1198483891966333e+00 0 0 0
184 4 1.9019250523140379e+00 5.4715621500440896e+00 7.2204091521346845e+00 0 0 0
261 1 6.2578719629272472e-02 5.4707062616243887e+00 1.2587474361908106e+01 0 0 0
262 2 2.6796272271200827e-03 3.6192041912453754e+00 1.0979930457826500e+01 0 0 0
263 3 1.8955286604321135e+00 3.5511691542080235e+00 1.2653434584794663e+01 0 0 0
264 4 1.8066107143067482e+00 5.5752195609551016e+00 1.0785399021551701e+01 0 0 0
41 1 1.8197614070945193e+01 9.0807584949879168e+00 1.8531758227384527e+00 -1 0 0
42 2 1.8095672825096418e+01 7.2963681817557280e+00 1.4452660771022455e+01 -1 0 -1
43 3 1.7339332831039072e+00 7.3103034635107091e+00 1.8063889250842644e+00 0 0 0
44 4 1.8605871004416463e+00 9.1740260116304917e+00 1.4514222360980000e+01 0 0 -1
121 1 1.8141222157303122e+01 9.2363839485492267e+00 5.5786362996730290e+00 -1 0 0
122 2 2.8158325208728741e-02 7.2331503870266429e+00 3.7795661934075455e+00 0 0 0
123 3 1.8672869768730180e+00 7.1948018508894060e+00 5.5032017052325823e+00 0 0 0
124 4 1.9533767690262456e+00 9.2415014330641423e+00 3.6214171595666946e+00 0 0 0
201 1 3.0042238567439483e-02 9.1470846331928861e+00 9.2565162355775872e+00 0 0 0
202 2 1.8213259473168367e+01 7.3088729718470615e+00 7.3961784093510294e+00 -1 0 0
203 3 1.8909331319326479e+00 7.3294055229340964e+00 9.0041158229390792e+00 0 0 0
204 4 1.7112026080415639e+00 9.0980426255281532e+00 7.3350068092559599e+00 0 0 0
281 1 1.8153619152452034e+01 9.1175867067126948e+00 1.2733732677349238e+01 -1 0 0
282 2 1.8170974944624849e+01 7.3704308317852956e+00 1.0940252343530862e+01 -1 0 0
283 3 1.7342287485098740e+00 7.5081059238925416e+00 1.2755864794343990e+01 0 0 0
284 4 1.8448160674322367e+00 9.1878177048870313e+00 1.0966163036314420e+01 0 0 0
61 1 4.2272390694287509e-02 1.2629517158442507e+01 1.8238580094299996e+00 0 0 0
62 2 1.8209982597999289e+01 1.0925302575077065e+01 3.6162073972599663e-02 -1 0 0
63 3 1.8558821653919086e+00 1.0985568243870651e+01 1.7225836782152988e+00 0 0 0
64 4 1.7554817486674232e+00 1.2718506250817107e+01 2.4918755064596891e-02 0 0 0
141 1 1.8140374811168485e+01 1.2719025045579000e+01 5.3758174516241590e+00 -1 0 0
142 2 1.8199996123384068e+01 1.0936957421370868e+01 3.5777993548029374e+00 -1 0 0
143 3 1.8520134965482276e+00 1.0952753604552505e+01 5.4379107253460477e+00 0 0 0
144 4 1.8440099802790886e+00 1.2883199474210898e+01 3.5625269431641522e+00 0 0 0
221 1 8.3948968066364774e-02 1.2688285054823586e+01 9.0437879273187320e+00 0 0 0
222 2 1.8227933027984282e+01 1.1038807119265922e+01 7.1908469092563232e+00 -1 0 0
223 3 1.7414422593364614e+00 1.1104131818945817e+01 9.0773404074788928e+00 0 0 0
224 4 1.7886128710617599e+00 1.2794698336201542e+01 7.1166108035010920e+00 0 0 0
301 1 1.8208113249512159e+01 1.2706075141658200e+01 1.2778078379013531e+01 -1 0 0
302 2 2.4596103159389315e-02 1.0905152318175501e+01 1.0914982037910979e+01 0 0 0
303 3 1.8941599446457151e+00 1.0881753414544736e+01 1.2768037263461418e+01 0 0 0
304 4 1.9298049007149285e+00 1.2842106394770180e+01 1.0879658917531263e+01 0 0 0
5 1 3.6004606101590242e+00 1.7872648055888873e+00 1.8924594667355366e+00 0 0 0
6 2 3.6324577499725299e+00 1.7484250716340261e-01 1.4394418791613527e+01 0 0 -1
7 3 5.4194210080671681e+00 7.6699651903384278e-02 1.8265724858548307e+00 0 0 0
8 4 5.5345533224405941e+00 1.7820960767002521e+00 1.4544412852337526e+01 0 0 -1
85 1 3.5173949590483482e+00 1.9076473840064339e+00 5.3111000105792678e+00 0 0 0
86 2 3.6423120175349002e+00 2.2911630165309373e-02 3.6637321104245739e+00 0 0 0
87 3 5.4227744424061921e+00 9.2096996039417470e-02 5.6133645517822286e+00 0 0 0
88 4 5.4038197870613471e+00 1.8221210120976430e+00 3.5979796540271063e+00 0 0 0
165 1 3.7212098320120774e+00 1.7794374240888773e+00 9.2416568726785879e+00 0 0 0
166 2 3.5411666378316431e+00 2.4092557799474477e-02 7.2991592343029517e+00 0 0 0
167 3 5.5216511369937091e+00 8.9216427484226091e-02 9.1113552929763610e+00 0 0 0
168 4 5.5684736202329370e+00 1.8827986554238849e+00 7.2385319491044218e+00 0 0 0
245 1 3.6559402973691664e+00 1.9623028762325720e+00 1.2673491014968446e+01 0 0 0
246 2 3.6608188275196825e+00 1.0718182839750839e-01 1.0910598156461369e+01 0 0 0
247 3 5.3802687633465691e+00 1.4562269875924533e+01 1.2730070886235353e+01 0 -1 0
248 4 5.5530397644556233e+00 1.8082318130761326e+00 1.0822088602974848e+01 0 0 0
25 1 3.6229826320473419e+00 5.4388269023613391e+00 1.8591560659965358e+00 0 0 0
26 2 3.6862990564170781e+00 3.5439359480081474e+00 3.5590982940100456e-02 0 0 0
27 3 5.6041129668694198e+00 3.5405384417102401e+00 1.8151713115438031e+00 0 0 0
28 4 5.4741718154025270e+00 5.3945370480118777e+00 1.4457817642167328e+01 0 0 -1
105 1 3.6243267173565585e+00 5.4875964030377986e+00 5.4599902384855294e+00 0 0 0
106 2 3.6554166897688880e+00 3.6312175316016786e+00 3.6433097657877740e+00 0 0 0
107 3 5.4666895298064286e+00 3.8130123343052027e+00 5.4558221215230933e+00 0 0 0
108 4 5.4114612274521212e+00 5.5416494098408435e+00 3.5604233200588822e+00 0 0 0
185 1 3.6256175546497347e+00 5.4814533360494941e+00 9.1178914810495630e+00 0 0 0
186 2 3.7095557598534579e+00 3.6144525865526953e+00 7.1596457596473222e+00 0 0 0
187 3 5.3286192108544679e+00 3.5536067789618428e+00 8.9674564424911569e+00 0 0 0
188 4 5.5565170260138244e+00 5.4179700423872026e+00 7.2582002434568773e+00 0 0 0
265 1 3.6704232496586657e+00 5.3403460749801059e+00 1.2817474446844260e+01 0 0 0
266 2 3.5793484316134427e+00 3.6731298062630975e+00 1.0848238522572132e+01 0 0 0
267 3 5.4785410105218926e+00 3.5460321894494595e+00 1.2714640743307474e+01 0 0 0
268 4 5.3543806218810612e+00 5.4126804077969206e+00 1.0861506148983311e+01 0 0 0
45 1 3.6126887578426832e+00 9.2117506383162855e+00 1.7832565752728229e+00 0 0 0
46 2 3.6725682980735246e+00 7.1769999219548577e+00 4.3805398948084599e-02 0 0 0
47 3 5.4622983174637882e+00 7.3986730758547834e+00 1.7775952555259402e+00 0 0 0
48 4 5.4678398834310551e+00 9.2238243342637531e+00 1.8141240850457763e-02 0 0 0
125 1 3.6108834805977974e+00 9.2705506839054372e+00 5.4925850199458512e+00 0 0 0
126 2 3.5651435803441105e+00 7.3564966939891656e+00 3.6336598560474340e+00 0 0 0
127 3 5.5644985298915994e+00 7.2609135822387429e+00 5.4833037654834831e+00 0 0 0
128 4 5.3939510801844364e+00 9.0362689603234809e+00 3.6217593140200868e+00 0 0 0
205 1 3.5623745505660231e+00 9.1445740184706921e+00 9.0824700433369312e+00 0 0 0
206 2 3.6827638962076525e+00 7.4499077022992690e+00 7.2965888914120942e+00 0 0 0
207 3 5.4631118768693501e+00 7.4144200355403456e+00 9.1625685872049143e+00 0 0 0
208 4 5.4822129810017994e+00 9.1972162968710638e+00 7.3029622171936399e+00 0 0 0
285 1 3.6993504160447488e+00 9.1112056187911108e+00 1.2726080035665824e+01 0 0 0
286 2 3.6273774384696260e+00 7.3052647249410168e+00 1.0931701008187858e+01 0 0 0
287 3 5.4251732898534692e+00 7.0957973646382557e+00 1.2798492400697986e+01 0 0 0
288 4 5.5777586539100081e+00 9.1168951331897397e+00 1.0919444094503332e+01 0 0 0
65 1 3.6433701424394447e+00 1.2727549866078206e+01 1.6748835998354734e+00 0 0 0
66 2 3.7263888735303006e+00 1.0974581466140656e+01 7.1466297078862179e-02 0 0 0
67 3 5.4291991557408998e+00 1.1069877503351394e+01 1.7315982431713095e+00 0 0 0
68 4 5.4284686105886077e+00 1.2784356996908572e+01 1.4572580346657828e+01 0 0 -1
145 1 3.7013366692884473e+00 1.2690355181143010e+01 5.4981938397125614e+00 0 0 0
146 2 3.5481765833185075e+00 1.1013620476664645e+01 3.5704707968201324e+00 0 0 0
147 3 5.3976253631892677e+00 1.0946343804079662e+01 5.4756023353214376e+00 0 0 0
148 4 5.2876067999223055e+00 1.2761830021330461e+01 3.6770567741095586e+00 0 0 0
225 1 3.7738399432873657e+00 1.2843966331846932e+01 9.1540624304320541e+00 0 0 0
226 2 3.5491447722566152e+00 1.0995862832829307e+01 7.3602902562514450e+00 0 0 0
227 3 5.5005348267873089e+00 1.0906049373960439e+01 9.1450386808456088e+00 0 0 0
228 4 5.4886420386300436e+00 1.2721364612899475e+01 7.3233863133550363e+00 0 0 0
305 1 3.6439040289853160e+00 1.2694150506671564e+01 1.2870104414066883e+01 0 0 0
306 2 3.6980933500184259e+00 1.0886716686349436e+01 1.1018677877687137e+01 0 0 0
307 3 5.3129700137637590e+00 1.1048907208727702e+01 1.2765519953997627e+01 0 0 0
308 4 5.3336347452729029e+00 1.2795664457799139e+01 1.0957312881802439e+01 0 0 0
9 1 7.4455557380671937e+00 1.7124002329554087e+00 1.6422985410160045e+00 0 0 0
10 2 7.4275763259078706e+00 1.5723421168347684e-02 1.4488619904828276e+01 0 0 -1
11 3 9.0267018459029895e+00 8.8319692782954581e-02 1.6853703623975078e+00 0 0 0
12 4 9.3370971552166964e+00 1.7288212355741497e+00 1.4578182718343264e+01 0 0 -1
89 1 7.2500224092665579e+00 1.8752960034237387e+00 5.4899550912480759e+00 0 0 0
90 2 7.3798838863369465e+00 3.9310105750161972e-02 3.7304261633245526e+00 0 0 0
91 3 8.9946856837546534e+00 1.4544517753540847e+01 5.3651205476232668e+00 0 -1 0
92 4 9.0830608866399736e+00 1.8371853722658993e+00 3.6899457059351004e+00 0 0 0
169 1 7.2941382268858073e+00 1.8516616837412549e+00 9.2029496113864937e+00 0 0 0
170 2 7.3305473561149572e+00 1.7293257581589769e-02 7.2536205950879902e+00 0 0 0
171 3 9.3958011714434129e+00 9.7964566794163273e-03 9.3008565185080254e+00 0 0 0
172 4 9.1556157478383096e+00 1.9405000949957762e+00 7.3001983785211282e+00 0 0 0
249 1 7.2894807734652494e+00 1.7102741984059535e+00 1.2684317288005190e+01 0 0 0
250 2 7.2651047808706313e+00 1.0461309186314571e-01 1.0975308643145524e+01 0 0 0
251 3 9.1254143668240246e+00 1.4490900679412896e+01 1.2770432737660279e+01 0 -1 0
252 4 9.1740819880596778e+00 1.6233010820303897e+00 1.1017959959892011e+01 0 0 0
29 1 7.2585065900236714e+00 5.5164354401752025e+00 1.8367480411290109e+00 0 0 0
30 2 7.3293160200133460e+00 3.4804642477539800e+00 1.4476368992898687e+01 0 0 -1
31 3 9.1102679834724185e+00 3.5347084064348646e+00 1.6725926919121403e+00 0 0 0
32 4 9.0475314245121385e+00 5.3573899101838833e+00 1.4522845633599140e+01 0 0 -1
109 1 7.2940400486100625e+00 5.4405124824775140e+00 5.4682467391501275e+00 0 0 0
110 2 7.2783265185609682e+00 3.6451390249243065e+00 3.6580138648757976e+00 0 0 0
111 3 9.0817227170468051e+00 3.5494522056092501e+00 5.3976946316158196e+00 0 0 0
112 4 9.1296848998611768e+00 5.3577910985248796e+00 3.5656692462276118e+00 0 0 0
189 1 7.3647941444432199e+00 5.3188908455917705e+00 9.0934027993235755e+00 0 0 0
190 2 7.3568926864892941e+00 3.5633008223328804e+00 7.2633086915542124e+00 0 0 0
191 3 9.1607997523182867e+00 3.5025054251712029e+00 9.1823223029581413e+00 0 0 0
192 4 9.0928893711252083e+00 5.4496029173650156e+00 7.2144308220109918e+00 0 0 0
269 1 7.2648590638393156e+00 5.5438438373399848e+00 1.2728795596046847e+01 0 0 0
270 2 7.2653470012914356e+00 3.5136426712187352e+00 1.1021752763191326e+01 0 0 0
271 3 9.1894429366933927e+00 3.6609029329540133e+00 1.2765345715694609e+01 0 0 0
272 4 9.2259946018878374e+00 5.3598089208781960e+00 1.1068839296298917e+01 0 0 0
49 1 7.2186464298344140e+00 9.0859195334183323e+00 1.7606863210709098e+00 0 0 0
50 2 7.2972343740800572e+00 7.2947155731792961e+00 1.4570457397355803e+01 0 0 -1
51 3 9.1547300675234631e+00 7.2365390094310067e+00 1.8691188369043750e+00 0 0 0
52 4 9.0298632634337306e+00 9.1690160325900685e+00 9.6868030876255895e-02 0 0 0
129 1 7.1809613395355951e+00 9.2435608568521417e+00 5.4438359828383378e+00 0 0 0
130 2 7.2581542992504700e+00 7.1795524039506393e+00 3.6203386715427408e+00 0 0 0
131 3 8.9748679103936109e+00 7.3547443311851612e+00 5.4492112490795943e+00 0 0 0
132 4 8.9379383852333429e+00 9.1530285916339533e+00 3.6343888987017192e+00 0 0 0
209 1 7.3621770935126358e+00 9.0320527527745078e+00 9.1068397442389042e+00 0 0 0
210 2 7.2425107613170896e+00 7.2141013087670860e+00 7.2753293801426793e+00 0 0 0
211 3 9.1883037481847811e+00 7.1412525550491459e+00 9.2310658171842448e+00 0 0 0
212 4 9.1664068548713651e+00 9.2169171572312472e+00 7.4021415988358585e+00 0 0 0
289 1 7.3397826119746776e+00 9.1057806304391509e+00 1.2726154671889891e+01 0 0 0
290 2 7.3938262156131103e+00 7.3250822049222988e+00 1.0952258599429003e+01 0 0 0
291 3 9.0571322018502212e+00 7.1202806863407240e+00 1.2788742754022797e+01 0 0 0
292 4 9.1811692418791502e+00 9.1970177120047012e+00 1.0936642575321670e+01 0 0 0
69 1 7.1918167904138759e+00 1.2891619268679873e+01 1.7474092684608080e+00 0 0 0
70 2 7.1818312099022039e+00 1.0971921129921965e+01 4.2261238105392833e-02 0 0 0
71 3 9.0532736342075175e+00 1.0858953932577982e+01 1.8191233517177723e+00 0 0 0
72 4 9.1305429101399653e+00 1.2699664337104114e+01 1.3989586971674317e-02 0 0 0
149 1 7.1678263248811671e+00 1.2672849938814155e+01 5.5086075335293447e+00 0 0 0
150 2 7.2303461082817435e+00 1.0990578652465514e+01 3.5611863534674191e+00 0 0 0
151 3 8.8961954516900867e+00 1.0990275245708295e+01 5.5125458536797147e+00 0 0 0
152 4 9.1254628573736394e+00 1.2824223251736074e+01 3.5819504713104711e+00 0 0 0
229 1 7.1537354595261213e+00 1.2710819072764107e+01 9.0640935773241562e+00 0 0 0
230 2 7.2985599385544910e+00 1.0972656151160086e+01 7.4412116042426080e+00 0 0 0
231 3 9.1461273863226573e+00 1.0975580082822992e+01 9.0181037357167924e+00 0 0 0
232 4 9.2053698367835146e+00 1.2905356532290035e+01 7.3197540540950774e+00 0 0 0
309 1 7.1255999773434944e+00 1.2586509578886835e+01 1.2668337322518486e+01 0 0 0
310 2 7.2937449324290595e+00 1.0910524890122451e+01 1.0862455931538150e+01 0 0 0
311 3 9.0493812767773729e+00 1.0798713688918639e+01 1.2733073205375877e+01 0 0 0
312 4 9.0609112981724813e+00 1.2776239636002554e+01 1.0982205797356245e+01 0 0 0
13 1 1.1074078069931854e+01 1.7288384945972846e+00 1.8887152868568304e+00 0 0 0
14 2 1.1015644031068589e+01 1.4529686033467311e+01 7.1882063093480192e-02 0 -1 0
15 3 1.2598239599906876e+01 1.4469613798755319e+01 1.8985672720558855e+00 0 -1 0
16 4 1.2867656555122494e+01 1.8101800331910649e+00 5.1710889977882514e-02 0 0 0
93 1 1.0905150408227909e+01 1.8445069101907181e+00 5.3930077598081647e+00 0 0 0
94 2 1.0933222220950045e+01 7.4450122347094333e-02 3.6544286862792248e+00 0 0 0
95 3 1.2665965764479973e+01 1.4500340300897848e+01 5.3868556340476292e+00 0 -1 0
96 4 1.2757498382497555e+01 1.7052662178238001e+00 3.7465164555547448e+00 0 0 0
173 1 1.0981638606206198e+01 1.8488928333066752e+00 9.1505062343882724e+00 0 0 0
174 2 1.0918515048413360e+01 1.1142857728651032e-01 7.3375193774506222e+00 0 0 0
175 3 1.2770321223015801e+01 1.3466571728770263e-02 9.1401114411420732e+00 0 0 0
176 4 1.2739968838767510e+01 1.8526437814972385e+00 7.3013729472245252e+00 0 0 0
253 1 1.1088666572483367e+01 1.7334240311086648e+00 1.2844360172340849e+01 0 0 0
254 2 1.1150376201760968e+01 2.9723690562787109e-02 1.1110715529540816e+01 0 0 0
255 3 1.2728072305408180e+01 1.4498996941764121e+01 1.2804662596981480e+01 0 -1 0
256 4 1.2866187065787971e+01 1.8885984773455671e+00 1.0934729842312247e+01 0 0 0
33 1 1.0932902710007081e+01 5.3036189337581359e+00 1.7754173885339091e+00 0 0 0
34 2 1.0999968423876698e+01 3.6236724486263672e+00 5.5658603474934211e-02 0 0 0
35 3 1.2777027994943937e+01 3.5002069779982787e+00 1.8652162771306595e+00 0 0 0
36 4 1.2797774245861065e+01 5.4791449497238789e+00 1.7279306942542635e-01 0 0 0
113 1 1.1034852172599610e+01 5.5333272989893478e+00 5.4526412579136538e+00 0 0 0
114 2 1.0972492051436413e+01 3.6928591209761357e+00 3.6223626870193018e+00 0 0 0
115 3 1.2683034697187287e+01 3.6358160336002903e+00 5.3341511961267001e+00 0 0 0
116 4 1.2649184336994345e+01 5.5302824090204625e+00 3.4815676287083290e+00 0 0 0
193 1 1.0943806959806821e+01 5.3401477398202291e+00 9.0385472576236587e+00 0 0 0
194 2 1.0896170027664906e+01 3.7176390470410379e+00 7.2119702746942993e+00 0 0 0
195 3 1.2766166145679072e+01 3.6624989871182008e+00 9.1898743163017418e+00 0 0 0
196 4 1.2731399479575346e+01 5.3898951766891852e+00 7.2707931969210486e+00 0 0 0
273 1 1.1087273379466183e+01 5.4622078167844315e+00 1.2842465823962746e+01 0 0 0
274 2 1.1013842385246383e+01 3.6840141422805757e+00 1.1021792003470903e+01 0 0 0
275 3 1.2757454511929648e+01 3.7393287851077117e+00 1.2774831733998884e+01 0 0 0
276 4 1.2860282339069286e+01 5.4145392615585877e+00 1.0839161119841485e+01 0 0 0
53 1 1.0914182535840366e+01 9.1701657329628006e+00 1.9010639727632921e+00 0 0 0
54 2 1.0799373430549494e+01 7.2444298699053276e+00 1.0419540491387380e-02 0 0 0
55 3 1.2788166924622317e+01 7.3808676670810867e+00 1.8523724837040931e+00 0 0 0
56 4 1.2673836410264018e+01 8.9841142772516296e+00 6.5870672738410505e-02 0 0 0
133 1 1.0882749296661274e+01 9.0443814375860718e+00 5.5009382318584423e+00 0 0 0
134 2 1.0813571645998477e+01 7.2661738120060475e+00 3.6947255147920548e+00 0 0 0
135 3 1.2762070085282208e+01 7.3794704701198155e+00 5.5056941866032094e+00 0 0 0
136 4 1.2684896718509997e+01 9.2518909858918317e+00 3.7139563316678696e+00 0 0 0
213 1 1.0915944235897260e+01 9.0996411020606569e+00 9.1768172479860493e+00 0 0 0
214 2 1.0854150335071887e+01 7.3471264949463713e+00 7.2933226487528993e+00 0 0 0
215 3 1.2765215424821903e+01 7.1500420015648540e+00 9.1093925567748872e+00 0 0 0
216 4 1.2742897347623947e+01 9.1365179332747601e+00 7.4395952311616984e+00 0 0 0
293 1 1.0902084272027407e+01 9.1746368055457648e+00 1.2869741404912890e+01 0 0 0
294 2 1.0994132218564820e+01 7.2888066552900108e+00 1.0976006222746285e+01 0 0 0
295 3 1.2797245688149127e+01 7.2884449029111424e+00 1.2773028940524524e+01 0 0 0
296 4 1.2830746634610847e+01 9.1021610256495382e+00 1.1030077282728060e+01 0 0 0
73 1 1.0985738770856184e+01 1.2772538983001052e+01 1.8572534582929363e+00 0 0 0
74 2 1.0963393737109911e+01 1.0883509174028429e+01 9.2310469859882199e-02 0 0 0
75 3 1.2775170595307204e+01 1.0932942844957616e+01 1.7500881959934056e+00 0 0 0
76 4 1.2714864798774776e+01 1.2638925055271711e+01 1.2137602299699836e-01 0 0 0
153 1 1.0933119428671343e+01 1.2707458637382434e+01 5.4675486449226334e+00 0 0 0
154 2 1.0900236030900304e+01 1.0832908763247172e+01 3.6830484879601140e+00 0 0 0
155 3 1.2740308925687485e+01 1.1060586016671701e+01 5.5982125734184702e+00 0 0 0
156 4 1.2737849525834186e+01 1.2589903231128643e+01 3.5639220094975403e+00 0 0 0
233 1 1.0962327146947088e+01 1.2812190454515768e+01 9.1762857735845245e+00 0 0 0
234 2 1.1020576940144707e+01 1.0991554602780523e+01 7.2870277517813111e+00 0 0 0
235 3 1.2754483798394491e+01 1.0825346944708611e+01 9.0704142085140571e+00 0 0 0
236 4 1.2764437715803940e+01 1.2787791828995159e+01 7.3526306436609739e+00 0 0 0
313 1 1.0943859113517821e+01 1.2722529874312551e+01 1.2801668278524149e+01 0 0 0
314 2 1.0789273185394419e+01 1.0923253219790485e+01 1.0977908506829930e+01 0 0 0
315 3 1.2723726756900419e+01 1.0954346265506766e+01 1.2703005872106040e+01 0 0 0
316 4 1.2789027346606206e+01 1.2669751207198630e+01 1.0704806630995977e+01 0 0 0
17 1 1.4520274445461542e+01 1.7347289940348620e+00 1.7851536699794714e+00 0 0 0
18 2 1.4489501637756934e+01 5.2562834745071285e-03 1.0224457339961285e-01 0 0 0
19 3 1.6519536890874225e+01 6.7842990896872388e-02 1.7508375755408156e+00 0 0 0
20 4 1.6486273364023958e+01 2.0413252246056421e+00 1.2434942309773181e-01 0 0 0
97 1 1.4502519357292588e+01 1.6672719543681698e+00 5.5301904512506450e+00 0 0 0
98 2 1.4417732376296557e+01 1.4481826981896281e+01 3.7425201452668562e+00 0 -1 0
99 3 1.6490143743576645e+01 1.4479781187650486e+01 5.4473504006827831e+00 0 -1 0
100 4 1.6304051477098863e+01 1.9197642302177653e+00 3.6123149189197705e+00 0 0 0
177 1 1.4639162553248511e+01 1.9018683031587245e+00 9.0800139376946074e+00 0 0 0
178 2 1.4686733961316669e+01 1.4480181393461470e+01 7.2744493246129638e+00 0 -1 0
179 3 1.6170868641254270e+01 1.4500004258302750e+01 9.1032495486369474e+00 0 -1 0
180 4 1.6388524813599886e+01 1.6577349271122168e+00 7.2269874095240967e+00 0 0 0
257 1 1.4747812866760812e+01 1.8575827468417128e+00 1.2685572841112867e+01 0 0 0
258 2 1.4533165633137138e+01 1.7005551194246848e-02 1.0959684001771079e+01 0 0 0
259 3 1.6419801627920641e+01 1.1382889521052876e-01 1.2821156822538546e+01 0 0 0
260 4 1.6421191251586031e+01 1.8670373508412055e+00 1.0985830750759860e+01 0 0 0
37 1 1.4651301160091739e+01 5.4665083791071210e+00 1.7692001000315125e+00 0 0 0
38 2 1.4463508824541321e+01 3.6636919484787165e+00 8.2010533918062123e-03 0 0 0
39 3 1.6451530879181025e+01 3.8752722330439902e+00 1.9689261721519995e+00 0 0 0
40 4 1.6500217612908358e+01 5.5615300313781857e+00 1.4545364734115539e+01 0 0 -1
117 1 1.4504685969202747e+01 5.5062405805217534e+00 5.5008730290232100e+00 0 0 0
118 2 1.4546082901041135e+01 3.6849884451225572e+00 3.6221155063560837e+00 0 0 0
119 3 1.6371944143255408e+01 3.6863378510167077e+00 5.5564405527228304e+00 0 0 0
120 4 1.6281760388653367e+01 5.4790238219616070e+00 3.7243674955128787e+00 0 0 0
197 1 1.4714910681426312e+01 5.4779313976396580e+00 9.1453872451220590e+00 0 0 0
198 2 1.4598398674435382e+01 3.6583617693337001e+00 7.3395788486734856e+00 0 0 0
199 3 1.6469546785062239e+01 3.6015190301207123e+00 9.0727759979667937e+00 0 0 0
200 4 1.6314602618485736e+01 5.4825570078620824e+00 7.3225608896258017e+00 0 0 0
277 1 1.4590274808233159e+01 5.5042020475660820e+00 1.2825049586854838e+01 0 0 0
278 2 1.4572876733997655e+01 3.7042910372480975e+00 1.0988411089096322e+01 0 0 0
279 3 1.6389109229081342e+01 3.7490740160867566e+00 1.2947098534247546e+01 0 0 0
280 4 1.6507438152459216e+01 5.3882564482021369e+00 1.0965052006253350e+01 0 0 0
57 1 1.4595846428980012e+01 9.0200714733944682e+00 1.9311375931506909e+00 0 0 0
58 2 1.4638915396002318e+01 7.3428077063389310e+00 7.7396661113653648e-02 0 0 0
59 3 1.6523899572486005e+01 7.3196373901897518e+00 1.8779456954332339e+00 0 0 0
60 4 1.6457209567876053e+01 9.0396655812006212e+00 1.4417068040984269e+01 0 0 -1
137 1 1.4552820254290609e+01 9.2283998407391508e+00 5.5368474696920860e+00 0 0 0
138 2 1.4436734147710560e+01 7.3024903555678637e+00 3.6461156762968852e+00 0 0 0
139 3 1.6431501113188400e+01 7.3437749999759729e+00 5.5247673544808880e+00 0 0 0
140 4 1.6483771278498121e+01 9.0618483978665019e+00 3.7435859218924783e+00 0 0 0
217 1 1.4545150949097108e+01 9.0337740400836157e+00 9.1477233386223329e+00 0 0 0
218 2 1.4594034140987821e+01 7.3685405750348547e+00 7.3184471114711043e+00 0 0 0
219 3 1.6559632093956303e+01 7.2888333966512961e+00 9.1818868650993686e+00 0 0 0
220 4 1.6474006995899678e+01 9.1585992519135804e+00 7.4293471861776466e+00 0 0 0
297 1 1.4500472789990091e+01 8.9917798303293708e+00 1.2775607913647329e+01 0 0 0
298 2 1.4618163119350728e+01 7.2434022589001152e+00 1.0878477535990706e+01 0 0 0
299 3 1.6436081565195309e+01 7.1867469683163812e+00 1.2507078836159284e+01 0 0 0
300 4 1.6484585145959375e+01 9.2372938421822628e+00 1.1046085877386629e+01 0 0 0
77 1 1.4554994363133803e+01 1.2831706876017041e+01 1.9094005183738865e+00 0 0 0
78 2 1.4658719809209659e+01 1.0909736827783936e+01 1.4571227134522159e+01 0 0 -1
79 3 1.6370843609614013e+01 1.0945607590042142e+01 1.7666437537992088e+00 0 0 0
80 4 1.6171498658114004e+01 1.2947648379885688e+01 3.7086582151282244e-03 0 0 0
157 1 1.4549292996216685e+01 1.2704725383156790e+01 5.4585691343060434e+00 0 0 0
158 2 1.4636309492817833e+01 1.0819209783070370e+01 3.5777446722988349e+00 0 0 0
159 3 1.6312605741188783e+01 1.1007288689869579e+01 5.2856271798496754e+00 0 0 0
160 4 1.6336798376240022e+01 1.2670891732018077e+01 3.6522029650167926e+00 0 0 0
237 1 1.4644954785950025e+01 1.2832930201607487e+01 9.0981767116154852e+00 0 0 0
238 2 1.4640108891393735e+01 1.0851211800182126e+01 7.2135631546281802e+00 0 0 0
239 3 1.6422409254533896e+01 1.1106250546966827e+01 9.1512405617049772e+00 0 0 0
240 4 1.6452359747282753e+01 1.2680898794752357e+01 7.0871276248390185e+00 0 0 0
317 1 1.4699383189138221e+01 1.2790714893223770e+01 1.2655076135337149e+01 0 0 0
318 2 1.4637047073596158e+01 1.0917535184377810e+01 1.0967933492961601e+01 0 0 0
319 3 1.6511389348951752e+01 1.0965398943355890e+01 1.2902958462543056e+01 0 0 0
320 4 1.6497658194067835e+01 1.2878223391731048e+01 1.1029105862596477e+01 0 0 0

Velocities

1 3.2141550049739109e-01 3.4566296281626991e+00 3.0984439906854884e+00
2 -1.1418543676196992e-01 1.3407675295823547e+00 1.3586526973722945e+00
3 2.1789715237195342e+00 2.3901370156791573e+00 -7.8422774464554001e-01
4 -2.8166142598083104e+00 -6.9860964951585128e-02 -3.4288271427880894e+00
81 7.0424010962222872e-01 5.8168120025408943e-01 5.2131010597336003e-01
82 2.4435035681990342e+00 2.9153408685472511e+00 1.0810526419408388e+00
83 -2.3779630328786543e+00 -3.1916117212856858e+00 2.6097357992689503e+00
84 -2.4486272958552514e-03 2.0447922084904264e+00 -1.7142623298321729e+00
161 1.7347471584819962e+00 8.4972325006233063e-01 3.1546915368706556e+00
162 -7.5425123555590956e-01 -9.5969738674725125e-01 -3.3980766359221617e+00
163 -3.2869576694871387e+00 -1.9757864240572283e+00 -2.4903316133980175e-01
164 5.9908863719599914e-01 -2.4111494443404516e-01 -2.8973878202438326e+00
241 1.1484084961653831e+00 -2.6322480347011852e+00 -2.0205778172873941e+00
242 -9.8618416395221897e-02 -7.3907290292539596e-01 -1.6237527974575221e+00
243 -3.3809830364989377e+00 9.0592608379904105e-01 -1.5832833136169424e+00
244 -2.1682511346703226e+00 2.8411754271162297e+00 -2.5772347822835040e+00
21 -5.1762881351291201e-01 -9.5766289735644661e-01 -2.2861472097750410e+00
22 3.2693215090531753e+00 -1.7878348336228529e+00 -2.0417100234000958e+00
23 -1.5577010102664257e-01 6.6597255412055489e-01 2.9699337219727533e+00
24 1.4016595023316654e+00 5.9940573098211480e-01 9.2128995440974332e-02
101 -2.9311865051605085e-01 2.6450646967477232e+00 -1.7964177516372593e+00
102 -2.3846949170970455e+00 1.1252503738966031e+00 -1.0591582888643493e-01
103 -2.0745275627151472e+00 -1.2978637453288966e+00 8.6179168871476119e-01
104 -1.9437698822437879e+00 -1.8102487313800522e+00 1.4665668263197109e+00
181 3.1919569221361921e+00 3.0923710587173390e+00 -2.0594073398329531e+00
182 1.6671299866276874e+00 -2.4063722309265612e+00 1.1143827762551748e+00
183 2.1286505463773175e+00 -2.5342794039342240e+00 -1.4685687802261644e+00
184 1.6592019638459818e+00 3.6133561211864662e+00 -1.0429103865384630e+00
261 7.9768802107387637e-01 -7.4954951984565132e-01 3.1317382178877189e+00
262 -2.4475035220867105e+00 3.6003325837116140e-01 -3.2339728826196539e+00
263 -3.5228682541065925e+00 2.3525933723904777e+00 -3.0587924705131044e+00
264 -6.9487736421272250e-01 -3.5112343438192717e+00 -3.6124601239028205e+00
41 7.5025119187233091e-01 -1.3961243778599188e+00 -2.7342748574202709e+00
42 -3.1716138169090300e+00 -3.2459833308135697e+00 2.0735577364435569e+00
43 6.5835632955611334e-01 3.3161788679114310e+00 -3.3358738483557220e+00
44 9.3714349155534671e-01 -3.0814071501050320e+00 1.5807287571029005e+00
121 -2.0942289199484700e+00 3.1048805752673103e+00 1.9192677401990670e+00
122 -2.5070541302474565e+00 -2.6674369343583564e+00 -3.2332683988458224e+00
123 1.4858838768270195e+00 -3.6247200000367967e+00 2.8927689730119455e+00
124 -1.3225468003708654e-01 -2.2412529638634910e+00 -1.5893379850276750e+00
201 2.0117344137675857e+00 -2.6545830908185053e+00 -4.3190779166281246e-01
202 -4.5882685780149224e-01 3.5495165975263130e+00 -2.9563514264938915e+00
203 1.4163321924333192e+00 1.5384871924063119e+00 2.2063102313482879e+00
204 -7.6139454888296365e-01 -3.5570492536974956e+00 8.7505433281387224e-01
281 1.6457884169761556e+00 -6.0944486544993592e-01 -3.5511111813537242e+00
282 2.9278450940464955e+00 -3.4042351525422490e+00 8.6498447479910057e-01