# VESTA

4 atoms
3 atom types

0.0 3.6212620 xlo xhi
0.0 3.6212620 ylo yhi
0.0 3.6212620 zlo zhi

Atoms

1 1 0.0    0.000000000         0.000000000         0.000000000
2 1 0.0    1.810631037         1.810631037         0.000000000
3 2 0.0    0.000000000         1.810631037         1.810631037
4 3 0.0    1.810631037         0.000000000         1.810631037
