ITEM: TIMESTEP
0
ITEM: NUMBER OF ATOMS
18000
ITEM: BOX BOUNDS pp pp pp
-6.6205301108889003e-02 2.7407205301108498e+01
-5.4974022448144311e-02 2.7395974022447270e+01
-7.1640418264112782e-01 3.2880840418264711e+02
ITEM: ATOMS id type x y z c_peratom fx fy fz 
362 3 6.26193 5.40007 4.87822 -27.4631 -2.95246 2.9193 1.5412 
1801 2 5.45415 2.7359 2.03132 -25.2886 0.372468 -1.04217 -1.14592 
3061 3 3.01509 5.82453 1.88477 -28.1244 -3.44048 1.54361 1.96814 
4502 2 2.61674 3.08206 4.43189 -24.2922 2.29457 0.719833 1.91816 
10201 1 4.1626 1.22724 3.15662 -7.28632 -2.36018 1.57287 1.23864 
13441 1 1.35413 1.67714 3.34499 -8.17676 0.84327 0.516715 -0.711411 
15481 1 4.5471 1.39433 0.446721 -6.22329 -2.36894 0.840875 -0.126395 
16502 1 6.4085 4.18933 3.43987 -7.56208 -0.251514 -2.18571 0.42614 
12363 1 3.69642 4.19019 2.76854 -7.87076 1.16064 -1.91991 0.79038 
10559 1 3.90913 6.40599 0.412439 -7.25069 2.58586 1.19701 -0.707984 
7860 1 1.33273 1.39376 6.08045 -8.44901 0.800869 1.23863 0.253971 
10802 1 6.7022 1.33831 3.71914 -7.6594 0.848318 1.6995 -0.472764 
6004 1 4.32126 4.24356 5.63205 -6.12044 1.0021 -0.171508 -1.05717 
17760 1 4.97008 3.75109 -0.180508 -7.87332 -0.956662 0.514579 -0.253416 
9003 1 1.48666 1.22329 0.684876 -8.47029 -0.283387 4.04177 2.10339 
1501 2 0.0733032 2.80741 1.60138 -23.6703 0.460207 -1.35365 2.10829 
15660 1 1.53011 6.15761 3.85388 -6.13018 1.10975 -0.828041 -1.69661 
2 3 0.11568 0.0987788 4.96558 -28.3023 0.217456 1.54635 -2.82567 
3001 3 2.45872 0.0737794 1.93367 -28.0763 4.99708 -0.164171 2.45312 
302 2 5.29918 0.0963726 5.00942 -24.1464 3.26794 1.72385 -1.74492 
1 3 0.402269 0.221749 -0.492978 -26.9123 0.41743 0.136898 -1.72175 
10502 1 1.49587 4.31241 5.8953 -7.83319 -0.499203 -1.45926 0.581253 
61 3 0.230974 5.4453 -0.458089 -28.6025 1.66355 1.52406 -2.13564 
11759 1 1.90245 4.32302 1.01298 -7.71117 -1.62947 -2.75029 -0.7961 
361 2 6.05344 5.52299 -0.525403 -24.5398 1.36275 3.81383 -1.37258 
17161 1 7.04052 1.68859 0.501895 -8.08504 3.10815 0.359573 1.09416 
9662 1 7.37206 4.32128 0.80537 -7.50273 -0.230844 1.17816 0.196554 
7981 1 12.8647 2.66543 1.29006 -7.21007 -1.49645 -0.448496 -0.0949484 
662 2 11.2514 5.79306 4.71217 -23.8687 -2.17171 1.964 0.842857 
2101 3 11.0016 3.2319 2.56951 -27.4573 -0.0736066 -2.70124 -1.83266 
3361 3 8.66632 5.98871 2.13651 -28.5633 -0.088763 -0.254287 -1.65663 
4802 2 8.05329 2.77986 4.95342 -24.4348 0.974391 0.108937 -2.0092 
15601 1 9.99983 4.44819 0.529012 -7.50906 0.90215 -1.20468 2.73554 
11820 1 9.43442 1.19946 3.46947 -7.60706 1.41325 1.80187 2.6638 
12422 1 12.3749 4.77779 3.16065 -9.03372 -0.0750727 -0.8657 1.81246 
602 2 10.8702 0.0474591 4.79023 -24.1984 3.07676 2.74573 -2.52159 
11282 1 9.09671 3.97912 3.27267 -7.35266 2.17743 -0.805326 -2.94825 
6062 1 7.29649 6.65045 3.49928 -7.3723 -0.7275 -0.119355 1.62713 
11222 1 12.8014 5.84597 0.543708 -6.32378 -3.53439 -2.49277 -3.94296 
3301 2 8.35728 0.483815 1.91124 -24.6685 -2.32688 -3.6524 -1.58085 
9599 1 10.2201 1.67206 0.982053 -7.74128 -0.882878 0.114355 -1.08828 
15901 1 11.8318 2.16219 4.42803 -7.64043 0.542403 1.8511 0.249393 
12303 1 9.23831 5.04852 5.29627 -6.79312 -1.59632 1.82449 2.36518 
4801 2 8.56618 3.09767 -0.605083 -25.1146 1.05815 -0.0492294 -1.7294 
601 3 11.6327 0.598864 -0.550767 -28.5441 -0.767202 -0.558736 -1.38705 
5102 2 13.9801 3.00535 4.90121 -23.1887 -2.00472 -3.85165 -2.82519 
6601 1 14.889 1.85646 3.30377 -7.79041 1.68334 -0.535227 -1.22613 
8283 1 16.939 6.20835 1.60415 -5.85796 0.420256 1.20969 -2.29791 
3661 2 14.1663 5.71071 1.97124 -24.4642 1.96373 0.566236 5.00983 
962 2 16.4898 5.83026 4.81894 -25.5746 1.38802 3.88171 -0.156941 
2401 3 16.7602 2.77094 2.1954 -28.2778 -1.57538 5.82746 -0.713158 
3961 3 19.3423 5.88187 2.13761 -28.9927 -2.15633 0.408992 -3.29727 
5402 2 19.5023 3.43972 4.56789 -24.5057 -0.818862 -1.27039 1.59892 
11941 1 18.2846 2.22731 3.22277 -8.21699 1.98854 -3.18618 -2.40485 
9719 1 17.8865 3.41698 0.622512 -6.41512 0.680156 -0.0264051 -1.67288 
17160 1 20.3817 4.03526 1.30529 -7.54346 0.553472 0.742843 1.43304 
3601 2 14.2861 0.382534 1.73227 -25.0149 -2.6852 -0.761362 1.18179 
14700 1 19.483 5.71974 -0.680058 -6.02244 -1.99017 2.24757 0.920437 
16503 1 15.6445 4.26002 3.54264 -7.27047 -1.69691 -0.529109 0.0013525 
16980 1 15.0628 4.19727 0.830993 -7.80092 2.31959 -0.734213 -0.497763 
14104 1 18.1303 4.90918 3.45471 -7.37373 1.31406 -1.53942 2.70872 
11461 1 20.2926 6.26599 3.66893 -6.81079 1.2001 -1.06899 1.37437 
961 3 15.9877 5.97741 -0.474112 -27.0591 -13.0486 -15.6635 9.47848 
14102 1 13.8487 0.90345 -0.352514 -7.26003 1.23391 -0.915994 1.00838 
5101 2 13.9308 3.09512 -0.620686 -24.8489 -0.399198 -0.837441 -1.79908 
902 2 16.6308 0.293691 4.14721 -23.751 2.22474 2.92009 3.1527 
3901 3 19.5717 0.43481 1.82509 -26.4745 -0.641088 -1.67784 1.01682 
8641 1 16.215 1.35021 1.0896 -7.5368 -0.569364 -0.494913 -2.13616 
6898 1 20.4496 1.68718 0.384159 -9.27978 0.537657 -2.01076 -0.544186 
7141 1 15.0623 1.05274 5.79417 -6.50321 -0.217906 1.55788 1.18824 
6782 1 14.7018 4.73289 5.83068 -9.42992 -1.13282 -0.256156 2.85039 
15543 1 17.3842 2.06867 5.45912 -6.24547 -0.579721 1.68245 0.280744 
7262 1 24.389 5.05164 4.13987 -7.77945 2.34561 -0.0149136 1.10507 
17402 1 22.5199 5.04868 2.48765 -7.29131 -0.0414534 0.0514308 -2.37237 
6961 1 23.4016 1.63783 0.0952725 -9.27251 -0.00259117 -1.93421 5.29049 
62 2 27.0723 5.63312 4.91179 -24.819 5.1871 0.534317 -1.91604 
13260 1 25.9932 1.3968 0.682879 -8.47695 0.621605 1.96487 -1.88985 
1262 3 22.3587 6.026 4.30291 -28.6238 -4.07439 -2.99824 -1.30159 
2701 3 22.1575 3.05294 1.66302 -26.868 -0.113051 1.75364 0.477825 
4261 3 24.6057 5.79195 2.09097 -28.2252 1.50991 0.339936 -0.355023 
5702 2 24.6948 2.9278 4.71261 -24.5971 -0.0687308 0.12145 3.42564 
7201 1 26.736 4.63784 0.978859 -7.42462 -1.17045 0.147204 1.68268 
17462 1 26.6442 0.2447 2.86099 -7.02984 0.214499 -1.075 0.688163 
4201 2 24.5803 0.363704 1.92582 -23.2661 1.62073 4.21593 2.82729 
13023 1 21.562 3.82728 4.72363 -6.43264 2.54553 -0.186914 -2.66192 
8882 1 23.985 2.60237 2.84852 -8.18646 -1.56688 -0.682529 -5.46074 
14401 1 23.166 6.68322 5.7293 -7.79922 4.0262 1.46826 5.19328 
7861 1 24.3792 4.89166 0.435318 -6.919 -1.27863 -1.44487 -1.48204 
12243 1 21.2064 1.06398 3.20718 -7.80118 -0.711219 4.87741 -5.90078 
1202 2 21.6292 0.236938 5.01185 -24.5583 2.52374 3.01073 4.6332 
6001 1 23.9151 0.257807 3.96117 -6.66908 0.133572 -0.225919 1.25477 
9542 1 26.4735 6.79909 3.2304 -8.06537 -2.79619 1.56334 -0.311017 
10801 1 25.9359 1.69149 5.95028 -7.68337 1.06099 -1.38567 0.0913298 
12119 1 26.7213 3.51908 3.91517 -7.25775 0.916949 0.332177 -2.68471 
8221 1 22.4196 3.74405 -0.644638 -7.80634 -1.47391 0.373512 -0.727368 
15181 1 4.12406 7.23443 3.34744 -7.91276 1.21905 -1.21076 -1.02807 
121 3 0.178776 11.3029 -0.610853 -29.5089 1.16648 0.910941 1.83698 
10441 1 2.01036 8.80335 2.64266 -7.0933 -2.79202 0.198946 -0.521515 
10561 1 3.76378 12.2618 0.407728 -7.82002 1.78453 -0.238746 1.78483 
422 2 5.72905 10.8108 4.91493 -23.1354 -2.02345 0.557493 0.980142 
1861 2 5.45336 8.4837 2.19367 -24.5855 2.76434 -0.771875 -0.157334 
3121 3 2.96605 10.5903 1.65952 -28.835 -2.81547 2.76889 -1.3661 
4562 2 2.64507 8.24717 4.70653 -26.145 -1.00557 -2.72403 1.94626 
6003 1 3.93319 10.1119 3.16208 -7.46019 4.19444 -1.46385 2.94096 
122 3 0.195218 10.9481 4.68147 -28.1095 -1.15597 0.779635 0.94997 
12421 1 1.12173 11.5913 1.98216 -5.84412 -0.55361 -1.04469 2.50449 
14704 1 0.432547 8.89836 4.98484 -6.39074 2.05251 1.04249 -4.49458 
7619 1 1.70645 9.999 0.102959 -7.28293 0.955065 -0.45312 -0.732874 
6121 1 4.50774 9.21777 0.409812 -7.68989 -2.35928 0.821766 1.18803 
9361 1 6.70331 9.12938 4.18505 -7.90158 -0.0231224 -0.135434 -1.10931 
6123 1 6.67529 10.216 1.57056 -6.32757 -2.16166 -4.08282 0.235419 
15840 1 6.64107 12.4258 1.46377 -6.86046 -2.62499 5.29348 -2.11406 
7022 1 1.23936 13.0092 4.31963 -8.00588 -1.51489 0.217701 0.95277 
16921 1 3.87954 12.6105 3.34064 -7.03885 1.16491 1.13703 0.59221 
421 3 5.65039 11.6787 -0.352086 -28.4891 -1.50379 0.0201564 0.701543 
13320 1 0.873514 7.02331 0.773958 -6.92856 -0.109715 -0.657114 0.414278 
12362 1 7.10121 7.18548 0.909986 -7.24173 -0.410269 -0.519268 -0.183584 
6661 1 10.5195 7.11592 1.11863 -5.96946 -1.29097 -0.0849221 0.195048 
11220 1 9.7521 7.31211 3.68256 -8.03486 1.63944 -0.992127 -1.11773 
6364 1 12.3611 7.08907 5.94776 -7.288 1.5032 1.29631 0.178961 
15961 1 12.4904 12.4833 0.94991 -5.86225 -0.305093 2.21947 -10.0348 
6480 1 6.8741 12.5426 4.36057 -7.41922 -1.67313 -3.65545 0.68722 
9661 1 12.1924 9.7704 0.557206 -9.32681 0.77179 -0.789572 0.420755 
10981 1 9.21793 9.5113 1.04828 -7.03842 0.248377 0.755571 -1.36489 
722 3 11.0987 11.8161 4.73486 -29.037 -0.737274 -2.90996 -0.0769032 
2161 3 10.9775 9.04196 2.18238 -29.333 -0.0512807 -1.87772 1.32661 
3421 2 8.32503 11.3994 2.02119 -25.0871 5.15334 0.351876 1.87487 
4862 2 8.52429 8.16804 5.12632 -23.8446 -5.20672 0.182999 -2.64051 
9062 1 10.1645 10.5454 3.27966 -6.5454 -2.42271 -0.166575 -1.60622 
7021 1 11.8165 9.58351 4.87319 -6.55075 1.92177 0.719754 2.70151 
16982 1 9.524 13.0062 3.27003 -7.28151 0.96194 0.0862507 -0.722028 
5161 3 13.5054 8.88303 -0.645465 -27.1846 1.77738 -2.81679 0.131308 
6483 1 9.0986 10.0494 5.67721 -6.96796 0.748776 2.00363 1.18916 
13803 1 12.3926 7.74148 3.31001 -6.95549 -0.293491 -2.15566 -2.22372 
7863 1 9.74083 12.6887 5.84281 -7.34895 -1.0559 2.17933 1.23225 
7081 1 9.71568 12.4793 0.568394 -7.13199 -0.248043 -1.26658 -0.378139 
9422 1 12.4135 11.545 2.76665 -4.89583 -4.46182 -5.57804 8.06075 
13561 1 14.6152 7.27144 0.43742 -7.31365 2.04857 3.21 1.19424 
11161 1 17.5089 7.9721 3.82711 -6.55683 0.403757 -0.806129 0.261504 
8941 1 20.2157 7.26443 0.817266 -6.74547 1.38391 1.37855 2.50943 
7921 1 15.536 12.996 5.29294 -6.83005 -3.58624 2.12155 -2.53786 
5162 3 13.7249 8.40644 4.44517 -28.8494 0.388054 0.717931 1.90913 
12782 1 15.0572 10.4554 0.0733548 -8.50688 -1.02378 -0.450744 -0.994514 
3721 3 14.0612 11.1806 1.84833 -28.9475 -1.93706 3.00692 -0.380304 
6602 1 15.8825 11.3022 2.55426 -7.4965 1.74731 1.72638 0.536208 
14101 1 15.1661 7.0821 3.2931 -7.64133 -1.59304 -0.187421 2.44586 
1022 3 16.4243 11.193 4.792 -28.636 -1.1248 0.569468 1.03677 
2461 3 16.2263 8.81435 2.0686 -28.2186 2.72082 -2.10639 0.848951 
4021 2 19.2862 11.1546 1.8392 -24.4384 -0.920771 1.43195 1.23353 
5462 3 19.1939 8.44701 5.01475 -29.8353 -0.961468 0.0754919 -1.45344 
8521 1 18.0727 13.371 3.26598 -7.53919 -0.731151 -1.43701 -0.0846865 
14462 1 20.3459 8.80436 3.21862 -6.40931 1.29053 2.33859 -0.932988 
17761 1 18.1353 12.8488 0.621204 -7.46727 0.0947164 -0.56673 -0.693394 
6962 1 14.4407 9.33326 2.44863 -7.65283 -2.07227 -0.837129 -0.158818 
8700 1 18.0219 9.54155 1.20499 -7.60855 -1.00397 -1.26227 0.197702 
8341 1 17.9425 10.6184 3.98482 -6.83744 3.67377 0.47694 -1.86807 
11881 1 14.8457 10.0241 5.00733 -7.72884 -0.390154 -0.555437 0.807611 
14881 1 13.8461 13.1393 2.92805 -6.71745 4.65957 4.82466 2.00123 
5522 3 19.2813 13.5054 4.66933 -27.8659 2.85952 2.28107 1.20374 
8640 1 15.3926 13.3179 0.476607 -7.97574 0.053576 -1.365 0.360042 
13322 1 17.5754 12.6451 6.03574 -7.88744 6.49405 -1.12315 1.99686 
11460 1 26.543 10.2194 0.750175 -7.66659 -1.75456 -2.12817 -0.866364 
10442 1 25.2134 7.55999 0.978487 -7.22267 -0.0320478 1.44321 -0.212401 
17821 1 23.5229 7.43912 3.31863 -8.65058 -0.989601 1.53021 -3.2805 
1561 2 27.2084 8.53807 1.90695 -24.8497 1.29425 -1.81682 -0.217082 
17939 1 20.9841 13.105 0.243694 -7.31384 -1.31842 -1.47105 -1.62876 
10980 1 23.5648 12.8655 0.856521 -6.93277 1.53857 -2.38486 -1.42151 
14161 1 26.033 7.23265 6.09043 -8.75767 -1.92279 -3.00493 0.86228 
12722 1 24.0296 12.1961 5.97744 -8.26009 -5.02449 -1.97584 2.76127 
6959 1 22.2719 8.06969 -0.599654 -6.80264 1.56289 0.0220008 2.36651 
1322 3 22.2415 11.5708 4.79673 -28.7046 0.588236 -0.738848 -1.30493 
2761 2 22.2815 9.07874 1.89334 -24.0144 -1.26437 -3.35451 0.304437 
4321 3 25.0188 11.3856 2.19164 -28.8335 -4.28789 -1.02623 -4.80755 
5762 2 24.951 8.32021 4.65806 -23.8215 0.194268 1.77586 -0.625383 
13020 1 25.5599 9.81106 3.21014 -7.99122 4.34769 -2.68921 0.656726 
16321 1 23.6164 13.0888 3.46418 -7.23399 -3.04328 1.00934 -0.458199 
5822 2 24.9352 13.6233 4.96789 -23.4818 4.29154 5.84813 -2.56761 
13862 1 26.3326 12.7215 0.663526 -7.44719 0.777658 1.4653 0.806522 
17581 1 20.904 12.5068 3.08663 -7.81068 -2.22401 -2.41966 -0.725092 
8401 1 23.1743 10.4607 3.20028 -7.32703 -1.89359 0.865719 0.306276 
11822 1 26.5241 12.4593 5.88624 -7.59052 0.473046 -0.062988 -0.883056 
8760 1 20.9653 10.2626 0.663035 -8.42415 -1.41764 0.491041 0.388236 
15959 1 23.7727 10.1368 0.578622 -8.73595 0.262373 -0.0365948 -1.62309 
7741 1 25.9435 12.4083 3.2019 -7.5152 5.59172 3.53315 4.16743 
9723 1 20.9197 7.66528 5.8411 -6.95476 -1.18998 0.752274 0.287785 
6722 1 23.6433 9.60261 5.69407 -7.38124 -1.04227 -0.560723 2.42285 
9721 1 21.1166 13.1001 5.69168 -7.58935 0.861639 0.46481 2.73201 
10143 1 26.2929 10.0255 6.10635 -6.56531 -4.88755 -1.38141 0.122454 
13021 1 20.6636 10.5982 5.44605 -7.14763 -1.87075 -0.681146 1.91978 
13802 1 5.42381 14.0705 -0.145336 -7.41794 -0.644267 1.90516 0.372493 
15419 1 1.75764 13.9493 0.99335 -6.16656 0.441094 2.08719 -0.670568 
1621 2 0.12164 14.0136 2.42303 -25.2194 1.50451 -2.65843 -1.32685 
10380 1 3.24346 15.2795 3.42755 -6.2069 2.2637 -0.74291 -1.88384 
1921 2 4.8052 13.9339 1.85065 -24.1066 -0.0876194 0.116452 3.84275 
4622 3 2.91959 13.8989 4.90022 -28.5092 1.93216 1.4313 -0.751431 
9180 1 5.2354 19.888 4.99112 -6.48342 0.0313017 0.130383 2.00863 
11400 1 2.07977 17.9288 0.340627 -7.21233 -3.51197 -2.31314 1.15496 
8822 1 4.5105 17.8619 3.37126 -7.05978 -4.7367 2.66753 -7.89619 
482 2 5.71534 17.1142 4.63417 -24.2415 2.60132 -6.1623 3.26931 
1981 3 5.5931 19.5258 1.93528 -28.1799 -2.56232 -2.58999 -1.96248 
3181 3 2.601 17.0411 2.05497 -29.4651 2.59718 -0.399372 1.78517 
4682 3 2.12949 20.154 4.8799 -28.9325 1.18793 -1.43937 -1.56448 
13982 1 4.4026 18.2349 0.422502 -6.77322 5.69012 -1.31434 3.58284 
9541 1 1.58763 18.5218 3.14608 -7.21235 1.28301 -1.02301 -0.0409997 
1681 3 0.252614 19.688 1.97335 -28.1335 0.182301 -1.65479 -2.87367 
182 2 -0.0024449 16.8845 4.5815 -24.2953 2.14739 -0.0903753 0.698124 
15480 1 4.16485 20.5259 0.940126 -6.95139 1.14291 1.87213 -1.04708 
13140 1 0.924527 16.0547 2.63139 -7.46615 -1.73447 0.357715 0.155873 
13442 1 1.3042 18.4012 5.84827 -7.66229 -1.89402 -2.45732 -1.03566 
6244 1 6.6526 20.3849 2.97425 -7.59913 3.29893 2.91877 1.88118 
181 3 0.370708 16.9299 -0.534049 -27.613 -0.276916 0.66307 0.190647 
13861 1 5.01047 14.9188 5.47939 -6.32734 -0.626938 -0.653919 -1.13846 
10622 1 1.7778 15.6909 5.50174 -7.61695 -0.926746 -0.228228 2.33821 
6422 1 3.83461 15.8559 0.857055 -7.38181 0.935898 -2.70985 1.44861 
4621 3 3.3271 14.3978 -0.627607 -29.0052 -2.06176 -0.992462 0.59929 
781 3 11.1002 16.6908 -0.550376 -29.2652 1.74429 -1.33196 -0.00894552 
15061 1 7.23202 14.7173 2.93244 -5.96103 -0.987141 2.07956 -0.544376 
4922 3 8.10126 13.8902 4.7214 -30.306 2.47583 2.76678 -0.33386 
2221 3 11.3735 13.7495 2.15934 -29.0203 -0.118684 -1.08264 -2.45104 
4981 2 8.93492 19.4595 -0.644554 -24.2901 -2.37189 -2.97573 -2.73982 
6482 1 7.26964 18.5213 0.500003 -6.83404 -0.85837 2.18411 2.79556 
6543 1 7.34079 17.7079 5.76611 -7.37339 1.9575 0.10554 2.28237 
16140 1 9.86235 20.4492 0.945055 -8.80312 -0.226156 3.81829 0.692592 
7622 1 7.37218 17.6279 3.17468 -7.87519 -2.31575 0.184943 -0.953154 
12539 1 7.46217 16.0526 0.408308 -7.50343 -2.34784 -1.51144 -1.59643 
9421 1 10.1982 15.1881 1.02035 -7.48551 -0.399263 0.506664 0.293151 
6122 1 13.0691 15.1405 0.993761 -7.30131 -0.197368 1.3882 2.60268 
782 3 11.1558 16.5021 4.84391 -28.7853 -1.99103 0.751221 1.81702 
2281 2 11.0707 19.5975 2.5481 -24.1007 1.62377 -1.47805 -1.10438 
3481 3 8.56185 16.6347 1.6927 -28.7983 1.31797 0.485963 2.34532 
4982 3 8.26609 18.9112 4.38154 -28.003 -0.351006 -0.312417 2.86064 
17162 1 9.84964 17.5428 2.7878 -6.90972 1.19307 1.59351 4.86052 
14522 1 11.5418 14.7575 3.98156 -8.46982 3.46125 -1.51662 -1.43614 
17042 1 12.4305 17.898 2.8611 -7.62804 1.46316 -0.417666 0.0793559 
7982 1 10.0694 17.9572 0.505244 -6.83473 0.186951 0.121912 0.438774 
16801 1 9.2046 20.3014 3.64839 -8.26441 2.92336 0.979985 -2.34667 
17699 1 10.2315 18.0917 6.00764 -7.25647 -0.486149 0.250046 0.0229456 
5222 2 13.6282 14.0806 4.8457 -23.1787 4.86792 6.02393 -4.16689 
17640 1 9.30025 15.645 4.81191 -5.51712 -1.33783 1.03474 -2.83978 
11581 1 12.5853 19.0772 5.47116 -7.88873 -4.5066 -2.00177 1.8628 
10681 1 7.7283 20.3905 5.91805 -6.92079 -0.533686 0.593544 0.767156 
11280 1 13.2294 17.5936 -0.33873 -6.40622 -1.00708 0.761221 1.66955 
4921 2 7.93309 14.261 -0.676287 -24.9722 2.47878 0.54678 0.457769 
5221 3 13.9379 14.3747 -0.529977 -28.6092 -0.81366 0.923469 -0.526856 
8220 1 17.6957 15.9736 2.94744 -6.7817 1.53831 -0.343933 1.27655 
3781 3 14.3474 17.0953 1.86984 -28.5304 -0.542501 0.687634 -1.04952 
17400 1 15.3861 18.6072 0.824315 -6.58848 -3.42395 1.81183 0.54401 
14162 1 15.1377 15.5668 3.85071 -8.21657 -1.83954 -0.744874 -0.909228 
5282 2 14.21 19.8774 4.72929 -24.0236 3.01914 1.49531 -0.757326 
2521 2 16.1395 13.9572 2.35442 -24.9416 0.939369 1.69883 0.709999 
1082 2 16.6667 17.0294 4.6077 -24.8295 0.174397 0.127665 0.122395 
2581 3 16.7832 19.8131 1.95296 -29.8407 0.022325 -3.10558 -0.724099 
4081 3 19.4651 16.9239 2.13649 -29.2906 -2.97561 0.492124 -1.44143 
5582 3 19.3581 19.4924 4.71048 -27.3934 -0.830011 1.39451 0.302367 
16081 1 15.8055 16.0318 1.11773 -6.70019 -1.24707 -2.05467 -0.966559 
16141 1 15.2214 18.3605 3.52799 -7.82883 -0.598995 -2.02503 -1.39105 
17281 1 17.9395 18.2962 5.97385 -7.60224 -5.28185 -1.47691 -0.907963 
14641 1 18.7536 16.2055 0.00132428 -6.15243 -1.00752 0.163866 1.6763 
16562 1 18.025 18.5765 3.01973 -7.39967 0.865882 0.232412 2.66494 
16322 1 17.6563 18.3284 0.42491 -5.82145 2.48839 1.38214 -2.43786 
17040 1 19.4839 20.4594 0.853662 -5.54262 0.834403 -2.45673 0.111651 
5521 2 19.3367 14.401 -0.697951 -24.5607 -0.473884 -2.74814 0.206821 
17582 1 19.3925 15.5429 5.4374 -6.43573 -2.52709 0.428274 1.9575 
11281 1 16.4172 20.2454 4.75484 -8.24971 3.0503 -1.04537 4.75431 
10079 1 23.7802 15.4012 0.951819 -7.99191 0.123798 0.607234 0.0850465 
2821 2 22.0599 13.997 1.88291 -25.3352 0.771604 -0.223682 2.24856 
15241 1 25.9836 15.4209 3.59202 -8.69412 0.304723 -2.41063 0.194515 
14402 1 20.5399 18.3376 3.85872 -7.68038 2.15475 -3.36335 0.152653 
13621 1 21.0429 15.7083 0.99491 -6.99442 -0.444021 -3.38029 0.605911 
14221 1 23.5301 17.5993 3.75241 -9.28978 0.118984 0.415922 -1.93198 
7261 1 27.1045 18.3555 0.808412 -7.13371 -1.93047 -1.9393 -1.52223 
9959 1 26.5095 15.8117 0.668002 -7.93265 -0.551072 -1.93018 0.323627 
7142 1 20.8494 17.951 1.30662 -6.25303 0.367069 1.80785 0.413581 
14281 1 23.7445 18.1641 0.807376 -7.50073 3.99146 -4.63854 1.62679 
1382 2 22.0597 16.658 4.97656 -23.3178 -4.46713 0.990887 1.89025 
2881 2 22.3752 19.2845 1.93157 -25.5565 -1.31808 3.78208 -1.61688 
4381 2 25.0505 16.6667 2.22786 -23.3814 -0.39261 2.82574 -3.24296 
5882 3 24.4642 19.1895 4.74849 -27.2794 0.935793 1.33904 0.280675 
9183 1 21.1796 15.0392 3.84054 -7.05694 1.36362 1.51093 -2.94714 
8340 1 23.8642 20.5059 2.9509 -7.67049 1.15352 -0.285419 2.21278 
1381 2 22.1763 16.9416 -0.468395 -24.6499 -1.71986 10.4879 7.96403 
11641 1 26.1348 18.2581 3.39882 -8.60248 -0.592583 -0.0132863 1.14707 
14761 1 23.6678 15.4294 5.59118 -8.97949 0.7147 -1.03996 2.24098 
7083 1 26.5003 15.0355 6.01661 -7.86716 -0.629871 1.06789 1.66443 
5821 2 25.105 14.0171 -0.439077 -24.4701 -1.11566 0.865315 -1.61338 
8580 1 22.0871 19.4348 -0.512168 -5.21594 -3.56948 0.882065 -1.76905 
5881 3 24.992 19.5195 -0.692344 -29.2778 -1.60035 0.00250744 1.0259 
4741 2 3.34411 24.9747 -0.527444 -24.5324 1.08989 -1.10722 0.0248629 
13801 1 3.29029 20.999 3.27477 -6.05844 -1.69318 -2.85361 0.818035 
14943 1 1.5985 20.7606 0.268849 -6.91532 -2.70871 -0.696471 3.89017 
7800 1 2.60005 22.7661 -0.609999 -6.84626 -1.15656 3.09231 -0.716021 
15242 1 1.83134 26.1699 3.49471 -8.28594 -0.70523 -1.13472 0.885781 
13980 1 4.19168 26.2705 0.909815 -6.40885 -1.2806 -1.13176 0.946873 
14042 1 1.38163 26.1789 1.06466 -8.06745 -1.31237 -2.46101 -0.777186 
542 2 5.8014 21.9191 4.85001 -24.9767 1.15313 0.740552 -2.62921 
2041 3 5.87969 24.5641 1.97452 -28.8994 -0.228155 2.6333 0.14437 
3241 3 2.88783 22.022 1.53713 -29.3738 0.599067 -0.351463 1.08855 
4742 3 3.18177 24.8238 4.94245 -27.5868 -0.528821 -0.42455 -1.77764 
14041 1 1.11794 22.7494 2.71896 -7.66477 -1.14496 3.60954 -3.03612 
11041 1 4.62576 26.0593 3.74219 -7.19804 -1.11231 -3.29405 -0.131757 
15723 1 4.2265 23.1571 3.71157 -6.04849 3.23145 3.02567 -0.0507005 
1741 3 0.310598 24.8735 2.5409 -26.2695 0.61101 0.563663 -1.41016 
13622 1 2.00318 23.3021 4.98226 -7.46742 -2.46431 -0.351733 2.67504 
12543 1 6.72129 23.865 -0.225395 -7.41377 1.01961 2.67288 0.929226 
8102 1 0.41314 20.571 3.43954 -7.10574 -1.29561 3.12392 4.08425 
15542 1 0.51852 20.9101 6.09538 -7.58673 0.254007 1.77117 -0.339727 
13859 1 1.22304 26.1831 6.05646 -6.84858 3.32349 0.345665 -2.6322 
13501 1 4.26752 23.5953 1.0891 -7.559 0.0948375 0.491658 0.235072 
15903 1 12.3833 27.2994 2.98734 -5.81037 0.273706 0.901036 -0.679605 
15421 1 6.99846 21.5326 0.582518 -7.40973 1.64787 -1.86494 -0.241736 
12121 1 6.95852 26.4367 0.673157 -7.04514 1.95675 -0.229414 -1.79869 
16802 1 12.1885 23.489 0.722107 -7.43357 1.28524 -0.373866 -0.248131 
16743 1 13.5244 21.8834 6.08078 -8.23517 -0.875506 -2.26567 -1.45071 
13800 1 9.79809 26.2409 1.2336 -7.4933 -0.884871 0.235847 -2.08036 
15781 1 7.40751 26.0328 3.25677 -6.54724 1.22984 0.379759 0.582926 
17401 1 12.4345 21.1664 3.55907 -8.38384 0.805708 -2.33673 0.12364 
14581 1 7.17802 23.4754 3.10759 -7.86135 0.373213 -2.42034 0.116565 
14341 1 10.6084 25.5808 3.83993 -7.48708 -4.43586 -0.229703 2.97594 
842 3 11.6324 22.22 5.03508 -28.7614 -2.7008 1.59516 -0.335759 
2341 3 10.9621 24.712 2.14075 -29.6612 1.63728 -0.640434 -1.10487 
3541 3 8.6387 21.9 2.16567 -27.9982 -0.590819 0.916115 0.952364 
5042 2 8.54807 25.1016 4.92013 -25.046 -2.2754 -5.019 0.97907 
12181 1 12.776 26.1115 0.407252 -7.43092 -2.48715 1.20181 0.858037 
9060 1 9.51171 23.4423 1.06951 -7.13547 -3.73904 1.49799 -5.64515 
9543 1 10.6425 22.671 2.7152 -5.59532 0.00540938 -2.25112 3.6888 
17881 1 12.6584 24.2367 3.37639 -6.91649 3.42144 -1.32829 -0.200732 
7802 1 8.90981 27.012 5.70464 -8.26855 2.42193 0.172518 0.203937 
10861 1 9.70673 22.6263 5.30968 -5.86462 -1.98302 2.45123 -1.97455 
9783 1 11.9791 23.9105 5.98522 -7.2194 1.47858 2.10665 -0.126129 
16681 1 13.0907 20.5363 0.703859 -6.52202 0.940444 0.359576 2.06739 
841 3 10.7974 22.539 -0.696202 -27.4884 4.35699 -1.08209 1.61036 
17342 1 19.4277 27.0976 4.18985 -8.45459 -2.82377 -0.856458 1.24771 
15780 1 15.3111 23.5874 0.674431 -9.30475 -0.764207 -1.05266 0.955865 
7082 1 16.9451 20.8363 0.215843 -7.14651 -2.81242 -0.271859 -0.972182 
15663 1 15.0275 21.1577 3.14271 -7.72314 0.950421 0.606615 -2.71941 
12900 1 18.2396 23.8104 0.783547 -7.64498 -3.43847 0.217753 1.90909 
3841 2 13.7682 22.5028 2.1043 -24.322 -3.57705 0.523546 -1.04802 
12241 1 14.9202 26.6654 3.7445 -8.04526 0.225841 -3.09871 -2.72962 
11700 1 15.2864 23.74 3.65139 -8.45989 0.565526 0.41496 -1.2446 
5342 2 14.0398 25.1522 5.02569 -23.8403 -1.47922 -1.4145 -0.729866 
11701 1 17.8136 21.4014 2.59347 -8.02075 1.91745 2.45651 1.84426 
9660 1 19.899 25.4921 1.65982 -7.10245 -1.15281 2.58937 2.72321 
14821 1 17.4032 26.8631 2.0428 -7.86889 1.42578 -0.345586 3.88669 
1142 2 17.0046 22.192 4.37863 -22.9879 -2.13867 5.78249 0.154005 
2641 2 16.5812 24.7345 2.00204 -22.9617 2.02357 2.52261 0.811115 
4141 3 19.9746 22.1787 1.81986 -29.6771 -0.452125 -0.57856 -3.67899 
5642 3 19.9162 25.181 4.04576 -26.8816 -1.64122 -1.78071 0.700987 
8100 1 17.8484 24.4638 4.17639 -7.65032 0.114901 -0.21843 -3.83455 
15662 1 15.3979 26.2759 0.42843 -8.04543 0.838992 -1.25132 1.16097 
5341 3 14.0273 25.1711 -0.557224 -27.7655 -0.0342982 -2.19259 -3.14872 
17641 1 18.3724 26.5352 -0.439495 -7.69909 1.9641 0.509556 0.206914 
13082 1 18.9628 22.0953 5.24288 -8.05182 -1.12567 -1.38522 -2.40565 
5641 3 19.7015 25.0883 -0.468439 -29.4614 2.39054 -3.78752 1.95783 
16441 1 19.8447 22.4738 -0.356945 -5.38006 -0.323906 -0.204263 -3.34197 
241 3 27.2177 22.1998 -0.538308 -26.9708 2.34827 -0.937429 0.0700993 
7740 1 25.5754 22.655 3.60898 -7.65847 2.09323 -0.634375 -1.23638 
14942 1 26.7812 24.0117 0.870455 -8.93055 -0.483507 -1.46271 -0.38222 
8400 1 23.6389 22.8051 5.73338 -7.98597 1.92007 2.07547 1.50849 
12781 1 20.8053 23.6257 3.12897 -8.53829 -1.50012 -0.683503 0.430302 
6242 1 26.2846 20.7144 0.772755 -7.93648 1.79953 3.64842 1.56011 
242 3 27.3618 22.4871 4.64903 -27.7268 1.13801 -2.0475 -1.41247 
9000 1 21.6412 24.25 0.169346 -5.25769 1.1142 0.833392 0.389701 
7440 1 21.8218 26.1098 3.70097 -8.14142 0.170288 -4.50642 -0.420162 
16500 1 21.936 22.1102 1.21208 -6.05285 1.95377 -1.56777 1.15347 
12000 1 21.2813 20.7543 3.19446 -7.69275 -2.9355 -0.224873 1.57164 
14403 1 23.9281 20.5996 0.304776 -5.64797 -0.235071 4.59916 2.50891 
8881 1 21.7731 26.6261 0.671564 -7.50407 0.500981 6.32835 -0.298074 
17341 1 26.3923 24.9933 3.84626 -8.08357 0.95224 -0.231427 -0.968029 
11699 1 23.433 23.7638 3.12663 -8.37402 -0.597846 0.735503 -0.113961 
1442 2 22.0241 22.3364 4.44258 -24.2359 1.08654 -0.74073 -1.17933 
2941 3 22.2353 25.2569 1.89525 -28.7228 -1.17042 -3.77499 -1.16782 
4441 3 24.6649 22.3534 1.74421 -27.9736 -2.03486 -2.36731 0.949426 
5942 3 24.6036 24.5215 4.73704 -27.1165 1.07496 0.351348 -0.265647 
15482 1 24.2003 25.897 1.52094 -9.00248 1.04091 -3.38256 -2.24057 
12961 1 26.3312 26.5027 5.90414 -7.32158 -3.23847 -0.63637 0.383236 
7442 1 21.2824 21.0906 6.06559 -7.51232 -0.202231 -0.379416 -0.0149826 
5941 3 25.0134 25.1671 -0.539755 -27.1375 -0.881734 -0.774892 -0.225059 
17880 1 24.2602 23.266 0.00646081 -8.35842 1.35661 1.01004 -0.142018 
10262 1 25.458 20.5552 5.67909 -7.25257 -0.332545 1.39549 0.191541 
7322 1 21.0546 23.7023 5.82477 -8.09635 -0.0820793 2.94616 0.140862 
15362 1 4.16281 1.70606 6.1534 -8.62737 0.655921 -0.981179 0.19074 
7503 1 1.91238 1.1434 11.8125 -8.36216 -1.42095 1.37549 -2.57017 
10923 1 2.02813 5.72507 9.99549 -5.34048 -0.986978 -3.61882 2.28156 
363 2 5.30242 5.71205 10.1392 -24.6741 1.22123 -0.0592623 -0.258647 
1802 3 5.68304 2.95801 7.61418 -27.2017 -0.751742 0.977009 -0.730487 
3062 2 2.23605 5.62738 7.69701 -26.466 3.43551 2.16326 0.250251 
4503 2 3.13485 2.9368 10.5501 -23.5604 0.115102 -0.480572 -0.854012 
8763 1 0.371989 4.80584 8.39009 -7.27646 -1.3909 0.422753 -1.42676 
17703 1 4.36678 4.3486 8.52609 -7.93123 0.549 -0.827363 1.58708 
16803 1 2.00767 2.84438 8.55287 -7.93321 0.804227 -2.36024 1.09391 
8942 1 4.46229 1.14099 9.1622 -8.36974 -2.54375 3.30743 -3.95457 
303 2 6.02499 0.485287 10.2496 -23.8299 1.86318 -0.0409826 5.79653 
1502 3 0.338479 2.99444 7.2917 -28.5213 -1.79193 -0.619644 -0.583853 
3 2 0.291133 0.775547 10.1948 -24.2729 -1.91053 -0.351291 0.0484649 
7263 1 5.59802 3.49799 11.0535 -7.68712 -4.06556 1.7216 -2.79061 
10264 1 4.56614 1.17747 11.8397 -6.94481 -0.568128 1.39678 0.272002 
13202 1 0.459948 3.00353 11.094 -8.29082 -2.01518 -0.327983 -3.74479 
15122 1 4.08444 6.22916 11.9127 -7.634 3.08908 0.629674 -1.64707 
3002 2 2.95895 0.341403 7.33068 -23.7156 -3.89847 -0.51519 3.69174 
17822 1 0.323334 5.36081 12.3142 -7.47176 -0.179614 0.0482374 1.67661 
1503 3 0.384234 2.89652 12.9358 -26.9416 0.403822 -0.623767 2.68352 
3063 3 2.24873 6.22564 12.876 -28.3155 -0.676977 -2.608 -1.43756 
12063 1 2.44245 3.99919 12.2863 -7.55775 1.6104 -1.02228 1.71 
1803 3 5.66224 3.2791 12.8563 -27.6923 4.26612 -3.17178 1.26143 
14344 1 7.02253 4.21679 6.38385 -8.97262 -0.0426725 -1.17812 -0.00750989 
14885 1 9.89338 4.14711 11.7437 -7.35721 1.12787 1.23499 2.11398 
15483 1 10.1978 1.39473 11.7612 -7.52058 0.390313 0.0994105 0.276787 
7742 1 7.37013 1.6451 11.8986 -7.35883 0.873655 -1.37341 -1.40832 
12240 1 6.94698 1.24763 6.52009 -8.4052 -2.57245 1.20577 -0.470368 
14283 1 9.6023 2.07656 6.29453 -7.99822 0.853483 -0.743545 -0.112232 
16742 1 7.21727 2.54701 8.92901 -7.46216 -1.80106 -1.4556 0.351957 
10202 1 7.06171 5.84372 8.68915 -7.06776 -1.78976 0.84873 0.467402 
14463 1 9.60502 1.27858 8.84294 -7.04654 0.44042 1.02978 0.656268 
11104 1 7.47989 5.2634 11.4117 -5.93274 -2.44056 0.0208521 0.302816 
15664 1 11.7184 3.83792 9.54572 -6.55535 2.52905 1.05375 -0.589235 
663 2 11.5026 5.76637 10.6547 -25.4337 -1.83092 -1.64662 0.0852621 
2102 2 11.167 2.72661 7.6592 -25.1932 -0.72942 1.43397 2.18063 
3362 3 8.60299 5.60314 7.57992 -28.2741 1.8556 -0.892151 0.109503 
4803 2 8.91139 2.86962 10.4296 -25.8745 -1.69198 -0.889913 -0.788528 
5103 3 13.6582 3.05942 10.14 -29.5303 0.849133 0.631927 2.73204 
8282 1 9.49838 4.13239 8.77181 -6.33944 -1.76839 0.00857428 -2.93904 
3302 3 8.40184 0.22626 7.45925 -27.8094 0.379678 0.321456 2.34229 
15721 1 9.54594 6.51876 10.0167 -6.81846 0.325746 2.87241 -0.993728 
12903 1 12.7208 1.61802 9.08601 -6.67592 -1.38223 -2.42358 0.193086 
8343 1 13.2618 2.19355 6.93539 -7.73691 0.134504 3.35891 -1.81312 
15361 1 11.3435 4.80925 6.6822 -6.89508 2.19334 -2.21391 0.314454 
13503 1 12.6144 3.40587 11.9346 -5.82659 -0.211956 0.500322 -0.698971 
11403 1 13.1205 0.880699 11.5253 -7.40293 1.6995 -1.46843 1.19303 
10203 1 20.357 1.65796 6.26732 -6.81275 -0.259182 -0.129763 -0.546138 
17461 1 17.0822 5.11655 6.92633 -6.79953 -2.31137 -4.35961 -0.620446 
3963 3 19.3836 6.18179 12.7045 -28.3274 -1.091 -2.14594 -0.072673 
6902 1 15.3224 3.87661 11.4893 -6.8548 1.50297 -1.07008 2.26244 
3662 3 14.0624 5.87222 7.6672 -27.1602 -1.91055 4.97888 -2.33533 
16862 1 15.5009 1.64978 9.06364 -7.48778 -1.45051 0.107874 -0.915176 
963 3 16.5778 6.04184 10.0534 -28.5237 -0.706784 -3.48632 2.07396 
2402 2 15.9604 3.26357 7.23455 -23.0311 3.21684 -3.64842 1.2805 
3962 3 19.2336 5.73152 7.7429 -29.7049 -2.00073 1.43736 1.58281 