LAMMPS (11 May 2018)
# Sample LAMMPS input script for thermal conductivity of UO2
units       metal
atom_style full
boundary p p p

# Reading the input structure file
atom_modify map array
read_data U50.5x5x60.lmpstr
  orthogonal box = (0 0 0) to (27.341 27.341 328.092)
  1 by 1 by 24 MPI processor grid
  reading atoms ...
  18000 atoms
  0 = max # of 1-2 neighbors
  0 = max # of 1-3 neighbors
  0 = max # of 1-4 neighbors
  1 = max # of special neighbors

# Setting the variables to elements as they are assigned in the input structure file

variable O equal 1
variable U equal 2
variable Zr equal 3

# setting charges as these were previously unset

set type $O charge -1.1104
set type 1 charge -1.1104
  12000 settings made for charge
set type ${U} charge 2.2208
set type 2 charge 2.2208
  3000 settings made for charge
set type ${Zr} charge 2.2208
set type 3 charge 2.2208
  3000 settings made for charge

pair_style      hybrid/overlay  coul/wolf 0.275 10.96 eam/alloy
pair_coeff      * * coul/wolf
pair_coeff   *    *  eam/alloy  UZrO.eam.alloy O U Zr

compute   peratom all pe/atom pair bond
compute   pe all reduce sum c_peratom
compute   ke all ke/atom


variable    T equal 3000
variable THERMO_DAMP equal 0.100
variable BARO_DAMP equal 0.500
variable  etol equal 1.0e-8
variable  ftol equal 1.0e-10
variable  equilsteps equal 10000
variable  half_equilsteps equal v_equilsteps*0.5
variable  TCsteps equal 2500000
variable  zunits equal 20
variable  nslabs equal 20
variable  thickness equal 1.0/v_nslabs
variable  swapsteps equal 50
variable  dimension string z
variable  temp atom c_ke/0.0001292355
variable  dt equal 0.002
variable  currenttime equal ${dt}*step
variable  currenttime equal 0.002*step
variable  initialsteps equal 5000
variable  rampsteps equal 10000


timestep     ${dt}
timestep     0.002
thermo ${swapsteps}
thermo 50

velocity all create 300 164336

fix thermostat_fix1 all npt temp 300 300 ${THERMO_DAMP} aniso 0.0 0.0 ${BARO_DAMP}
fix thermostat_fix1 all npt temp 300 300 0.1 aniso 0.0 0.0 ${BARO_DAMP}
fix thermostat_fix1 all npt temp 300 300 0.1 aniso 0.0 0.0 0.5

run ${initialsteps}
run 5000
Neighbor list info ...
  update every 1 steps, delay 10 steps, check yes
  max neighbors/atom: 2000, page size: 100000
  master list distance cutoff = 12.96
  ghost atom cutoff = 12.96
  binsize = 6.48, bins = 5 5 51
  2 neighbor lists, perpetual/occasional/extra = 2 0 0
  (1) pair coul/wolf, perpetual
      attributes: half, newton on
      pair build: half/bin/newton
      stencil: half/bin/3d/newton
      bin: standard
  (2) pair eam/alloy, perpetual, copy from (1)
      attributes: half, newton on
      pair build: copy
      stencil: none
      bin: none
Per MPI rank memory allocation (min/avg/max) = 8.877 | 8.877 | 8.877 Mbytes
Step Temp E_pair E_mol TotEng Press Volume 
       0          300   -255586.56            0    -254888.6   -165324.15     245258.7 
      50    212.06072   -256509.43            0   -256016.06    3438.7683    224038.51 
     100    220.24684   -256466.33            0   -255953.91   -53.419323    224453.88 
     150    243.75289   -256452.94            0   -255885.83   -15.693137    224487.42 
     200    255.39645   -256410.22            0   -255816.03   -252.12863    224618.86 
     250    271.80804   -256380.33            0   -255747.96    237.47099    224691.31 
     300    284.19097   -256347.48            0    -255686.3    525.11785    224718.88 
     350    296.17196    -256322.7            0   -255633.64    113.41426    224807.52 
     400    304.60305   -256307.71            0   -255599.04    274.61789     224856.4 
     450    308.15782   -256304.16            0   -255587.22    333.01844    224875.18 
     500    301.43218   -256305.78            0   -255604.48    71.808134    224877.68 
     550    298.19236   -256323.24            0   -255629.48    279.38902    224819.16 
     600    297.29821   -256333.63            0   -255641.95    375.19972    224777.41 
     650    296.51753   -256324.63            0   -255634.76    399.01295    224796.41 
     700    300.22816   -256313.51            0   -255615.01  -0.83193146    224857.29 
     750    306.03296   -256312.79            0   -255600.79   -121.19299    224877.66 
     800    302.07351   -256307.21            0   -255604.42   -438.70854    224892.55 
     850    299.04573   -256317.42            0   -255621.67   -108.79369    224838.26 
     900    297.71917   -256326.39            0   -255633.73   -366.34064    224822.57 
     950    297.54169   -256326.21            0   -255633.97   -4.6005091    224802.04 
    1000    301.12292   -256321.52            0   -255620.94   -168.78499    224855.45 
    1050    301.30395    -256308.3            0    -255607.3    320.90001    224858.01 
    1100    302.75591   -256306.98            0    -255602.6    180.61818    224858.38 
    1150    301.26309   -256314.27            0   -255613.36   -32.150939    224839.89 
    1200    297.03642   -256318.38            0   -255627.31   -123.00041    224833.83 
    1250    296.62414   -256322.41            0    -255632.3    300.38492    224823.29 
    1300    297.86132   -256318.03            0   -255625.04   -211.01812    224882.54 
    1350    299.65357   -256310.93            0   -255613.77    430.91821    224845.93 
    1400    302.74914   -256311.96            0   -255607.59    -249.7818    224890.61 
    1450    301.28098   -256312.77            0   -255611.83   -99.379138    224862.88 
    1500    297.12178   -256312.92            0   -255621.65    204.34281    224843.42 
    1550      297.452   -256321.04            0      -255629   -592.46633    224872.11 
    1600    298.76502   -256323.08            0   -255627.99    317.40366    224784.88 
    1650    299.49702   -256315.89            0    -255619.1    173.09544    224835.27 
    1700    300.42105    -256310.6            0   -255611.65    97.903082    224863.91 
    1750    301.79722   -256311.74            0    -255609.6   -137.90359    224865.68 
    1800    301.18041   -256316.68            0   -255615.97    22.242161    224836.33 
    1850    297.94176   -256319.01            0   -255625.84    79.539897    224817.77 
    1900    299.39994   -256326.86            0   -255630.29   -392.24876     224868.3 
    1950    298.08739   -256318.68            0   -255625.16   -155.12854    224838.26 
    2000    297.93496    -256308.6            0   -255615.44    260.10469    224829.32 
    2050     300.5778   -256308.33            0   -255609.02   -144.08781    224859.06 
    2100    301.01451    -256312.2            0   -255611.88    120.89191    224823.78 
    2150    300.26887   -256319.13            0   -255620.54   -517.73837    224867.52 
    2200    298.69723   -256324.62            0   -255629.69    350.22176    224809.05 
    2250    300.19454   -256326.63            0   -255628.21    222.34736    224812.48 
    2300    299.54376   -256315.03            0   -255618.12   -170.81223    224881.86 
    2350    300.81465   -256308.75            0   -255608.89    96.270927    224852.18 
    2400    301.24996   -256308.31            0   -255607.44    3.6282568    224859.52 
    2450    298.05911   -256309.82            0   -255616.37   -519.91936    224895.77 
    2500    300.04354   -256324.25            0   -255626.18    66.259386    224808.26 
    2550    294.74492   -256317.56            0   -255631.82   -116.55005    224842.72 
    2600    298.38851   -256319.82            0    -255625.6   -259.70181     224831.6 
    2650    300.71298   -256313.95            0   -255614.32     977.1599    224733.77 
    2700    301.79972   -256309.55            0    -255607.4   -554.40708    224932.93 
    2750    301.24144   -256311.82            0   -255610.97     293.3694    224841.56 
    2800     302.5726   -256325.51            0   -255621.56    319.35135    224829.17 
    2850      299.128   -256324.79            0   -255628.86   -70.349596    224821.53 
    2900    299.76812   -256325.42            0   -255627.99    345.54475    224791.25 
    2950    299.73657   -256316.88            0   -255619.53   -197.64066    224869.56 
    3000    300.66731   -256310.26            0   -255610.74    537.86491    224821.16 
    3050    303.17327   -256315.12            0   -255609.77    415.87461    224808.71 
    3100    303.18103   -256323.69            0   -255618.32   -107.13996    224832.36 
    3150    299.01204   -256322.65            0   -255626.98   -373.14645    224858.38 
    3200    300.42548    -256327.2            0   -255628.24     932.4571    224729.52 
    3250    299.11462   -256318.42            0   -255622.51   -126.16673    224860.46 
    3300    300.54315   -256313.32            0   -255614.09      554.959    224780.56 
    3350    304.08257   -256318.45            0   -255610.98   -718.42319    224919.69 
    3400    301.93004   -256317.77            0   -255615.31   -520.97695    224898.85 
    3450    297.86179   -256315.01            0   -255622.02    566.98649    224800.82 
    3500    298.26805   -256319.13            0   -255625.19   -373.51868    224865.27 
    3550    299.63797   -256319.18            0   -255622.06    375.45759    224772.73 
    3600    301.25586   -256316.53            0   -255615.65   -584.34836    224888.49 
    3650    301.54536   -256314.81            0   -255613.25    444.95454    224802.53 
    3700    300.74164   -256317.35            0   -255617.66  0.092007086    224851.05 
    3750    297.61063   -256316.25            0   -255623.85   -624.90521    224898.19 
    3800    297.49518   -256317.29            0   -255625.15    443.31532    224790.59 
    3850    300.95157   -256320.65            0   -255620.47   -348.36833    224874.72 
    3900    300.29946   -256314.24            0   -255615.58   -240.14399    224853.66 
    3950     304.4583   -256321.55            0   -255613.22    412.14455    224775.67 
    4000    299.06943   -256312.81            0   -255617.01   -452.24844    224886.21 
    4050    298.44564   -256316.87            0   -255622.52    -38.01062    224843.98 
    4100    297.65732   -256318.18            0   -255625.66    290.90409    224800.44 
    4150    301.28573   -256322.42            0   -255621.46   -513.77559    224870.59 
    4200    298.92887   -256310.96            0   -255615.48    41.707345    224838.98 
    4250    301.30045   -256314.74            0   -255613.75    184.53161    224824.81 
    4300     301.4662    -256319.6            0   -255618.22   -183.67733    224862.89 
    4350    298.09524   -256321.59            0   -255628.06    368.21072     224796.6 
    4400    300.28741   -256326.59            0   -255627.95     94.48023    224817.57 
    4450    300.59882   -256322.24            0   -255622.88    48.619033    224829.38 
    4500    298.77943   -256314.52            0    -255619.4    459.60479    224793.03 
    4550    301.28042   -256318.39            0   -255617.45   -556.29219    224903.94 
    4600    300.25791   -256316.63            0   -255618.06    444.82407    224810.16 
    4650    300.88278   -256318.35            0   -255618.33    95.139423    224841.36 
    4700    301.30819    -256319.1            0   -255618.09   -111.15409    224836.02 
    4750    299.00774    -256314.9            0   -255619.25    544.88329     224778.6 
    4800    298.73385   -256315.68            0   -255620.66   -557.10285    224905.04 
    4850    298.51199   -256316.91            0   -255622.41    191.20483    224816.06 
    4900    298.11626   -256316.37            0   -255622.79   -224.28072    224865.35 
    4950    300.90674   -256320.51            0   -255620.43    379.34784     224809.7 
    5000    302.00901    -256315.6            0   -255612.96    330.98035    224806.55 
Loop time of 116.678 on 24 procs for 5000 steps with 18000 atoms

Performance: 7.405 ns/day, 3.241 hours/ns, 42.853 timesteps/s
99.7% CPU use with 24 MPI tasks x no OpenMP threads

MPI task timing breakdown:
Section |  min time  |  avg time  |  max time  |%varavg| %total
---------------------------------------------------------------
Pair    | 113.48     | 114.48     | 115.34     |   4.3 | 98.11
Bond    | 0.0012601  | 0.0017122  | 0.0024864  |   0.8 |  0.00
Neigh   | 0.016363   | 0.017187   | 0.022914   |   0.9 |  0.01
Comm    | 0.62646    | 1.1625     | 1.7949     |  28.2 |  1.00
Output  | 0.0043615  | 0.004569   | 0.008424   |   1.2 |  0.00
Modify  | 0.51871    | 0.84184    | 1.3645     |  25.9 |  0.72
Other   |            | 0.1738     |            |       |  0.15

Nlocal:    750 ave 760 max 738 min
Histogram: 2 1 1 2 2 7 1 4 3 1
Nghost:    7777 ave 7789 max 7767 min
Histogram: 1 3 4 1 6 3 2 1 1 2
Neighs:    265482 ave 270514 max 259207 min
Histogram: 2 1 0 1 6 4 4 2 2 2

Total # of neighbors = 6371564
Ave neighs/atom = 353.976
Ave special neighs/atom = 0
Neighbor list builds = 3
Dangerous builds = 3

unfix thermostat_fix1

fix thermostat_ramp all npt temp 300 $T ${THERMO_DAMP} aniso 0.0 0.0 ${BARO_DAMP}
fix thermostat_ramp all npt temp 300 3000 ${THERMO_DAMP} aniso 0.0 0.0 ${BARO_DAMP}
fix thermostat_ramp all npt temp 300 3000 0.1 aniso 0.0 0.0 ${BARO_DAMP}
fix thermostat_ramp all npt temp 300 3000 0.1 aniso 0.0 0.0 0.5

run ${rampsteps}
run 10000
Per MPI rank memory allocation (min/avg/max) = 8.877 | 8.877 | 8.877 Mbytes
Step Temp E_pair E_mol TotEng Press Volume 
    5000    302.00901    -256315.6            0   -255612.96    330.98035    224806.55 
    5050    303.73567   -256312.06            0    -255605.4   -366.81368    224910.19 
    5100    309.76959   -256304.71            0   -255584.01   -248.53364    224917.31 
    5150     313.6439   -256280.07            0   -255550.36    588.51692    224899.58 
    5200    324.64006   -256262.29            0      -255507   -996.88953    225085.43 
    5250    336.68437   -256239.64            0   -255456.32    1104.4004    224901.93 
    5300     346.2953   -256204.92            0   -255399.25   -252.40995    225148.29 
    5350    359.17972   -256172.48            0   -255336.83   -36.237288    225219.02 
    5400    372.32102   -256136.15            0   -255269.92     646.3484    225254.71 
    5450    391.34482   -256109.79            0    -255199.3   -820.87984    225476.01 
    5500    403.74435   -256065.87            0   -255126.54    499.90505    225484.55 
    5550    416.37079   -256019.87            0   -255051.16   -548.04039    225671.17 
    5600    436.67381   -255990.51            0   -254974.57   -202.89566    225711.87 
    5650    451.49041      -255948            0   -254897.59   -34.672247    225832.67 
    5700    466.93131   -255906.08            0   -254819.74    181.15998     225962.3 
    5750    484.11089    -255868.9            0   -254742.59   -458.66357    226127.78 
    5800     496.3287   -255821.82            0   -254667.09    13.595253    226144.96 
    5850    510.89097   -255781.51            0    -254592.9   -398.83638    226330.79 
    5900    529.29686   -255749.89            0   -254518.45   -733.34448    226484.77 
    5950    547.52043   -255720.66            0   -254446.83   -339.80062     226477.1 
    6000    556.68413   -255671.32            0   -254376.17    515.43018    226539.37 
    6050    572.68304   -255639.31            0   -254306.93   -467.57132    226710.17 
    6100    588.59199   -255608.68            0   -254239.29   -228.77905    226750.03 
    6150    600.66663   -255568.75            0   -254171.26   -39.648408    226875.91 
    6200    614.49719   -255533.55            0   -254103.89    39.341288    226974.22 
    6250     632.7751    -255506.9            0   -254034.72   -321.97788     227059.1 
    6300    646.80841   -255473.73            0   -253968.89   -260.53539    227179.95 
    6350    661.29967      -255440            0   -253901.45    483.57565     227146.8 
    6400    667.64048   -255388.95            0   -253835.65   -703.72773    227444.06 
    6450    684.13425   -255359.98            0   -253768.31    -250.5112    227488.25 
    6500    700.32125   -255332.07            0   -253702.73    2076.2386     227340.6 
    6550    714.37722   -255297.64            0    -253635.6   -674.26258    227741.49 
    6600    727.41883   -255263.91            0   -253571.53    248.03792    227712.59 
    6650      739.524    -255225.7            0   -253505.16    970.18184     227696.8 
    6700    752.10561   -255187.73            0   -253437.92   -1057.2461    228091.54 
    6750    756.16433   -255131.02            0   -253371.76    277.02929    228056.06 
    6800    780.06242   -255116.77            0   -253301.91    463.20425    228097.85 
    6850    795.57728   -255086.24            0   -253235.29     1050.563    228149.24 
    6900    802.44473   -255034.55            0   -253167.62   -1401.3515    228564.93 
    6950    818.00518   -255001.09            0   -253097.96   -628.73419    228541.12 
    7000     831.7161   -254968.61            0   -253033.57    421.13949    228522.85 
    7050    844.52702   -254935.29            0   -252970.46    244.39707    228636.76 
    7100    863.61659   -254910.68            0   -252901.43    640.89499    228713.64 
    7150    871.05585   -254862.64            0   -252836.09    211.03019    228917.05 
    7200    890.24173   -254839.76            0   -252768.57   -518.63734    229036.37 
    7250    898.67776   -254791.92            0   -252701.09   -86.122681    229061.73 
    7300    916.49878   -254768.64            0   -252636.35    948.25799     229037.9 
    7350    926.40932   -254724.67            0   -252569.33    -2112.731    229459.72 
    7400    936.12243   -254681.02            0   -252503.08    864.27834     229224.3 
    7450    952.39288    -254650.9            0    -252435.1   -183.56988    229512.11 
    7500    968.12868   -254618.73            0   -252366.32   -1210.3933    229740.85 
    7550    983.34106   -254587.17            0   -252299.37    855.79018     229530.5 
    7600    989.14356    -254531.9            0    -252230.6     -684.301    229792.53 
    7650    1005.6664   -254504.53            0    -252164.8   -282.71591    229955.12 
    7700    1025.6372   -254483.28            0   -252097.08    924.48835    229890.11 
    7750    1036.3125   -254443.24            0   -252032.21    317.34906    230091.68 
    7800    1055.1787   -254416.57            0   -251961.64     678.8206    230114.99 
    7850    1061.2904   -254361.48            0   -251892.33    38.980079    230285.78 
    7900    1077.9303   -254337.07            0   -251829.21   -922.55263    230488.59 
    7950     1088.976   -254297.62            0   -251764.06    1169.0012    230365.96 
    8000     1109.491    -254274.7            0   -251693.41    720.92029    230538.85 
    8050    1112.0557   -254208.92            0   -251621.66    573.35893    230687.39 
    8100    1130.4872   -254183.12            0   -251552.98    -267.4736    230836.23 
    8150    1140.7117   -254142.53            0    -251488.6    1225.3435    230809.55 
    8200    1159.2574   -254113.96            0   -251416.89   -1659.9741    231268.99 
    8250    1180.8711   -254095.46            0    -251348.1     1169.399    230994.11 
    8300    1186.9106   -254044.68            0   -251283.27   -191.68353    231188.66 
    8350    1195.1815   -253999.74            0   -251219.08    88.196105    231321.18 
    8400    1211.3808   -253973.88            0   -251155.54   -216.40513    231535.27 
    8450    1221.4996   -253930.71            0   -251088.82   -998.82604    231738.97 
    8500    1231.1043   -253885.25            0   -251021.02    1960.8216    231470.72 
    8550    1252.8048   -253864.48            0   -250949.76   -605.21103    231869.76 
    8600    1259.1005   -253813.98            0   -250884.61   -187.06759    231889.11 
    8650     1282.529   -253798.91            0   -250815.04   -99.815293    231954.78 
    8700     1294.551   -253757.78            0   -250745.94   -52.085206    232093.26 
    8750    1317.4576   -253744.86            0   -250679.72    1038.2868    232049.52 
    8800    1314.5146    -253670.6            0   -250612.31   -242.84707    232411.99 
    8850     1325.873   -253632.62            0   -250547.91   -699.15437    232452.53 
    8900    1349.7715   -253620.75            0   -250480.43    -508.9875    232497.11 
    8950    1356.9698   -253572.43            0   -250415.36    78.693019    232592.98 
    9000    1370.1992   -253538.37            0   -250350.53     -1055.63    232865.31 
    9050    1384.7294   -253502.94            0   -250281.29   -303.70209    232761.65 
    9100    1389.1247   -253447.48            0    -250215.6    1808.8699    232781.08 
    9150    1402.5927   -253411.93            0   -250148.72   -2715.1714    233376.25 
    9200    1412.8003   -253367.28            0   -250080.33    2452.0898    232968.69 
    9250    1423.3841   -253324.45            0   -250012.87   -1170.6674    233523.78 
    9300    1441.3906   -253295.05            0   -249941.58    750.05202    233384.95 
    9350    1439.6994   -253223.12            0   -249873.59   -436.14812    233649.75 
    9400    1473.5793   -253229.88            0   -249801.52    1939.6456    233479.47 
    9450    1497.8331   -253215.41            0   -249730.62   -2123.0453    233940.32 
    9500    1507.2133   -253168.43            0   -249661.82    459.61168    233840.21 
    9550    1510.4663   -253102.26            0   -249588.08   -1238.4558     234181.7 
    9600    1533.2958   -253089.12            0   -249521.83     762.2517    234032.18 
    9650    1548.6003   -253055.42            0   -249452.52    1384.6987    233981.89 
    9700    1549.5267   -252989.45            0   -249384.39   -811.40082    234437.22 
    9750    1565.2596   -252957.57            0   -249315.91     916.1358    234384.86 
    9800    1584.1931    -252931.4            0   -249245.69   -1206.6226    234709.58 
    9850    1590.4383   -252872.47            0   -249172.23    2112.3286    234479.28 
    9900    1609.5574   -252842.09            0   -249097.37   -2705.5501    235108.39 
    9950    1620.8892    -252796.5            0   -249025.42   -80.178482    235017.41 
   10000    1636.7598   -252760.63            0   -248952.62    32.212139    235124.04 
   10050    1651.3074   -252722.73            0   -248880.88   -1158.7866    235345.87 
   10100    1664.6189   -252684.98            0   -248812.16    1692.5652    235175.54 
   10150    1683.0861   -252656.24            0   -248740.46   -304.76052    235465.36 
   10200    1689.5775   -252601.97            0   -248671.08     340.2743    235618.14 
   10250    1697.6582   -252552.05            0   -248602.36   -804.23443    235819.19 
   10300    1716.4767   -252523.71            0   -248530.23   -489.58167    235924.96 
   10350    1723.0003   -252468.99            0   -248460.34   -365.26945    235956.51 
   10400    1734.9424   -252428.91            0   -248392.48    1696.1368    235903.67 
   10450    1739.8248   -252366.17            0   -248318.38   -1907.5756    236529.44 
   10500    1769.5717   -252358.77            0   -248241.77   -385.09003    236363.75 
   10550    1793.7507   -252339.95            0    -248166.7   -1276.9763    236488.55 
   10600    1792.5096    -252262.2            0   -248091.83    638.08614    236582.64 
   10650    1829.4403   -252271.64            0   -248015.35    276.24818    236505.25 
   10700    1823.1614   -252186.51            0   -247944.82    1080.5356    236733.19 
   10750    1842.2987   -252155.05            0   -247868.84    1101.7821    236874.25 
   10800    1839.1252    -252071.3            0   -247792.48   -34.130127    237283.41 
   10850    1861.4261   -252047.54            0   -247716.83   -203.83616    237397.69 
   10900    1874.6331   -252001.67            0   -247640.24    96.408849     237468.5 
   10950    1898.8556      -251991            0   -247573.21   -2648.9148    237851.99 
   11000    1902.8384   -251924.71            0   -247497.65   -991.97807    237819.17 
   11050    1919.7617   -251890.72            0   -247424.29    1607.7533    237411.75 
   11100    1943.2298   -251883.34            0   -247362.31    -119.4855    237820.71 
   11150    1937.0473   -251798.12            0   -247291.47    204.02023    238151.26 
   11200    1953.8525   -251761.72            0   -247215.98   -511.03314    238245.89 
   11250    1966.6458   -251711.77            0   -247136.27    1203.0097    238303.78 
   11300    1976.2982   -251661.55            0   -247063.59    269.13223    238434.88 
   11350    1991.6595   -251620.27            0   -246986.57   -643.42148     238626.5 
   11400    2019.3416   -251605.56            0   -246907.45    996.92549    238579.36 
   11450    2025.8005   -251546.34            0   -246833.21   -445.77902    238969.49 
   11500    2016.2314   -251448.49            0   -246757.62    -650.6195    239172.13 
   11550    2050.2093   -251450.04            0   -246680.12   -386.96857    239160.46 
   11600    2074.1795   -251429.81            0   -246604.12    832.87955    239216.99 
   11650    2080.5177   -251372.03            0   -246531.59   -66.920064    239462.69 
   11700    2097.2634   -251334.24            0   -246454.84    67.007926    239505.42 
   11750    2103.8445   -251268.54            0   -246373.83   -941.32257    239756.55 
   11800    2131.9766   -251253.55            0   -246293.39   -831.49849    239811.75 
   11850    2136.6017    -251183.4            0   -246212.49    719.44471    239852.55 
   11900    2153.1363   -251147.75            0   -246138.37    128.89576    240028.34 
   11950    2164.4739   -251089.53            0   -246053.77    66.582105    240257.04 
   12000    2159.7266   -250999.67            0   -245974.95   -729.89047    240542.01 
   12050    2182.8625   -250966.75            0   -245888.21   -160.89596    240571.68 
   12100    2204.8742   -250943.14            0   -245813.38    143.03412    240543.71 
   12150    2221.9598   -250907.22            0   -245737.71    499.68156    240720.72 
   12200    2227.6261   -250847.13            0   -245664.44   -2712.1618    241227.71 
   12250    2236.8715   -250784.03            0   -245579.83    1709.4518    240936.85 
   12300    2255.9753   -250740.29            0   -245491.64    1926.1391    241070.87 
   12350    2255.4579   -250656.47            0   -245409.03   -2133.4961    241716.43 
   12400    2296.0754   -250664.41            0   -245322.47    1614.8642    241349.76 
   12450    2316.6319    -250634.4            0   -245244.63   -397.69518    241536.99 
   12500    2308.1441   -250537.77            0   -245167.75   -1093.4777    242137.06 
   12550    2325.4208   -250497.25            0   -245087.03   -22.267546    242004.12 
   12600    2361.8395   -250503.02            0   -245008.07     -2050.32     242290.1 
   12650    2356.8567   -250407.43            0   -244924.08      2030.33    241989.14 
   12700     2359.562   -250328.82            0   -244839.17    1067.7328    242340.05 
   12750    2364.0611   -250249.69            0   -244749.57    676.27802    242518.17 
   12800    2360.4953    -250142.7            0   -244650.89    884.47646    242617.74 
   12850    2404.2034   -250156.73            0   -244563.22   -724.63592    242919.36 
   12900    2394.1578   -250034.37            0   -244464.23   -3269.8932    243449.48 
   12950     2439.351   -250040.93            0   -244365.65    158.18457    243286.49 
   13000    2451.3914   -249976.72            0   -244273.43    1211.1877    243268.19 
   13050    2451.6446   -249890.27            0   -244186.38   -621.55993    243542.18 
   13100    2458.8991   -249812.17            0   -244091.41   -265.94602    243819.54 
   13150    2482.6426   -249765.83            0   -243989.83    1403.5955    243622.87 
   13200    2490.0329   -249684.61            0   -243891.42   -1064.5416    244008.26 
   13250    2504.9104   -249630.49            0   -243802.68   -1014.8389    244261.11 
   13300    2512.7407   -249544.16            0   -243698.13    605.23182    244282.13 
   13350    2518.9529   -249458.69            0   -243598.21   -2005.6711    244772.53 
   13400    2545.8161   -249417.64            0   -243494.66    1721.7387    244398.28 
   13450    2561.8828   -249353.97            0   -243393.62    631.99221    244661.74 
   13500     2590.667   -249312.56            0   -243285.24   -494.54828    244810.19 
   13550    2573.2532   -249179.34            0   -243192.53    679.08855    245063.21 
   13600    2593.1752   -249124.01            0   -243090.85   -1937.4966    245289.88 
   13650    2595.8904   -249035.12            0   -242995.65    1956.1744    245001.07 
   13700    2622.3897   -249003.14            0   -242902.01   -344.27096    245437.57 
   13750    2644.6177   -248950.83            0   -242797.99    -1981.497    245820.76 
   13800    2669.0601   -248906.11            0    -242696.4   -499.28807    245518.67 
   13850    2663.1757   -248795.28            0   -242599.26    268.82452    245727.27 
   13900    2682.7537   -248738.39            0   -242496.82    2472.8709    245788.41 
   13950     2685.222   -248649.27            0   -242401.95   -962.47548    246118.21 
   14000    2730.0842   -248654.93            0   -242303.24   -303.11927    245883.25 
   14050    2746.4252   -248586.65            0   -242196.95    850.35001    246046.92 
   14100    2731.9176   -248462.27            0   -242106.32   -2364.9556    246678.72 
   14150    2734.5495   -248369.88            0   -242007.81   -3264.8405    246819.26 
   14200     2769.574   -248338.06            0    -241894.5    1104.9378    246412.77 
   14250    2771.1506   -248255.11            0   -241807.88    -1713.128    246774.03 
   14300     2770.109   -248147.52            0   -241702.71    930.94034    246933.31 
   14350    2806.9464   -248142.45            0   -241611.94   -672.44594    247150.86 
   14400    2789.1711   -248005.29            0   -241516.13   -76.689219    247370.86 
   14450    2849.7256    -248045.2            0   -241415.16    670.88092     247001.5 
   14500    2854.6857   -247961.25            0   -241319.68    1216.6775    246834.29 
   14550    2860.7035   -247902.72            0   -241247.15    606.24637    247389.51 
   14600    2847.8674   -247778.86            0   -241153.15    173.89158    247821.24 
   14650    2906.7216   -247820.91            0   -241058.26    1317.6699    247280.35 
   14700    2888.8472   -247705.34            0   -240984.28   -1014.2016    248229.64 
   14750    2907.4905   -247649.79            0   -240885.36   -473.79381    248286.34 
   14800    2945.0058   -247631.16            0   -240779.45    2222.9534    247817.32 
   14850    2902.0609    -247437.2            0    -240685.4    627.88122    248295.38 
   14900    2989.0237   -247528.06            0   -240573.93   -66.382861    248191.37 
   14950    2970.8978   -247393.12            0   -240481.17    500.57322    248065.63 
   15000    2981.4659   -247315.96            0   -240379.42   -514.40789    248322.58 
Loop time of 232.284 on 24 procs for 10000 steps with 18000 atoms

Performance: 7.439 ns/day, 3.226 hours/ns, 43.051 timesteps/s
99.7% CPU use with 24 MPI tasks x no OpenMP threads

MPI task timing breakdown:
Section |  min time  |  avg time  |  max time  |%varavg| %total
---------------------------------------------------------------
Pair    | 219.42     | 222.39     | 224.68     |   8.4 | 95.74
Bond    | 0.0021372  | 0.0032089  | 0.0039335  |   0.9 |  0.00
Neigh   | 3.5039     | 3.5756     | 3.6785     |   2.4 |  1.54
Comm    | 2.0185     | 3.142      | 4.6403     |  34.7 |  1.35
Output  | 0.0091976  | 0.0093941  | 0.012293   |   0.6 |  0.00
Modify  | 1.2058     | 2.8576     | 4.8246     |  61.0 |  1.23
Other   |            | 0.3034     |            |       |  0.13

Nlocal:    750 ave 767 max 736 min
Histogram: 2 5 3 0 3 2 5 0 3 1
Nghost:    7520.54 ave 7566 max 7466 min
Histogram: 2 0 3 2 2 3 4 4 3 1
Neighs:    247386 ave 255877 max 237652 min
Histogram: 1 0 4 3 3 3 2 5 2 1

Total # of neighbors = 5937264
Ave neighs/atom = 329.848
Ave special neighs/atom = 0
Neighbor list builds = 649
Dangerous builds = 242

unfix thermostat_ramp

fix thermostat_eq all npt temp $T $T ${THERMO_DAMP} aniso 0.0 0.0 ${BARO_DAMP}
fix thermostat_eq all npt temp 3000 $T ${THERMO_DAMP} aniso 0.0 0.0 ${BARO_DAMP}
fix thermostat_eq all npt temp 3000 3000 ${THERMO_DAMP} aniso 0.0 0.0 ${BARO_DAMP}
fix thermostat_eq all npt temp 3000 3000 0.1 aniso 0.0 0.0 ${BARO_DAMP}
fix thermostat_eq all npt temp 3000 3000 0.1 aniso 0.0 0.0 0.5

variable AVE_START equal 20000
variable V equal vol
variable LX equal lx
variable LY equal ly
variable LZ equal lz
fix avg_V_fix all ave/time 1 1000 1000 v_V start ${AVE_START}
fix avg_V_fix all ave/time 1 1000 1000 v_V start 20000
fix avg_LX_fix all ave/time 1 1000 1000 v_LX start ${AVE_START}
fix avg_LX_fix all ave/time 1 1000 1000 v_LX start 20000
fix avg_LY_fix all ave/time 1 1000 1000 v_LY start ${AVE_START}
fix avg_LY_fix all ave/time 1 1000 1000 v_LY start 20000
fix avg_LZ_fix all ave/time 1 1000 1000 v_LZ start ${AVE_START}
fix avg_LZ_fix all ave/time 1 1000 1000 v_LZ start 20000

variable AVG_V equal f_avg_V_fix
variable AVG_LX equal f_avg_LX_fix
variable AVG_LY equal f_avg_LY_fix
variable AVG_LZ equal f_avg_LZ_fix

variable VOL equal ${AVG_V}
variable VOL equal 0
variable LP equal (${VOL}/(4*4*${zunits}))^(1/3)
variable LP equal (0/(4*4*${zunits}))^(1/3)
variable LP equal (0/(4*4*20))^(1/3)

print "OUTPUT:${AVG_V}:${AVG_LX}:${AVG_LY}:${AVG_LZ}:${LP}"
OUTPUT:0:0:0:0:0

unfix avg_V_fix
unfix avg_LX_fix
unfix avg_LY_fix
unfix avg_LZ_fix

run ${equilsteps}
run 10000
Per MPI rank memory allocation (min/avg/max) = 8.877 | 8.877 | 8.877 Mbytes
Step Temp E_pair E_mol TotEng Press Volume 
   15000    2981.4659   -247315.96            0   -240379.42   -514.40789    248322.58 
   15050    2974.1674   -247244.78            0   -240325.22   -1441.4399     248993.4 
   15100    2977.9327   -247170.39            0   -240242.07   -208.68251    249104.56 
   15150    3008.5453   -247227.15            0   -240227.61    644.81453    248843.39 
   15200    3022.0669   -247279.38            0   -240248.38   -1203.5292    248989.25 
   15250    2997.3698   -247313.53            0   -240339.98    375.95516    248340.97 
   15300    2989.6226   -247344.96            0   -240389.44    642.97796    248391.58 
   15350    2982.0428   -247286.15            0   -240348.27   -2510.9689    248634.68 
   15400    3003.3372   -247259.74            0   -240272.31    1007.0396    248324.86 
   15450    2984.2005   -247177.33            0   -240234.43   -450.03712    248798.97 
   15500    3021.3373   -247199.43            0   -240170.13    1706.1337    248393.72 
   15550    3017.6405   -247171.72            0   -240151.02    868.65922    248747.35 
   15600    3005.4562   -247186.49            0   -240194.13   -2102.0853    248934.66 
   15650    2982.3076   -247263.27            0   -240324.77    2178.1941    248270.44 
   15700    2971.2928   -247272.43            0   -240359.56    555.68141    248292.24 
   15750     2969.532   -247195.66            0   -240286.89    49.916818    248702.75 
   15800    3007.0359   -247212.11            0   -240216.08   -754.61027    248775.02 
   15850    3003.3614   -247167.08            0    -240179.6    396.53721    248725.73 
   15900    2999.7923   -247170.48            0    -240191.3   -735.21652    248837.91 
   15950    2991.7783    -247197.4            0   -240236.87    906.00896    248531.54 
   16000    2991.4797   -247287.21            0   -240327.37   -726.29727    248600.43 
   16050    2984.8456   -247295.82            0   -240351.42   -835.02805    248602.89 
   16100    2977.8716      -247242            0   -240313.83    1317.0894    248085.11 
   16150    3021.5907   -247224.62            0   -240194.73   -1360.6152     248831.5 
   16200    3000.7914   -247144.78            0   -240163.28   -2420.7314    249351.14 
   16250    2997.4441   -247127.62            0   -240153.91    723.42839    248663.16 
   16300    3002.8478   -247191.98            0    -240205.7   -424.08204    248729.71 
   16350    2965.0816   -247198.49            0   -240300.07   -1664.7824    249003.58 
   16400    3000.4214   -247270.26            0   -240289.62    -152.6532    248535.15 
   16450    2991.6841   -247201.66            0   -240241.34   -251.33923    248826.15 
   16500    3010.0571   -247203.73            0   -240200.67   -1611.6329    248658.17 
   16550      3003.51   -247213.85            0   -240226.02    1116.9981    248422.42 
   16600    2993.1818   -247231.62            0   -240267.83   -570.86762     248656.5 
   16650    3001.9727   -247284.05            0    -240299.8    1124.8567    248298.54 
   16700    2970.9759   -247308.62            0   -240396.49   -257.02996    248681.97 
   16750    2992.4143   -247392.66            0   -240430.65   -1835.9338    248386.98 
   16800    2983.0189   -247234.73            0   -240294.57    3269.0279    248089.87 
   16850     2999.238   -247207.42            0   -240229.53   -2881.7789    249133.91 
   16900    3017.1482   -247207.62            0   -240188.07    956.05285    248804.96 
   16950    3023.0663   -247223.29            0   -240189.96   -283.05097    248903.85 
   17000    2972.6307    -247177.5            0   -240261.51    124.08627     248664.2 
   17050    2999.7782    -247272.8            0   -240293.66    967.91093    248296.72 
   17100    2944.9045   -247175.35            0   -240323.87   -3215.7991    249131.74 
   17150    2995.9969   -247242.29            0   -240271.94    1426.8153    248394.77 
   17200    3015.7088   -247218.63            0   -240202.42    1228.5444    248718.41 
   17250     3026.282   -247196.83            0   -240156.02   -2207.2748    249113.04 
   17300    3011.4282   -247162.55            0    -240156.3    1473.1674    248420.48 
   17350    2985.4485   -247193.41            0    -240247.6    -550.0904    248974.85 
   17400    2974.0987    -247220.2            0    -240300.8    962.52372    248729.67 
   17450    2994.3296   -247216.26            0   -240249.79    924.51923    248671.31 
   17500    3004.6968   -247171.65            0   -240181.06    851.56296    248599.97 
   17550    2996.5123   -247140.19            0   -240168.64    175.51554    248726.87 
   17600     3019.762   -247180.34            0    -240154.7   -1350.9246    248926.15 
   17650    3025.2624   -247198.73            0    -240160.3    2224.5921    248375.49 
   17700    3010.7798   -247183.28            0   -240178.54   -1536.5962    248788.54 
   17750    3013.8753   -247215.39            0   -240203.45    53.556209     248794.3 
   17800    2955.6308   -247186.04            0   -240309.61    1469.1812    248439.13 
   17850    2981.8083   -247280.14            0   -240342.81   -382.35668    248518.03 
   17900    3006.8949   -247267.89            0   -240272.19    899.51475    248502.73 
   17950     2989.289   -247164.92            0   -240210.18    310.01997    248835.92 
   18000    3030.4151   -247229.37            0   -240178.94   -1148.8059    248894.27 
   18050    3006.6223   -247184.99            0   -240189.92   -1268.1922    248659.99 
   18100    3001.2639   -247198.44            0   -240215.84   -30.863482    248657.89 
   18150    2974.0156   -247190.93            0   -240271.72    659.20638    248531.53 
   18200    2984.4644    -247256.3            0   -240312.78    2170.5445    248356.15 
   18250    2983.8995   -247177.85            0   -240235.65   -70.136169    248710.76 
   18300    3005.4645    -247148.6            0   -240156.23   -542.73681    248668.17 
   18350    3043.7135      -247216            0   -240134.64    782.12905    248524.16 
   18400    3020.5366   -247204.16            0   -240176.72   -2374.1486     248969.5 
   18450    3010.7543   -247280.25            0   -240275.57   -68.787798     248525.7 
   18500    2981.9017   -247252.91            0   -240315.36   -118.50379    248513.72 
   18550    2965.2388   -247175.91            0   -240277.12   -216.47404     248491.7 
   18600    3003.7913   -247192.69            0   -240204.21   -562.36619    248479.51 
   18650    3012.6812   -247181.63            0   -240172.47    1173.6808    248859.64 
   18700    2989.9814   -247144.06            0   -240187.71   -2385.2666    249167.14 
   18750    3007.0952   -247200.91            0   -240204.74    584.89811    248396.39 
   18800    2976.2768   -247241.38            0   -240316.91    -1408.881     248791.5 
   18850    2970.7905   -247229.85            0   -240318.15    2536.7989    248246.32 
   18900    2999.8333   -247219.38            0   -240240.11   -743.51118    248706.86 
   18950    2983.1932   -247122.99            0   -240182.43   -1005.0964    249075.08 
   19000    2991.7636   -247129.71            0   -240169.21    132.18082    248535.27 
   19050    2998.1448   -247145.94            0    -240170.6   -1391.8693    248882.45 
   19100    2998.5045   -247111.68            0    -240135.5    2765.9379    248611.55 
   19150    3034.7545   -247109.64            0   -240049.12   -998.51408    249154.01 
   19200    3050.9983   -247072.18            0   -239973.87   -1365.9733    249237.81 
   19250    3016.6438   -247081.94            0   -240063.56    2142.3889    248696.99 
   19300     2991.869   -247097.58            0   -240136.84    561.12621    248978.11 
   19350    3002.5062   -247146.91            0   -240161.42   -1708.0731     249361.1 
   19400    2997.4378   -247182.22            0   -240208.52    1061.4181    248556.12 
   19450    2990.3834   -247214.84            0   -240257.55    1008.0051    248599.66 
   19500    2977.7851   -247131.87            0    -240203.9   -1010.3675    248918.91 
   19550    3030.3533    -247164.2            0   -240113.92   -158.55967    248803.65 
   19600    2989.4045   -247136.13            0   -240181.12   -114.60553    248835.38 
   19650    2965.1691   -247109.66            0   -240211.03   -1873.2466     248912.7 
   19700    3005.7349   -247157.99            0   -240164.99    765.43758    248609.09 
   19750    3016.4727   -247128.88            0    -240110.9   -350.30455    248840.24 
   19800    3028.2537   -247141.77            0   -240096.38   -503.68142    248995.88 
   19850    3012.1697   -247170.62            0   -240162.65   -723.70794    248648.05 
   19900    3007.7241   -247258.48            0   -240260.85    1130.4735    248219.46 
   19950    2979.8965   -247224.28            0   -240291.39   -1656.5031    248608.88 
   20000    3012.6903   -247254.68            0    -240245.5    143.28044       248504 
   20050    3035.4099   -247233.92            0   -240171.88   -276.33828    248801.76 
   20100    3039.9845   -247194.79            0    -240122.1    382.22711    248828.86 
   20150    3019.5045    -247143.4            0   -240118.36   -637.30564     248757.1 
   20200    2986.7861   -247154.15            0   -240205.23    849.98503    248933.98 
   20250    2984.2558   -247216.94            0   -240273.91   -1232.9692     248839.4 
   20300    3002.3343   -247266.27            0   -240281.18   -705.53697    248594.31 
   20350     2996.773   -247239.66            0   -240267.51   -2391.4796    248848.44 
   20400    3027.3161   -247225.51            0    -240182.3    744.09024    248502.28 
   20450    3033.1838   -247169.86            0      -240113   -3791.5445    249170.97 
   20500    2985.2617   -247058.83            0   -240113.46    1197.0747    248628.02 
   20550    3016.7282   -247172.31            0   -240153.73    108.11695    248759.72 
   20600    2969.7037   -247171.69            0   -240262.52   -1608.3797    249011.77 
   20650    3005.8454   -247245.21            0   -240251.95    2978.3218    247966.03 
   20700    2967.9103   -247171.03            0   -240266.03     676.8898    248485.58 
   20750    2995.9642   -247183.17            0    -240212.9    1377.3983    248811.99 
   20800    2975.3448      -247030            0    -240107.7    3388.9752    248547.51 
   20850    3031.8796   -247144.24            0   -240090.41   -3194.1661    249246.91 
   20900     3006.008   -247128.66            0   -240135.03    2975.6557    248369.11 
   20950    2982.1808   -247164.02            0   -240225.82   -176.24159    248725.61 
   21000    2987.3583   -247202.47            0   -240252.22   -156.02997    248930.07 
   21050    3010.4432   -247217.84            0   -240213.89    1630.8391    248490.47 
   21100    3014.3004   -247187.61            0   -240174.68   -3517.7409     249106.9 
   21150    2987.0547   -247126.67            0   -240177.13    1526.3622    248286.18 
   21200    2997.7043   -247212.93            0   -240238.61   -334.41972    248496.67 
   21250     2991.999   -247256.46            0   -240295.41   -558.37481    248583.29 
   21300    2988.5288   -247235.34            0   -240282.37   -1502.0084    248734.45 
   21350    2992.4007   -247185.74            0   -240223.76    551.81602    248694.01 
   21400    3017.6495    -247170.6            0   -240149.88    1171.3614    248768.53 
   21450    3010.5828   -247084.92            0   -240080.63   -522.30959     249232.5 
   21500    3036.8021   -247060.04            0   -239994.76    88.799457    249039.12 
   21550    3012.7556   -247018.98            0   -240009.65    301.93625    248881.15 
   21600    3002.8081   -247127.76            0   -240141.56   -482.02773    248878.58 
   21650    2997.4669   -247161.45            0   -240187.68   -935.53265    248659.95 
   21700     3019.948   -247241.15            0   -240215.08   -1773.1666     248678.9 
   21750    2982.2811   -247223.53            0    -240285.1    273.55112     248467.5 
   21800    2976.7022   -247268.32            0   -240342.87    379.06359    248324.69 
   21850    2977.5778   -247258.12            0   -240330.62    1246.1421    248444.63 
   21900    3026.7376   -247253.77            0    -240211.9   -693.94346    248935.68 
   21950    2993.5583   -247144.23            0   -240179.55   -1335.9245    249010.03 
   22000    3030.9144   -247252.31            0   -240200.72    241.89978    248545.44 
   22050    2974.5697   -247177.06            0   -240256.56   -2545.7758    249101.38 
   22100    3000.1066   -247232.68            0   -240252.77    1707.1963    248374.55 
   22150    3013.3457   -247188.54            0   -240177.83   -2216.1744    248790.28 
   22200    3027.0139   -247135.63            0   -240093.12   -443.34717    248757.02 
   22250    3026.1461   -247114.15            0   -240073.66    1546.5363    248829.56 
   22300    3005.2413   -247168.18            0   -240176.33   -2548.6905    249147.55 
   22350    3008.9536   -247239.38            0   -240238.89    1910.1725       248241 
   22400    2956.1581   -247119.49            0   -240241.83   -1385.9543    248996.46 
   22450    3000.0458   -247160.14            0   -240180.38    927.15087    248628.04 
   22500    3025.8502   -247166.97            0   -240127.16    1884.2397    248783.63 
   22550    2997.6997   -247111.38            0   -240137.07   -2406.0119    249337.27 
   22600     2988.742   -247185.09            0   -240231.63    2934.5856    248633.53 
   22650    2983.2504   -247223.69            0      -240283    150.40174    248766.33 
   22700    2991.6528   -247205.98            0   -240245.74   -812.84826    248818.69 
   22750    3018.8102   -247190.29            0   -240166.86    1233.4979    248612.77 
   22800    2990.8818   -247120.79            0   -240162.35    924.16307    249068.92 
   22850    2975.5774   -247114.95            0   -240192.11   -189.01036    248636.79 
   22900    2964.0197   -247212.33            0   -240316.38    1124.3566    248362.01 
   22950    2957.2684   -247220.59            0   -240340.35   -2876.1833    249000.25 
   23000    2999.1099   -247226.85            0   -240249.26     1558.985    248327.42 
   23050     2979.623   -247146.25            0      -240214    411.74351    248880.73 
   23100    3007.5325    -247138.3            0   -240141.11   -2142.7765     249218.4 
   23150    3011.3591   -247126.51            0   -240120.42    374.10068    248943.04 
   23200    2995.1914   -247125.35            0   -240156.88    412.98047    248871.66 
   23250    3007.4017   -247184.35            0   -240187.47     1647.591    248422.75 
   23300    2995.6528   -247156.16            0   -240186.62   -1848.3955    248778.18 
   23350    2991.2126   -247114.46            0   -240155.24    227.86093    248617.66 
   23400    2986.9881   -247068.75            0   -240119.36    222.49044    248850.39 
   23450    3001.6515   -247081.59            0   -240098.09    628.92198    249144.91 
   23500    3002.8508   -247098.24            0   -240111.94   -374.66924    248912.23 
   23550    3017.4752   -247183.78            0   -240163.46   -241.74306    248770.37 
   23600    3008.1907   -247215.32            0    -240216.6   -1000.8027     248709.4 
   23650    3009.3692   -247279.87            0   -240278.41    281.40588    248462.34 
   23700    2975.9032   -247254.46            0   -240330.87    1172.5765    248381.96 
   23750    3002.3255   -247269.47            0   -240284.39     1027.582    248426.01 
   23800     2992.777   -247121.21            0   -240158.36    519.41398     248895.4 
   23850    2996.4566   -247128.51            0    -240157.1   -748.10939    248931.14 
   23900    3007.0173   -247169.65            0   -240173.67    12.038611    248830.84 
   23950    3007.1886   -247218.08            0   -240221.69   -1594.7337     248766.3 
   24000    2991.2173   -247263.07            0   -240303.85    102.35197    248360.43 
   24050    2970.5411   -247248.99            0   -240337.87    1180.6607    248647.78 
   24100    2996.0017   -247237.11            0   -240266.75    1324.2881    248729.14 
   24150    3009.1617   -247230.99            0   -240230.01   -519.68237    248889.66 
   24200    2988.3973   -247155.44            0   -240202.77    297.36731     248701.9 
   24250    3027.9104   -247221.18            0   -240176.58   -622.18545    248465.84 
   24300    2972.5443   -247148.78            0   -240232.99     1409.832    248735.94 
   24350    2990.7697   -247239.14            0   -240280.95   -2047.8803    248909.89 
   24400    3002.6668   -247289.63            0   -240303.77    66.150222    248375.64 
   24450    2982.2571   -247270.12            0   -240331.74    1232.7757     248197.6 
   24500    2984.3732    -247239.4            0    -240296.1   -299.32525     248489.8 
   24550    3023.6821   -247246.38            0   -240211.63   -373.04443    248669.39 
   24600    3000.8918   -247143.89            0   -240162.15    174.71146    248775.65 
   24650    3032.3168   -247214.93            0   -240160.09   -1337.7431    248807.45 
   24700    2978.3992   -247186.95            0   -240257.54    596.00544    248536.71 
   24750    2991.5727   -247235.45            0    -240275.4   -75.446946       248451 
   24800     2994.409    -247213.5            0   -240246.85     263.3684    248554.68 
   24850    2991.1363   -247167.59            0   -240208.55   -1446.0674    248854.19 
   24900    3046.1211   -247259.26            0    -240172.3    689.51966    248648.81 
   24950    2997.7505   -247137.97            0   -240163.55   -1641.1514     248975.6 
   25000    3023.6174   -247212.63            0   -240178.03   -1367.4319    248518.11 
Loop time of 227.21 on 24 procs for 10000 steps with 18000 atoms

Performance: 7.605 ns/day, 3.156 hours/ns, 44.012 timesteps/s
99.6% CPU use with 24 MPI tasks x no OpenMP threads

MPI task timing breakdown:
Section |  min time  |  avg time  |  max time  |%varavg| %total
---------------------------------------------------------------
Pair    | 212.12     | 215.27     | 217.61     |   9.2 | 94.75
Bond    | 0.002039   | 0.0028899  | 0.0037291  |   0.8 |  0.00
Neigh   | 5.3173     | 5.4987     | 5.6567     |   3.7 |  2.42
Comm    | 2.3101     | 3.2688     | 5.0916     |  37.5 |  1.44
Output  | 0.009056   | 0.0093069  | 0.012759   |   0.7 |  0.00
Modify  | 1.0633     | 2.8611     | 4.9626     |  66.0 |  1.26
Other   |            | 0.2954     |            |       |  0.13

Nlocal:    750 ave 763 max 734 min
Histogram: 4 0 1 2 1 4 4 2 4 2
Nghost:    7524.88 ave 7586 max 7452 min
Histogram: 1 3 2 0 3 1 6 6 0 2
Neighs:    247331 ave 254825 max 239929 min
Histogram: 4 2 0 3 2 4 1 5 1 2

Total # of neighbors = 5935949
Ave neighs/atom = 329.775
Ave special neighs/atom = 0
Neighbor list builds = 994
Dangerous builds = 938

unfix thermostat_eq

fix thermostat_nvt all nvt temp ${T} ${T} ${THERMO_DAMP}
fix thermostat_nvt all nvt temp 3000 ${T} ${THERMO_DAMP}
fix thermostat_nvt all nvt temp 3000 3000 ${THERMO_DAMP}
fix thermostat_nvt all nvt temp 3000 3000 0.1

run ${equilsteps}
run 10000
Per MPI rank memory allocation (min/avg/max) = 8.877 | 8.877 | 8.877 Mbytes
Step Temp E_pair E_mol TotEng Press 
   25000    3023.6174   -247212.63            0   -240178.03   -1367.4319 
   25050    2992.5285   -247185.16            0   -240222.89    1528.2611 
   25100    2972.1221   -247216.11            0   -240301.31     1059.704 
   25150    2961.3894   -247252.02            0   -240362.19   -228.64847 
   25200    2994.3864   -247297.26            0   -240330.66   -1499.7718 
   25250    2988.6588   -247163.22            0   -240209.95    1505.4534 
   25300     2995.557   -247137.79            0   -240168.46    757.39296 
   25350    2998.2807   -247139.46            0    -240163.8    2264.6837 
   25400    3015.2203   -247213.66            0   -240198.59    860.69311 
   25450    3002.5603   -247269.27            0   -240283.65   -1110.2527 
   25500    2981.6659   -247220.81            0    -240283.8    674.89218 
   25550    3015.9685   -247239.13            0   -240222.32    2449.1153 
   25600    2996.5683   -247176.19            0   -240204.51    852.59944 
   25650    3000.2391   -247194.68            0   -240214.47    1461.6107 
   25700    3015.3549   -247255.11            0   -240239.72    1618.0767 
   25750    3001.0963   -247259.25            0   -240277.04    90.059658 
   25800    2996.8436   -247215.09            0   -240242.78   -156.15166 
   25850    3042.6144   -247224.66            0   -240145.85    183.04735 
   25900    3018.6085   -247181.84            0   -240158.88    1470.6845 
   25950    2989.8432   -247177.47            0   -240221.44      288.118 
   26000    2986.4873   -247203.17            0   -240254.95    1390.9787 
   26050    2999.9919   -247228.99            0   -240249.35    860.00467 
   26100    3019.7449   -247248.52            0   -240222.92    291.32834 
   26150    3006.4748   -247178.46            0   -240183.73    73.869587 
   26200    3037.6561   -247169.29            0   -240102.02    1177.5915 
   26250    3017.0056   -247129.76            0   -240110.53    659.65961 
   26300    3000.3041   -247218.32            0   -240237.95    -501.0815 
   26350     3008.224   -247266.62            0   -240267.83   -1332.2643 
   26400    2992.8992   -247229.75            0   -240266.61   -30.373404 
   26450    3042.5392    -247289.9            0   -240211.27    403.41006 
   26500    3014.3029   -247176.79            0   -240163.86    1555.9847 
   26550    2995.2517   -247145.54            0   -240176.93    1634.1608 
   26600    2974.9562   -247191.23            0   -240269.84   -122.15168 
   26650    2989.1053   -247242.61            0    -240288.3    1132.7681 
   26700     3005.633   -247259.59            0   -240266.82    2904.1242 
   26750    3022.0397   -247235.75            0   -240204.82    513.41668 
   26800    3027.0056   -247188.92            0   -240146.43    1767.8545 
   26850    2987.7977   -247173.64            0   -240222.37    2570.2418 
   26900    2987.7657   -247237.54            0   -240286.35   -49.858192 
   26950    3015.1686   -247289.31            0   -240274.36     -710.295 
   27000    2995.4288   -247217.02            0   -240247.99   -652.49628 
   27050    3016.1386   -247188.42            0   -240171.21    105.69995 
   27100    3041.3893   -247164.16            0    -240088.2    1323.0317 
   27150    3014.0896      -247159            0   -240146.56     1468.062 
   27200    3011.0192   -247199.95            0   -240194.65    2120.0208 
   27250    3019.4655   -247233.75            0    -240208.8    108.17447 
   27300    3019.8213   -247252.35            0   -240226.58   -1679.7322 
   27350    2979.9958   -247217.12            0      -240284    1687.8883 
   27400    2985.9815   -247255.58            0   -240308.54   -116.00772 
   27450    2980.3388   -247252.19            0   -240318.27    81.644804 
   27500    2996.3993   -247238.36            0   -240267.08    224.92528 
   27550    3022.0441   -247221.54            0    -240190.6    548.71973 
   27600    2977.1906   -247116.18            0   -240189.59    1495.4838 
   27650    3050.6159    -247274.4            0   -240176.98   -411.17356 
   27700     2991.652   -247203.36            0   -240243.13   -49.724485 
   27750    2993.7758   -247256.54            0   -240291.36   -1119.5061 
   27800    2999.9504   -247218.66            0   -240239.12    561.01638 
   27850    3022.9789   -247204.18            0   -240171.05    2890.3617 
   27900    3003.2879   -247118.35            0   -240131.04    592.97228 
   27950    3016.6774   -247053.28            0   -240034.82    2279.3871 
   28000    3013.6086   -247061.09            0   -240049.77    2332.4318 
   28050    3016.2473   -247170.57            0   -240153.11    1009.2214 
   28100    2992.9216   -247168.78            0   -240205.59    916.90262 
   28150    2995.5995   -247196.16            0   -240226.74     12.85944 
   28200    3004.5811   -247282.95            0   -240292.63   -2876.5992 
   28250    2964.0458   -247234.21            0    -240338.2   -821.61298 
   28300    2991.1631    -247244.7            0    -240285.6    1156.1484 
   28350    3014.1277   -247255.55            0   -240243.02    209.28798 
   28400    2997.1747   -247218.37            0   -240245.28    2237.3712 
   28450    2983.2069   -247222.49            0    -240281.9    1359.9749 
   28500    2968.8502   -247236.24            0   -240329.06   -860.19199 
   28550     2970.279   -247233.96            0   -240323.45     73.96215 
   28600      3005.77   -247210.85            0   -240217.77    2384.6098 
   28650    3000.3382   -247151.01            0   -240170.56    2833.0289 
   28700    2992.7582   -247141.04            0   -240178.23    2359.3321 
   28750    3002.5002   -247248.25            0   -240262.77    910.94252 
   28800    2985.8449   -247277.39            0   -240330.66   -123.53993 
   28850     2987.579   -247250.55            0   -240299.79   -1410.0461 
   28900    3004.2574   -247229.01            0   -240239.44    71.842078 
   28950     3004.107   -247200.27            0   -240211.06    690.34935 
   29000    3010.9502    -247207.3            0   -240202.16    -285.0473 
   29050    3028.0865   -247240.88            0   -240195.88    2066.3315 
   29100    3008.8194    -247251.3            0   -240251.12    486.80937 
   29150    2976.9836   -247235.22            0   -240309.11    652.16794 
   29200    2982.1844   -247216.45            0   -240278.24    2489.4836 
   29250    3000.9494   -247186.28            0   -240204.41    1305.1974 
   29300    3024.2722   -247246.06            0   -240209.93   -660.97023 
   29350    2964.3479   -247221.55            0   -240324.83     277.4404 
   29400     2985.436   -247312.23            0   -240366.45    50.501185 
   29450    3012.9104   -247323.82            0   -240314.12    60.778853 
   29500    3003.1829   -247221.68            0   -240234.61    1706.1332 
   29550    3015.3566   -247211.92            0   -240196.53   -35.153449 
   29600    2992.8581   -247199.42            0   -240236.38    345.14586 
   29650    3001.2577    -247258.6            0   -240276.02    802.99366 
   29700    3002.1551   -247285.64            0   -240300.97    87.403125 
   29750     2979.442    -247305.9            0   -240374.07    -126.5426 
   29800    3004.1499   -247311.81            0   -240322.49   -1565.8357 
   29850    2999.3017   -247214.28            0   -240236.24    1199.4849 
   29900    3000.6899   -247189.96            0    -240208.7    659.29842 
   29950    3015.2428   -247232.32            0   -240217.19     991.0883 
   30000    2998.8089   -247283.85            0   -240306.96   -492.67913 
   30050    2947.7419   -247242.95            0   -240384.87    604.33596 
   30100    2979.3081   -247255.26            0   -240323.74    1641.1981 
   30150    2974.4724   -247184.73            0   -240264.46    2000.0363 
   30200    3001.3935   -247213.82            0   -240230.91      2237.59 
   30250    3008.4952    -247245.4            0   -240245.98    1242.5343 
   30300    2979.1123   -247208.62            0   -240277.55    65.770814 
   30350    2980.1475   -247257.71            0   -240324.23   -1074.1097 
   30400    2992.8501    -247245.7            0   -240282.67   -666.96519 
   30450    2989.1165   -247150.49            0   -240196.15    999.13783 
   30500    3030.3101   -247209.41            0   -240159.23    447.41332 
   30550    3002.4632   -247162.44            0   -240177.05    929.33884 
   30600    3013.4376   -247257.18            0   -240246.26    1463.5265 
   30650    2973.9927   -247263.64            0   -240344.49   -408.85758 
   30700    2987.1127   -247248.46            0   -240298.78    3000.8398 
   30750    3010.6019   -247232.87            0   -240228.54    1358.0715 
   30800    2981.8962   -247155.25            0    -240217.7    932.27277 
   30850    3010.5198   -247137.24            0   -240133.11    1911.1456 
   30900    3008.8847   -247116.22            0   -240115.89     1051.746 
   30950    2991.3451   -247121.97            0   -240162.45   -1.2080998 
   31000    3006.6039   -247198.29            0   -240203.26    584.04216 
   31050    3003.1543   -247200.35            0   -240213.35   -716.41901 
   31100    2983.1362   -247175.29            0   -240234.87   -938.77688 
   31150    2976.0301   -247182.41            0   -240258.51    338.92291 
   31200    2971.7472   -247200.02            0   -240286.09    607.04313 
   31250    2972.2616   -247207.55            0   -240292.42     758.2492 
   31300    2995.3273   -247202.13            0   -240233.35   -35.224486 
   31350    3005.5328   -247140.47            0   -240147.93    1787.6344 
   31400     2997.721   -247091.85            0    -240117.5    827.33554 
   31450    3012.2079   -247156.57            0    -240148.5    1622.9978 
   31500    2986.9918   -247215.81            0   -240266.42    538.32333 
   31550    2977.7125   -247204.52            0   -240276.71    1736.3092 
   31600    2997.7814   -247199.01            0   -240224.52    1248.5565 
   31650    3032.3754   -247204.52            0   -240149.54    -882.2408 
   31700    3000.3827   -247100.63            0   -240120.08    1378.3571 
   31750    3046.5232   -247196.57            0   -240108.67    781.85224 
   31800    3005.8828   -247231.73            0   -240238.38   0.75976996 
   31850    2999.5367    -247248.7            0   -240270.12   -12.433152 
   31900    2977.6132   -247166.27            0    -240238.7    988.47265 
   31950     3011.786   -247183.61            0   -240176.53      1130.81 
   32000    3028.9762      -247191            0   -240143.93      2250.04 
   32050    2988.9244   -247160.68            0   -240206.79    357.95712 
   32100    3001.1151   -247294.15            0    -240311.9    -2115.954 
   32150    2966.8473   -247220.15            0   -240317.62   -781.88069 
   32200    3005.4704   -247248.62            0   -240256.23   -834.64302 
   32250    3008.2507      -247177            0   -240178.14    1096.6158 
   32300     3003.799   -247158.02            0   -240169.52    1490.1275 
   32350    2998.3815   -247156.28            0   -240180.39    1134.2952 
   32400    3008.5485    -247206.9            0   -240207.35    262.27945 
   32450    2996.5684   -247240.38            0    -240268.7    -83.28058 
   32500    2992.0209   -247278.75            0   -240317.65   -1865.5748 
   32550    2966.3038   -247201.29            0   -240300.03    1152.2141 
   32600     2977.028   -247115.08            0   -240188.87    1865.9416 
   32650    3003.9845   -247138.67            0   -240149.74    641.49358 
   32700    2989.9845   -247138.37            0   -240182.01     523.6246 
   32750    3005.1342    -247236.4            0    -240244.8     1186.753 
   32800    2998.2285   -247294.11            0   -240318.57   -1248.5257 
   32850    2986.7593   -247280.31            0   -240331.46    986.30457 
   32900    2983.4027   -247125.17            0   -240184.12     2501.209 
   32950    3013.9938   -247184.99            0   -240172.78   -770.19306 
   33000     2996.767   -247207.12            0   -240234.98    98.339003 
   33050    3001.0803    -247241.4            0   -240259.23   -666.20779 
   33100    2987.1249   -247209.19            0   -240259.49    316.54627 
   33150    3010.1243   -247184.34            0   -240181.12    1521.5849 
   33200    3010.2648   -247136.94            0   -240133.39    2122.3137 
   33250    2979.4066   -247113.07            0   -240181.32    631.13392 
   33300    2969.2332   -247188.07            0   -240279.99   -1022.7446 
   33350    2978.3062   -247210.01            0   -240280.82   -1870.6968 
   33400    3009.9658   -247230.56            0   -240227.71    1406.7609 
   33450    2999.0193   -247166.72            0   -240189.35    2406.0848 
   33500    2999.7754   -247191.37            0   -240212.23    852.20452 
   33550    2971.9479   -247190.56            0   -240276.16    976.99643 
   33600    2977.2489   -247295.63            0    -240368.9   -762.42477 
   33650    2962.0181   -247232.51            0   -240341.22    519.41326 
   33700    2989.9541   -247221.07            0   -240264.79    986.59264 
   33750    2987.4282   -247173.35            0   -240222.94    1133.8568 
   33800    3010.8262   -247186.42            0   -240181.58   -1287.2531 
   33850    3004.4898   -247146.48            0   -240156.37    961.26556 
   33900    3008.4409   -247168.53            0   -240169.23    1292.0645 
   33950    3003.2304      -247217            0   -240229.82    2465.8489 
   34000    2995.0899   -247252.05            0   -240283.82    638.01576 
   34050    2986.7163   -247244.57            0   -240295.82   -1806.3708 
   34100    3029.7204    -247241.7            0    -240192.9    -653.3837 
   34150    3012.5085   -247160.15            0   -240151.39    1302.3449 
   34200    2997.6933   -247142.29            0   -240167.99    1296.1018 
   34250    3000.4825   -247161.01            0   -240180.23    -353.2739 
   34300    2963.1095   -247156.46            0   -240262.63   -143.80425 
   34350    2986.3309   -247213.04            0   -240265.19    62.623644 
   34400    3030.8641   -247223.56            0   -240172.09   -419.92602 
   34450    2981.2864   -247101.58            0   -240165.46    2341.3827 
   34500    2992.9649   -247171.78            0   -240208.49   -194.20534 
   34550    2998.8329   -247200.63            0   -240223.69    -499.3033 
   34600    3011.2815   -247226.48            0   -240220.57    1833.1347 
   34650    2980.9876   -247167.76            0   -240232.34    1086.7486 
   34700    2974.0388   -247209.33            0   -240290.07    3068.1199 
   34750    2980.4472   -247293.42            0   -240359.25    67.344372 
   34800    2973.7342   -247260.99            0   -240342.44   -676.36417 
   34850    2995.2368   -247213.03            0   -240244.45    992.39629 
   34900    2995.2937   -247175.14            0   -240206.43    1687.4413 
   34950    2995.4326   -247162.11            0   -240193.07    3142.8303 
   35000    3004.2517   -247197.74            0   -240208.18    1136.0045 
Loop time of 228.434 on 24 procs for 10000 steps with 18000 atoms

Performance: 7.565 ns/day, 3.173 hours/ns, 43.776 timesteps/s
99.6% CPU use with 24 MPI tasks x no OpenMP threads

MPI task timing breakdown:
Section |  min time  |  avg time  |  max time  |%varavg| %total
---------------------------------------------------------------
Pair    | 213.01     | 216.76     | 219.2      |  10.2 | 94.89
Bond    | 0.0024468  | 0.0033316  | 0.0046122  |   1.0 |  0.00
Neigh   | 5.2801     | 5.5141     | 5.6984     |   4.1 |  2.41
Comm    | 2.3197     | 3.442      | 5.3213     |  38.4 |  1.51
Output  | 0.0097039  | 0.0099499  | 0.012134   |   0.5 |  0.00
Modify  | 0.94368    | 2.3978     | 4.7466     |  69.3 |  1.05
Other   |            | 0.3066     |            |       |  0.13

Nlocal:    750 ave 777 max 732 min
Histogram: 4 2 2 1 6 5 3 0 0 1
Nghost:    7516.58 ave 7581 max 7457 min
Histogram: 1 1 2 7 2 4 4 0 1 2
Neighs:    247379 ave 258032 max 237618 min
Histogram: 2 2 2 2 5 3 2 3 2 1

Total # of neighbors = 5937107
Ave neighs/atom = 329.839
Ave special neighs/atom = 0
Neighbor list builds = 988
Dangerous builds = 876

unfix thermostat_nvt

dump atoms all custom 1000000 lattice.out id type x y z c_peratom fx fy fz

reset_timestep 0

fix nve_fix all nve


thermo_modify line one format float %15.15g

variable tempsteps equal step

compute 1 all chunk/atom bin/1d ${dimension} lower ${thickness} units reduced
compute 1 all chunk/atom bin/1d z lower ${thickness} units reduced
compute 1 all chunk/atom bin/1d z lower 0.05 units reduced
fix 3 all ave/chunk 50 10 1050 1 v_temp file tmp_profile.out
fix flux all thermal/conductivity ${swapsteps} ${dimension} 20
fix flux all thermal/conductivity 50 ${dimension} 20
fix flux all thermal/conductivity 50 z 20

thermo_style custom step v_currenttime temp pe c_pe temp f_flux etotal press
WARNING: New thermo_style command, previous thermo_modify settings will be lost (../output.cpp:705)
thermo_style multi
thermo_modify line one format float %15.15g
thermo ${swapsteps}
thermo 50

variable fluxstep equal step-${tempsteps}
variable fluxstep equal step-0
variable fluxtime equal dt*v_fluxstep
variable fflux equal f_flux
variable eetotal equal etotal

fix fluxlog all print ${swapsteps} "${fluxstep} ${fluxtime} ${eetotal} ${fflux} " file flux_log.out
fix fluxlog all print 50 "${fluxstep} ${fluxtime} ${eetotal} ${fflux} " file flux_log.out

run         ${TCsteps}
run         2500000
Per MPI rank memory allocation (min/avg/max) = 10.56 | 10.56 | 10.56 Mbytes
TotEng KinEng Temp PotEng E_bond E_angle E_dihed E_impro E_vdwl E_coul E_long Press 
-240208.184231642 6989.55191781676 3004.25172637987 -247197.736149459               0               0               0               0 -19477.2716403068 -227720.464509152               0 1136.00448476052 
50 0.1 -240208.024846167 2.63727783208304 
-240208.024846167 7063.23693129917 3035.92304545235 -247271.261777466               0               0               0               0 -19631.3312680755 -227639.93050939               0 -1125.57355385873 
100 0.2 -240207.551159835 3.17355183999233 
-240207.551159835 6912.20360585018 2971.00584703161 -247119.754765685               0               0               0               0 -19434.14160769 -227685.613157995               0 2061.74448174816 
150 0.3 -240207.439280641 3.60311929848563 
-240207.439280641 6991.3479589979 3005.02370144816 -247198.787239639               0               0               0               0 -19427.7688470142 -227771.018392625               0 1943.84160603446 
200 0.4 -240207.806650482 5.80380988362603 
-240207.806650482 6990.30530446008 3004.57554729865 -247198.111954943               0               0               0               0 -19571.5976903425 -227626.5142646               0 -392.879005043698 
250 0.5 -240207.516323781 7.66894783018592 
-240207.516323781 7013.9898529173 3014.75564845931 -247221.506176698               0               0               0               0 -19588.0121543062 -227633.494022392               0 -380.294577133758 
300 0.6 -240206.423544754 8.34144683922756 
-240206.423544754 6969.74504180756 2995.73832778945 -247176.168586562               0               0               0               0 -19438.5360564079 -227737.632530154               0 2027.17255420321 
350 0.7 -240206.858862885 10.9983491229919 
-240206.858862885 7025.32994496048 3019.62985091158 -247232.188807845               0               0               0               0 -19457.441781603 -227774.747026242               0 1832.10722041718 
400 0.8 -240206.18257484 12.0390145571165 
-240206.18257484 7021.13823001103 3017.82816648009 -247227.320804851               0               0               0               0 -19520.9447315211 -227706.37607333               0 241.555779698173 
450 0.9 -240205.289070762 13.165617589435 
-240205.289070762 6956.16005517912 2989.89922393684 -247161.449125941               0               0               0               0 -19347.4755072761 -227813.973618665               0 3649.29355963997 
500 1 -240205.589663824 14.6338108370984 
-240205.589663824 7055.79579654764 3032.7246942295 -247261.385460371               0               0               0               0 -19440.4417327407 -227820.943727631               0 2564.01426759047 
550 1.1 -240205.555409789 15.1422544972701 
-240205.555409789 7026.4577049771 3020.11458512869 -247232.013114766               0               0               0               0 -19598.0639802248 -227633.949134541               0 -1078.29388274792 
600 1.2 -240205.740408881 17.5942617910797 
-240205.740408881 6982.20027539046 3001.09184078053 -247187.940684271               0               0               0               0 -19437.1129201504 -227750.827764121               0 1587.14741552424 
650 1.3 -240205.686983652 18.1042674544365 
-240205.686983652 7009.18097887193 3012.68869648262 -247214.867962524               0               0               0               0 -19471.4364538478 -227743.431508677               0 1897.49115744751 
700 1.4 -240205.293700611 19.2731626642064 
-240205.293700611 6984.55038403484 3002.10196532572 -247189.844084646               0               0               0               0 -19457.3621899696 -227732.481894677               0 1514.66769671599 
750 1.5 -240205.997119409 19.7053667565666 
-240205.997119409 6991.86929151953 3005.24778078065 -247197.866410928               0               0               0               0 -19494.540489915 -227703.325921013               0 1802.41093334086 
800 1.6 -240205.616136862 20.6474957184626 
-240205.616136862 7003.91791674636 3010.42652522147 -247209.534053609               0               0               0               0 -19534.8485869528 -227674.685466656               0 610.87448993829 
850 1.7 -240206.047390379 22.9807590047391 
-240206.047390379 7007.70235431859 3012.05315354377 -247213.749744698               0               0               0               0 -19486.453197426 -227727.296547272               0 966.560854439033 
900 1.8 -240205.501306866 23.9982809994309 
-240205.501306866 7001.50867762129 3009.39098519174 -247207.009984487               0               0               0               0 -19413.964176549 -227793.045807938               0 2480.79219315286 
950 1.9 -240206.145323297 26.1457022698537 
-240206.145323297 7005.96527895478 3011.30652318436 -247212.110602252               0               0               0               0 -19477.5164644762 -227734.594137775               0 591.985197225086 
1000 2 -240205.698012008 26.567632743263 
-240205.698012008 7028.58475813993 3021.02883588635 -247234.282770148               0               0               0               0 -19442.1774287509 -227792.105341397               0 1507.28622068221 
1050 2.1 -240205.468669889 29.6630452484748 
-240205.468669889 7067.55964011161 3037.78103371328   -247273.02831               0               0               0               0 -19698.7370852997 -227574.291224701               0 -2255.34267432927 
1100 2.2 -240204.283987812 30.807943774799 
-240204.283987812 6968.83511795498 2995.34722399093 -247173.119105767               0               0               0               0 -19516.813171217 -227656.30593455               0 93.4789314829143 
1150 2.3 -240204.197314399 32.1667194301506 
-240204.197314399 6975.43596037322   2998.18440046 -247179.633274772               0               0               0               0 -19372.4882462855 -227807.145028486               0 1986.01251890882 
1200 2.4 -240204.606949405 32.6937859332601 
-240204.606949405 7028.68973993977 3021.07395920142 -247233.296689345               0               0               0               0 -19471.680439822 -227761.616249523               0 1667.41273008329 
1250 2.5 -240204.447188326 33.7060131686925 
-240204.447188326 6964.3767616831 2993.43093169007 -247168.823950009               0               0               0               0 -19516.5858527354 -227652.238097274               0 -312.229442749101 
1300 2.6 -240204.435881496 34.1246002681118 
-240204.435881496 6997.75714973088 3007.77850212075 -247202.193031227               0               0               0               0 -19461.7992374285 -227740.393793798               0 1475.37021266149 
1350 2.7 -240203.727677297 35.4579271094282 
-240203.727677297 6979.61805538394 2999.98195004595 -247183.345732681               0               0               0               0 -19594.9658154201 -227588.379917261               0 -264.055350454953 
1400 2.8 -240203.031109777 37.4883443044049 
-240203.031109777 6932.78728234743 2979.85313028799 -247135.818392124               0               0               0               0 -19459.1028934366 -227676.715498688               0 1399.72242256402 
1450 2.9 -240203.838253394 38.6098819425343 
-240203.838253394 7001.33854072439 3009.31785688935 -247205.176794119               0               0               0               0 -19560.6088821133 -227644.567912005               0 -218.170506584965 
1500 3 -240203.657074625 39.3821818426225 
-240203.657074625 7006.02506881063 3011.33222208177 -247209.682143436               0               0               0               0 -19605.0028511347 -227604.679292301               0 -870.02778026469 
1550 3.1 -240202.726484809 39.9890701353588 
-240202.726484809   6959.94512059 2991.52612211698 -247162.671605399               0               0               0               0 -19472.2503778292 -227690.42122757               0 903.723972358348 
1600 3.2 -240203.189992393 42.0739983906383 
-240203.189992393 7008.75286964002 3012.50468641815 -247211.942862033               0               0               0               0 -19393.5132054289 -227818.429656604               0 2863.43235462302 
1650 3.3 -240202.519841645 44.0706004341707 
-240202.519841645 6996.01704393677 3007.03056922068 -247198.536885582               0               0               0               0 -19467.3275609834 -227731.209324599               0 1669.66245021277 
1700 3.4 -240202.998184649 45.8849396785535 
-240202.998184649 7037.67414089008 3024.93563765847 -247240.672325539               0               0               0               0 -19540.470269509 -227700.202056031               0 261.706538392143 
1750 3.5 -240202.43681071 47.7178965390825 
-240202.43681071 7000.35792953928 3008.89637023607 -247202.794740249               0               0               0               0 -19501.1020325944 -227701.692707655               0 984.172653356075 
1800 3.6 -240201.331543382 48.2624586138334 
-240201.331543382 6962.83909685992 2992.77001204115 -247164.170640242               0               0               0               0 -19454.1231251759 -227710.047515066               0 1438.49225373587 
1850 3.7 -240201.488729621 48.7188532391629 
-240201.488729621 6964.44331231275 2993.45953650571 -247165.932041934               0               0               0               0 -19546.3150061921 -227619.617035742               0 53.950291578418 
[...]
-226759.359813334 12823.9210774261 5511.98238296378 -239583.28089076               0               0               0               0 -14031.3528873731 -225551.928003387               0 120863.304112539 
280800 561.6 -226669.636334169 7645.66210881145 
-226669.636334169 12992.8461668526 5584.58982583071 -239662.482501021               0               0               0               0 -14036.1901364493 -225626.292364572               0 121046.227404003 
280850 561.7 -226587.891330364 7646.97319848083 
-226587.891330364 13023.366327994 5597.70801250083 -239611.257658358               0               0               0               0 -14035.2259956127 -225576.031662745               0 119625.407699812 
280900 561.8 -226491.253580389 7649.10560341193 
-226491.253580389 13007.9753089142 5591.09263912857 -239499.228889303               0               0               0               0 -14019.7663629686 -225479.462526334               0 120905.71868172 
280950 561.9 -226421.615627402 7649.72431320132 
-226421.615627402 12910.1385497215 5549.04040800358 -239331.754177123               0               0               0               0 -13968.6210150818 -225363.133162042               0 120494.26162782 
281000 562 -226322.939910571 7651.84041075918 
-226322.939910571 13139.2010895371 5647.49615148777 -239462.141000108               0               0               0               0 -13933.0151323762 -225529.125867732               0 123058.454225496 
281050 562.1 -226243.053726688 7653.06946883386 
-226243.053726688 13128.7433967151 5643.00122218705 -239371.797123404               0               0               0               0 -14011.2898369162 -225360.507286487               0 122319.94792741 
281100 562.2 -226159.463827032 7655.18158169499 
-226159.463827032 13071.3957787775 5618.35204836035 -239230.85960581               0               0               0               0 -13700.1280180965 -225530.731587713               0 127756.435240317 
281150 562.3 -226060.970559006 7657.93890668835 
-226060.970559006 13205.3069758637 5675.90980739242 -239266.27753487               0               0               0               0 -13662.1866794229 -225604.090855447               0 127285.649938699 
281200 562.4 -225983.942554096 7660.36873380199 
-225983.942554096 13231.3484093368 5687.10294572072 -239215.290963433               0               0               0               0 -13909.5371360173 -225305.753827416               0 125281.717219212 
281250 562.5 -225897.377590468 7662.56280614116 
-225897.377590468 13338.1904803841 5733.02584323518 -239235.568070852               0               0               0               0 -13878.5554010167 -225357.012669836               0 124702.94429128 
281300 562.6 -225796.088249258 7663.67415560853 
-225796.088249258 13248.8899617575 5694.64266210924 -239044.978211015               0               0               0               0 -13793.3481128155 -225251.6300982               0 126565.372089489 
281350 562.7 -225695.796271601 7665.22105403753 
-225695.796271601 13255.2738606991 5697.38659185494 -238951.0701323               0               0               0               0 -13774.1619362922 -225176.908196007               0 126809.860325506 
281400 562.8 -225582.310561069 7667.60563353122 
-225582.310561069 13375.2988110696 5748.97575931504 -238957.609372138               0               0               0               0 -13622.7542138212 -225334.855158317               0 130583.492027848 
281450 562.9 -225464.2148349 7670.10491536358 
-225464.2148349 13484.6508161527 5795.97747758206 -238948.865651053               0               0               0               0 -13574.8499694973 -225374.015681556               0 131444.784854137 
281500 563 -225349.450881775 7671.07893339581 
-225349.450881775 13612.9036346537 5851.10315028971 -238962.354516428               0               0               0               0 -13637.4412469287 -225324.9132695               0 131586.885848444 
281550 563.1 -225241.884182903 7672.86684780856 
-225241.884182903 13748.7012608433 5909.47173495943 -238990.585443746               0               0               0               0 -13533.6026606597 -225456.982783086               0 133496.53336112 
281600 563.2 -225121.425294327 7673.32650103139 
-225121.425294327 13682.5759260354 5881.04971970153 -238804.001220362               0               0               0               0 -13723.2532932195 -225080.747927143               0 129907.809665549 
281650 563.3 -225012.753191606 7675.20538854743 
-225012.753191606 13709.1337733021 5892.46482319284 -238721.886964908               0               0               0               0 -13553.6717789901 -225168.215185918               0 133474.693570159 
281700 563.4 -224866.550749364 7676.45328206685 
-224866.550749364 13746.6019081505 5908.5693904278 -238613.152657515               0               0               0               0 -13352.373694102 -225260.778963413               0 135910.86185472 
281750 563.5 -224716.272878651 7677.07500817593 
-224716.272878651 14015.9835562624 6024.3551075826 -238732.256434913               0               0               0               0 -13547.7743993699 -225184.482035543               0 134551.429047886 
281800 563.6 -224612.831549797 7678.39820837863 
-224612.831549797 13856.3871125039 5955.75730656143 -238469.218662301               0               0               0               0 -13351.0490873503 -225118.169574951               0 138016.392470547 
281850 563.7 -224475.346351823 7680.37749096796 
-224475.346351823 14031.6355119651 6031.08263682824 -238506.981863788               0               0               0               0 -13147.3119878889 -225359.669875899               0 141644.804003497 
281900 563.8 -224336.686228434 7680.95514672817 
-224336.686228434  14146.06676775 6080.26752046396 -238482.752996184               0               0               0               0 -13353.2661144094 -225129.486881774               0 138327.310493623 
281950 563.9 -224155.638828585 7684.08596160711 
-224155.638828585 14225.2166554144 6114.28775372847  -238380.855484               0               0               0               0 -13089.6653754749 -225291.190108525               0 142941.792818916 
282000 564 -224006.113713473 7686.92554559074 
-224006.113713473 14429.9102740079 6202.26923870334 -238436.023987481               0               0               0               0 -13202.9034110356 -225233.120576445               0 141715.189093865 
282050 564.1 -223859.604639054 7688.34487378134 
-223859.604639054 14410.4292343935 6193.89589122967 -238270.033873447               0               0               0               0 -13171.9742840199 -225098.059589427               0 142574.74611365 
282100 564.2 -223729.005994944 7688.94352485734 
-223729.005994944 14537.1174046407 6248.34904626051 -238266.123399585               0               0               0               0 -12904.8426588903 -225361.280740694               0 148102.022341323 
282150 564.3 -223497.545878857 7689.99963977054 
-223497.545878857 14498.0766554089 6231.56853734407 -237995.622534265               0               0               0               0 -12833.6799384073 -225161.942595858               0 149743.410127222 
282200 564.4 -223325.159058154 7691.95263274242 
-223325.159058154 14673.2207444349 6306.84903286202 -237998.379802589               0               0               0               0 -12973.3170556321 -225025.062746957               0 148146.216969124 
282250 564.5 -223154.302745461 7692.46206848262 
-223154.302745461 14796.677079744 6359.9130794341 -237950.979825205               0               0               0               0 -13016.4505901618 -224934.529235043               0 147737.282842861 
282300 564.6 -222966.950180047 7694.58371626723 
-222966.950180047 14980.8271476234 6439.06452803115 -237947.777327671               0               0               0               0 -12847.9159928786 -225099.861334792               0 151932.117301875 
282350 564.7 -222770.400928881 7697.50174142842 
-222770.400928881 14959.3745801791 6429.8437777545 -237729.77550906               0               0               0               0 -12735.5441703876 -224994.231338672               0 154444.640992095 
282400 564.8 -222617.181072682 7699.93257400637 
-222617.181072682 15113.0851894909 6495.91172729084 -237730.266262173               0               0               0               0 -12725.5482019554 -225004.718060218               0 154762.725915563 
282450 564.9 -222437.459960331 7702.41121061977 
-222437.459960331 15314.4063854566 6582.44367635542 -237751.866345788               0               0               0               0 -12570.5103395746 -225181.356006213               0 159525.870640787 
282500 565 -222195.235059144 7704.64685468761 
-222195.235059144 15332.9857482648 6590.42946477906 -237528.220807409               0               0               0               0 -12626.6131763142 -224901.607631095               0 159232.682300889 
282550 565.1 -221967.789900459 7706.27658163479 
-221967.789900459 15432.0815211847 6633.02284563837 -237399.871421643               0               0               0               0 -12208.9282487617 -225190.943172882               0 165192.434283123 
282600 565.2 -221789.761937304 7707.50220607163 
-221789.761937304 15623.9511702158 6715.49232739045 -237413.713107519               0               0               0               0 -12686.7365572061 -224726.976550313               0 159579.726203206 
282650 565.3 -221587.746044289 7709.55587070434 
-221587.746044289 15679.9423223842 6739.55846461096 -237267.688366674               0               0               0               0 -12457.2325226594 -224810.455844014               0 162380.325392045 
282700 565.4 -221371.618159679 7710.14159835367 
-221371.618159679 15766.3697011503 6776.70671172571 -237137.987860829               0               0               0               0 -12231.853920072 -224906.133940757               0 166106.470835717 
282750 565.5 -221163.100269838 7710.79964201783 
-221163.100269838 15867.7016200153 6820.2612336417 -237030.801889853               0               0               0               0 -12090.8537277256 -224939.948162128               0 169915.380766422 
282800 565.6 -220820.99145978 7711.27275949168 
-220820.99145978 16244.667141903 6982.28869022731 -237065.658601683               0               0               0               0 -12226.4285507512 -224839.230050932               0 169020.499972061 
282850 565.7 -220569.378269347 7714.1096042697 
-220569.378269347 16379.5149905588 7040.24904117484 -236948.893259906               0               0               0               0 -12117.3600682824 -224831.533191624               0 172022.73825775 
282900 565.8 -220215.635745913 7715.24346972734 
-220215.635745913 16569.9774827054 7122.11369824728 -236785.613228619               0               0               0               0 -11822.0339791038 -224963.579249515               0 176736.47788528 
282950 565.9 -219827.98464558 7717.28501588536 
-219827.98464558 16650.787362048 7156.84742973367 -236478.772007628               0               0               0               0 -11994.5907168358 -224484.181290792               0 175076.349241249 
283000 566 -219463.431871136 7717.99352741608 
-219463.431871136 16996.7826695054 7305.56325758216 -236460.214540641               0               0               0               0 -11933.8426182049 -224526.371922437               0 177730.460538955 
283050 566.1 -219129.598476393 7718.26286240133 
-219129.598476393 17271.6903712925 7423.72418512084 -236401.288847686               0               0               0               0 -11952.8286599622 -224448.460187724               0 178581.820570541 
283100 566.2 -218751.749874787 7718.76573038225 
-218751.749874787 17431.7641221098 7492.52714243419 -236183.513996897               0               0               0               0 -11678.8064433687 -224504.707553528               0 184866.880944479 
283150 566.3 -218269.87476018 7720.52536964652 
-218269.87476018 17697.4610265724 7606.72908174461 -235967.335786752               0               0               0               0 -11557.0652955783 -224410.270491174               0 187941.485884412 
283200 566.4 -217899.336531421 7722.81789811248 
-217899.336531421 17795.0689951723 7648.6829740145 -235694.405526594               0               0               0               0 -11396.2579428375 -224298.147583756               0 191531.015267883 
283250 566.5 -217434.001939078 7725.23733808126 
-217434.001939078 18291.4769981159 7862.04924088929 -235725.478937193               0               0               0               0 -11199.6548768029 -224525.824060391               0 197536.522924895 
283300 566.6 -217006.778918116 7726.038621388 
-217006.778918116 18461.706108442 7935.21717848963 -235468.485026558               0               0               0               0 -11336.6704199611 -224131.814606597               0 195748.893997824 
283350 566.7 -216583.945919979 7727.40174210722 
-216583.945919979 18515.5947057721 7958.37959483117 -235099.540625751               0               0               0               0 -10959.0882217319 -224140.45240402               0 201557.381148485 
283400 566.8 -216026.490763157 7727.79611973834 
-216026.490763157  19103.94705906 8211.26541553436 -235130.437822217               0               0               0               0 -10882.9289522111 -224247.508870005               0 208387.840340167 
283450 566.9 -215363.368226127 7730.26969593021 
-215363.368226127 19528.0431047245 8393.55053084922 -234891.411330852               0               0               0               0 -10982.2164704686 -223909.194860383               0 207053.491553646 
283500 567 -214582.986643567 7731.2967100951 
-214582.986643567 20015.0974238689 8602.89639397965 -234598.084067436               0               0               0               0 -10539.4568803314 -224058.627187105               0 219550.272993957 
283550 567.1 -213716.072971402 7732.08017169901 
-213716.072971402 20537.1364872459 8827.27941249481 -234253.209458648               0               0               0               0 -10314.0226791259 -223939.186779522               0 225725.567170762 
283600 567.2 -212731.901812108 7733.24895413645 
-212731.901812108 21395.4362337954 9196.19411913714 -234127.338045903               0               0               0               0 -10076.7713721067 -224050.566673797               0 232876.931340832 
283650 567.3 -211928.371883762 7735.8288353573 
-211928.371883762 21553.5165897817 9264.14027476523 -233481.888473544               0               0               0               0 -10077.017393313 -223404.87108023               0 234517.185153503 
283700 567.4 -211095.925969863 7736.96983728401 
-211095.925969863 22299.0627301814 9584.59118574313 -233394.988700044               0               0               0               0 -9944.48145187046 -223450.507248174               0 239341.734782076 
283750 567.5 -210008.472342966 7739.65369939622 
-210008.472342966 22980.0691825881 9877.30162474903 -232988.541525554               0               0               0               0 -9750.61848470781 -223237.923040846               0 246275.694963385 
283800 567.6 -208872.034581538 7742.33552853241 
-208872.034581538 23825.9824631293 10240.892376104 -232698.017044667               0               0               0               0 -9290.52545540463 -223407.491589262               0 258451.46513199 
283850 567.7 -207587.076566642 7744.26109807311 
-207587.076566642 24495.6823813579 10528.7430365113  -232082.758948               0               0               0               0 -8806.57205731398 -223276.186890686               0 270197.196585521 
283900 567.8 -206210.432491047 7746.59759617084 
-206210.432491047 25671.4906268322 11034.1293606838 -231881.92311788               0               0               0               0 -8567.77803358732 -223314.145084292               0 281782.062855052 
283950 567.9 -204478.547183249 7748.63895024878 
-204478.547183249 26760.8481189981 11502.3573908872 -231239.395302247               0               0               0               0 -8040.56861388545 -223198.826688361               0 293987.581779349 
284000 568 -202276.490305496 7751.05851876554 
-202276.490305496 28483.2051106146 12242.6614942613 -230759.69541611               0               0               0               0 -8152.83142471731 -222606.863991393               0 300744.743336162 
284050 568.1 -199829.622356202 7753.17496119726 
-199829.622356202 29928.4038091592 12863.837320139 -229758.026165361               0               0               0               0 -7679.65199815675 -222078.374167205               0 316681.964518096 
284100 568.2 -197574.82986106 7755.83962175076 
-197574.82986106 31978.1171463259 13744.8458460318 -229552.947007386               0               0               0               0 -6982.85216448211 -222570.094842904               0 338388.396425448 
284150 568.3 -194775.771831994 7756.84032986886 
-194775.771831994 33577.9728102961 14432.496384572 -228353.74464229               0               0               0               0 -6495.22505212299 -221858.519590167               0 355242.013906105 
284200 568.4 -191464.386391985 7757.02555968602 
-191464.386391985 36181.0937708407 15551.3707747539 -227645.480162826               0               0               0               0 -5889.55550224576 -221755.92466058               0 375306.246550329 
284250 568.5 -187368.194402476 7759.5908234875 
-187368.194402476 39782.1250281117 17099.1673286113 -227150.319430588               0               0               0               0 -5453.34385889923 -221696.975571689               0 399869.94057391 
284300 568.6 -183063.404199683 7761.26338852558 
-183063.404199683 42416.0370681991 18231.2763517083 -225479.441267882               0               0               0               0 -4505.30978382736 -220974.131484055               0 429419.138332007 
284350 568.7 -178457.728062235 7763.9949771072 
-178457.728062235 46115.2432738778 19821.270497301 -224572.971336113               0               0               0               0 -3589.68741465111 -220983.283921462               0 460100.072043805 
284400 568.8 -173023.500672369 7766.62877283127 
-173023.500672369 50452.2953555565 21685.423787381 -223475.796027926               0               0               0               0 -2757.02610337741 -220718.769924548               0 496370.175757542 
284450 568.9 -166832.32348309 7769.06917101379 
-166832.32348309 54986.3221168797 23634.2408053126 -221818.64559997               0               0               0               0 -1388.4557336919 -220430.189866278               0 537900.341821686 
284500 569 -159894.436724858 7769.86578369976 
-159894.436724858 60650.2054653468 26068.6931890587 -220544.642190205               0               0               0               0 -476.242748502547 -220068.399441702               0 582666.131787037 
284550 569.1 -151711.218275222 7772.26589522272 
-151711.218275222 66341.4553863324 28514.9082828756 -218052.673661554               0               0               0               0 1436.44435508126 -219489.118016635               0 640726.316710957 
284600 569.2 -142513.546298364 7775.3018053426 
-142513.546298364 74015.0930382135 31813.1939862141 -216528.639336578               0               0               0               0 2675.90169406574 -219204.541030643               0 695807.207080066 
284650 569.3 79771.883628154 7775.32570975346 
79771.883628154 294143.834144082 126429.008886649 -214371.950515928               0               0               0               0 4178.79485051266 -218550.745366441               0 1667085.04065208 
284700 569.4 20709.5299244038 7777.72098522937 
ERROR: Lost atoms: original 18000 current 17994 (../thermo.cpp:441)
Last command: run         ${TCsteps}
