LAMMPS data file via write_data, version 22 Dec 2022, timestep = 100000

6249 atoms
3 atom types

-0.9934256266674311 100.99342562666322 xlo xhi
-0.9934256266674311 100.99342562666322 ylo yhi
-0.09934256266634378 10.099342562666433 zlo zhi

Masses

1 26.982
2 24.32
3 65.39

Atoms # atomic

252 1 1.3793033500026146 1.9136171054139322 1.3596048081613135 0 0 0
253 1 1.1567561688547574 -0.43496145176641177 2.619994876801685 0 0 0
254 1 -0.682552055013415 1.7356439064009686 3.1189747242746724 0 0 0
255 1 3.3438928239644223 -0.10353506882915164 0.8988169505490217 0 0 0
258 1 3.3264679814440905 1.6178637082509186 3.216926640426885 0 0 0
2980 1 30.1241062343916 -0.9778316006165679 0.29006073727039616 0 1 0
256 1 5.347432362551065 2.21819237481787 1.2303353890801088 0 0 0
2956 1 5.522692731006886 -0.1229145444226506 2.842253532277473 0 1 0
262 1 7.348453460692166 1.81784549503725 3.1696477584857607 0 0 0
259 1 7.394575386885721 0.33291476468243775 0.7828128501272636 0 0 0
2962 1 7.5772487332661775 -0.4062085320392279 4.760388003953557 0 1 0
260 1 9.569272007769177 2.364932165580002 1.4184424959700024 0 0 0
2960 1 9.545001166014053 -0.0948308508542024 2.9722171837041333 0 1 0
263 2 11.519431915088944 0.4976899052413166 0.7971975423138089 0 0 0
507 1 11.564054213523324 -0.2957088404481035 4.994916687424193 0 0 0
266 1 11.521741362526683 2.1309793930531464 3.3230899906570217 0 0 0
264 1 13.50788952712744 2.5660205301170027 1.2262607750621575 0 0 0
265 1 13.532498581883269 0.2729171506168555 2.951504906103695 0 0 0
270 1 15.583690153969151 2.3044471765701138 3.261152055555777 0 0 0
267 1 15.711513957273883 0.7454393417332548 0.7139454221803015 0 0 0
3110 1 15.696078560799045 -0.09271162029929536 4.776063207261881 0 1 0
508 1 13.438444646601852 1.876479546206895 5.166007515158949 0 0 0
268 1 17.706927660214173 2.7571623146482844 1.2343568919922268 0 0 0
269 1 17.663960762492383 0.35237579995567336 2.6850432084346725 0 0 0
274 1 19.68576583706722 2.2363006328164072 3.2665289360271847 0 0 0
271 1 19.775468342947562 0.7649031567859323 0.9972710715122628 0 0 0
2974 1 19.832909508047795 -0.016904662985045893 4.786501263653989 0 1 0
273 1 21.86234636013262 0.5150613206496053 2.8369607034796798 0 0 0
278 2 23.716391953336746 2.6965373476674883 3.278626103829433 0 0 0
2978 1 24.072383507256582 0.9851729951823402 0.9429399484834993 0 1 0
272 1 21.965007118965953 2.945069256884072 1.3028194085343656 0 0 0
515 1 23.97480759010873 0.3085415523127508 4.729866909718015 0 0 0
301 1 -0.6703195992876816 4.0020157096547 1.5523842977036035 0 0 0
277 1 25.942481980100006 0.7122368053102981 2.9294507993976193 0 0 0
279 1 28.16456599124854 1.073239776769317 0.6934844729713253 0 0 0
282 1 27.89499785324696 2.6440530546475327 3.2198872176334956 0 0 0
514 1 28.167721348981154 0.30910156746583173 4.933667312105101 0 0 0
513 1 25.929727495251253 2.366084080943569 5.281028730871776 0 0 0
281 1 30.098888510705322 0.9669372917749177 2.713427706023783 0 0 0
3116 1 32.12682351252037 0.5437317282014009 4.602586306262724 0 1 0
283 1 32.35449446612945 1.1092961942618027 0.7580190214672881 0 0 0
286 1 32.178098368899576 2.9584239326280404 3.1954374840392954 0 0 0
517 1 29.94268507493659 2.491467158531192 5.136709540221966 0 0 0
494 1 41.65488291134472 17.680460805693254 5.803598892314845 0 0 0
285 1 34.39715429720202 0.978144677130294 2.7372349372923823 0 0 0
287 1 36.54359975993102 1.1635729815698368 0.8230850315567501 0 0 0
519 1 36.3639153767354 0.6378036255453028 4.815394614687507 0 0 0
290 1 36.60549799964052 2.807983983625346 3.166957299342355 0 0 0
289 1 38.57067866970802 0.6916802284454477 2.9862809232343 0 0 0
294 1 40.95661915873397 2.4191866663853765 3.61030902470367 0 0 0
291 1 41.23205862632701 0.32035856794247963 1.6925141919721425 0 0 0
292 1 43.671049650171284 2.01980758031868 1.9588211525982544 0 0 0
295 1 45.303184531229654 -0.17192447848906922 2.4571467291745375 0 0 0
293 1 42.891664642574355 0.21557765668783313 4.050482187382827 0 0 0
298 1 45.079548871924864 1.8672537647613283 4.470279431994434 0 0 0
43 1 43.74823824342748 0.04037080078901356 -0.04775952366829595 0 0 0
48 1 46.102401112202394 1.8934399313057027 0.4140201361985383 0 0 0
296 1 47.68687382023066 1.6970030724364054 2.8110288691231196 0 0 0
47 1 47.871445143403506 -0.26881604728738406 0.9199493049679233 0 0 0
299 1 49.56934309535693 -0.34886356674371233 3.145221373455564 0 0 0
297 1 47.10840361541829 -0.24343719379031414 4.791798877773722 0 0 0
300 1 49.188819852698664 1.7383285166693292 5.319034983863179 0 0 0
351 1 -0.8068128540854783 8.052602719120108 2.5068542243159375 0 0 0
302 1 1.25233606645565 6.04576165838986 2.1172145047613484 0 0 0
303 1 1.4181833325535043 3.6075009805687905 3.4867457081668105 0 0 0
304 1 -0.8596710673719528 5.8349128687584875 4.083837769800097 0 0 0
58 2 3.150339763460181 6.559341511775323 -0.02020336789839798 0 0 0
305 2 3.3330684535936452 4.207696256545 1.6341950534556984 0 0 0
308 1 3.2604745921908123 5.874118304581133 3.9126759234489032 0 0 0
306 1 5.344867907636331 6.137088405083455 2.088837010629504 0 0 0
307 1 5.362901469535235 3.8153202988914545 3.676466766396889 0 0 0
309 1 7.220812348001658 4.274787160146745 1.7071060814429861 0 0 0
312 1 7.378118430642171 5.917577727131044 3.982133177299219 0 0 0
310 1 9.376822196798228 6.315999526710503 1.9445278647918838 0 0 0
311 1 9.295386818218716 3.9226842875497425 3.6639821442194878 0 0 0
313 1 11.44239785862802 4.441418162285547 1.5615387907788663 0 0 0
316 1 11.354976826413592 6.019554747358222 3.949120517172184 0 0 0
66 1 11.346625962743865 6.916213523457579 -0.08050358240147495 0 0 0
314 1 13.546313638749181 6.454022555216045 1.9642059362665085 0 0 0
315 1 13.403198178200704 4.073516603226445 3.7087721919835124 0 0 0
320 1 15.534707422315492 6.131652559730563 4.009203810146546 0 0 0
317 1 15.534095643154526 4.6065496934927275 1.6108186001251612 0 0 0
70 1 15.493375754711877 7.0176256670204555 10.090352902770912 0 0 -1
318 1 17.733778850743484 6.794630910260505 2.0214492237523802 0 0 0
319 1 17.56337790932088 4.382944110370061 3.4584484694631037 0 0 0
324 1 19.548229135252974 6.329585888778888 4.042670982845334 0 0 0
321 1 19.660545427534103 4.801383366115524 1.5202228707668963 0 0 0
325 1 23.82996637482422 4.863381664726435 1.6132365397568886 0 0 0
323 1 21.67187844275901 4.406061487687376 3.664144033549269 0 0 0
328 1 23.666943301217252 6.637693408067016 3.846861252235253 0 0 0
322 3 21.67438829257769 6.822150064378119 1.9790773015475804 0 0 0
276 1 25.827660226328415 3.171974808706775 1.2188499803681 0 0 0
329 1 27.911673151131808 5.223511740427463 1.6778839078327872 0 0 0
327 1 25.837245486492524 4.6071941417169935 3.5392505672382075 0 0 0
332 1 27.66344877329291 6.726893797348628 3.8704395909302156 0 0 0
280 1 30.06745849017929 3.2193423404934407 1.1710720537980754 0 0 0
333 1 31.994550345726417 5.244722322645288 1.680414474690598 0 0 0
331 1 29.802762937400107 4.719008691175266 3.515640718690524 0 0 0
336 1 32.0592890118383 6.735727130147828 3.94625395635075 0 0 0
284 1 34.37865292472863 3.406104800457232 1.268061361976515 0 0 0
335 1 34.107311967885764 4.892037408957478 3.4790478923884023 0 0 0
337 1 36.291104761708326 5.373833515828746 1.5526991450000205 0 0 0
340 1 35.89426359662051 6.8831585006118985 4.013807190149847 0 0 0
288 1 38.977094534739685 3.0282899678235466 1.6845714960979112 0 0 0
338 1 39.787130284373845 5.73417175336371 1.7160549850864872 0 0 0
339 1 38.20911106502744 5.128857830651842 3.792934533270508 0 0 0
344 1 41.66003147016279 5.763916037513083 3.8153228781486237 0 0 0
341 1 41.9417210193718 4.139266089578292 1.5719956588257358 0 0 0
342 2 43.96575967267057 6.053920865330252 2.0681343726821075 0 0 0
343 1 43.52791888888044 4.028165926589052 3.887265748339013 0 0 0
348 1 45.758095849209894 5.975081787225209 4.395819936130795 0 0 0
93 1 44.26811209132417 4.228788016946103 0.03377302315948866 0 0 0
345 2 45.850803233602825 3.8308061709682377 2.3574752426858265 0 0 0
349 1 49.86643627648751 3.7239287733314805 3.476726786515037 0 0 0
98 1 46.33772886815197 6.007109622347693 0.4670055658809329 0 0 0
97 1 48.31329463371549 3.937027528156338 0.9728544541463886 0 0 0
346 1 47.89576538732316 5.8117221265211505 2.9288231365606467 0 0 0
347 1 47.412738675058485 3.8222726563467866 4.7776529224720745 0 0 0
353 1 1.1983493382294363 7.628380547406694 4.407515420437779 0 0 0
352 1 1.1433940320069058 9.936339461123957 2.756184084999607 0 0 0
103 1 0.9543648547693127 8.447695054193423 0.4190972564770581 0 0 0
354 2 -0.7489507582072396 9.661479484345268 4.893119571811706 0 0 0
358 1 3.073645324413656 9.801508705233193 4.850749002426239 0 0 0
108 1 3.2280824354096334 10.643518035333392 0.9235726542135572 0 0 0
355 1 3.1595155550749165 8.135519037464578 2.45779496376846 0 0 0
2976 1 26.12730137216865 -0.801633082517526 0.5510108315531494 0 1 0
356 1 5.224062631545946 10.170885896107766 2.7184691455586414 0 0 0
357 1 5.280604049417026 7.817218171875691 4.467629803900599 0 0 0
107 1 5.150809104586149 8.468600268144451 0.4164079570672695 0 0 0
112 2 7.111027860178291 10.752460793327884 0.961637651080345 0 0 0
359 1 7.400651183611178 8.084971331698702 2.211515710067284 0 0 0
362 1 7.141455361621091 9.733055847844502 4.73081855340372 0 0 0
360 1 9.192150569455057 10.42456960664689 2.61738235986094 0 0 0
361 1 9.274159813139155 8.017366948605053 4.4754479033672 0 0 0
116 1 11.165093605370581 10.810916887708656 0.8200900816223439 0 0 0
363 1 11.220800459429123 8.430766632978788 2.410158071674157 0 0 0
111 1 9.297519908379254 8.722137955152254 0.4006020885974266 0 0 0
366 1 11.337639721605045 10.025048946651498 4.799363428332565 0 0 0
365 1 13.352469901183618 8.313947137345746 4.147464852076975 0 0 0
364 1 13.407278703254814 10.564088330573856 2.666109693865544 0 0 0
367 1 15.54198990466088 8.59028613610227 2.259913242845887 0 0 0
115 2 13.205783049934672 8.982777048770874 0.31224715345403725 0 0 0
120 1 15.361695457220282 10.883845254207612 0.8701670067753027 0 0 0
370 1 15.480514305033054 10.336209785184257 4.5179938256619705 0 0 0
74 2 19.486844775347546 7.256424385513082 0.05741984850937806 0 0 0
369 1 17.56728315823909 8.453980302214722 4.390844530226474 0 0 0
368 1 17.535859423279515 10.70138806636326 2.607780187176489 0 0 0
371 1 19.745060312704307 8.822686993036891 2.4306723431920063 0 0 0
119 1 17.405616147563304 9.105889125498845 0.3939575380508476 0 0 0
374 1 19.67852947475777 10.662618473356195 4.738050470327446 0 0 0
372 1 21.733076005590963 10.843655453762624 2.8797936659579535 0 0 0
375 2 23.60493349735777 8.930849107025272 2.452171975303145 0 0 0
373 1 21.443799287834064 8.53867640389052 4.36524226404335 0 0 0
123 1 21.63503833365805 9.422081871774976 0.4422859376854218 0 0 0
378 1 23.615882643526533 10.502967796137588 4.817074357611 0 0 0
78 1 23.68202986938723 7.42941089200238 -0.02934729196066803 0 0 0
326 1 25.63364313058127 6.917632391595425 1.8937166167212598 0 0 0
379 1 27.650138536847738 9.102954136173247 2.249298528899346 0 0 0
377 1 25.695341328853857 8.644190600392923 4.54515289665807 0 0 0
127 1 25.766185488006645 9.248722028399222 0.3271487158809762 0 0 0
382 1 27.65723818818322 10.769711217866826 4.72860414392436 0 0 0
82 1 27.805620546699448 7.413033344597805 10.086634916928165 0 0 -1
376 1 25.532839852504072 11.142246978520115 2.7599670493141697 0 0 0
330 2 29.928377814237034 7.211855157486502 1.8576401894599979 0 0 0
383 1 31.74883115216175 9.243950296858761 2.3407826004324286 0 0 0
381 1 29.73888800927339 8.915262656291159 4.15381797685389 0 0 0
131 1 29.801375594685197 9.71441268552095 0.3106497179029391 0 0 0
386 1 31.735920606373547 10.988332355491451 4.627396561149761 0 0 0
334 1 33.95637379162285 7.373201115795915 2.0230622795144706 0 0 0
384 1 35.73137935867393 9.45078742359354 2.4305867676415187 0 0 0
385 1 33.754160337003626 9.015269264520365 4.356230700614063 0 0 0
136 1 33.705419935216156 9.873862236989561 0.3958304499098511 0 0 0
135 1 35.85584884960297 7.966245361300368 -0.058023908883201566 0 0 0
435 1 35.61626329818544 11.354717138573687 4.77707576342381 0 0 0
390 1 37.58091491024511 9.320189793957326 4.490445659102508 0 0 0
387 1 37.76105580071737 7.643546674541275 2.1116610173999675 0 0 0
388 1 39.72886169034355 9.887773024544982 2.5122844283271557 0 0 0
389 1 39.637720573316976 7.3725744400979085 3.9656781553285176 0 0 0
140 1 37.59655433258823 9.85321403612089 0.5915132348378714 0 0 0
139 1 40.02234061133324 8.13525851746375 0.2734727672218512 0 0 0
394 1 41.69721662027149 9.829197465076037 4.381183190407372 0 0 0
391 1 41.930766471604805 8.025127700808378 2.264271127587202 0 0 0
392 1 43.92197996926351 10.000131230483781 2.298640643669343 0 0 0
393 1 43.83034931052423 7.909172236089889 4.108062585386246 0 0 0
144 1 41.9580786465222 10.334827507102904 0.599535433529871 0 0 0
143 1 44.204160600057605 8.18301877514596 0.24598954061923228 0 0 0
398 1 45.68527319850594 9.890567663025777 4.540122447025021 0 0 0
395 1 46.14454412235725 8.022182163738336 2.46102424733691 0 0 0
147 1 48.47910731702186 8.056048999381352 0.8882461881591531 0 0 0
396 1 48.09876125637147 10.054567484091386 2.7586138480541678 0 0 0
397 1 47.71460458837182 7.83512151338082 4.770967929227605 0 0 0
148 1 46.26191165517513 10.414942932364651 0.7438851204424473 0 0 0
51 1 -0.8810119177000006 4.983502651721958 7.951682251182419 0 0 -1
623 1 45.65395900923523 15.427652450203833 7.694012297043794 0 0 0
153 1 0.9038386183305749 12.649816895939276 1.395269962712279 0 0 0
402 1 0.8211365259964789 14.19165151845853 3.665510489026076 0 0 0
158 1 2.9172665140646834 14.509250245833977 1.7381201477108958 0 0 0
405 1 2.8921876259138695 12.156279560320945 3.3812531942367365 0 0 0
104 2 -0.973982013283039 10.469652039384737 0.9289037300257688 0 0 0
157 1 5.010941395995456 12.618642935040507 1.341519303286978 0 0 0
406 1 4.971022856246066 14.38870190787287 3.605911110121552 0 0 0
162 1 7.114398472082884 14.66162835472138 1.4223292171904507 0 0 0
409 1 7.084323578080898 12.32673760348917 3.291374471498085 0 0 0
407 1 5.094624330195296 11.891976245692168 5.212502661644307 0 0 0
161 1 9.179785486831388 12.75101286814246 0.9656619259875536 0 0 0
410 1 8.992429737356332 14.31545407438634 3.589540661518411 0 0 0
413 1 11.396773516063433 12.492003351564135 3.1759435353447762 0 0 0
166 1 11.157677311330401 15.000366036265653 1.584565033066409 0 0 0
165 1 13.215845327334511 12.80510599563545 1.0303848735778547 0 0 0
414 1 13.136804697235634 14.586325012505878 3.5810965134600465 0 0 0
417 1 15.274581326230294 12.803251496258454 3.0162227651228943 0 0 0
170 1 15.0582226150512 15.04676156866989 1.2880602177805323 0 0 0
124 1 19.510772637636713 11.292030234048397 0.8114391445909106 0 0 0
169 1 17.42660211077366 13.182710977673114 1.1603826134650808 0 0 0
418 1 17.237385492888574 14.796309419309917 3.499229049132186 0 0 0
421 1 19.491036958694632 12.731626225319864 3.0934583298428096 0 0 0
128 1 23.665874781243613 11.511130713675477 0.862500969128461 0 0 0
173 2 21.401793206919358 13.467185808241238 1.1601866273215045 0 0 0
422 1 21.18924239014854 14.923785087299176 3.4946721416401787 0 0 0
425 1 23.5248149624946 12.967579231281787 3.0832577153404284 0 0 0
132 1 27.392054394272076 11.517976213770249 0.81946218837749 0 0 0
177 2 25.58730686575077 13.617381828270672 1.267347487103955 0 0 0
429 1 27.566103840530218 13.271038671735438 3.0726625182978986 0 0 0
426 1 25.545646043160154 15.176368359219225 3.675008252519062 0 0 0
380 1 29.571518307093356 11.257397727853084 2.8606219053993076 0 0 0
181 1 31.596465097063195 11.85374612633804 0.8843530555718977 0 0 0
182 1 29.565276137687324 13.715181863361265 1.2852779314277252 0 0 0
430 1 31.59158875055489 13.512710900712165 3.0996074555214577 0 0 0
433 1 33.660472915046064 11.476179880347166 2.7371554784461356 0 0 0
186 1 33.58506423776561 14.021500990278936 1.1325424880354071 0 0 0
434 1 35.547020059677614 13.732224120262504 3.0966325375058337 0 0 0
185 1 35.69673040504275 12.024359532451548 0.9108518480045209 0 0 0
190 1 37.54057853138746 14.176312759078602 1.327966341860524 0 0 0
439 1 39.64723355916627 11.583445132725101 4.76364764640599 0 0 0
437 1 37.590348057629434 11.645171444091668 2.79308607694461 0 0 0
438 1 39.531981033480065 13.869970070157073 3.2430291243931815 0 0 0
189 1 39.65895660731309 12.230271649477205 0.8015697964762608 0 0 0
194 1 41.57782137219986 14.402374464156441 1.2292224291904679 0 0 0
441 1 41.62568080013008 11.967566493144998 2.813778112241741 0 0 0
443 1 43.59947038883832 11.783424100147334 4.89909858379067 0 0 0
193 1 43.87609292839065 12.52217684384865 0.9205252750988442 0 0 0
442 1 43.54893217707973 14.053631600065248 3.286050138968525 0 0 0
445 1 45.97233451320518 12.04297023407647 2.8255512254716275 0 0 0
198 1 45.94920249123304 14.34886698763357 1.288701689890789 0 0 0
197 1 48.32237463370745 12.395639022812494 0.8601971222696642 0 0 0
446 1 47.90004919715026 14.14696421615466 3.2706305425424347 0 0 0
447 1 47.802199701037694 11.847566424400412 4.9667543525781195 0 0 0
203 1 0.8670893583375487 16.5517509312446 2.113857408114569 0 0 0
452 1 0.7406881347763328 18.082903911010597 4.284176483080861 0 0 0
202 2 0.935978022159208 18.87410632170853 0.41397438073154236 0 0 0
208 1 2.9466424086038656 18.707050841533025 2.1882472146044987 0 0 0
455 1 2.84257153820804 16.421813217322608 3.906924740653957 0 0 0
206 1 2.939212873902228 16.98341946822194 0.02100702862652945 0 0 0
497 2 47.75356485482254 15.803476025459787 5.512757481367932 0 0 0
207 1 4.8978386597009465 16.750822734881453 1.9507288176347157 0 0 0
456 1 5.027439235778915 18.336997593483936 4.191464409432713 0 0 0
212 1 6.9467369711580265 18.90123185081222 2.2502939206121932 0 0 0
459 1 6.882089526143208 16.226405933111597 3.866486642407075 0 0 0
630 1 4.948100034985496 19.291953715024192 0.2663034210781058 0 0 0
210 1 6.98379491578943 17.065210476843774 0.05083321875275698 0 0 0
211 1 8.960344763769578 16.869962836970565 1.9108196101339252 0 0 0
460 1 8.914013181496067 18.47407731254931 4.371353153466126 0 0 0
463 1 10.973469330955455 16.49167384927763 3.955092740586702 0 0 0
216 1 10.901985195401878 18.971987915863902 2.3659431019390422 0 0 0
213 1 10.95064427003306 17.423587793382946 -0.08767350731878167 0 0 0
249 1 49.96519802725491 16.833636485092963 9.894907974100589 0 0 -1
215 2 13.037285851986251 17.02032385868978 2.003900828717201 0 0 0
464 1 13.179981482801834 18.59382762894888 4.341881002178642 0 0 0
467 1 15.18435660901833 16.612537703695537 3.7503938226269864 0 0 0
217 1 15.092980341318874 17.602437192487763 -0.09009950288594185 0 0 0
220 1 14.878921086022382 19.167104026585342 2.3322557603280765 0 0 0
526 1 -0.8719240665596113 3.23440255899936 5.525302329238643 0 0 0
174 1 19.179871120302327 15.19722961028657 1.5377090113657503 0 0 0
219 1 17.021102776009368 17.28131401117278 1.7942764547941414 0 0 0
468 1 16.939368965478515 18.729106970555005 4.17476858950888 0 0 0
471 1 19.22252622873328 16.68876058876932 3.8350061902519297 0 0 0
221 1 19.094431802613364 17.690053606794585 10.055665109921755 0 0 -1
178 1 23.34597774996136 15.346400930727842 1.6246361151115298 0 0 0
472 1 21.111345990358014 18.92629655357474 4.282218124505225 0 0 0
223 1 21.066333184744998 17.278880610625674 1.9866928890286837 0 0 0
475 2 23.177604313957488 16.86734219865921 4.033140192818263 0 0 0
222 2 23.14073093430239 17.929916864936363 0.13294828082180538 0 0 0
227 1 27.451340653936846 15.533648733493674 1.6220008644444377 0 0 0
228 1 25.27441989479121 17.605056358589735 1.9425129998012847 0 0 0
476 1 27.410238296555104 17.14623906958833 3.807389675954953 0 0 0
226 1 27.243101130304304 18.063556537045447 0.040331537331305956 0 0 0
201 1 -0.942140444780827 16.816685855050483 -0.05748293072271766 0 0 0
479 1 29.537415384558663 15.267086383378196 3.548671243579612 0 0 0
232 1 29.328088089591095 17.810283865372984 1.9566333938904021 0 0 0
231 1 31.527688954012213 15.961470101832141 1.7539863503082496 0 0 0
480 1 31.28048677920563 17.52474607423193 4.013892750794476 0 0 0
230 1 31.23889859986376 18.40700431329028 -0.007625568193278753 0 0 0
483 2 33.42217162402617 15.58480964323147 3.597357996966707 0 0 0
236 1 33.45860351873682 17.921579469481564 1.941918070787707 0 0 0
235 1 35.486956705150696 16.08812712353891 1.6042375398583957 0 0 0
484 1 35.53346998592367 17.854199186711202 3.919335314478129 0 0 0
234 1 35.45448889419118 18.78124971755985 -0.004832398863970286 0 0 0
240 1 37.49318223946948 18.235802447229187 2.042764348365337 0 0 0
487 1 37.66495020964982 15.893824043181311 3.596514300573064 0 0 0
239 1 39.647469329675985 16.329421626413584 1.686338324473295 0 0 0
488 1 39.55617606783045 17.99408377961894 4.193490267180443 0 0 0
244 1 41.51867557803575 18.414510282033074 2.174243599359083 0 0 0
238 1 39.40160704233545 18.68256735759199 0.08848514886468686 0 0 0
491 1 41.524816558799074 15.877043801595537 3.6211156660544224 0 0 0
243 2 43.706104921791535 16.415882440356413 1.5866674008963364 0 0 0
492 1 43.675328852714614 18.04175232644143 3.902870292188087 0 0 0
248 1 45.588382826719645 18.424361389250613 1.9835127146084424 0 0 0
242 1 43.58930529769174 18.92485236849707 0.08716277001311934 0 0 0
246 1 47.87692371159784 18.934634982185987 0.26924034849142303 0 0 0
495 1 45.70608670439632 16.289176220341314 3.607976033885711 0 0 0
247 1 48.05928973313673 16.36213839983104 1.6829962554412652 0 0 0
496 1 47.67547986976024 18.179359398312002 3.7667977568219584 0 0 0
245 1 45.7837210004781 16.774254865318653 10.030012597619761 0 0 -1
500 1 49.73290389969661 17.866233974300183 5.887239153088 0 0 0
502 1 1.1795951121355905 1.2508701257744814 5.1219796677302885 0 0 0
3 1 1.1880760826545793 0.3921545432217761 9.173720553493247 0 0 -1
2 1 1.1423330910793736 2.847508925583268 7.4691622908003525 0 0 -1
504 1 3.2626038322678 1.0181658615811435 7.1239557035085594 0 0 0
1 1 -0.8195309004094917 0.6646367782393805 7.061341366588202 0 0 -1
4 1 -0.9257344528097736 2.2934060817246587 9.53662942973949 0 0 -1
102 1 -0.9574913036625428 8.778617205564823 8.76359231038161 0 0 -1
8 1 3.1047744423708394 2.6624285457939636 9.687384593774519 0 0 -1
257 1 5.384355625846548 1.5232116062089038 5.027127145813139 0 0 0
6 1 5.170585854648742 0.6624732836162095 9.176804556675595 0 0 -1
505 1 7.34961544572081 1.1569114082580203 7.1900762936383105 0 0 0
12 1 7.295430750021904 2.6464693673789332 9.48394403453186 0 0 -1
530 1 5.322267757394099 3.1858131123128732 7.446558111180661 0 0 0
261 1 9.388374923657413 1.616321295113059 5.156957276715316 0 0 0
11 1 9.490511555226083 0.6809198294764507 9.034918952915774 0 0 -1
16 1 11.590294808419388 2.801386899240344 9.521578904577117 0 0 -1
13 1 11.501091556271916 1.1991942461253444 7.231403762622031 0 0 -1
450 1 49.824694703101024 13.936359407894994 5.393215452934617 0 0 0
3108 1 13.594634145167932 -0.6161967500346512 6.699791811906114 0 1 0
15 1 13.58857367405416 1.134865075673427 9.159858698602976 0 0 -1
14 1 15.695955665366498 1.4319292498473053 7.0319995081010225 0 0 -1
20 1 15.508013408548667 3.020858703147802 9.427356464064674 0 0 -1
622 2 43.562334190360794 17.308232257769298 7.83380446704455 0 0 0
2724 1 19.8955089794249 -0.7724292712120508 8.949188321021738 0 1 -1
509 1 17.659349489026386 1.9725074475759437 5.029044705702687 0 0 0
19 1 17.754606000415706 1.0718310841388048 9.123855563626277 0 0 -1
21 2 19.819530422804448 1.5217400546269193 7.113302774700834 0 0 -1
511 1 17.71710711038221 -0.43117810628866415 6.673774927785288 0 0 0
22 1 21.95196291489978 2.0357801214610447 5.2321987445440605 0 0 -1
2721 1 24.00469265636327 -0.7011848813292312 8.763348432563632 0 1 -1
23 1 21.81451062822974 1.1861456595176625 9.235753207601768 0 0 -1
2722 1 24.042877462281794 1.765269685897077 7.230414645634246 0 1 -1
3112 1 21.92835569188081 -0.3296718970090944 6.789661112301778 0 1 0
2732 1 28.19866854968396 -0.46639988820497524 8.63121975346949 0 1 -1
2726 1 25.95295580420803 -0.13270998615496343 6.723461267338872 0 1 -1
275 1 26.099126294021435 1.6316510674327813 9.017325139699897 0 0 -1
27 1 28.05606178642362 1.8868766436620277 7.2363789932562375 0 0 -1
2736 2 32.7286592152686 -0.6426746312308211 8.762192297962638 0 1 -1
25 1 30.26733543549111 0.07785848677615026 6.677759550206938 0 0 -1
31 1 30.278623052528214 1.513860732884781 9.110395395312096 0 0 -1
33 1 32.29053208545952 2.227365952360677 7.088454052720709 0 0 -1
518 1 34.222615257416955 2.623300551737455 5.1226220912397284 0 0 0
2730 1 34.16231360640017 0.31972198363813775 6.605130422693177 0 1 -1
35 1 34.43806870788277 1.472078380819101 9.039783222817206 0 0 -1
34 1 36.26445831266409 2.4438732179782563 7.06852458593756 0 0 -1
520 1 38.346539194099286 2.5565950956055623 5.367324201061455 0 0 0
521 1 40.31093281949497 0.35725482967995315 5.639258613482118 0 0 0
37 1 37.959697431416984 0.444546431183122 7.238503301250889 0 0 -1
39 1 39.56727288332777 0.3625324110588022 9.762948243019475 0 0 -1
38 1 40.14412093089896 2.1460015197937294 7.682715370778563 0 0 -1
44 2 41.79909242953519 2.2430786934708875 9.68528295219713 0 0 -1
41 1 42.20226670862011 0.2651683103841085 7.906369929864093 0 0 -1
522 1 42.647109504256235 2.4229584774690895 5.956606400655618 0 0 0
42 1 44.50972766982105 1.9870244785830424 8.275013446909881 0 0 -1
523 1 44.59914964931051 -0.04911547918258563 6.344980663165726 0 0 0
45 1 46.41707269198007 -0.16265770305943494 8.812534836270876 0 0 -1
524 1 46.85438116144771 1.8409269873186362 6.666942144420487 0 0 0
46 1 48.36586643967795 1.7679082182854624 9.230034479966248 0 0 -1
525 1 48.626554457800886 -0.24937053306977264 7.2934565813975025 0 0 0
2958 1 3.447081407975448 -0.731832573120075 4.692150565920692 0 1 0
53 1 1.2748325257392965 4.582179612482291 9.776285912083887 0 0 -1
527 1 1.2464486113905178 5.4477394053215535 5.965094416717116 0 0 0
52 1 1.1510955722676175 7.005091218811697 8.375075883352954 0 0 -1
54 1 -0.8135539616559756 6.412608408384193 0.02241460202759704 0 0 0
250 1 49.79943565959686 18.574417549466396 1.9958297675576855 0 0 0
55 1 3.224324231436144 4.892294286721945 7.84678456977521 0 0 -1
528 1 3.283358451324994 3.370245301930603 5.538805018812164 0 0 0
62 1 7.337397592764955 6.581705162293065 0.058876137415039886 0 0 0
57 1 5.282684066980094 4.6431757098028035 9.879825077146211 0 0 -1
529 1 5.271304901860133 5.458506995192533 5.956883532607207 0 0 0
506 2 7.3291756225342475 3.507814806391356 5.616935366105441 0 0 0
59 1 7.377165174327361 5.12516620601689 7.964627936151754 0 0 -1
56 1 5.183149215799107 6.903653357788836 8.279215854912469 0 0 -1
553 1 3.111203919398587 7.469876113881355 6.333561603622531 0 0 0
10 1 9.372633446160206 3.1192576092513002 7.482025595356104 0 0 -1
61 1 9.327020294333387 4.629014101535756 9.878508432259933 0 0 -1
531 2 9.377914270860382 5.627021229294108 6.096220687823406 0 0 0
533 1 11.342479734504039 3.671353692191082 5.7812039681863725 0 0 0
63 1 11.597973869556048 5.161078428813435 7.996421579592624 0 0 -1
60 1 9.246806081500445 7.264627857473041 8.330560252402874 0 0 -1
532 1 13.610910198876017 3.265727525359032 7.428164278844442 0 0 0
65 1 13.631045232207583 4.916658196417618 9.991094634436735 0 0 -1
534 1 13.545094287107839 5.7109975119362675 5.941899085211398 0 0 0
510 1 15.46192705204663 3.76275289597735 5.621609117465367 0 0 0
67 1 15.790763302398336 5.425342617048075 7.791645624432211 0 0 -1
24 1 19.79048802304796 3.1109115813974704 9.561029121743017 0 0 -1
69 1 17.426209087258734 5.199473634095369 9.83509119383432 0 0 -1
18 1 17.660351872640497 3.463087149433787 7.486663090581767 0 0 -1
536 1 19.723211045945348 4.058010728084667 5.6027324917165275 0 0 0
535 1 17.45630303258044 6.086978215838309 5.85471570694826 0 0 0
71 1 19.670520855336676 5.590485317332433 7.882578362374488 0 0 -1
28 1 23.79451763403287 3.3752441319942665 9.541316398525673 0 0 -1
73 1 21.634378425958772 5.310063834958485 9.775456295627185 0 0 -1
538 1 23.903511388678854 4.2674659782517255 5.54309751830518 0 0 0
512 2 21.769288046561844 3.510388652658765 7.677029402873874 0 0 0
75 1 23.75829878205139 5.7998689822039875 7.875143263591707 0 0 -1
537 1 21.555569592491885 6.1246949947745275 5.8797162993139604 0 0 0
77 1 25.872296442007794 5.464941402693162 9.843638919382048 0 0 -1
540 1 27.93638302090481 4.368716872806106 5.520429633431478 0 0 0
32 1 28.088375494956832 3.4643333336339035 9.487979327985313 0 0 -1
26 1 25.902202433655393 3.9686204239866942 7.374324165297446 0 0 -1
79 1 27.832065234730894 5.8171028039124835 7.829808910680833 0 0 -1
539 1 25.740183022134833 6.1925979968645075 5.905108303294936 0 0 0
81 1 29.986875801943057 5.480835129985859 9.812795356656316 0 0 -1
542 1 32.014563934705954 4.510824459492177 5.540792217385702 0 0 0
30 1 30.044514006695042 3.85112988596925 7.52657241303311 0 0 -1
541 1 29.8816676069386 6.231357435446259 5.8264983845301135 0 0 0
36 1 32.02283578050118 3.540488432308032 9.486656037201392 0 0 -1
83 2 31.976195631045222 6.138432218252012 7.8317539752670315 0 0 -1
85 1 33.82943404731676 5.816243218169891 9.955522234361398 0 0 -1
40 1 36.22469711864559 3.7631958759645867 9.571746915348061 0 0 -1
544 1 36.14872675642587 4.684510830263301 5.681125473190825 0 0 0
516 1 34.1367541980237 4.176056063439173 7.601533554088333 0 0 0
543 1 33.913460405385514 6.5600000570544 5.861709197921411 0 0 0
84 1 36.01062182393415 6.218841916820679 8.040092051552582 0 0 -1
90 1 38.08844693779513 6.182123584396111 9.898452581729316 0 0 -1
89 1 40.2074658883396 4.306055410488883 9.593393756151901 0 0 -1
87 1 38.17027023431171 4.3551832290008985 7.7484005342123865 0 0 -1
88 1 39.99055623293176 6.751133323155865 8.092928311632415 0 0 -1