COMMENT

8 atoms
2 atom types

0.0  5.620  xlo xhi
0.0  5.620  ylo yhi
0.0  5.620  zlo zhi

PairIJ Coeffs

1 1 6.081 0.31700 2.340 24.18024 -11.5120
1 2 4.864 0.31700 2.755 161.2016 -200.02100
2 2 3.649 0.31700 3.170 1669.588 -3352.8700

Masses

1  22.989768
2  35.4527

Atoms

1   1   +1.0    0.000000    0.000000    0.000000  # Na
2   1   +1.0    0.000000    2.810000    2.810000  # Na
3   1   +1.0    2.810000    0.000000    2.810000  # Na
4   1   +1.0    2.810000    2.810000    0.000000  # Na
5   2   -1.0    2.810000    2.810000    2.810000  # Cl
6   2   -1.0    2.810000    0.000000    0.000000  # Cl
7   2   -1.0    0.000000    2.810000    0.000000  # Cl
8   2   -1.0    0.000000    0.000000    2.810000  # Cl