LAMMPS (22 Dec 2022)
  using 1 OpenMP thread(s) per MPI task
Loaded 1 plugins from C:\Program Files\LAMMPS 64-bit 23Jun2022\plugins
Loaded 0 plugins from C:\Program Files\LAMMPS 64-bit 23Jun2022-MPI\plugins
Loaded 1 plugins from C:\Program Files\LAMMPS 64-bit 22Dec2022-MSMPI\plugins
Loaded 1 plugins from C:\Program Files\LAMMPS 64-bit 28Mar2023-MPI\plugins
#------------------------------------------------------------------------------------------
# LAMMPS 64-bit 22Dec2022-MSMPI
#------------------------------------------------------------------------------------------
clear
  using 1 OpenMP thread(s) per MPI task
Loaded 1 plugins from C:\Program Files\LAMMPS 64-bit 23Jun2022\plugins
Loaded 0 plugins from C:\Program Files\LAMMPS 64-bit 23Jun2022-MPI\plugins
Loaded 1 plugins from C:\Program Files\LAMMPS 64-bit 22Dec2022-MSMPI\plugins
Loaded 1 plugins from C:\Program Files\LAMMPS 64-bit 28Mar2023-MPI\plugins
#echo both
# ---------- Initializing Simulation ---------------------------------
units metal
dimension 3
boundary p p p
atom_style atomic
atom_modify map array

#read_data ./../../Si.data
#read_data ./../../Au.data
read_data ./../../SiO2_alpha_P3221.data
Reading data file ...
  triclinic box = (0 0 0) to (5.027782 4.354187 5.518918) with tilt (-2.513891 0 0)
WARNING: Triclinic box skew is large. LAMMPS will run inefficiently. (src/domain.cpp:220)
  2 by 2 by 2 MPI processor grid
  reading atoms ...
  9 atoms
  read_data CPU = 0.001 seconds

replicate 1 1 1
Replication is creating a 1x1x1 = 1 times larger system...
  triclinic box = (0 0 0) to (5.027782 4.354187 5.518918) with tilt (-2.513891 0 0)
WARNING: Triclinic box skew is large. LAMMPS will run inefficiently. (src/domain.cpp:220)
  2 by 2 by 2 MPI processor grid
  9 atoms
  replicate CPU = 0.000 seconds

# ---------- Defining the Interatomic Potential ---------------------
pair_style meam
#pair_coeff * * ./../../library.meam Si O Au ./../../SiOAu.meam Si
#pair_coeff * * ./../../library.meam Si O Au ./../../SiOAu.meam Au
pair_coeff * * ./../../library.meam Si O Au ./../../SiOAu.meam Si O

# ---------- Running Minimization -------------------------------------
fix 1 all box/relax iso 0.0 vmax 0.001

thermo 10
thermo_style custom step pe etotal lx ly lz vol press pxx pyy pzz

min_style cg
minimize 1e-25 1e-25 5000 10000
Neighbor list info ...
  update: every = 1 steps, delay = 0 steps, check = yes
  max neighbors/atom: 2000, page size: 100000
  master list distance cutoff = 6.5
  ghost atom cutoff = 6.5
  binsize = 3.25, bins = 3 2 2
  2 neighbor lists, perpetual/occasional/extra = 2 0 0
  (1) pair meam, perpetual
      attributes: full, newton on
      pair build: full/bin/atomonly
      stencil: full/bin/3d
      bin: standard
  (2) pair meam, perpetual, half/full from (1)
      attributes: half, newton on
      pair build: halffull/newton
      stencil: none
      bin: none
Per MPI rank memory allocation (min/avg/max) = 9.649 | 9.655 | 9.658 Mbytes
   Step         PotEng         TotEng           Lx             Ly             Lz           Volume         Press           Pxx            Pyy            Pzz      
         0  -80.223708     -80.223708      5.027782       4.354187       5.518918       120.81962     -350002.54     -333615.19     -333615.21     -382777.23    
        10  -80.943686     -80.943686      4.9775042      4.3106451      5.4637288      117.23115     -288274.25     -271481.05     -271481.07     -321860.62    
        20  -81.503778     -81.503778      4.9272264      4.2671032      5.4085396      113.71446     -215038.64     -197948.06     -197948.08     -249219.78    
        30  -81.889407     -81.889407      4.8769486      4.2235614      5.3533505      110.2688      -130606.61     -113385.8      -113385.83     -165048.19    
        40  -82.104846     -82.104846      4.8266708      4.1800195      5.2981613      106.89347     -36530.718     -19613.825     -19613.852     -70364.477    
        50  -83.120263     -83.120263      4.7763929      4.1364776      5.2429721      103.58772     -5865.0827     -7150.1249     -7150.1383     -3294.9849    
        60  -84.435774     -84.435774      4.7261151      4.0929358      5.1877829      100.35084     -3882.152      -240317.72     -240317.72      468988.98    
        70  -85.682477     -85.682477      4.6758373      4.0493939      5.1325937      97.182106     -27.605146     -285229.2      -285229.17      570375.55    
        80  -86.368666     -86.368666      4.6501874      4.0271804      5.1044382      95.591547     -11469.001     -337271.59     -337271.52      640136.11    
        90  -86.558786     -86.558786      4.6319531      4.011389       5.0844227      94.471451     -267.46532     -653497.76     -653498.15      1306193.5    
       100  -86.558816     -86.558816      4.6317431      4.0112072      5.0841922      94.458604     -3.5636789     -656285.42     -656282.39      1312557.1    
       110  -86.652616     -86.652616      4.6113394      3.9935371      5.0617954      93.215771      41714.135     -737976.29     -605852.05      1468970.7    
       120  -86.991292     -86.991292      4.621395       4.0022454      5.0728332      93.826905      1796.4337     -776229.98     -605671.25      1387290.5    
       130  -90.181803     -90.181803      4.5990153      3.9828641      5.0482674      92.47039      -136045.91     -587495.32     -666525.24      845882.82    
       140  -90.861788     -90.861788      4.5487375      3.9393222      4.9930782      89.470681     -21643.689     -447364.94     -437957.05      820390.93    
       150  -92.833105     -92.833105      4.4984596      3.8957803      4.937889       86.536558     -851.86242     -458834.1      -470300.99      926579.5     
       160  -94.391932     -94.391932      4.4681198      3.8695053      4.9045855      84.797404     -29410.533     -49034.486     -125273.64      86076.526    
       170  -95.69934      -95.69934       4.4480087      3.8520885      4.8825098      83.657524     -15766.237     -115671.9      -290375.94      358749.13    
       180  -96.713494     -96.713494      4.417842       3.8259634      4.8493963      81.966929      4235.6186     -218595.91     -388348.59      619651.36    
       190  -98.171886     -98.171886      4.3876753      3.7998383      4.8162828      80.299265     -8274.3522      176701.75     -310046.83      108522.03    
       200  -98.716828     -98.716828      4.3611816      3.7768941      4.7872011      78.853442     -13205.091      414326.43     -111650.38     -342291.33    
       210  -98.868532     -98.868532      4.3478953      3.7653878      4.772617       78.134956      7467.514       174309.13      256448.95     -408355.54    
       220  -98.882363     -98.882363      4.3507955      3.7678994      4.7758004      78.291415     -155.32092      177800.21      263482.36     -441748.54    
       230  -98.882875     -98.882875      4.3496721      3.7669266      4.7745673      78.230787      541.89629      189448.59      270903.8      -458726.7     
       240  -98.883063     -98.883063      4.3499454      3.7671632      4.7748673      78.245532     -34.878967      190093.45      267942.96     -458141.05    
       250  -98.88375      -98.88375       4.349667       3.7669221      4.7745616      78.230508      615.53885      193045.07      266234.77     -457433.22    
       260  -98.884394     -98.884394      4.3497998      3.7670372      4.7747075      78.237677     -279.87145      196769.57      263141.08     -460750.26    
       270  -98.885452     -98.885452      4.3491467      3.7664715      4.7739905      78.202438      1781.0987      211974.91      255265.62     -461897.23    
       280  -98.886535     -98.886535      4.3492424      3.7665544      4.7740956      78.2076        1151.1952      213834.94      249422.05     -459803.41    
       290  -98.888789     -98.888789      4.3494895      3.7667684      4.7743668      78.220932      313.24406      211976.82      245787.04     -456824.13    
       300  -98.891262     -98.891262      4.3494469      3.7667315      4.7743201      78.218635      229.07491      202916.87      261660.06     -463889.7     
       310  -98.901162     -98.901162      4.3493334      3.7666332      4.7741954      78.212509     -703.33577      126378.42      327673.39     -456161.82    
       320  -98.909571     -98.909571      4.3491211      3.7664493      4.7739624      78.201058      67.961856      77824.033      354474.33     -432094.47    
       330  -98.911032     -98.911032      4.3497545      3.7669979      4.7746578      78.235233     -2392.9015      79808.644      379552        -466539.35    
       340  -98.913485     -98.913485      4.3485471      3.7659523      4.7733324      78.170099      1147.0892      25032.068      417338.01     -438928.81    
       350  -98.915096     -98.915096      4.3485331      3.7659401      4.773317       78.169343     -370.63745      5230.3897      431972.18     -438314.48    
       360  -98.915983     -98.915983      4.3486947      3.7660801      4.7734944      78.178059     -494.41999     -9943.5903      447493.55     -439033.22    
       370  -98.916712     -98.916712      4.348283       3.7657236      4.7730425      78.15586       667.93924     -44469.587      479261.51     -432788.11    
       380  -98.917184     -98.917184      4.3483334      3.7657672      4.7730978      78.158575     -18.987122     -38671.048      474914.62     -436300.53    
       390  -98.917362     -98.917362      4.3483431      3.7657756      4.7731085      78.1591       -242.87001     -47019.839      483486.17     -437194.94    
       400  -98.917612     -98.917612      4.3482729      3.7657148      4.7730314      78.155312     -96.876903     -53821.281      486509.77     -432979.12    
       410  -98.917749     -98.917749      4.3482862      3.7657263      4.773046       78.156029     -249.72023     -57832.039      494951.47     -437868.59    
       420  -98.917897     -98.917897      4.3482157      3.7656653      4.7729686      78.152231     -162.73287     -64636.602      498247.34     -434098.94    
       430  -98.91828      -98.91828       4.348072       3.7655408      4.7728109      78.144482     -176.74304     -87946.31       516119.85     -428703.77    
       440  -98.918404     -98.918404      4.3479075      3.7653983      4.7726303      78.13561       349.87621     -93977.11       521817.41     -426790.67    
       450  -98.918475     -98.918475      4.3479567      3.765441       4.7726843      78.138265     -43.904549     -99956.398      526063.75     -426239.07    
       460  -98.91856      -98.91856       4.3479015      3.7653931      4.7726237      78.135287     -53.136135     -106455.52      532093.41     -425797.3     
       470  -98.918606     -98.918606      4.3477283      3.7652432      4.7724336      78.125953      333.10755     -112695.91      538031.55     -424336.32    
       480  -98.91864      -98.91864       4.347867       3.7653633      4.7725859      78.133431     -178.10091     -116318.62      539345.57     -423561.25    
       490  -98.918667     -98.918667      4.3477673      3.765277       4.7724764      78.128055      104.38224     -119281.22      544200.72     -424606.36    
       500  -98.91868      -98.91868       4.3477558      3.765267       4.7724638      78.127434      83.117833     -123108.91      547765.95     -424407.69    
       510  -98.91869      -98.91869       4.3477464      3.7652588      4.7724535      78.126927      49.763037     -123803         547610.26     -423657.97    
       520  -98.918698     -98.918698      4.347749       3.765261       4.7724563      78.127065     -5.0397126     -124693.22      548659.69     -423981.59    
       530  -98.918705     -98.918705      4.3477262      3.7652413      4.7724313      78.125837      39.409715     -126899.93      550169.21     -423151.05    
       540  -98.918711     -98.918711      4.3477256      3.7652408      4.7724307      78.125808     -2.8213824     -127643.7       551134.11     -423498.87    
       550  -98.918717     -98.918717      4.3476963      3.7652154      4.7723985      78.124225      60.436699     -129627.2       553013.81     -423205.3     
       560  -98.91872      -98.91872       4.3477012      3.7652197      4.7724038      78.12449       14.329204     -130563.27      553685.84     -423079.59    
       570  -98.918722     -98.918722      4.3477099      3.7652273      4.7724134      78.124962     -35.511292     -131350.5       554250.47     -423006.51    
       580  -98.918725     -98.918725      4.3476813      3.7652024      4.772382       78.123416      24.488424     -132112.17      555082.69     -422897.06    
       590  -98.918727     -98.918727      4.3476874      3.7652077      4.7723887      78.123745     -7.3383057     -133018.64      555792.69     -422796.06    
       600  -98.918729     -98.918729      4.3476762      3.765198       4.7723764      78.123141     -6.3261384     -134192.59      556831.46     -422657.85    
       610  -98.918731     -98.918731      4.3476647      3.7651881      4.7723638      78.122525      21.955529     -135005.97      557624.84     -422553.01    
       620  -98.918732     -98.918732      4.3476719      3.7651943      4.7723717      78.122909     -18.977656     -135329.3       558086.62     -422814.25    
       630  -98.918733     -98.918733      4.3476513      3.7651765      4.7723491      78.121802      43.302736     -136386.41      558689.65     -422173.34    
       640  -98.918734     -98.918734      4.3476553      3.76518        4.7723535      78.122018      7.9582785     -136616.26      558946.06     -422305.93    
       650  -98.918735     -98.918735      4.3476525      3.7651775      4.7723504      78.121864     -4.0517022     -137025.32      559345.11     -422331.94    
       660  -98.918735     -98.918735      4.3476422      3.7651686      4.7723391      78.121312      21.71607      -137832.59      559921.66     -422023.92    
       670  -98.918736     -98.918736      4.3476453      3.7651712      4.7723424      78.121475      0.068893754   -138136.08      560397.34     -422261.06    
       680  -98.918736     -98.918736      4.3476363      3.7651635      4.7723326      78.120994      18.631598     -138587.47      560663.22     -422019.86    
       690  -98.918737     -98.918737      4.3476373      3.7651644      4.7723337      78.121047      1.9491454     -138872.43      560977.92     -422099.64    
       700  -98.918737     -98.918737      4.347637       3.7651641      4.7723334      78.121031     -4.3400793     -139176.16      561246.63     -422083.49    
       710  -98.918737     -98.918737      4.3476284      3.7651566      4.7723239      78.120564      13.542326     -139720.69      561636.68     -421875.36    
       720  -98.918737     -98.918737      4.3476321      3.7651598      4.772328       78.120763      0.61864827    -140014.35      561867.27     -421851.06    
       730  -98.918737     -98.918737      4.3476269      3.7651554      4.7723223      78.120487      5.4292102     -140249.77      562024.91     -421758.86    
       740  -98.918738     -98.918738      4.3476309      3.7651588      4.7723267      78.120701     -12.770497     -140289.99      562157.43     -421905.75    
       750  -98.918738     -98.918738      4.347625       3.7651537      4.7723202      78.120381     -1.7058151     -140528.08      562401.26     -421878.3     
       760  -98.918738     -98.918738      4.3476246      3.7651534      4.7723198      78.120364     -9.1653908     -140818.48      562588.32     -421797.34    
       770  -98.918738     -98.918738      4.3476213      3.7651505      4.7723161      78.120183      0.97233918    -140961.22      562811.43     -421847.29    
       780  -98.918738     -98.918738      4.3476192      3.7651486      4.7723138      78.120068      2.1592069     -141119.27      562958.1      -421832.35    
       790  -98.918738     -98.918738      4.34762        3.7651493      4.7723147      78.120112     -2.9735686     -141314.27      563060.16     -421754.81    
       800  -98.918738     -98.918738      4.3476182      3.7651478      4.7723127      78.120016      0.41594662    -141378.01      563147.53     -421768.27    
       810  -98.918738     -98.918738      4.3476171      3.7651468      4.7723115      78.119954     -0.13400257    -141555.62      563293.19     -421737.98    
       820  -98.918738     -98.918738      4.3476125      3.7651429      4.7723065      78.11971       9.3518303     -141677.62      563371.15     -421665.47    
       830  -98.918738     -98.918738      4.3476147      3.7651448      4.772309       78.11983       1.2084633     -141752.76      563486.16     -421729.78    
       840  -98.918738     -98.918738      4.3476127      3.765143       4.7723067      78.11972       3.2486331     -141874.83      563550.87     -421666.3     
       850  -98.918738     -98.918738      4.3476136      3.7651438      4.7723077      78.119766      0.68710332    -141973.18      563655.33     -421680.09    
       860  -98.918738     -98.918738      4.3476129      3.7651432      4.7723069      78.119729     -0.3259114     -142044.17      563712.92     -421669.72    
       870  -98.918738     -98.918738      4.3476126      3.7651429      4.7723066      78.119713     -1.347235      -142116.5       563775.91     -421663.45    
       880  -98.918738     -98.918738      4.3476113      3.7651418      4.7723052      78.119644      0.23461665    -142198.27      563847.64     -421648.66    
       890  -98.918738     -98.918738      4.347611       3.7651416      4.7723048      78.119627     -1.2093254     -142294.71      563938.36     -421647.28    
       900  -98.918738     -98.918738      4.3476107      3.7651413      4.7723045      78.119612      0.14109651    -142292.87      563932.02     -421638.72    
       910  -98.918738     -98.918738      4.3476103      3.765141       4.7723041      78.119591     -0.15986737    -142387.54      564007        -421619.94    
       920  -98.918738     -98.918738      4.34761        3.7651407      4.7723037      78.119572     -0.0022679627  -142391.89      564013.68     -421621.8     
       925  -98.918738     -98.918738      4.3476099      3.7651407      4.7723037      78.119571      0.014642493   -142391.82      564013.67     -421621.8     
Loop time of 0.370567 on 8 procs for 925 steps with 9 atoms

58.5% CPU use with 8 MPI tasks x 1 OpenMP threads

Minimization stats:
  Stopping criterion = energy tolerance
  Energy initial, next-to-last, final = 
     -80.2237075356824  -98.9187381044646  -98.9187381044646
  Force two-norm initial, final = 79.285471 4.2250803e-06
  Force max component initial, final = 79.180739 2.4769181e-06
  Final line search alpha, max atom move = 1 2.4769181e-06
  Iterations, force evaluations = 925 1701

MPI task timing breakdown:
Section |  min time  |  avg time  |  max time  |%varavg| %total
---------------------------------------------------------------
Pair    | 0.22659    | 0.23239    | 0.23647    |   0.8 | 62.71
Neigh   | 8e-06      | 1.225e-05  | 1.8e-05    |   0.0 |  0.00
Comm    | 0.054862   | 0.059556   | 0.065057   |   1.5 | 16.07
Output  | 0.001241   | 0.0013422  | 0.001576   |   0.3 |  0.36
Modify  | 0          | 0          | 0          |   0.0 |  0.00
Other   |            | 0.07727    |            |       | 20.85

Nlocal:          1.125 ave           2 max           0 min
Histogram: 2 0 0 0 0 3 0 0 0 3
Nghost:        420.875 ave         424 max         418 min
Histogram: 2 2 0 0 0 0 1 0 1 2
Neighs:         59.375 ave         107 max           0 min
Histogram: 2 0 0 0 1 2 0 0 0 3
FullNghs:       118.75 ave         213 max           0 min
Histogram: 2 0 0 0 3 0 0 0 0 3

Total # of neighbors = 950
Ave neighs/atom = 105.55556
Neighbor list builds = 1
Dangerous builds = 0

variable  natoms equal "count(all)"
variable      x0 equal "lx"
variable      y0 equal "ly"
variable      z0 equal "lz"
variable      v0 equal "vol"
variable   etot0 equal "etotal"
variable   ecoh0 equal "pe/v_natoms"

unfix 1
write_data ./../step2_elastic/data.in
System init for write_data ...
WARNING: Proc sub-domain size < neighbor skin, could lead to lost atoms (src/domain.cpp:966)

# ---------- For Equation of States -------------------------------------
change_box all x scale 0.94 y scale 0.94 z scale 0.94 remap
Changing box ...
WARNING: Triclinic box skew is large. LAMMPS will run inefficiently. (src/domain.cpp:220)
  triclinic box = (0.47051435 0.29452316 0.37330716) to (4.5572677 4.0596638 5.1456108) with tilt (-2.173805 0 0)
WARNING: Triclinic box skew is large. LAMMPS will run inefficiently. (src/domain.cpp:220)
  triclinic box = (0.47051435 0.40747738 0.37330716) to (4.5572677 3.9467096 5.1456108) with tilt (-2.173805 0 0)
WARNING: Triclinic box skew is large. LAMMPS will run inefficiently. (src/domain.cpp:220)
  triclinic box = (0.47051435 0.40747738 0.51647627) to (4.5572677 3.9467096 5.0024417) with tilt (-2.173805 0 0)
run 1
WARNING: No fixes with time integration, atoms won't move (src/verlet.cpp:60)
WARNING: Proc sub-domain size < neighbor skin, could lead to lost atoms (src/domain.cpp:966)
Per MPI rank memory allocation (min/avg/max) = 8.55 | 8.561 | 8.575 Mbytes
   Step         PotEng         TotEng           Lx             Ly             Lz           Volume         Press           Pxx            Pyy            Pzz      
       925  -90.161775     -90.161775      4.0867533      3.5392322      4.4859655      64.884866      1360606.4      683658.67      2430763.1      967397.58    
       926  -90.161775     -90.161775      4.0867533      3.5392322      4.4859655      64.884866      1360606.4      683658.67      2430763.1      967397.58    
Loop time of 0.0002305 on 8 procs for 1 steps with 9 atoms

Performance: 374.837 ns/day, 0.064 hours/ns, 4338.395 timesteps/s, 39.046 katom-step/s
0.0% CPU use with 8 MPI tasks x 1 OpenMP threads

MPI task timing breakdown:
Section |  min time  |  avg time  |  max time  |%varavg| %total
---------------------------------------------------------------
Pair    | 0.000142   | 0.00015525 | 0.000183   |   0.0 | 67.35
Neigh   | 0          | 0          | 0          |   0.0 |  0.00
Comm    | 2.1e-05    | 4.85e-05   | 6.2e-05    |   0.0 | 21.04
Output  | 1.2e-05    | 1.4375e-05 | 2.2e-05    |   0.0 |  6.24
Modify  | 0          | 3.75e-07   | 1e-06      |   0.0 |  0.16
Other   |            | 1.2e-05    |            |       |  5.21

Nlocal:          1.125 ave           2 max           0 min
Histogram: 2 0 0 0 0 3 0 0 0 3
Nghost:        529.875 ave         539 max         520 min
Histogram: 1 2 0 1 0 0 0 1 1 2
Neighs:         91.875 ave         175 max           0 min
Histogram: 2 0 0 0 3 0 0 0 1 2
FullNghs:       183.75 ave         332 max           0 min
Histogram: 2 0 0 0 3 0 0 0 0 3

Total # of neighbors = 1470
Ave neighs/atom = 163.33333
Neighbor list builds = 0
Dangerous builds = 0
print "# Lattice constant (Angstroms), Volume (Angstrom), Total energy (eV), Cohesive energy (eV/atom)" file lattice_cohesive_energy.txt screen no


# Loop over lattice constants
variable i loop 49 # Number of steps
label loop

change_box all x scale 1.0025 y scale 1.0025 z scale 1.0025 remap
Changing box ...
WARNING: Triclinic box skew is large. LAMMPS will run inefficiently. (src/domain.cpp:220)
  triclinic box = (0.46540591 0.40747738 0.51647627) to (4.5623761 3.9467096 5.0024417) with tilt (-2.173805 0 0)
WARNING: Triclinic box skew is large. LAMMPS will run inefficiently. (src/domain.cpp:220)
  triclinic box = (0.46540591 0.40305334 0.51647627) to (4.5623761 3.9511336 5.0024417) with tilt (-2.173805 0 0)
WARNING: Triclinic box skew is large. LAMMPS will run inefficiently. (src/domain.cpp:220)
  triclinic box = (0.46540591 0.40305334 0.51086881) to (4.5623761 3.9511336 5.0080492) with tilt (-2.173805 0 0)

run 1
WARNING: No fixes with time integration, atoms won't move (src/verlet.cpp:60)
WARNING: Proc sub-domain size < neighbor skin, could lead to lost atoms (src/domain.cpp:966)
Per MPI rank memory allocation (min/avg/max) = 8.55 | 8.561 | 8.575 Mbytes
   Step         PotEng         TotEng           Lx             Ly             Lz           Volume         Press           Pxx            Pyy            Pzz      
       926  -90.888598     -90.888598      4.0969702      3.5480803      4.4971804      65.37272       1288112.3      608703.38      2347700.8      907932.82    
       927  -90.888598     -90.888598      4.0969702      3.5480803      4.4971804      65.37272       1288112.3      608703.38      2347700.8      907932.82    
Loop time of 0.0003995 on 8 procs for 1 steps with 9 atoms

Performance: 216.270 ns/day, 0.111 hours/ns, 2503.129 timesteps/s, 22.528 katom-step/s
0.0% CPU use with 8 MPI tasks x 1 OpenMP threads

MPI task timing breakdown:
Section |  min time  |  avg time  |  max time  |%varavg| %total
---------------------------------------------------------------
Pair    | 0.000205   | 0.00024363 | 0.000305   |   0.0 | 60.98
Neigh   | 0          | 0          | 0          |   0.0 |  0.00
Comm    | 5.7e-05    | 0.00011637 | 0.000155   |   0.0 | 29.13
Output  | 2e-05      | 2.1625e-05 | 2.7e-05    |   0.0 |  5.41
Modify  | 0          | 2.5e-07    | 1e-06      |   0.0 |  0.06
Other   |            | 1.762e-05  |            |       |  4.41

Nlocal:          1.125 ave           2 max           0 min
Histogram: 2 0 0 0 0 3 0 0 0 3
Nghost:        529.875 ave         539 max         520 min
Histogram: 1 2 0 1 0 0 0 1 1 2
Neighs:           91.5 ave         173 max           0 min
Histogram: 2 0 0 0 3 0 0 0 1 2
FullNghs:          183 ave         330 max           0 min
Histogram: 2 0 0 0 3 0 0 0 0 3

Total # of neighbors = 1464
Ave neighs/atom = 162.66667
Neighbor list builds = 0
Dangerous builds = 0
variable  natoms equal "count(all)"
variable xlength equal "lx"
variable  volume equal "vol"
variable  etotal equal "etotal"
variable    ecoh equal "pe/v_natoms"
print "${xlength}, ${volume}, ${etotal}, ${ecoh}" append lattice_cohesive_energy.txt screen no

next i
jump SELF loop

change_box all x scale 1.0025 y scale 1.0025 z scale 1.0025 remap
Changing box ...
WARNING: Triclinic box skew is large. LAMMPS will run inefficiently. (src/domain.cpp:220)
  triclinic box = (0.4602847 0.40305334 0.51086881) to (4.5674974 3.9511336 5.0080492) with tilt (-2.173805 0 0)
WARNING: Triclinic box skew is large. LAMMPS will run inefficiently. (src/domain.cpp:220)
  triclinic box = (0.4602847 0.39861824 0.51086881) to (4.5674974 3.9555687 5.0080492) with tilt (-2.173805 0 0)
WARNING: Triclinic box skew is large. LAMMPS will run inefficiently. (src/domain.cpp:220)
  triclinic box = (0.4602847 0.39861824 0.50524734) to (4.5674974 3.9555687 5.0136707) with tilt (-2.173805 0 0)

run 1
WARNING: No fixes with time integration, atoms won't move (src/verlet.cpp:60)
WARNING: Proc sub-domain size < neighbor skin, could lead to lost atoms (src/domain.cpp:966)
Per MPI rank memory allocation (min/avg/max) = 8.55 | 8.561 | 8.575 Mbytes
   Step         PotEng         TotEng           Lx             Ly             Lz           Volume         Press           Pxx            Pyy            Pzz      
       927  -91.582297     -91.582297      4.1072127      3.5569505      4.5084233      65.864242      1217311.7      536787.61      2267055.8      848091.83    
       928  -91.582297     -91.582297      4.1072127      3.5569505      4.5084233      65.864242      1217311.7      536787.61      2267055.8      848091.83    
Loop time of 0.000292875 on 8 procs for 1 steps with 9 atoms

Performance: 295.006 ns/day, 0.081 hours/ns, 3414.426 timesteps/s, 30.730 katom-step/s
0.0% CPU use with 8 MPI tasks x 1 OpenMP threads

MPI task timing breakdown:
Section |  min time  |  avg time  |  max time  |%varavg| %total
---------------------------------------------------------------
Pair    | 0.000187   | 0.000207   | 0.000231   |   0.0 | 70.68
Neigh   | 0          | 0          | 0          |   0.0 |  0.00
Comm    | 3.3e-05    | 5.7e-05    | 7.8e-05    |   0.0 | 19.46
Output  | 1.6e-05    | 1.9e-05    | 2.2e-05    |   0.0 |  6.49
Modify  | 0          | 3.75e-07   | 1e-06      |   0.0 |  0.13
Other   |            | 9.5e-06    |            |       |  3.24

Nlocal:          1.125 ave           2 max           0 min
Histogram: 2 0 0 0 0 3 0 0 0 3
Nghost:        522.875 ave         526 max         520 min
Histogram: 2 0 0 1 0 3 0 0 0 2
Neighs:           91.5 ave         173 max           0 min
Histogram: 2 0 0 0 3 0 0 0 1 2
FullNghs:          183 ave         330 max           0 min
Histogram: 2 0 0 0 3 0 0 0 0 3

Total # of neighbors = 1464
Ave neighs/atom = 162.66667
Neighbor list builds = 0
Dangerous builds = 0
variable  natoms equal "count(all)"
variable xlength equal "lx"
variable  volume equal "vol"
variable  etotal equal "etotal"
variable    ecoh equal "pe/v_natoms"
print "${xlength}, ${volume}, ${etotal}, ${ecoh}" append lattice_cohesive_energy.txt screen no

next i
jump SELF loop

change_box all x scale 1.0025 y scale 1.0025 z scale 1.0025 remap
Changing box ...
WARNING: Triclinic box skew is large. LAMMPS will run inefficiently. (src/domain.cpp:220)
  triclinic box = (0.45515068 0.39861824 0.50524734) to (4.5726314 3.9555687 5.0136707) with tilt (-2.173805 0 0)
WARNING: Triclinic box skew is large. LAMMPS will run inefficiently. (src/domain.cpp:220)
  triclinic box = (0.45515068 0.39417205 0.50524734) to (4.5726314 3.9600149 5.0136707) with tilt (-2.173805 0 0)
WARNING: Triclinic box skew is large. LAMMPS will run inefficiently. (src/domain.cpp:220)
  triclinic box = (0.45515068 0.39417205 0.49961181) to (4.5726314 3.9600149 5.0193062) with tilt (-2.173805 0 0)

run 1
WARNING: No fixes with time integration, atoms won't move (src/verlet.cpp:60)
WARNING: Proc sub-domain size < neighbor skin, could lead to lost atoms (src/domain.cpp:966)
Per MPI rank memory allocation (min/avg/max) = 8.55 | 8.561 | 8.575 Mbytes
   Step         PotEng         TotEng           Lx             Ly             Lz           Volume         Press           Pxx            Pyy            Pzz      
       928  -92.243176     -92.243176      4.1174807      3.5658429      4.5196944      66.35946       1148168.2      468000.36      2188683.2      787820.99    
       929  -92.243176     -92.243176      4.1174807      3.5658429      4.5196944      66.35946       1148168.2      468000.36      2188683.2      787820.99    
Loop time of 0.000286 on 8 procs for 1 steps with 9 atoms

Performance: 302.098 ns/day, 0.079 hours/ns, 3496.503 timesteps/s, 31.469 katom-step/s
0.0% CPU use with 8 MPI tasks x 1 OpenMP threads

MPI task timing breakdown:
Section |  min time  |  avg time  |  max time  |%varavg| %total
---------------------------------------------------------------
Pair    | 0.000182   | 0.000202   | 0.000227   |   0.0 | 70.63
Neigh   | 0          | 0          | 0          |   0.0 |  0.00
Comm    | 3.1e-05    | 5.6e-05    | 7.8e-05    |   0.0 | 19.58
Output  | 1.6e-05    | 1.95e-05   | 2.3e-05    |   0.0 |  6.82
Modify  | 0          | 1.25e-07   | 1e-06      |   0.0 |  0.04
Other   |            | 8.375e-06  |            |       |  2.93

Nlocal:          1.125 ave           2 max           0 min
Histogram: 2 0 0 0 0 3 0 0 0 3
Nghost:        522.875 ave         526 max         520 min
Histogram: 2 0 0 1 0 3 0 0 0 2
Neighs:          90.75 ave         170 max           0 min
Histogram: 2 0 0 0 2 1 0 0 1 2
FullNghs:        181.5 ave         327 max           0 min
Histogram: 2 0 0 0 3 0 0 0 0 3

Total # of neighbors = 1452
Ave neighs/atom = 161.33333
Neighbor list builds = 0
Dangerous builds = 0
variable  natoms equal "count(all)"
variable xlength equal "lx"
variable  volume equal "vol"
variable  etotal equal "etotal"
variable    ecoh equal "pe/v_natoms"
print "${xlength}, ${volume}, ${etotal}, ${ecoh}" append lattice_cohesive_energy.txt screen no

next i
jump SELF loop

change_box all x scale 1.0025 y scale 1.0025 z scale 1.0025 remap
Changing box ...
WARNING: Triclinic box skew is large. LAMMPS will run inefficiently. (src/domain.cpp:220)
  triclinic box = (0.45000383 0.39417205 0.49961181) to (4.5777782 3.9600149 5.0193062) with tilt (-2.173805 0 0)
WARNING: Triclinic box skew is large. LAMMPS will run inefficiently. (src/domain.cpp:220)
  triclinic box = (0.45000383 0.38971475 0.49961181) to (4.5777782 3.9644722 5.0193062) with tilt (-2.173805 0 0)
WARNING: Triclinic box skew is large. LAMMPS will run inefficiently. (src/domain.cpp:220)
  triclinic box = (0.45000383 0.38971475 0.49396219) to (4.5777782 3.9644722 5.0249558) with tilt (-2.173805 0 0)

run 1
WARNING: No fixes with time integration, atoms won't move (src/verlet.cpp:60)
WARNING: Proc sub-domain size < neighbor skin, could lead to lost atoms (src/domain.cpp:966)
Per MPI rank memory allocation (min/avg/max) = 8.55 | 8.561 | 8.575 Mbytes
   Step         PotEng         TotEng           Lx             Ly             Lz           Volume         Press           Pxx            Pyy            Pzz      
       929  -92.871538     -92.871538      4.1277744      3.5747575      4.5309936      66.858401      1080646.4      402422.21      2112445.2      727071.69    
       930  -92.871538     -92.871538      4.1277744      3.5747575      4.5309936      66.858401      1080646.4      402422.21      2112445.2      727071.69    
Loop time of 0.00028425 on 8 procs for 1 steps with 9 atoms

Performance: 303.958 ns/day, 0.079 hours/ns, 3518.030 timesteps/s, 31.662 katom-step/s
0.0% CPU use with 8 MPI tasks x 1 OpenMP threads

MPI task timing breakdown:
Section |  min time  |  avg time  |  max time  |%varavg| %total
---------------------------------------------------------------
Pair    | 0.000182   | 0.00020237 | 0.000227   |   0.0 | 71.20
Neigh   | 0          | 0          | 0          |   0.0 |  0.00
Comm    | 3.2e-05    | 5.55e-05   | 7.7e-05    |   0.0 | 19.53
Output  | 1.5e-05    | 1.7875e-05 | 2.1e-05    |   0.0 |  6.29
Modify  | 0          | 2.5e-07    | 1e-06      |   0.0 |  0.09
Other   |            | 8.25e-06   |            |       |  2.90

Nlocal:          1.125 ave           2 max           0 min
Histogram: 2 0 0 0 0 3 0 0 0 3
Nghost:        522.875 ave         526 max         520 min
Histogram: 2 0 0 1 0 3 0 0 0 2
Neighs:          90.25 ave         169 max           0 min
Histogram: 2 0 0 0 2 1 0 0 1 2
FullNghs:        180.5 ave         325 max           0 min
Histogram: 2 0 0 0 3 0 0 0 0 3

Total # of neighbors = 1444
Ave neighs/atom = 160.44444
Neighbor list builds = 0
Dangerous builds = 0
variable  natoms equal "count(all)"
variable xlength equal "lx"
variable  volume equal "vol"
variable  etotal equal "etotal"
variable    ecoh equal "pe/v_natoms"
print "${xlength}, ${volume}, ${etotal}, ${ecoh}" append lattice_cohesive_energy.txt screen no

next i
jump SELF loop

change_box all x scale 1.0025 y scale 1.0025 z scale 1.0025 remap
Changing box ...
WARNING: Triclinic box skew is large. LAMMPS will run inefficiently. (src/domain.cpp:220)
  triclinic box = (0.44484411 0.38971475 0.49396219) to (4.5829379 3.9644722 5.0249558) with tilt (-2.173805 0 0)
WARNING: Triclinic box skew is large. LAMMPS will run inefficiently. (src/domain.cpp:220)
  triclinic box = (0.44484411 0.3852463 0.49396219) to (4.5829379 3.9689407 5.0249558) with tilt (-2.173805 0 0)
WARNING: Triclinic box skew is large. LAMMPS will run inefficiently. (src/domain.cpp:220)
  triclinic box = (0.44484411 0.3852463 0.48829845) to (4.5829379 3.9689407 5.0306196) with tilt (-2.173805 0 0)

run 1
WARNING: No fixes with time integration, atoms won't move (src/verlet.cpp:60)
WARNING: Proc sub-domain size < neighbor skin, could lead to lost atoms (src/domain.cpp:966)
Per MPI rank memory allocation (min/avg/max) = 8.55 | 8.561 | 8.575 Mbytes
   Step         PotEng         TotEng           Lx             Ly             Lz           Volume         Press           Pxx            Pyy            Pzz      
       930  -93.467688     -93.467688      4.1380938      3.5836944      4.5423211      67.361094      1014711.9      340124.7       2038210.4      665800.64    
       931  -93.467688     -93.467688      4.1380938      3.5836944      4.5423211      67.361094      1014711.9      340124.7       2038210.4      665800.64    
Loop time of 0.00030425 on 8 procs for 1 steps with 9 atoms

Performance: 283.977 ns/day, 0.085 hours/ns, 3286.771 timesteps/s, 29.581 katom-step/s
0.0% CPU use with 8 MPI tasks x 1 OpenMP threads

MPI task timing breakdown:
Section |  min time  |  avg time  |  max time  |%varavg| %total
---------------------------------------------------------------
Pair    | 0.0002     | 0.00023012 | 0.000246   |   0.0 | 75.64
Neigh   | 0          | 0          | 0          |   0.0 |  0.00
Comm    | 3.2e-05    | 4.675e-05  | 7.8e-05    |   0.0 | 15.37
Output  | 1.6e-05    | 1.9e-05    | 2.2e-05    |   0.0 |  6.24
Modify  | 0          | 0          | 0          |   0.0 |  0.00
Other   |            | 8.375e-06  |            |       |  2.75

Nlocal:          1.125 ave           2 max           0 min
Histogram: 2 0 0 0 0 3 0 0 0 3
Nghost:        522.875 ave         526 max         520 min
Histogram: 2 0 0 1 0 3 0 0 0 2
Neighs:           89.5 ave         168 max           0 min
Histogram: 2 0 0 0 2 1 0 0 1 2
FullNghs:          179 ave         323 max           0 min
Histogram: 2 0 0 0 3 0 0 0 0 3

Total # of neighbors = 1432
Ave neighs/atom = 159.11111
Neighbor list builds = 0
Dangerous builds = 0
variable  natoms equal "count(all)"
variable xlength equal "lx"
variable  volume equal "vol"
variable  etotal equal "etotal"
variable    ecoh equal "pe/v_natoms"
print "${xlength}, ${volume}, ${etotal}, ${ecoh}" append lattice_cohesive_energy.txt screen no

next i
jump SELF loop

change_box all x scale 1.0025 y scale 1.0025 z scale 1.0025 remap
Changing box ...
WARNING: Triclinic box skew is large. LAMMPS will run inefficiently. (src/domain.cpp:220)
  triclinic box = (0.43967149 0.3852463 0.48829845) to (4.5881106 3.9689407 5.0306196) with tilt (-2.173805 0 0)
WARNING: Triclinic box skew is large. LAMMPS will run inefficiently. (src/domain.cpp:220)
  triclinic box = (0.43967149 0.38076668 0.48829845) to (4.5881106 3.9734203 5.0306196) with tilt (-2.173805 0 0)
WARNING: Triclinic box skew is large. LAMMPS will run inefficiently. (src/domain.cpp:220)
  triclinic box = (0.43967149 0.38076668 0.48262055) to (4.5881106 3.9734203 5.0362975) with tilt (-2.173805 0 0)

run 1
WARNING: No fixes with time integration, atoms won't move (src/verlet.cpp:60)
WARNING: Proc sub-domain size < neighbor skin, could lead to lost atoms (src/domain.cpp:966)
Per MPI rank memory allocation (min/avg/max) = 8.55 | 8.561 | 8.575 Mbytes
   Step         PotEng         TotEng           Lx             Ly             Lz           Volume         Press           Pxx            Pyy            Pzz      
       931  -94.031331     -94.031331      4.1484391      3.5926536      4.5536769      67.867566      950345.93      284847.14      1945829        620361.64    
       932  -94.031331     -94.031331      4.1484391      3.5926536      4.5536769      67.867566      950345.93      284847.14      1945829        620361.64    
Loop time of 0.000283875 on 8 procs for 1 steps with 9 atoms

Performance: 304.359 ns/day, 0.079 hours/ns, 3522.677 timesteps/s, 31.704 katom-step/s
0.0% CPU use with 8 MPI tasks x 1 OpenMP threads

MPI task timing breakdown:
Section |  min time  |  avg time  |  max time  |%varavg| %total
---------------------------------------------------------------
Pair    | 0.000181   | 0.00020113 | 0.000226   |   0.0 | 70.85
Neigh   | 0          | 0          | 0          |   0.0 |  0.00
Comm    | 3.2e-05    | 5.6e-05    | 7.7e-05    |   0.0 | 19.73
Output  | 1.6e-05    | 1.7625e-05 | 2e-05      |   0.0 |  6.21
Modify  | 0          | 6.25e-07   | 2e-06      |   0.0 |  0.22
Other   |            | 8.5e-06    |            |       |  2.99

Nlocal:          1.125 ave           2 max           0 min
Histogram: 2 0 0 0 0 3 0 0 0 3
Nghost:        522.875 ave         526 max         520 min
Histogram: 2 0 0 1 0 3 0 0 0 2
Neighs:          88.75 ave         166 max           0 min
Histogram: 2 0 0 0 2 1 0 0 1 2
FullNghs:        177.5 ave         319 max           0 min
Histogram: 2 0 0 0 3 0 0 0 0 3

Total # of neighbors = 1420
Ave neighs/atom = 157.77778
Neighbor list builds = 0
Dangerous builds = 0
variable  natoms equal "count(all)"
variable xlength equal "lx"
variable  volume equal "vol"
variable  etotal equal "etotal"
variable    ecoh equal "pe/v_natoms"
print "${xlength}, ${volume}, ${etotal}, ${ecoh}" append lattice_cohesive_energy.txt screen no

next i
jump SELF loop

change_box all x scale 1.0025 y scale 1.0025 z scale 1.0025 remap
Changing box ...
WARNING: Triclinic box skew is large. LAMMPS will run inefficiently. (src/domain.cpp:220)
  triclinic box = (0.43448595 0.38076668 0.48262055) to (4.5932961 3.9734203 5.0362975) with tilt (-2.173805 0 0)
WARNING: Triclinic box skew is large. LAMMPS will run inefficiently. (src/domain.cpp:220)
  triclinic box = (0.43448595 0.37627587 0.48262055) to (4.5932961 3.9779111 5.0362975) with tilt (-2.173805 0 0)
WARNING: Triclinic box skew is large. LAMMPS will run inefficiently. (src/domain.cpp:220)
  triclinic box = (0.43448595 0.37627587 0.47692845) to (4.5932961 3.9779111 5.0419895) with tilt (-2.173805 0 0)

run 1
WARNING: No fixes with time integration, atoms won't move (src/verlet.cpp:60)
WARNING: Proc sub-domain size < neighbor skin, could lead to lost atoms (src/domain.cpp:966)
Per MPI rank memory allocation (min/avg/max) = 8.55 | 8.561 | 8.575 Mbytes
   Step         PotEng         TotEng           Lx             Ly             Lz           Volume         Press           Pxx            Pyy            Pzz      
       932  -94.562165     -94.562165      4.1588102      3.6016352      4.5650611      68.377846      887530.31      232843.22      1855724.2      574023.51    
       933  -94.562165     -94.562165      4.1588102      3.6016352      4.5650611      68.377846      887530.31      232843.22      1855724.2      574023.51    
Loop time of 0.000283375 on 8 procs for 1 steps with 9 atoms

Performance: 304.896 ns/day, 0.079 hours/ns, 3528.893 timesteps/s, 31.760 katom-step/s
0.0% CPU use with 8 MPI tasks x 1 OpenMP threads

MPI task timing breakdown:
Section |  min time  |  avg time  |  max time  |%varavg| %total
---------------------------------------------------------------
Pair    | 0.00018    | 0.00020037 | 0.000225   |   0.0 | 70.71
Neigh   | 0          | 0          | 0          |   0.0 |  0.00
Comm    | 3.1e-05    | 5.5625e-05 | 7.9e-05    |   0.0 | 19.63
Output  | 1.5e-05    | 1.875e-05  | 2.2e-05    |   0.0 |  6.62
Modify  | 0          | 1.25e-07   | 1e-06      |   0.0 |  0.04
Other   |            | 8.5e-06    |            |       |  3.00

Nlocal:          1.125 ave           2 max           0 min
Histogram: 2 0 0 0 0 3 0 0 0 3
Nghost:        522.875 ave         526 max         520 min
Histogram: 2 0 0 1 0 3 0 0 0 2
Neighs:          87.75 ave         164 max           0 min
Histogram: 2 0 0 0 2 1 0 0 1 2
FullNghs:        175.5 ave         314 max           0 min
Histogram: 2 0 0 0 2 1 0 0 0 3

Total # of neighbors = 1404
Ave neighs/atom = 156
Neighbor list builds = 0
Dangerous builds = 0
variable  natoms equal "count(all)"
variable xlength equal "lx"
variable  volume equal "vol"
variable  etotal equal "etotal"
variable    ecoh equal "pe/v_natoms"
print "${xlength}, ${volume}, ${etotal}, ${ecoh}" append lattice_cohesive_energy.txt screen no

next i
jump SELF loop

change_box all x scale 1.0025 y scale 1.0025 z scale 1.0025 remap
Changing box ...
WARNING: Triclinic box skew is large. LAMMPS will run inefficiently. (src/domain.cpp:220)
  triclinic box = (0.42928743 0.37627587 0.47692845) to (4.5984946 3.9779111 5.0419895) with tilt (-2.173805 0 0)
WARNING: Triclinic box skew is large. LAMMPS will run inefficiently. (src/domain.cpp:220)
  triclinic box = (0.42928743 0.37177382 0.47692845) to (4.5984946 3.9824132 5.0419895) with tilt (-2.173805 0 0)
WARNING: Triclinic box skew is large. LAMMPS will run inefficiently. (src/domain.cpp:220)
  triclinic box = (0.42928743 0.37177382 0.47122212) to (4.5984946 3.9824132 5.0476959) with tilt (-2.173805 0 0)

run 1
WARNING: No fixes with time integration, atoms won't move (src/verlet.cpp:60)
WARNING: Proc sub-domain size < neighbor skin, could lead to lost atoms (src/domain.cpp:966)
Per MPI rank memory allocation (min/avg/max) = 8.55 | 8.561 | 8.575 Mbytes
   Step         PotEng         TotEng           Lx             Ly             Lz           Volume         Press           Pxx            Pyy            Pzz      
       933  -95.060542     -95.060542      4.1692072      3.6106393      4.5764738      68.891963      826233.09      184112.01      1768038.7      526548.52    
       934  -95.060542     -95.060542      4.1692072      3.6106393      4.5764738      68.891963      826233.09      184112.01      1768038.7      526548.52    
Loop time of 0.0002415 on 8 procs for 1 steps with 9 atoms

Performance: 357.764 ns/day, 0.067 hours/ns, 4140.787 timesteps/s, 37.267 katom-step/s
0.0% CPU use with 8 MPI tasks x 1 OpenMP threads

MPI task timing breakdown:
Section |  min time  |  avg time  |  max time  |%varavg| %total
---------------------------------------------------------------
Pair    | 0.000143   | 0.0001675  | 0.000189   |   0.0 | 69.36
Neigh   | 0          | 0          | 0          |   0.0 |  0.00
Comm    | 2.8e-05    | 4.925e-05  | 7.4e-05    |   0.0 | 20.39
Output  | 1.5e-05    | 1.775e-05  | 2e-05      |   0.0 |  7.35
Modify  | 0          | 0          | 0          |   0.0 |  0.00
Other   |            | 7e-06      |            |       |  2.90

Nlocal:          1.125 ave           2 max           0 min
Histogram: 2 0 0 0 0 3 0 0 0 3
Nghost:        522.875 ave         526 max         520 min
Histogram: 2 0 0 1 0 3 0 0 0 2
Neighs:          87.25 ave         163 max           0 min
Histogram: 2 0 0 0 2 1 0 0 1 2
FullNghs:        174.5 ave         312 max           0 min
Histogram: 2 0 0 0 2 1 0 0 0 3

Total # of neighbors = 1396
Ave neighs/atom = 155.11111
Neighbor list builds = 0
Dangerous builds = 0
variable  natoms equal "count(all)"
variable xlength equal "lx"
variable  volume equal "vol"
variable  etotal equal "etotal"
variable    ecoh equal "pe/v_natoms"
print "${xlength}, ${volume}, ${etotal}, ${ecoh}" append lattice_cohesive_energy.txt screen no

next i
jump SELF loop

change_box all x scale 1.0025 y scale 1.0025 z scale 1.0025 remap
Changing box ...
WARNING: Triclinic box skew is large. LAMMPS will run inefficiently. (src/domain.cpp:220)
  triclinic box = (0.42407592 0.37177382 0.47122212) to (4.6037061 3.9824132 5.0476959) with tilt (-2.173805 0 0)
WARNING: Triclinic box skew is large. LAMMPS will run inefficiently. (src/domain.cpp:220)
  triclinic box = (0.42407592 0.36726052 0.47122212) to (4.6037061 3.9869265 5.0476959) with tilt (-2.173805 0 0)
WARNING: Triclinic box skew is large. LAMMPS will run inefficiently. (src/domain.cpp:220)
  triclinic box = (0.42407592 0.36726052 0.46550153) to (4.6037061 3.9869265 5.0534165) with tilt (-2.173805 0 0)

run 1
WARNING: No fixes with time integration, atoms won't move (src/verlet.cpp:60)
WARNING: Proc sub-domain size < neighbor skin, could lead to lost atoms (src/domain.cpp:966)
Per MPI rank memory allocation (min/avg/max) = 8.55 | 8.561 | 8.575 Mbytes
   Step         PotEng         TotEng           Lx             Ly             Lz           Volume         Press           Pxx            Pyy            Pzz      
       934  -95.526812     -95.526812      4.1796302      3.6196659      4.5879149      69.409946      766423.54      138692.98      1682650.2      477927.4     
       935  -95.526812     -95.526812      4.1796302      3.6196659      4.5879149      69.409946      766423.54      138692.98      1682650.2      477927.4     
Loop time of 0.000233125 on 8 procs for 1 steps with 9 atoms

Performance: 370.617 ns/day, 0.065 hours/ns, 4289.544 timesteps/s, 38.606 katom-step/s
0.0% CPU use with 8 MPI tasks x 1 OpenMP threads

MPI task timing breakdown:
Section |  min time  |  avg time  |  max time  |%varavg| %total
---------------------------------------------------------------
Pair    | 0.000143   | 0.00016413 | 0.000182   |   0.0 | 70.40
Neigh   | 0          | 0          | 0          |   0.0 |  0.00
Comm    | 2.5e-05    | 4.4125e-05 | 6.4e-05    |   0.0 | 18.93
Output  | 1.5e-05    | 1.675e-05  | 2e-05      |   0.0 |  7.18
Modify  | 0          | 1.25e-07   | 1e-06      |   0.0 |  0.05
Other   |            | 8e-06      |            |       |  3.43

Nlocal:          1.125 ave           2 max           0 min
Histogram: 2 0 0 0 0 3 0 0 0 3
Nghost:        515.875 ave         526 max         507 min
Histogram: 2 2 0 0 0 0 1 0 2 1
Neighs:             87 ave         163 max           0 min
Histogram: 2 0 0 0 2 1 0 0 1 2
FullNghs:          174 ave         312 max           0 min
Histogram: 2 0 0 0 2 1 0 0 0 3

Total # of neighbors = 1392
Ave neighs/atom = 154.66667
Neighbor list builds = 0
Dangerous builds = 0
variable  natoms equal "count(all)"
variable xlength equal "lx"
variable  volume equal "vol"
variable  etotal equal "etotal"
variable    ecoh equal "pe/v_natoms"
print "${xlength}, ${volume}, ${etotal}, ${ecoh}" append lattice_cohesive_energy.txt screen no

next i
jump SELF loop

change_box all x scale 1.0025 y scale 1.0025 z scale 1.0025 remap
Changing box ...
WARNING: Triclinic box skew is large. LAMMPS will run inefficiently. (src/domain.cpp:220)
  triclinic box = (0.41885139 0.36726052 0.46550153) to (4.6089307 3.9869265 5.0534165) with tilt (-2.173805 0 0)
WARNING: Triclinic box skew is large. LAMMPS will run inefficiently. (src/domain.cpp:220)
  triclinic box = (0.41885139 0.36273594 0.46550153) to (4.6089307 3.991451 5.0534165) with tilt (-2.173805 0 0)
WARNING: Triclinic box skew is large. LAMMPS will run inefficiently. (src/domain.cpp:220)
  triclinic box = (0.41885139 0.36273594 0.45976664) to (4.6089307 3.991451 5.0591514) with tilt (-2.173805 0 0)

run 1
WARNING: No fixes with time integration, atoms won't move (src/verlet.cpp:60)
WARNING: Proc sub-domain size < neighbor skin, could lead to lost atoms (src/domain.cpp:966)
Per MPI rank memory allocation (min/avg/max) = 8.55 | 8.561 | 8.575 Mbytes
   Step         PotEng         TotEng           Lx             Ly             Lz           Volume         Press           Pxx            Pyy            Pzz      
       935  -95.96133      -95.96133       4.1900793      3.6287151      4.5993847      69.931823      708072.14      96615.93       1599443.7      428156.78    
       936  -95.96133      -95.96133       4.1900793      3.6287151      4.5993847      69.931823      708072.14      96615.93       1599443.7      428156.78    
Loop time of 0.0002295 on 8 procs for 1 steps with 9 atoms

Performance: 376.471 ns/day, 0.064 hours/ns, 4357.298 timesteps/s, 39.216 katom-step/s
0.0% CPU use with 8 MPI tasks x 1 OpenMP threads

MPI task timing breakdown:
Section |  min time  |  avg time  |  max time  |%varavg| %total
---------------------------------------------------------------
Pair    | 0.00014    | 0.00016062 | 0.000179   |   0.0 | 69.99
Neigh   | 0          | 0          | 0          |   0.0 |  0.00
Comm    | 2.5e-05    | 4.4875e-05 | 6.6e-05    |   0.0 | 19.55
Output  | 1.4e-05    | 1.6625e-05 | 2.1e-05    |   0.0 |  7.24
Modify  | 0          | 0          | 0          |   0.0 |  0.00
Other   |            | 7.375e-06  |            |       |  3.21

Nlocal:          1.125 ave           2 max           0 min
Histogram: 2 0 0 0 0 3 0 0 0 3
Nghost:        508.875 ave         523 max         494 min
Histogram: 2 0 0 0 2 2 0 0 0 2
Neighs:             86 ave         159 max           0 min
Histogram: 2 0 0 0 2 1 0 0 0 3
FullNghs:          172 ave         308 max           0 min
Histogram: 2 0 0 0 2 1 0 0 0 3

Total # of neighbors = 1376
Ave neighs/atom = 152.88889
Neighbor list builds = 0
Dangerous builds = 0
variable  natoms equal "count(all)"
variable xlength equal "lx"
variable  volume equal "vol"
variable  etotal equal "etotal"
variable    ecoh equal "pe/v_natoms"
print "${xlength}, ${volume}, ${etotal}, ${ecoh}" append lattice_cohesive_energy.txt screen no

next i
jump SELF loop

change_box all x scale 1.0025 y scale 1.0025 z scale 1.0025 remap
Changing box ...
WARNING: Triclinic box skew is large. LAMMPS will run inefficiently. (src/domain.cpp:220)
  triclinic box = (0.41361379 0.36273594 0.45976664) to (4.6141683 3.991451 5.0591514) with tilt (-2.173805 0 0)
WARNING: Triclinic box skew is large. LAMMPS will run inefficiently. (src/domain.cpp:220)
  triclinic box = (0.41361379 0.35820005 0.45976664) to (4.6141683 3.9959869 5.0591514) with tilt (-2.173805 0 0)
WARNING: Triclinic box skew is large. LAMMPS will run inefficiently. (src/domain.cpp:220)
  triclinic box = (0.41361379 0.35820005 0.45401741) to (4.6141683 3.9959869 5.0649006) with tilt (-2.173805 0 0)

run 1
WARNING: No fixes with time integration, atoms won't move (src/verlet.cpp:60)
WARNING: Proc sub-domain size < neighbor skin, could lead to lost atoms (src/domain.cpp:966)
Per MPI rank memory allocation (min/avg/max) = 8.55 | 8.561 | 8.575 Mbytes
   Step         PotEng         TotEng           Lx             Ly             Lz           Volume         Press           Pxx            Pyy            Pzz      
       936  -96.364452     -96.364452      4.2005545      3.6377869      4.6108832      70.457624      651150.81      57901.6        1518311.5      377239.32    
       937  -96.364452     -96.364452      4.2005545      3.6377869      4.6108832      70.457624      651150.81      57901.6        1518311.5      377239.32    
Loop time of 0.000471875 on 8 procs for 1 steps with 9 atoms

Performance: 183.099 ns/day, 0.131 hours/ns, 2119.205 timesteps/s, 19.073 katom-step/s
0.0% CPU use with 8 MPI tasks x 1 OpenMP threads

MPI task timing breakdown:
Section |  min time  |  avg time  |  max time  |%varavg| %total
---------------------------------------------------------------
Pair    | 0.000168   | 0.00020025 | 0.000232   |   0.0 | 42.44
Neigh   | 0          | 0          | 0          |   0.0 |  0.00
Comm    | 3.5e-05    | 0.000197   | 0.000276   |   0.0 | 41.75
Output  | 1.8e-05    | 2.0125e-05 | 2.3e-05    |   0.0 |  4.26
Modify  | 0          | 1.25e-07   | 1e-06      |   0.0 |  0.03
Other   |            | 5.438e-05  |            |       | 11.52

Nlocal:          1.125 ave           2 max           0 min
Histogram: 2 0 0 0 0 3 0 0 0 3
Nghost:        508.875 ave         523 max         494 min
Histogram: 2 0 0 0 2 2 0 0 0 2
Neighs:          84.75 ave         157 max           0 min
Histogram: 2 0 0 0 3 0 0 0 0 3
FullNghs:        169.5 ave         303 max           0 min
Histogram: 2 0 0 0 2 1 0 0 0 3

Total # of neighbors = 1356
Ave neighs/atom = 150.66667
Neighbor list builds = 0
Dangerous builds = 0
variable  natoms equal "count(all)"
variable xlength equal "lx"
variable  volume equal "vol"
variable  etotal equal "etotal"
variable    ecoh equal "pe/v_natoms"
print "${xlength}, ${volume}, ${etotal}, ${ecoh}" append lattice_cohesive_energy.txt screen no

next i
jump SELF loop

change_box all x scale 1.0025 y scale 1.0025 z scale 1.0025 remap
Changing box ...
WARNING: Triclinic box skew is large. LAMMPS will run inefficiently. (src/domain.cpp:220)
  triclinic box = (0.40836309 0.35820005 0.45401741) to (4.619419 3.9959869 5.0649006) with tilt (-2.173805 0 0)
WARNING: Triclinic box skew is large. LAMMPS will run inefficiently. (src/domain.cpp:220)
  triclinic box = (0.40836309 0.35365281 0.45401741) to (4.619419 4.0005342 5.0649006) with tilt (-2.173805 0 0)
WARNING: Triclinic box skew is large. LAMMPS will run inefficiently. (src/domain.cpp:220)
  triclinic box = (0.40836309 0.35365281 0.4482538) to (4.619419 4.0005342 5.0706642) with tilt (-2.173805 0 0)

run 1
WARNING: No fixes with time integration, atoms won't move (src/verlet.cpp:60)
WARNING: Proc sub-domain size < neighbor skin, could lead to lost atoms (src/domain.cpp:966)
Per MPI rank memory allocation (min/avg/max) = 8.55 | 8.561 | 8.575 Mbytes
   Step         PotEng         TotEng           Lx             Ly             Lz           Volume         Press           Pxx            Pyy            Pzz      
       937  -96.736535     -96.736535      4.2110559      3.6468814      4.6224104      70.987378      595632.35      22560.922      1439153        325183.14    
       938  -96.736535     -96.736535      4.2110559      3.6468814      4.6224104      70.987378      595632.35      22560.922      1439153        325183.14    
Loop time of 0.000253875 on 8 procs for 1 steps with 9 atoms

Performance: 340.325 ns/day, 0.071 hours/ns, 3938.946 timesteps/s, 35.451 katom-step/s
0.0% CPU use with 8 MPI tasks x 1 OpenMP threads

MPI task timing breakdown:
Section |  min time  |  avg time  |  max time  |%varavg| %total
---------------------------------------------------------------
Pair    | 0.000161   | 0.0001805  | 0.0002     |   0.0 | 71.10
Neigh   | 0          | 0          | 0          |   0.0 |  0.00
Comm    | 2.9e-05    | 4.775e-05  | 6.8e-05    |   0.0 | 18.81
Output  | 1.5e-05    | 1.7375e-05 | 2.1e-05    |   0.0 |  6.84
Modify  | 0          | 2.5e-07    | 1e-06      |   0.0 |  0.10
Other   |            | 8e-06      |            |       |  3.15

Nlocal:          1.125 ave           2 max           0 min
Histogram: 2 0 0 0 0 3 0 0 0 3
Nghost:        508.875 ave         523 max         494 min
Histogram: 2 0 0 0 2 2 0 0 0 2
Neighs:           84.5 ave         156 max           0 min
Histogram: 2 0 0 0 2 1 0 0 0 3
FullNghs:          169 ave         302 max           0 min
Histogram: 2 0 0 0 2 1 0 0 0 3

Total # of neighbors = 1352
Ave neighs/atom = 150.22222
Neighbor list builds = 0
Dangerous builds = 0
variable  natoms equal "count(all)"
variable xlength equal "lx"
variable  volume equal "vol"
variable  etotal equal "etotal"
variable    ecoh equal "pe/v_natoms"
print "${xlength}, ${volume}, ${etotal}, ${ecoh}" append lattice_cohesive_energy.txt screen no

next i
jump SELF loop

change_box all x scale 1.0025 y scale 1.0025 z scale 1.0025 remap
Changing box ...
WARNING: Triclinic box skew is large. LAMMPS will run inefficiently. (src/domain.cpp:220)
  triclinic box = (0.40309927 0.35365281 0.4482538) to (4.6246828 4.0005342 5.0706642) with tilt (-2.173805 0 0)
WARNING: Triclinic box skew is large. LAMMPS will run inefficiently. (src/domain.cpp:220)
  triclinic box = (0.40309927 0.34909421 0.4482538) to (4.6246828 4.0050928 5.0706642) with tilt (-2.173805 0 0)
WARNING: Triclinic box skew is large. LAMMPS will run inefficiently. (src/domain.cpp:220)
  triclinic box = (0.40309927 0.34909421 0.44247579) to (4.6246828 4.0050928 5.0764422) with tilt (-2.173805 0 0)

run 1
WARNING: No fixes with time integration, atoms won't move (src/verlet.cpp:60)
WARNING: Proc sub-domain size < neighbor skin, could lead to lost atoms (src/domain.cpp:966)
Per MPI rank memory allocation (min/avg/max) = 8.55 | 8.561 | 8.575 Mbytes
   Step         PotEng         TotEng           Lx             Ly             Lz           Volume         Press           Pxx            Pyy            Pzz      
       938  -97.077941     -97.077941      4.2215835      3.6559986      4.6339664      71.521116      541491.08     -9404.1631      1361875        272002.41    
       939  -97.077941     -97.077941      4.2215835      3.6559986      4.6339664      71.521116      541491.08     -9404.1631      1361875        272002.41    
Loop time of 0.0002595 on 8 procs for 1 steps with 9 atoms

Performance: 332.948 ns/day, 0.072 hours/ns, 3853.565 timesteps/s, 34.682 katom-step/s
0.0% CPU use with 8 MPI tasks x 1 OpenMP threads

MPI task timing breakdown:
Section |  min time  |  avg time  |  max time  |%varavg| %total
---------------------------------------------------------------
Pair    | 0.000162   | 0.00018    | 0.0002     |   0.0 | 69.36
Neigh   | 0          | 0          | 0          |   0.0 |  0.00
Comm    | 2.9e-05    | 4.775e-05  | 6.6e-05    |   0.0 | 18.40
Output  | 1.5e-05    | 1.75e-05   | 2.1e-05    |   0.0 |  6.74
Modify  | 0          | 1.25e-07   | 1e-06      |   0.0 |  0.05
Other   |            | 1.413e-05  |            |       |  5.44

Nlocal:          1.125 ave           2 max           0 min
Histogram: 2 0 0 0 0 3 0 0 0 3
Nghost:        508.875 ave         523 max         494 min
Histogram: 2 0 0 0 2 2 0 0 0 2
Neighs:          83.25 ave         154 max           0 min
Histogram: 2 0 0 0 3 0 0 0 0 3
FullNghs:        166.5 ave         298 max           0 min
Histogram: 2 0 0 0 1 2 0 0 0 3

Total # of neighbors = 1332
Ave neighs/atom = 148
Neighbor list builds = 0
Dangerous builds = 0
variable  natoms equal "count(all)"
variable xlength equal "lx"
variable  volume equal "vol"
variable  etotal equal "etotal"
variable    ecoh equal "pe/v_natoms"
print "${xlength}, ${volume}, ${etotal}, ${ecoh}" append lattice_cohesive_energy.txt screen no

next i
jump SELF loop

change_box all x scale 1.0025 y scale 1.0025 z scale 1.0025 remap
Changing box ...
WARNING: Triclinic box skew is large. LAMMPS will run inefficiently. (src/domain.cpp:220)
  triclinic box = (0.39782229 0.34909421 0.44247579) to (4.6299598 4.0050928 5.0764422) with tilt (-2.173805 0 0)
WARNING: Triclinic box skew is large. LAMMPS will run inefficiently. (src/domain.cpp:220)
  triclinic box = (0.39782229 0.34452421 0.44247579) to (4.6299598 4.0096628 5.0764422) with tilt (-2.173805 0 0)
WARNING: Triclinic box skew is large. LAMMPS will run inefficiently. (src/domain.cpp:220)
  triclinic box = (0.39782229 0.34452421 0.43668333) to (4.6299598 4.0096628 5.0822347) with tilt (-2.173805 0 0)

run 1
WARNING: No fixes with time integration, atoms won't move (src/verlet.cpp:60)
WARNING: Proc sub-domain size < neighbor skin, could lead to lost atoms (src/domain.cpp:966)
Per MPI rank memory allocation (min/avg/max) = 8.55 | 8.561 | 8.575 Mbytes
   Step         PotEng         TotEng           Lx             Ly             Lz           Volume         Press           Pxx            Pyy            Pzz      
       939  -97.38903      -97.38903       4.2321375      3.6651386      4.6455513      72.058866      488702.53     -38000.769      1286391.2      217717.14    
       940  -97.38903      -97.38903       4.2321375      3.6651386      4.6455513      72.058866      488702.53     -38000.769      1286391.2      217717.14    
Loop time of 0.000260125 on 8 procs for 1 steps with 9 atoms

Performance: 332.148 ns/day, 0.072 hours/ns, 3844.306 timesteps/s, 34.599 katom-step/s
0.0% CPU use with 8 MPI tasks x 1 OpenMP threads

MPI task timing breakdown:
Section |  min time  |  avg time  |  max time  |%varavg| %total
---------------------------------------------------------------
Pair    | 0.000171   | 0.00018663 | 0.000203   |   0.0 | 71.74
Neigh   | 0          | 0          | 0          |   0.0 |  0.00
Comm    | 2.9e-05    | 4.525e-05  | 6.1e-05    |   0.0 | 17.40
Output  | 1.6e-05    | 1.7625e-05 | 1.9e-05    |   0.0 |  6.78
Modify  | 0          | 0          | 0          |   0.0 |  0.00
Other   |            | 1.062e-05  |            |       |  4.08

Nlocal:          1.125 ave           2 max           0 min
Histogram: 2 0 0 0 0 3 0 0 0 3
Nghost:        508.875 ave         523 max         494 min
Histogram: 2 0 0 0 2 2 0 0 0 2
Neighs:         82.625 ave         153 max           0 min
Histogram: 2 0 0 0 3 0 0 0 0 3
FullNghs:       165.25 ave         298 max           0 min
Histogram: 2 0 0 0 3 0 0 0 0 3

Total # of neighbors = 1322
Ave neighs/atom = 146.88889
Neighbor list builds = 0
Dangerous builds = 0
variable  natoms equal "count(all)"
variable xlength equal "lx"
variable  volume equal "vol"
variable  etotal equal "etotal"
variable    ecoh equal "pe/v_natoms"
print "${xlength}, ${volume}, ${etotal}, ${ecoh}" append lattice_cohesive_energy.txt screen no

next i
jump SELF loop

change_box all x scale 1.0025 y scale 1.0025 z scale 1.0025 remap
Changing box ...
WARNING: Triclinic box skew is large. LAMMPS will run inefficiently. (src/domain.cpp:220)
  triclinic box = (0.39253212 0.34452421 0.43668333) to (4.6352499 4.0096628 5.0822347) with tilt (-2.173805 0 0)
WARNING: Triclinic box skew is large. LAMMPS will run inefficiently. (src/domain.cpp:220)
  triclinic box = (0.39253212 0.33994279 0.43668333) to (4.6352499 4.0142442 5.0822347) with tilt (-2.173805 0 0)
WARNING: Triclinic box skew is large. LAMMPS will run inefficiently. (src/domain.cpp:220)
  triclinic box = (0.39253212 0.33994279 0.43087639) to (4.6352499 4.0142442 5.0880416) with tilt (-2.173805 0 0)

run 1
WARNING: No fixes with time integration, atoms won't move (src/verlet.cpp:60)
WARNING: Proc sub-domain size < neighbor skin, could lead to lost atoms (src/domain.cpp:966)
Per MPI rank memory allocation (min/avg/max) = 8.55 | 8.561 | 8.575 Mbytes
   Step         PotEng         TotEng           Lx             Ly             Lz           Volume         Press           Pxx            Pyy            Pzz      
       940  -97.67017      -97.67017       4.2427178      3.6743014      4.6571652      72.60066       437243.42     -63244.948      1212622.4      162352.86    
       941  -97.67017      -97.67017       4.2427178      3.6743014      4.6571652      72.60066       437243.42     -63244.948      1212622.4      162352.86    
Loop time of 0.000192 on 8 procs for 1 steps with 9 atoms

Performance: 450.000 ns/day, 0.053 hours/ns, 5208.333 timesteps/s, 46.875 katom-step/s
0.0% CPU use with 8 MPI tasks x 1 OpenMP threads

MPI task timing breakdown:
Section |  min time  |  avg time  |  max time  |%varavg| %total
---------------------------------------------------------------
Pair    | 0.000129   | 0.00013488 | 0.000143   |   0.0 | 70.25
Neigh   | 0          | 0          | 0          |   0.0 |  0.00
Comm    | 2.7e-05    | 3.375e-05  | 4e-05      |   0.0 | 17.58
Output  | 1.4e-05    | 1.5375e-05 | 1.7e-05    |   0.0 |  8.01
Modify  | 0          | 1.25e-07   | 1e-06      |   0.0 |  0.07
Other   |            | 7.875e-06  |            |       |  4.10

Nlocal:          1.125 ave           2 max           0 min
Histogram: 2 0 0 0 0 3 0 0 0 3
Nghost:        508.875 ave         523 max         494 min
Histogram: 2 0 0 0 2 2 0 0 0 2
Neighs:         82.125 ave         153 max           0 min
Histogram: 2 0 0 0 3 0 0 0 0 3
FullNghs:       164.25 ave         295 max           0 min
Histogram: 2 0 0 0 3 0 0 0 0 3

Total # of neighbors = 1314
Ave neighs/atom = 146
Neighbor list builds = 0
Dangerous builds = 0
variable  natoms equal "count(all)"
variable xlength equal "lx"
variable  volume equal "vol"
variable  etotal equal "etotal"
variable    ecoh equal "pe/v_natoms"
print "${xlength}, ${volume}, ${etotal}, ${ecoh}" append lattice_cohesive_energy.txt screen no

next i
jump SELF loop

change_box all x scale 1.0025 y scale 1.0025 z scale 1.0025 remap
Changing box ...
WARNING: Triclinic box skew is large. LAMMPS will run inefficiently. (src/domain.cpp:220)
  triclinic box = (0.38722873 0.33994279 0.43087639) to (4.6405533 4.0142442 5.0880416) with tilt (-2.173805 0 0)
WARNING: Triclinic box skew is large. LAMMPS will run inefficiently. (src/domain.cpp:220)
  triclinic box = (0.38722873 0.33534991 0.43087639) to (4.6405533 4.0188371 5.0880416) with tilt (-2.173805 0 0)
WARNING: Triclinic box skew is large. LAMMPS will run inefficiently. (src/domain.cpp:220)
  triclinic box = (0.38722873 0.33534991 0.42505494) to (4.6405533 4.0188371 5.0938631) with tilt (-2.173805 0 0)

run 1
WARNING: No fixes with time integration, atoms won't move (src/verlet.cpp:60)
WARNING: Proc sub-domain size < neighbor skin, could lead to lost atoms (src/domain.cpp:966)
Per MPI rank memory allocation (min/avg/max) = 8.55 | 8.561 | 8.575 Mbytes
   Step         PotEng         TotEng           Lx             Ly             Lz           Volume         Press           Pxx            Pyy            Pzz      
       941  -97.921728     -97.921728      4.2533246      3.6834872      4.6688081      73.146528      387091.79     -85161.141      1140495.9      105940.63    
       942  -97.921728     -97.921728      4.2533246      3.6834872      4.6688081      73.146528      387091.79     -85161.141      1140495.9      105940.63    
Loop time of 0.000191625 on 8 procs for 1 steps with 9 atoms

Performance: 450.881 ns/day, 0.053 hours/ns, 5218.526 timesteps/s, 46.967 katom-step/s
0.0% CPU use with 8 MPI tasks x 1 OpenMP threads

MPI task timing breakdown:
Section |  min time  |  avg time  |  max time  |%varavg| %total
---------------------------------------------------------------
Pair    | 0.000132   | 0.00013738 | 0.000143   |   0.0 | 71.69
Neigh   | 0          | 0          | 0          |   0.0 |  0.00
Comm    | 2.6e-05    | 3.2e-05    | 3.7e-05    |   0.0 | 16.70
Output  | 1.3e-05    | 1.525e-05  | 1.6e-05    |   0.0 |  7.96
Modify  | 0          | 1.25e-07   | 1e-06      |   0.0 |  0.07
Other   |            | 6.875e-06  |            |       |  3.59

Nlocal:          1.125 ave           2 max           0 min
Histogram: 2 0 0 0 0 3 0 0 0 3
Nghost:        508.875 ave         523 max         494 min
Histogram: 2 0 0 0 2 2 0 0 0 2
Neighs:         80.875 ave         152 max           0 min
Histogram: 2 0 0 0 3 0 0 0 0 3
FullNghs:       161.75 ave         291 max           0 min
Histogram: 2 0 0 0 3 0 0 0 0 3

Total # of neighbors = 1294
Ave neighs/atom = 143.77778
Neighbor list builds = 0
Dangerous builds = 0
variable  natoms equal "count(all)"
variable xlength equal "lx"
variable  volume equal "vol"
variable  etotal equal "etotal"
variable    ecoh equal "pe/v_natoms"
print "${xlength}, ${volume}, ${etotal}, ${ecoh}" append lattice_cohesive_energy.txt screen no

next i
jump SELF loop

change_box all x scale 1.0025 y scale 1.0025 z scale 1.0025 remap
Changing box ...
WARNING: Triclinic box skew is large. LAMMPS will run inefficiently. (src/domain.cpp:220)
  triclinic box = (0.38191207 0.33534991 0.42505494) to (4.64587 4.0188371 5.0938631) with tilt (-2.173805 0 0)
WARNING: Triclinic box skew is large. LAMMPS will run inefficiently. (src/domain.cpp:220)
  triclinic box = (0.38191207 0.33074555 0.42505494) to (4.64587 4.0234414 5.0938631) with tilt (-2.173805 0 0)
WARNING: Triclinic box skew is large. LAMMPS will run inefficiently. (src/domain.cpp:220)
  triclinic box = (0.38191207 0.33074555 0.41921893) to (4.64587 4.0234414 5.0996991) with tilt (-2.173805 0 0)

run 1
WARNING: No fixes with time integration, atoms won't move (src/verlet.cpp:60)
WARNING: Proc sub-domain size < neighbor skin, could lead to lost atoms (src/domain.cpp:966)
Per MPI rank memory allocation (min/avg/max) = 8.55 | 8.561 | 8.575 Mbytes
   Step         PotEng         TotEng           Lx             Ly             Lz           Volume         Press           Pxx            Pyy            Pzz      
       942  -98.144075     -98.144075      4.2639579      3.6926959      4.6804801      73.696499      338226.67     -103782         1069945.3      48516.71     
       943  -98.144075     -98.144075      4.2639579      3.6926959      4.6804801      73.696499      338226.67     -103782         1069945.3      48516.71     
Loop time of 0.000198 on 8 procs for 1 steps with 9 atoms

Performance: 436.364 ns/day, 0.055 hours/ns, 5050.505 timesteps/s, 45.455 katom-step/s
0.0% CPU use with 8 MPI tasks x 1 OpenMP threads

MPI task timing breakdown:
Section |  min time  |  avg time  |  max time  |%varavg| %total
---------------------------------------------------------------
Pair    | 0.00013    | 0.0001365  | 0.000145   |   0.0 | 68.94
Neigh   | 0          | 0          | 0          |   0.0 |  0.00
Comm    | 2.6e-05    | 3.375e-05  | 4e-05      |   0.0 | 17.05
Output  | 1.4e-05    | 1.65e-05   | 2.3e-05    |   0.0 |  8.33
Modify  | 0          | 3.75e-07   | 1e-06      |   0.0 |  0.19
Other   |            | 1.087e-05  |            |       |  5.49

Nlocal:          1.125 ave           2 max           0 min
Histogram: 2 0 0 0 0 3 0 0 0 3
Nghost:        501.875 ave         511 max         494 min
Histogram: 3 1 0 0 0 0 0 1 1 2
Neighs:         80.375 ave         151 max           0 min
Histogram: 2 0 0 0 3 0 0 0 0 3
FullNghs:       160.75 ave         289 max           0 min
Histogram: 2 0 0 0 3 0 0 0 0 3

Total # of neighbors = 1286
Ave neighs/atom = 142.88889
Neighbor list builds = 0
Dangerous builds = 0
variable  natoms equal "count(all)"
variable xlength equal "lx"
variable  volume equal "vol"
variable  etotal equal "etotal"
variable    ecoh equal "pe/v_natoms"
print "${xlength}, ${volume}, ${etotal}, ${ecoh}" append lattice_cohesive_energy.txt screen no

next i
jump SELF loop

change_box all x scale 1.0025 y scale 1.0025 z scale 1.0025 remap
Changing box ...
WARNING: Triclinic box skew is large. LAMMPS will run inefficiently. (src/domain.cpp:220)
  triclinic box = (0.37658212 0.33074555 0.41921893) to (4.6511999 4.0234414 5.0996991) with tilt (-2.173805 0 0)
WARNING: Triclinic box skew is large. LAMMPS will run inefficiently. (src/domain.cpp:220)
  triclinic box = (0.37658212 0.32612968 0.41921893) to (4.6511999 4.0280573 5.0996991) with tilt (-2.173805 0 0)
WARNING: Triclinic box skew is large. LAMMPS will run inefficiently. (src/domain.cpp:220)
  triclinic box = (0.37658212 0.32612968 0.41336833) to (4.6511999 4.0280573 5.1055497) with tilt (-2.173805 0 0)

run 1
WARNING: No fixes with time integration, atoms won't move (src/verlet.cpp:60)
WARNING: Proc sub-domain size < neighbor skin, could lead to lost atoms (src/domain.cpp:966)
Per MPI rank memory allocation (min/avg/max) = 8.55 | 8.561 | 8.575 Mbytes
   Step         PotEng         TotEng           Lx             Ly             Lz           Volume         Press           Pxx            Pyy            Pzz      
       943  -98.337588     -98.337588      4.2746178      3.7019276      4.6921813      74.250606      290628.58     -119148.17      1000911.1     -9877.1469    
       944  -98.337588     -98.337588      4.2746178      3.7019276      4.6921813      74.250606      290628.58     -119148.17      1000911.1     -9877.1469    
Loop time of 0.00019025 on 8 procs for 1 steps with 9 atoms

Performance: 454.139 ns/day, 0.053 hours/ns, 5256.242 timesteps/s, 47.306 katom-step/s
0.0% CPU use with 8 MPI tasks x 1 OpenMP threads

MPI task timing breakdown:
Section |  min time  |  avg time  |  max time  |%varavg| %total
---------------------------------------------------------------
Pair    | 0.000133   | 0.00013612 | 0.000144   |   0.0 | 71.55
Neigh   | 0          | 0          | 0          |   0.0 |  0.00
Comm    | 2.7e-05    | 3.3125e-05 | 3.6e-05    |   0.0 | 17.41
Output  | 1.4e-05    | 1.5375e-05 | 1.6e-05    |   0.0 |  8.08
Modify  | 0          | 0          | 0          |   0.0 |  0.00
Other   |            | 5.625e-06  |            |       |  2.96

Nlocal:          1.125 ave           2 max           0 min
Histogram: 2 0 0 0 0 3 0 0 0 3
Nghost:        501.875 ave         511 max         494 min
Histogram: 3 1 0 0 0 0 0 1 1 2
Neighs:         79.625 ave         150 max           0 min
Histogram: 2 0 0 0 3 0 0 0 1 2
FullNghs:       159.25 ave         285 max           0 min
Histogram: 2 0 0 0 3 0 0 0 0 3

Total # of neighbors = 1274
Ave neighs/atom = 141.55556
Neighbor list builds = 0
Dangerous builds = 0
variable  natoms equal "count(all)"
variable xlength equal "lx"
variable  volume equal "vol"
variable  etotal equal "etotal"
variable    ecoh equal "pe/v_natoms"
print "${xlength}, ${volume}, ${etotal}, ${ecoh}" append lattice_cohesive_energy.txt screen no

next i
jump SELF loop

change_box all x scale 1.0025 y scale 1.0025 z scale 1.0025 remap
Changing box ...
WARNING: Triclinic box skew is large. LAMMPS will run inefficiently. (src/domain.cpp:220)
  triclinic box = (0.37123885 0.32612968 0.41336833) to (4.6565432 4.0280573 5.1055497) with tilt (-2.173805 0 0)
WARNING: Triclinic box skew is large. LAMMPS will run inefficiently. (src/domain.cpp:220)
  triclinic box = (0.37123885 0.32150227 0.41336833) to (4.6565432 4.0326847 5.1055497) with tilt (-2.173805 0 0)
  triclinic box = (0.37123885 0.32150227 0.4075031) to (4.6565432 4.0326847 5.1114149) with tilt (-2.173805 0 0)

run 1
Per MPI rank memory allocation (min/avg/max) = 8.55 | 8.561 | 8.575 Mbytes
   Step         PotEng         TotEng           Lx             Ly             Lz           Volume         Press           Pxx            Pyy            Pzz      
WARNING: Too many warnings: 103 vs 100. All future warnings will be suppressed (src/thermo.cpp:466)
       944  -98.502643     -98.502643      4.2853044      3.7111824      4.7039118      74.808879      244279.09     -131307.81      933339.45     -69194.375    
       945  -98.502643     -98.502643      4.2853044      3.7111824      4.7039118      74.808879      244279.09     -131307.81      933339.45     -69194.375    
Loop time of 0.0002195 on 8 procs for 1 steps with 9 atoms

Performance: 393.622 ns/day, 0.061 hours/ns, 4555.809 timesteps/s, 41.002 katom-step/s
0.0% CPU use with 8 MPI tasks x 1 OpenMP threads

MPI task timing breakdown:
Section |  min time  |  avg time  |  max time  |%varavg| %total
---------------------------------------------------------------
Pair    | 0.000159   | 0.00016438 | 0.000171   |   0.0 | 74.89
Neigh   | 0          | 0          | 0          |   0.0 |  0.00
Comm    | 2.6e-05    | 3.175e-05  | 3.7e-05    |   0.0 | 14.46
Output  | 1.5e-05    | 1.6125e-05 | 1.7e-05    |   0.0 |  7.35
Modify  | 0          | 7.5e-07    | 1e-06      |   0.0 |  0.34
Other   |            | 6.5e-06    |            |       |  2.96

Nlocal:          1.125 ave           2 max           0 min
Histogram: 2 0 0 0 0 3 0 0 0 3
Nghost:        501.875 ave         511 max         494 min
Histogram: 3 1 0 0 0 0 0 1 1 2
Neighs:         78.625 ave         147 max           0 min
Histogram: 2 0 0 0 2 1 0 0 1 2
FullNghs:       157.25 ave         281 max           0 min
Histogram: 2 0 0 0 3 0 0 0 0 3

Total # of neighbors = 1258
Ave neighs/atom = 139.77778
Neighbor list builds = 0
Dangerous builds = 0
variable  natoms equal "count(all)"
variable xlength equal "lx"
variable  volume equal "vol"
variable  etotal equal "etotal"
variable    ecoh equal "pe/v_natoms"
print "${xlength}, ${volume}, ${etotal}, ${ecoh}" append lattice_cohesive_energy.txt screen no

next i
jump SELF loop

change_box all x scale 1.0025 y scale 1.0025 z scale 1.0025 remap
Changing box ...
  triclinic box = (0.36588222 0.32150227 0.4075031) to (4.6618998 4.0326847 5.1114149) with tilt (-2.173805 0 0)
  triclinic box = (0.36588222 0.3168633 0.4075031) to (4.6618998 4.0373237 5.1114149) with tilt (-2.173805 0 0)
  triclinic box = (0.36588222 0.3168633 0.40162321) to (4.6618998 4.0373237 5.1172948) with tilt (-2.173805 0 0)

run 1
[...]
---------------------------------------------------------------
Pair    | 0.000145   | 0.00016175 | 0.000181   |   0.0 | 68.50
Neigh   | 0          | 0          | 0          |   0.0 |  0.00
Comm    | 2.7e-05    | 4.65e-05   | 6.4e-05    |   0.0 | 19.69
Output  | 1.6e-05    | 1.9125e-05 | 2.1e-05    |   0.0 |  8.10
Modify  | 0          | 1.25e-07   | 1e-06      |   0.0 |  0.05
Other   |            | 8.625e-06  |            |       |  3.65

Nlocal:          1.125 ave           2 max           0 min
Histogram: 2 0 0 0 0 3 0 0 0 3
Nghost:        414.875 ave         424 max         406 min
Histogram: 1 0 2 1 0 0 1 2 0 1
Neighs:          61.75 ave         116 max           0 min
Histogram: 2 0 0 0 3 0 0 0 1 2
FullNghs:        123.5 ave         225 max           0 min
Histogram: 2 0 0 0 3 0 0 0 0 3

Total # of neighbors = 988
Ave neighs/atom = 109.77778
Neighbor list builds = 0
Dangerous builds = 0
variable  natoms equal "count(all)"
variable xlength equal "lx"
variable  volume equal "vol"
variable  etotal equal "etotal"
variable    ecoh equal "pe/v_natoms"
print "${xlength}, ${volume}, ${etotal}, ${ecoh}" append lattice_cohesive_energy.txt screen no

next i
jump SELF loop

change_box all x scale 1.0025 y scale 1.0025 z scale 1.0025 remap
Changing box ...
  triclinic box = (0.23891498 0.21181963 0.2684807) to (4.7888671 4.1423673 5.2504373) with tilt (-2.173805 0 0)
  triclinic box = (0.23891498 0.20690645 0.2684807) to (4.7888671 4.1472805 5.2504373) with tilt (-2.173805 0 0)
  triclinic box = (0.23891498 0.20690645 0.26225326) to (4.7888671 4.1472805 5.2566647) with tilt (-2.173805 0 0)

run 1
Per MPI rank memory allocation (min/avg/max) = 8.55 | 8.562 | 8.575 Mbytes
   Step         PotEng         TotEng           Lx             Ly             Lz           Volume         Press           Pxx            Pyy            Pzz      
       968  -94.971503     -94.971503      4.5499521      3.9403741      4.9944115      89.542373     -523211.75      379365.93     -978850.16     -970151.03    
       969  -94.971503     -94.971503      4.5499521      3.9403741      4.9944115      89.542373     -523211.75      379365.93     -978850.16     -970151.03    
Loop time of 0.000239375 on 8 procs for 1 steps with 9 atoms

Performance: 360.940 ns/day, 0.066 hours/ns, 4177.546 timesteps/s, 37.598 katom-step/s
0.0% CPU use with 8 MPI tasks x 1 OpenMP threads

MPI task timing breakdown:
Section |  min time  |  avg time  |  max time  |%varavg| %total
---------------------------------------------------------------
Pair    | 0.000148   | 0.00016487 | 0.000183   |   0.0 | 68.88
Neigh   | 0          | 0          | 0          |   0.0 |  0.00
Comm    | 2.9e-05    | 4.6e-05    | 6.4e-05    |   0.0 | 19.22
Output  | 1.6e-05    | 1.9375e-05 | 2.1e-05    |   0.0 |  8.09
Modify  | 0          | 0          | 0          |   0.0 |  0.00
Other   |            | 9.125e-06  |            |       |  3.81

Nlocal:          1.125 ave           2 max           0 min
Histogram: 2 0 0 0 0 3 0 0 0 3
Nghost:        414.875 ave         424 max         406 min
Histogram: 1 0 2 1 0 0 1 2 0 1
Neighs:          61.25 ave         116 max           0 min
Histogram: 2 0 0 0 3 0 0 0 1 2
FullNghs:        122.5 ave         222 max           0 min
Histogram: 2 0 0 0 3 0 0 0 0 3

Total # of neighbors = 980
Ave neighs/atom = 108.88889
Neighbor list builds = 0
Dangerous builds = 0
variable  natoms equal "count(all)"
variable xlength equal "lx"
variable  volume equal "vol"
variable  etotal equal "etotal"
variable    ecoh equal "pe/v_natoms"
print "${xlength}, ${volume}, ${etotal}, ${ecoh}" append lattice_cohesive_energy.txt screen no

next i
jump SELF loop

change_box all x scale 1.0025 y scale 1.0025 z scale 1.0025 remap
Changing box ...
  triclinic box = (0.23322754 0.20690645 0.26225326) to (4.7945545 4.1472805 5.2566647) with tilt (-2.173805 0 0)
  triclinic box = (0.23322754 0.20198098 0.26225326) to (4.7945545 4.152206 5.2566647) with tilt (-2.173805 0 0)
  triclinic box = (0.23322754 0.20198098 0.25601024) to (4.7945545 4.152206 5.2629078) with tilt (-2.173805 0 0)

run 1
Per MPI rank memory allocation (min/avg/max) = 8.55 | 8.562 | 8.575 Mbytes
   Step         PotEng         TotEng           Lx             Ly             Lz           Volume         Press           Pxx            Pyy            Pzz      
       969  -94.574219     -94.574219      4.561327       3.950225       5.0068975      90.215621     -541817.29      405180.2      -1038126.8     -992505.3     
       970  -94.574219     -94.574219      4.561327       3.950225       5.0068975      90.215621     -541817.29      405180.2      -1038126.8     -992505.3     
Loop time of 0.000426 on 8 procs for 1 steps with 9 atoms

Performance: 202.817 ns/day, 0.118 hours/ns, 2347.418 timesteps/s, 21.127 katom-step/s
0.0% CPU use with 8 MPI tasks x 1 OpenMP threads

MPI task timing breakdown:
Section |  min time  |  avg time  |  max time  |%varavg| %total
---------------------------------------------------------------
Pair    | 0.00016    | 0.00020087 | 0.000316   |   0.0 | 47.15
Neigh   | 0          | 0          | 0          |   0.0 |  0.00
Comm    | 5.6e-05    | 0.0001705  | 0.000213   |   0.0 | 40.02
Output  | 4.3e-05    | 4.5625e-05 | 4.8e-05    |   0.0 | 10.71
Modify  | 0          | 1.25e-07   | 1e-06      |   0.0 |  0.03
Other   |            | 8.875e-06  |            |       |  2.08

Nlocal:          1.125 ave           2 max           0 min
Histogram: 2 0 0 0 0 3 0 0 0 3
Nghost:        414.875 ave         424 max         406 min
Histogram: 1 0 2 1 0 0 1 2 0 1
Neighs:             61 ave         114 max           0 min
Histogram: 2 0 0 0 2 1 0 0 1 2
FullNghs:          122 ave         222 max           0 min
Histogram: 2 0 0 0 3 0 0 0 0 3

Total # of neighbors = 976
Ave neighs/atom = 108.44444
Neighbor list builds = 0
Dangerous builds = 0
variable  natoms equal "count(all)"
variable xlength equal "lx"
variable  volume equal "vol"
variable  etotal equal "etotal"
variable    ecoh equal "pe/v_natoms"
print "${xlength}, ${volume}, ${etotal}, ${ecoh}" append lattice_cohesive_energy.txt screen no

next i
jump SELF loop

change_box all x scale 1.0025 y scale 1.0025 z scale 1.0025 remap
Changing box ...
  triclinic box = (0.22752589 0.20198098 0.25601024) to (4.8002562 4.152206 5.2629078) with tilt (-2.173805 0 0)
  triclinic box = (0.22752589 0.1970432 0.25601024) to (4.8002562 4.1571438 5.2629078) with tilt (-2.173805 0 0)
  triclinic box = (0.22752589 0.1970432 0.24975162) to (4.8002562 4.1571438 5.2691664) with tilt (-2.173805 0 0)

run 1
Per MPI rank memory allocation (min/avg/max) = 8.55 | 8.562 | 8.575 Mbytes
   Step         PotEng         TotEng           Lx             Ly             Lz           Volume         Press           Pxx            Pyy            Pzz      
       970  -94.161783     -94.161783      4.5727303      3.9601006      5.0194148      90.893931     -559396.53      430420.38     -1094279.6     -1014330.4    
       971  -94.161783     -94.161783      4.5727303      3.9601006      5.0194148      90.893931     -559396.53      430420.38     -1094279.6     -1014330.4    
Loop time of 0.000133125 on 8 procs for 1 steps with 9 atoms

Performance: 649.014 ns/day, 0.037 hours/ns, 7511.737 timesteps/s, 67.606 katom-step/s
0.0% CPU use with 8 MPI tasks x 1 OpenMP threads

MPI task timing breakdown:
Section |  min time  |  avg time  |  max time  |%varavg| %total
---------------------------------------------------------------
Pair    | 9.4e-05    | 9.65e-05   | 9.9e-05    |   0.0 | 72.49
Neigh   | 0          | 0          | 0          |   0.0 |  0.00
Comm    | 1.9e-05    | 2.1e-05    | 2.3e-05    |   0.0 | 15.77
Output  | 1.1e-05    | 1.1625e-05 | 1.2e-05    |   0.0 |  8.73
Modify  | 0          | 1.25e-07   | 1e-06      |   0.0 |  0.09
Other   |            | 3.875e-06  |            |       |  2.91

Nlocal:          1.125 ave           2 max           0 min
Histogram: 2 0 0 0 0 3 0 0 0 3
Nghost:        414.875 ave         424 max         406 min
Histogram: 1 0 2 1 0 0 1 2 0 1
Neighs:         60.875 ave         114 max           0 min
Histogram: 2 0 0 0 2 1 0 0 1 2
FullNghs:       121.75 ave         222 max           0 min
Histogram: 2 0 0 0 3 0 0 0 0 3

Total # of neighbors = 974
Ave neighs/atom = 108.22222
Neighbor list builds = 0
Dangerous builds = 0
variable  natoms equal "count(all)"
variable xlength equal "lx"
variable  volume equal "vol"
variable  etotal equal "etotal"
variable    ecoh equal "pe/v_natoms"
print "${xlength}, ${volume}, ${etotal}, ${ecoh}" append lattice_cohesive_energy.txt screen no

next i
jump SELF loop

change_box all x scale 1.0025 y scale 1.0025 z scale 1.0025 remap
Changing box ...
  triclinic box = (0.22180997 0.1970432 0.24975162) to (4.8059721 4.1571438 5.2691664) with tilt (-2.173805 0 0)
  triclinic box = (0.22180997 0.19209307 0.24975162) to (4.8059721 4.1620939 5.2691664) with tilt (-2.173805 0 0)
  triclinic box = (0.22180997 0.19209307 0.24347735) to (4.8059721 4.1620939 5.2754406) with tilt (-2.173805 0 0)

run 1
Per MPI rank memory allocation (min/avg/max) = 8.55 | 8.562 | 8.575 Mbytes
   Step         PotEng         TotEng           Lx             Ly             Lz           Volume         Press           Pxx            Pyy            Pzz      
       971  -93.734722     -93.734722      4.5841621      3.9700008      5.0319633      91.577341     -575952.84      455069.91     -1147358.3     -1035570.2    
       972  -93.734722     -93.734722      4.5841621      3.9700008      5.0319633      91.577341     -575952.84      455069.91     -1147358.3     -1035570.2    
Loop time of 0.000206 on 8 procs for 1 steps with 9 atoms

Performance: 419.417 ns/day, 0.057 hours/ns, 4854.369 timesteps/s, 43.689 katom-step/s
0.0% CPU use with 8 MPI tasks x 1 OpenMP threads

MPI task timing breakdown:
Section |  min time  |  avg time  |  max time  |%varavg| %total
---------------------------------------------------------------
Pair    | 0.000139   | 0.000147   | 0.000157   |   0.0 | 71.36
Neigh   | 0          | 0          | 0          |   0.0 |  0.00
Comm    | 2.6e-05    | 3.525e-05  | 4.2e-05    |   0.0 | 17.11
Output  | 1.5e-05    | 1.7625e-05 | 2e-05      |   0.0 |  8.56
Modify  | 0          | 5e-07      | 2e-06      |   0.0 |  0.24
Other   |            | 5.625e-06  |            |       |  2.73

Nlocal:          1.125 ave           2 max           0 min
Histogram: 2 0 0 0 0 3 0 0 0 3
Nghost:        408.875 ave         419 max         398 min
Histogram: 2 0 0 2 0 0 2 0 0 2
Neighs:         60.375 ave         114 max           0 min
Histogram: 2 0 0 0 3 0 0 0 1 2
FullNghs:       120.75 ave         218 max           0 min
Histogram: 2 0 0 0 3 0 0 0 0 3

Total # of neighbors = 966
Ave neighs/atom = 107.33333
Neighbor list builds = 0
Dangerous builds = 0
variable  natoms equal "count(all)"
variable xlength equal "lx"
variable  volume equal "vol"
variable  etotal equal "etotal"
variable    ecoh equal "pe/v_natoms"
print "${xlength}, ${volume}, ${etotal}, ${ecoh}" append lattice_cohesive_energy.txt screen no

next i
jump SELF loop

change_box all x scale 1.0025 y scale 1.0025 z scale 1.0025 remap
Changing box ...
  triclinic box = (0.21607977 0.19209307 0.24347735) to (4.8117023 4.1620939 5.2754406) with tilt (-2.173805 0 0)
  triclinic box = (0.21607977 0.18713057 0.24347735) to (4.8117023 4.1670564 5.2754406) with tilt (-2.173805 0 0)
  triclinic box = (0.21607977 0.18713057 0.2371874) to (4.8117023 4.1670564 5.2817306) with tilt (-2.173805 0 0)

run 1
Per MPI rank memory allocation (min/avg/max) = 8.55 | 8.562 | 8.575 Mbytes
   Step         PotEng         TotEng           Lx             Ly             Lz           Volume         Press           Pxx            Pyy            Pzz      
       972  -93.293566     -93.293566      4.5956225      3.9799258      5.0445432      92.26589      -591489.66      479114.96     -1197412.7     -1056171.2    
       973  -93.293566     -93.293566      4.5956225      3.9799258      5.0445432      92.26589      -591489.66      479114.96     -1197412.7     -1056171.2    
Loop time of 0.000181 on 8 procs for 1 steps with 9 atoms

Performance: 477.348 ns/day, 0.050 hours/ns, 5524.862 timesteps/s, 49.724 katom-step/s
0.0% CPU use with 8 MPI tasks x 1 OpenMP threads

MPI task timing breakdown:
Section |  min time  |  avg time  |  max time  |%varavg| %total
---------------------------------------------------------------
Pair    | 0.000124   | 0.00012887 | 0.000133   |   0.0 | 71.20
Neigh   | 0          | 0          | 0          |   0.0 |  0.00
Comm    | 2.6e-05    | 2.9125e-05 | 3.3e-05    |   0.0 | 16.09
Output  | 1.4e-05    | 1.675e-05  | 1.9e-05    |   0.0 |  9.25
Modify  | 0          | 2.5e-07    | 1e-06      |   0.0 |  0.14
Other   |            | 6e-06      |            |       |  3.31

Nlocal:          1.125 ave           2 max           0 min
Histogram: 2 0 0 0 0 3 0 0 0 3
Nghost:        408.875 ave         419 max         398 min
Histogram: 2 0 0 2 0 0 2 0 0 2
Neighs:             60 ave         113 max           0 min
Histogram: 2 0 0 0 3 0 0 0 1 2
FullNghs:          120 ave         216 max           0 min
Histogram: 2 0 0 0 3 0 0 0 0 3

Total # of neighbors = 960
Ave neighs/atom = 106.66667
Neighbor list builds = 0
Dangerous builds = 0
variable  natoms equal "count(all)"
variable xlength equal "lx"
variable  volume equal "vol"
variable  etotal equal "etotal"
variable    ecoh equal "pe/v_natoms"
print "${xlength}, ${volume}, ${etotal}, ${ecoh}" append lattice_cohesive_energy.txt screen no

next i
jump SELF loop

change_box all x scale 1.0025 y scale 1.0025 z scale 1.0025 remap
Changing box ...
  triclinic box = (0.21033524 0.18713057 0.2371874) to (4.8174468 4.1670564 5.2817306) with tilt (-2.173805 0 0)
  triclinic box = (0.21033524 0.18215566 0.2371874) to (4.8174468 4.1720313 5.2817306) with tilt (-2.173805 0 0)
  triclinic box = (0.21033524 0.18215566 0.23088172) to (4.8174468 4.1720313 5.2880363) with tilt (-2.173805 0 0)

run 1
Per MPI rank memory allocation (min/avg/max) = 8.55 | 8.562 | 8.575 Mbytes
   Step         PotEng         TotEng           Lx             Ly             Lz           Volume         Press           Pxx            Pyy            Pzz      
       973  -92.838862     -92.838862      4.6071116      3.9898757      5.0571546      92.959615     -606011.53      502735.53     -1244691.4     -1076078.7    
       974  -92.838862     -92.838862      4.6071116      3.9898757      5.0571546      92.959615     -606011.53      502735.53     -1244691.4     -1076078.7    
Loop time of 0.000175875 on 8 procs for 1 steps with 9 atoms

Performance: 491.258 ns/day, 0.049 hours/ns, 5685.856 timesteps/s, 51.173 katom-step/s
0.0% CPU use with 8 MPI tasks x 1 OpenMP threads

MPI task timing breakdown:
Section |  min time  |  avg time  |  max time  |%varavg| %total
---------------------------------------------------------------
Pair    | 0.000123   | 0.00012675 | 0.00013    |   0.0 | 72.07
Neigh   | 0          | 0          | 0          |   0.0 |  0.00
Comm    | 2.3e-05    | 2.6875e-05 | 3.2e-05    |   0.0 | 15.28
Output  | 1.4e-05    | 1.65e-05   | 1.9e-05    |   0.0 |  9.38
Modify  | 0          | 2.5e-07    | 1e-06      |   0.0 |  0.14
Other   |            | 5.5e-06    |            |       |  3.13

Nlocal:          1.125 ave           2 max           0 min
Histogram: 2 0 0 0 0 3 0 0 0 3
Nghost:        401.875 ave         419 max         382 min
Histogram: 1 0 0 2 1 0 2 0 1 1
Neighs:         59.375 ave         111 max           0 min
Histogram: 2 0 0 0 2 1 0 0 1 2
FullNghs:       118.75 ave         214 max           0 min
Histogram: 2 0 0 0 2 1 0 0 0 3

Total # of neighbors = 950
Ave neighs/atom = 105.55556
Neighbor list builds = 0
Dangerous builds = 0
variable  natoms equal "count(all)"
variable xlength equal "lx"
variable  volume equal "vol"
variable  etotal equal "etotal"
variable    ecoh equal "pe/v_natoms"
print "${xlength}, ${volume}, ${etotal}, ${ecoh}" append lattice_cohesive_energy.txt screen no

next i
jump SELF loop

change_box all x scale 1.0025 y scale 1.0025 z scale 1.0025 remap
Changing box ...
  triclinic box = (0.20457635 0.18215566 0.23088172) to (4.8232057 4.1720313 5.2880363) with tilt (-2.173805 0 0)
  triclinic box = (0.20457635 0.17716832 0.23088172) to (4.8232057 4.1770187 5.2880363) with tilt (-2.173805 0 0)
  triclinic box = (0.20457635 0.17716832 0.22456027) to (4.8232057 4.1770187 5.2943577) with tilt (-2.173805 0 0)

run 1
Per MPI rank memory allocation (min/avg/max) = 8.55 | 8.562 | 8.575 Mbytes
   Step         PotEng         TotEng           Lx             Ly             Lz           Volume         Press           Pxx            Pyy            Pzz      
       974  -92.371327     -92.371327      4.6186293      3.9998503      5.0697975      93.658557     -619526.97      526304.62     -1289733.1     -1095152.5    
       975  -92.371327     -92.371327      4.6186293      3.9998503      5.0697975      93.658557     -619526.97      526304.62     -1289733.1     -1095152.5    
Loop time of 0.000177125 on 8 procs for 1 steps with 9 atoms

Performance: 487.791 ns/day, 0.049 hours/ns, 5645.730 timesteps/s, 50.812 katom-step/s
0.0% CPU use with 8 MPI tasks x 1 OpenMP threads

MPI task timing breakdown:
Section |  min time  |  avg time  |  max time  |%varavg| %total
---------------------------------------------------------------
Pair    | 0.000119   | 0.00012388 | 0.000128   |   0.0 | 69.94
Neigh   | 0          | 0          | 0          |   0.0 |  0.00
Comm    | 2.6e-05    | 2.9875e-05 | 3.5e-05    |   0.0 | 16.87
Output  | 1.4e-05    | 1.7875e-05 | 2.1e-05    |   0.0 | 10.09
Modify  | 0          | 1.25e-07   | 1e-06      |   0.0 |  0.07
Other   |            | 5.375e-06  |            |       |  3.03

Nlocal:          1.125 ave           2 max           0 min
Histogram: 2 0 0 0 0 3 0 0 0 3
Nghost:        401.875 ave         419 max         382 min
Histogram: 1 0 0 2 1 0 2 0 1 1
Neighs:             59 ave         109 max           0 min
Histogram: 2 0 0 0 2 1 0 0 1 2
FullNghs:          118 ave         212 max           0 min
Histogram: 2 0 0 0 1 2 0 0 0 3

Total # of neighbors = 944
Ave neighs/atom = 104.88889
Neighbor list builds = 0
Dangerous builds = 0
variable  natoms equal "count(all)"
variable xlength equal "lx"
variable  volume equal "vol"
variable  etotal equal "etotal"
variable    ecoh equal "pe/v_natoms"
print "${xlength}, ${volume}, ${etotal}, ${ecoh}" append lattice_cohesive_energy.txt screen no

next i
jump SELF loop

print "-------------------------------------------------------------"
-------------------------------------------------------------
print "Show results of 1st step (Running Minimization)"
Show results of 1st step (Running Minimization)
print "The number of atoms = ${natoms};"
The number of atoms = 9;
print "The lattice constant, x (Angstoms) = ${x0};"
The lattice constant, x (Angstoms) = 4.61862934457667;
print "The lattice constant, y (Angstoms) = ${y0};"
The lattice constant, y (Angstoms) = 3.99985034307553;
print "The lattice constant, z (Angstoms) = ${z0};"
The lattice constant, z (Angstoms) = 5.06979745176352;
print "The volume (Angstoms^3) = ${v0};"
The volume (Angstoms^3) = 93.6585568330981;
print "The total energy (eV) = ${etot0};"
The total energy (eV) = -92.3713271466166;
print "The cohesive energy (eV/atom) = ${ecoh0};"
The cohesive energy (eV/atom) = -10.2634807940685;
print "-------------------------------------------------------------"
-------------------------------------------------------------
print "Simulations completed !"
Simulations completed !
Total wall time: 0:00:00
