ITEM: TIMESTEP
0
ITEM: NUMBER OF ATOMS
12000
ITEM: BOX BOUNDS pp pp pp
1.5629519648931023e-01 2.7184704803510588e+01
1.5791262208890622e-01 2.7183087377911050e+01
1.2845109283097429e+00 2.1744348907168930e+02
ITEM: ATOMS id type x y z c_peratom fx fy fz 
242 2 5.53617 5.46422 6.63981 -25.2234 1.87205 2.34004 -1.16374 
1201 2 5.64109 2.9372 3.87921 -25.6516 -0.664759 -0.979617 0.591964 
1202 2 5.65743 2.88534 9.37904 -25.3677 -0.768831 -0.0591418 0.715886 
2041 2 2.84179 5.66365 3.91956 -25.5076 -0.404003 -0.944673 -0.184804 
2042 2 2.88312 5.638 9.30172 -25.3069 0.470433 -0.783773 0.919994 
3002 2 2.85744 2.8278 6.71047 -25.271 1.12988 0.162645 -1.25946 
4001 1 1.51311 1.462 2.53462 -7.55406 -0.386461 0.580381 -1.15497 
4002 1 1.58351 1.48844 7.94425 -7.86205 -1.04066 0.0709304 -0.0823718 
5001 1 4.27249 4.17059 5.24935 -7.63743 -0.352078 1.3633 0.16727 
6001 1 4.00025 4.17164 2.55775 -7.30316 2.08002 1.28146 0.835759 
6002 1 4.33778 4.22018 7.95193 -7.68106 -1.16561 -1.17777 0.415925 
7001 1 1.55253 1.52696 5.09388 -7.61502 -0.287985 -0.106412 2.08325 
8001 1 4.30536 1.58092 5.29743 -7.33124 -0.752976 -1.19207 0.816309 
9001 1 1.40636 4.22976 2.67859 -7.20449 -0.6886 -0.238458 -0.259505 
9002 1 1.62228 4.22903 8.04842 -7.67556 -0.748298 -0.26291 -0.639258 
10001 1 1.44903 4.25418 5.37137 -7.7245 0.366602 0.209242 -0.0700613 
11001 1 4.27087 1.54173 2.57787 -7.40645 0.630481 0.837717 -0.510817 
11002 1 4.22604 1.3784 8.1317 -7.58152 0.0966669 0.672672 -0.42986 
9201 1 6.91042 4.19512 2.53368 -7.71473 -0.585406 -0.0577775 -0.0341229 
4202 1 6.85169 1.57406 7.97578 -7.94382 0.236459 -0.600444 0.405466 
1002 2 0.179344 2.80379 9.31499 -25.5365 -0.171784 0.639164 0.540646 
2 2 0.198131 0.170212 6.54041 -25.1164 0.117251 -0.197167 0.146036 
4041 1 1.43263 6.83752 2.63496 -7.51704 -0.172075 0.716287 -1.3557 
2001 2 2.99071 0.26878 3.79312 -25.7552 -1.34257 -1.30061 1.54604 
3001 2 2.73172 2.88924 1.28683 -25.6539 0.205283 -0.0753366 -0.874127 
4201 1 6.958 1.35331 2.53772 -7.79374 0.251119 0.517419 0.27255 
10201 1 7.12417 4.28647 5.17908 -7.31374 -1.96622 0.323418 0.621187 
4241 1 7.05863 6.89015 2.6533 -7.42691 -1.62702 0.784305 -1.28291 
9202 1 6.98896 4.27285 7.93766 -7.89442 -0.152508 -0.301293 1.25848 
7201 1 6.92939 1.62178 5.22222 -7.0508 0.218623 -1.08949 0.520465 
442 2 11.0382 5.66067 6.69023 -25.7078 0.720305 -0.00349992 -1.76772 
1401 2 11.0946 2.81368 4.02191 -25.9034 -1.05777 1.42677 -0.721003 
1402 2 11.0042 2.93459 9.45151 -25.2434 -0.177097 0.834478 -1.15905 
2241 2 8.37671 5.61028 3.8281 -25.9515 0.671263 -0.608044 0.929251 
2242 2 8.22193 5.58455 9.43492 -25.1503 0.240252 -0.542919 0.209091 
3202 2 8.27285 2.98863 6.69079 -25.7929 0.748536 -1.05924 -1.70017 
4401 1 12.4472 1.50745 2.63658 -7.74035 -0.563967 -0.964548 -0.876497 
4402 1 12.3162 1.68971 8.0234 -7.50187 0.1015 0.00505048 0.451014 
5201 1 9.70804 4.14261 5.32236 -7.05612 0.784696 0.905105 -0.0426444 
6201 1 9.63606 4.23433 2.50556 -7.26572 0.389238 0.404847 0.476846 
6202 1 9.72229 4.3692 8.05401 -7.821 -0.650337 -0.277614 1.34274 
7401 1 12.4927 1.67864 5.30354 -7.24658 -1.68682 -0.827472 0.110527 
8201 1 9.58839 1.50019 5.33528 -7.27826 1.18427 -0.442438 -0.166296 
9401 1 12.4017 4.23683 2.71634 -7.34374 -0.0156266 -0.120789 -1.46888 
9402 1 12.3927 4.37137 8.0396 -7.31761 -1.65488 -0.743475 -0.449287 
10401 1 12.4011 4.36397 5.30562 -7.00855 -0.00468093 -0.0157721 0.693502 
11201 1 9.70603 1.55093 2.65733 -7.33294 0.0619984 -0.476066 0.0287974 
11202 1 9.50661 1.58273 7.94305 -7.45924 0.892232 -0.0745423 0.664587 
8241 1 9.69104 6.91205 5.13521 -7.42851 1.39178 -0.052927 0.629877 
2442 2 13.6617 5.58613 9.31035 -25.6508 0.8159 1.38718 1.15479 
3201 2 8.22944 2.7789 1.29106 -25.4109 1.31354 0.554067 -0.533257 
4242 1 7.01709 6.89323 8.08609 -7.27875 -0.0396672 0.777405 -0.57324 
2202 2 8.20027 0.188435 9.30679 -25.4869 0.875058 -0.136278 1.2661 
402 2 11.0311 0.33318 6.72685 -25.8218 -0.0402933 -1.18641 -0.721902 
2441 2 13.8033 5.69243 3.84156 -26.1625 0.125192 -0.731295 1.07307 
3402 2 13.732 2.9581 6.61646 -25.7117 -0.393673 0.716449 1.16977 
642 2 16.536 5.64664 6.64057 -25.2839 -0.567428 -0.263027 -0.949484 
1601 2 16.4319 3.0444 4.00218 -25.466 0.744243 -1.56065 0.321158 
1602 2 16.4431 2.90281 9.32354 -25.5161 -0.270906 0.876414 2.271 
2641 3 19.2354 5.64536 3.88214 -28.8239 -1.18855 -0.510518 0.958189 
2642 3 19.0735 5.60812 9.32512 -29.2215 0.215122 0.110996 0.033865 
3602 3 19.105 2.86675 6.65355 -29.3266 0.730672 0.720367 0.525301 
4601 1 17.9102 1.54057 2.66535 -7.45487 -0.685352 0.916306 -0.899688 
4602 1 17.8359 1.78842 8.09934 -7.52095 -0.141303 -1.0613 -1.59662 
5401 1 15.0992 4.40717 5.27415 -7.69195 0.714961 -1.26357 0.941042 
6401 1 15.217 4.30796 2.6024 -7.25649 -2.10783 -0.681288 -0.394503 
6402 1 14.919 4.17918 8.10098 -7.39442 1.98305 -0.250119 -0.937927 
7601 1 17.7357 1.58816 5.37964 -7.41532 0.103796 -0.64249 0.178521 
8401 1 14.9903 1.56303 5.48506 -7.34858 2.39156 -0.394411 -0.501605 
9601 1 17.6827 4.30513 2.6564 -7.30331 1.66237 -0.160806 -0.0439515 
9602 1 17.6603 4.4563 8.08756 -7.63591 0.230541 -0.401618 0.757384 
10601 1 17.9262 4.14217 5.49409 -7.54011 -0.691605 0.570918 -1.16848 
11401 1 15.0902 1.49893 2.69683 -7.89108 1.08669 -0.0223709 -0.678784 
11402 1 15.1317 1.44383 8.25829 -7.55748 0.150307 0.769164 -0.798927 
7641 1 17.9005 6.77961 5.2745 -7.91942 0.590907 0.678573 -0.681258 
6601 1 20.298 4.22528 2.63326 -8.15197 1.02874 -0.606692 -0.225307 
2601 2 19.1954 0.22134 3.97252 -25.6808 -0.507648 0.0892519 -0.529697 
11602 1 20.3603 1.5671 7.99781 -7.29879 0.2204 0.132095 0.00970812 
6602 1 20.3343 4.20433 7.95864 -7.30863 -0.265709 0.289305 -0.266376 
11442 1 15.1777 6.90689 7.84103 -7.87788 -0.360444 0.896732 0.0817904 
2402 2 13.7645 0.281306 9.55434 -25.5374 0.0340605 -1.2017 -1.66636 
2602 3 19.2227 0.252548 9.43134 -29.6243 -0.549914 0.066414 0.566043 
3401 2 13.7027 2.8369 1.34839 -25.3708 1.68239 -0.264096 -0.418429 
5601 1 20.5425 4.43265 5.28915 -7.5184 -0.333998 0.134212 -0.781035 
8601 1 20.4939 1.69431 5.31318 -7.73428 -1.49052 0.237373 -0.0304952 
11641 1 20.5039 6.75012 2.67809 -7.6608 0.176832 1.17869 -0.094858 
42 2 27.1251 5.51244 6.61828 -24.8304 -0.0737254 1.20345 0.0936818 
1001 2 27.1266 2.85921 3.90447 -25.6509 0.113863 1.00675 0.0481653 
842 3 21.6761 5.66727 6.65302 -29.623 0.783732 -0.932274 0.11563 
1801 3 21.7126 3.03839 3.85385 -28.9422 0.643563 -0.96695 1.71905 
1802 2 21.7455 2.96356 9.43268 -25.703 0.507438 -0.267996 -2.11753 
2841 3 24.3875 5.54843 3.99379 -29.2704 0.297681 0.486216 -0.316634 
2842 2 24.3789 5.6984 9.34087 -25.5436 0.410301 -1.91957 -0.0238306 
3802 2 24.4005 2.93082 6.62821 -25.474 -0.485077 0.0712959 0.369515 
4801 1 23.3159 1.48259 2.49374 -7.2053 -0.813639 0.959421 -0.699567 
4802 1 22.9877 1.51437 7.93367 -7.71451 1.96675 0.972425 0.70089 
5801 1 25.7185 4.25807 5.26202 -7.84245 0.605248 0.783478 0.242818 
6801 1 25.748 4.25938 2.58902 -7.53998 -0.592068 -0.12113 -0.249008 
6802 1 25.8492 4.23395 8.0383 -7.83676 -0.379158 -0.284424 -0.826648 
7801 1 23.036 1.75881 5.17455 -7.3271 0.829034 -1.30428 0.133773 
8801 1 25.7848 1.62583 5.29188 -7.77 0.20465 -0.901393 0.681029 
9801 1 22.9758 4.23002 2.65209 -8.1482 0.503159 -0.61706 0.255935 
9802 1 23.0096 4.26931 8.05647 -7.42521 0.654489 -0.110146 -0.0129086 
10801 1 23.1266 4.33979 5.43538 -7.2099 -0.145687 0.337064 -1.05696 
11601 1 20.6301 1.49342 2.66944 -7.62073 -0.38862 1.00961 0.624832 
11801 1 25.8569 1.55804 2.58275 -7.44773 0.177776 0.522188 -0.0443558 
11802 1 25.793 1.44763 8.03779 -8.08953 -0.0636231 -0.120039 -0.228908 
4841 1 23.1443 6.83764 2.67998 -7.69021 0.249629 0.690508 -0.811214 
4842 1 23.0486 6.88301 7.94694 -7.6285 0.601596 0.30019 0.381504 
802 2 21.7455 0.355829 6.64526 -25.373 0.129794 -1.40668 -1.47863 
2802 3 24.4876 0.267686 9.36098 -28.4425 -0.409871 -0.448097 -0.30701 
11642 1 20.5152 6.86732 8.08593 -7.63303 -0.835188 -0.059107 0.0231805 
7841 1 23.1218 6.90442 5.29561 -7.34596 0.320143 0.281611 0.289661 
7041 1 1.44411 7.09479 5.18876 -7.94916 0.737519 -0.686036 1.55634 
4042 1 1.4393 6.92484 8.02377 -8.06165 0.786765 -0.284566 -1.04744 
8041 1 4.29685 6.99963 5.19727 -7.89758 -0.475215 -0.453269 0.212523 
11042 1 4.25411 6.92382 7.89851 -7.83814 -0.585622 0.752838 0.599038 
11041 1 4.13954 6.9448 2.49992 -7.45078 0.56747 0.0362238 0.918992 
282 2 5.69674 11.0999 6.63484 -25.2956 -0.139706 -1.0377 -0.69496 
1241 2 5.62764 8.32319 3.80839 -25.4946 -0.0810337 -0.379138 0.66736 
1242 2 5.63822 8.38869 9.37608 -25.5124 0.00554945 -0.964748 -0.575089 
2081 3 2.90812 10.8971 3.96584 -29.0194 -0.44735 1.10803 -0.997423 
2082 2 2.91017 11.0523 9.22465 -25.1908 -0.411701 -0.632025 1.33286 
3042 2 2.90825 8.34634 6.58166 -24.9432 -0.0984429 0.168668 -0.430396 
4081 1 1.49076 12.2453 2.41859 -7.62214 0.108052 0.639732 0.897229 
4082 1 1.51173 12.3523 7.75406 -7.73827 0.589411 -0.521619 1.38374 
5041 1 4.32285 9.74487 5.10728 -7.76514 -0.0784267 -0.49767 0.263379 
6041 1 4.23911 9.57396 2.33098 -7.49866 -0.73727 -0.100661 0.658114 
6042 1 4.2133 9.74831 7.91742 -7.74131 0.556279 -1.43196 -0.765643 
7081 1 1.50293 12.3498 5.15204 -7.18536 -0.469575 0.372763 -0.411471 
8081 1 4.21486 12.4089 5.25154 -7.41001 0.518818 -0.84469 0.536248 
9041 1 1.39932 9.54206 2.54312 -7.52117 1.4423 -0.728496 0.0601526 
9042 1 1.48128 9.62092 7.99623 -7.91175 0.219863 0.193039 -0.485857 
10041 1 1.6256 9.80952 5.22657 -7.40833 0.539946 -1.58553 0.591632 
11081 1 4.29896 12.1864 2.59117 -7.50777 -0.810852 0.285943 0.265656 
11082 1 4.31968 12.2995 8.00208 -8.06474 0.362997 1.93914 0.447133 
1042 2 0.233787 8.25049 9.31105 -25.1594 -1.46818 0.0901937 0.336692 
1282 2 5.6846 13.6552 9.39517 -24.9424 -0.765823 0.708172 -0.50362 
1281 2 5.5888 13.6383 3.82295 -25.7712 0.348446 0.589007 0.590459 
1082 2 0.216931 13.6662 9.19893 -25.7599 -1.1399 0.0597787 0.518727 
7241 1 7.13326 7.01628 5.28108 -6.89622 -2.00981 -0.74098 0.133306 
4442 1 12.489 7.04555 7.91813 -7.50589 0.129372 0.215704 -0.135622 
4441 1 12.5719 6.9328 2.58752 -7.4964 -1.8418 1.42043 -1.74974 
11242 1 9.87153 7.08771 7.94948 -7.79994 -0.905119 -0.102426 0.442836 
11241 1 9.73123 7.02566 2.45552 -7.76526 1.02904 -0.270198 -0.102974 
9241 1 6.9586 9.6315 2.52348 -7.77873 0.295612 0.588231 0.755889 
9242 1 7.05131 9.64605 8.01574 -7.43252 -0.8225 -0.153251 0.0255222 
10241 1 7.04487 9.67468 5.31806 -7.49851 -0.995131 0.179651 -0.329745 
7441 1 12.3708 7.06143 5.13014 -7.12928 0.253231 -0.0168379 1.3153 
4281 1 6.98997 12.4338 2.43992 -7.76119 0.219991 -0.858058 0.309056 
7281 1 7.0329 12.3474 5.15278 -7.76667 -0.712643 0.142855 0.784694 
482 2 11.0255 11.004 6.71835 -25.5469 0.858335 0.203836 -0.205827 
1441 3 11.0592 8.2863 3.83482 -28.8421 0.252497 -0.117228 0.513683 
1442 3 11.1035 8.32122 9.23484 -28.5202 0.132493 0.126308 0.26407 
2281 2 8.35862 10.9495 4.02507 -25.1157 0.457108 0.48221 -1.45797 
2282 2 8.33843 11.0036 9.39253 -25.6393 0.00717731 0.00880654 -0.145566 
3242 2 8.42357 8.27863 6.54037 -25.7343 -0.800376 -0.216381 1.7411 
4282 1 7.14643 12.3181 7.96186 -7.82562 -1.07253 0.741791 -0.353696 
4481 1 12.3677 12.4099 2.66842 -7.11445 0.712004 -1.58761 -0.203264 
4482 1 12.3973 12.4779 7.99943 -7.33951 0.634865 -1.22382 1.36284 
5241 1 9.68367 9.57098 5.27357 -7.86775 1.8775 0.454676 -0.731559 
6241 1 9.635 9.64665 2.49632 -7.81255 0.604231 0.955241 0.699068 
6242 1 9.70823 9.7015 7.99895 -7.75564 0.550734 0.12373 0.42493 
7481 1 12.3974 12.2853 5.41036 -7.17501 0.172935 -0.116252 -1.1806 
8281 1 9.69083 12.268 5.48417 -7.75224 -0.609478 0.834552 -1.10226 
9441 1 12.3585 9.68552 2.52511 -7.85528 -0.00362516 -0.371407 0.645582 
9442 1 12.4436 9.67525 7.91757 -7.80861 -0.101143 0.374768 0.278409 
10441 1 12.52 9.62519 5.23655 -7.45543 -0.460207 0.440729 -0.201953 
11281 1 9.73664 12.4906 2.69171 -7.78174 -1.14685 -1.60751 -0.80588 
11282 1 9.77942 12.4906 8.13782 -7.01028 -0.689282 -1.22914 -0.621718 
11441 1 15.2762 6.93268 2.497 -6.89766 -0.763826 0.780177 -1.21508 
4641 1 17.826 6.92426 2.49343 -7.43398 1.25415 0.04257 0.289799 
2482 2 13.7873 11.0234 9.34126 -25.3639 -0.670249 0.55463 -0.524588 
2481 2 13.8552 11.0105 3.88974 -25.2943 -1.70178 0.576511 0.707601 
3442 3 13.807 8.44263 6.46766 -28.721 -0.542582 -1.30066 0.377402 
8441 1 15.2004 6.98041 5.03521 -7.29186 -0.414108 0.68857 2.51194 
4642 1 17.9196 7.08146 7.93536 -7.88633 -0.163116 0.427771 -0.26326 
682 2 16.4681 11.0026 6.58797 -25.1404 0.480015 0.956741 0.512727 
1641 2 16.6435 8.26382 3.95407 -25.4415 -1.18148 -0.978312 -0.688316 
1642 2 16.4119 8.29508 9.18153 -25.4083 0.035983 0.380955 1.40922 
2681 2 19.1471 11.0009 3.80365 -24.8904 -0.084859 -0.365574 0.722313 
2682 3 19.076 10.9762 9.29734 -28.9609 0.15951 0.0373135 0.039515 
3642 3 19.2344 8.28647 6.65826 -28.7005 -0.0128104 -0.0603274 0.337356 
4681 1 17.6602 12.4254 2.48772 -7.6147 0.809703 -1.74085 0.427068 
4682 1 17.8066 12.5046 7.91621 -7.4635 -0.0382545 -0.898165 -0.0302279 
5441 1 15.2241 9.60653 5.23002 -7.98983 0.198327 0.837706 0.493639 
6441 1 15.0711 9.658 2.61382 -7.844 0.61118 0.173788 -0.771945 
6442 1 15.1351 9.70303 7.90354 -8.0028 -0.790871 -0.354598 -0.324898 
7681 1 17.7695 12.3633 5.15011 -7.92074 0.949302 -1.6098 0.67726 
8481 1 15.0956 12.4088 5.35142 -7.85501 -0.126312 -0.834105 -1.18979 
9641 1 17.6922 9.5908 2.5582 -8.18611 0.873819 1.67468 -0.754924 
9642 1 17.7568 9.80044 8.03009 -7.87487 0.760332 -0.316821 -0.10913 
10641 1 17.9777 9.4934 5.38034 -8.07499 -0.540519 0.803906 -0.581386 
11481 1 15.0653 12.3254 2.43901 -7.47733 -0.203236 -0.779698 1.0521 
11482 1 15.1492 12.4947 8.02426 -7.32037 -0.716753 -1.504 -0.157138 
11682 1 20.3722 12.2389 7.97243 -7.77753 1.10299 -0.474667 -1.09818 
6641 1 20.383 9.46848 2.56013 -7.91081 0.0878012 0.615781 -0.464584 
3682 2 19.2455 13.6583 6.58798 -25.4472 -1.34603 0.677015 0.162912 
8641 1 20.5393 7.12014 5.46669 -7.85684 -0.47827 -0.254821 -0.760299 
8841 1 25.7902 7.0073 5.02987 -7.55306 -0.172139 -0.619842 2.37837 
1041 3 27.1667 8.08511 3.83358 -29.3777 -0.487899 1.89255 0.0952928 
6642 1 20.4684 9.56104 7.98942 -7.92174 -0.660883 0.190075 -0.479665 
11841 1 25.8057 6.93502 2.54231 -7.41171 0.336581 -0.428976 -0.731483 
11842 1 25.7241 6.96496 7.90296 -7.9846 0.518484 -0.249497 -1.04256 
1081 2 27.1002 13.6522 3.97954 -25.3036 0.794179 -0.552015 -1.11237 
82 2 27.1686 10.9444 6.57068 -25.6682 0.262387 1.07779 -0.680012 
11681 1 20.4787 12.2915 2.54412 -7.75129 -0.916296 -0.313611 -1.00501 
3882 3 24.3668 13.6529 6.55282 -29.2636 0.817443 -0.579761 0.0569627 
882 3 21.6384 10.9869 6.53047 -28.739 2.30458 -0.115223 0.721871 
1841 2 21.8399 8.32648 3.95981 -25.5347 0.3748 -0.823449 0.357472 
1842 2 21.7519 8.26972 9.38047 -25.5259 0.316462 0.342656 -0.828531 
2881 3 24.5992 10.8229 4.01455 -30.1081 -1.26565 1.03229 -0.886644 
2882 2 24.5944 10.9589 9.21912 -25.8627 -1.69921 0.379226 -0.76368 
3842 3 24.443 8.1703 6.69571 -29.1788 -0.620956 1.16487 -1.33715 
4881 1 23.04 12.229 2.56556 -6.86716 0.569444 1.04806 -0.77016 
4882 1 23.1326 12.3254 7.83251 -7.54523 -0.646409 -0.945829 -0.141663 
5641 1 20.5665 9.73168 5.27179 -7.97995 0.244294 0.0585421 -0.0462669 
5841 1 25.9713 9.77303 5.16851 -7.03758 0.425165 -1.61531 0.670414 
6841 1 25.8418 9.58014 2.67208 -7.27473 -0.29713 -1.49039 -1.26846 
6842 1 25.7573 9.68239 7.81957 -7.65667 0.735609 -1.05359 0.174261 
7881 1 23.1155 12.2357 5.16838 -7.02261 -0.32316 -0.104635 0.748913 
8681 1 20.5235 12.3536 5.2 -7.80297 -0.750715 -0.315527 0.686646 
8881 1 25.6742 12.3743 5.22778 -7.57209 1.17552 0.41256 -0.112595 
9841 1 23.0936 9.63737 2.61516 -7.5186 0.178113 -0.745221 -0.110025 
9842 1 23.1305 9.49022 7.83838 -7.0347 -0.550657 0.705893 0.254948 
10841 1 23.3675 9.54231 5.23007 -7.29793 -0.94494 -0.270805 0.151661 
11881 1 25.6425 12.055 2.46806 -7.1514 0.984832 1.93067 0.289989 
11882 1 25.8199 12.3987 7.88811 -7.34502 0.187198 -0.212041 -0.914009 
1881 2 21.89 13.6587 3.81471 -25.7468 -0.189647 -0.577191 0.482806 
1882 2 21.8659 13.6324 9.286 -25.5842 -0.591975 -0.0565134 -0.111514 
3841 2 24.5017 8.28283 1.33884 -25.7363 -0.585192 -0.283457 -1.2147 
4 3 0.185432 0.160171 17.5567 -28.6106 0.882538 0.193158 0.327001 
203 3 5.53669 0.247697 12.0907 -29.0268 0.191303 -0.0225956 0.361902 
243 3 5.54687 5.65707 12.1554 -28.9537 0.639918 -0.868264 -0.382476 
244 2 5.39509 5.6139 17.5455 -25.9417 1.64518 0.0687532 0.102689 
1203 2 5.65003 2.88517 14.821 -25.6864 -1.55913 0.123962 -0.40838 
2043 2 2.82438 5.59715 14.7019 -25.5631 1.00439 0.159746 1.66695 
3003 2 2.88534 2.89574 11.9852 -25.7434 0.420631 -0.0265619 0.942957 
3004 2 2.91155 2.8435 17.3768 -25.4247 0.12478 0.613182 2.4025 
4003 1 1.59587 1.58215 13.4244 -7.45899 -0.416107 -1.13775 0.0260081 
4004 1 1.60139 1.56649 18.8132 -7.70469 0.718808 -0.387306 1.10285 
5002 1 4.31269 4.28262 10.5962 -7.48792 -0.683902 0.350556 1.32452 
5003 1 4.23368 4.24105 16.2021 -7.43927 -0.79926 -0.0513347 -1.15608 
6003 1 4.28959 4.23793 13.511 -7.4609 -0.332857 0.480915 -1.35006 
6004 1 4.23761 4.1478 18.8293 -6.90397 -0.934504 0.00484871 0.379484 
7002 1 1.49626 1.52446 10.6978 -7.50589 0.87855 -1.49294 -0.512261 
7003 1 1.55048 1.48504 16.197 -7.85103 0.0491983 -0.414122 -0.576308 
8002 1 4.25761 1.63525 10.7982 -7.71023 0.40619 -1.47693 -0.490901 
8003 1 4.22929 1.46551 16.2136 -7.53909 0.322869 0.207785 -0.251256 
9003 1 1.63224 4.24775 13.4228 -7.51808 -0.10312 -0.490176 -0.472801 
9004 1 1.54792 4.30886 18.8786 -7.58294 0.593807 -0.265117 -0.106225 
10002 1 1.48921 4.12422 10.6878 -7.27818 0.744818 0.898282 0.154291 
10003 1 1.52442 4.2711 16.1526 -7.67318 0.871187 -0.505836 0.286546 
11003 1 4.18846 1.51649 13.4607 -7.23552 0.5526 -0.347571 0.121263 
11004 1 4.41802 1.47273 19.0076 -7.48882 -0.986724 -1.14884 -0.636679 
11044 1 4.01801 6.83162 18.9004 -7.99444 0.508663 0.754097 0.233554 
10203 1 6.83307 4.36679 16.167 -7.40925 1.32885 -1.8197 0.262009 
4043 1 1.51327 6.90222 13.5214 -7.02337 -0.251778 -0.228695 -0.790793 
4203 1 6.86012 1.60717 13.3807 -7.53999 0.336045 -0.843724 0.579483 
9204 1 6.83787 4.23016 18.8994 -7.21845 1.10308 -0.200583 -0.2161 
9203 1 6.8874 4.20189 13.5019 -7.10253 0.439815 0.721434 -0.503725 
1003 2 0.368234 2.85883 14.8653 -25.493 -1.89781 0.678596 -1.2026 
7042 1 1.41692 6.81282 10.8196 -7.7975 0.799679 0.8189 -1.19822 
43 2 0.180826 5.52004 12.1017 -25.66 -0.10153 0.0316862 -0.398117 
44 2 0.22412 5.61286 17.5999 -25.5976 -1.61235 -0.232485 -1.75978 
7203 1 6.91621 1.45165 16.091 -7.87153 -0.280932 1.01254 0.213159 
4204 1 7.12052 1.43492 18.7111 -7.47651 -0.709612 -0.366407 1.62756 
443 3 10.9226 5.62083 12.0008 -28.9562 0.129915 -0.448302 1.21129 
444 2 10.9718 5.66023 17.5739 -25.7569 -0.557944 0.501452 0.327732 
1403 2 10.9128 2.89985 14.7172 -25.7859 1.1337 0.462497 0.237923 
2243 2 8.31808 5.58832 14.8789 -25.8404 -1.14118 0.286199 -1.36382 
3203 3 8.24579 2.83308 12.1789 -29.6899 -0.356845 0.975642 -0.788111 
3204 2 8.21391 2.86108 17.4715 -25.2283 0.739699 1.3048 0.0192643 
4403 1 12.3605 1.63925 13.3717 -7.12568 -1.55881 -0.00834384 0.10966 
4404 1 12.2554 1.58563 18.7788 -7.28212 -0.103189 -0.476262 -0.291856 
5202 1 9.60417 4.22157 11.0381 -7.08407 0.622824 0.547282 -2.82181 
5203 1 9.67578 4.27545 16.1536 -7.67404 -0.594322 -0.121899 0.614184 
6203 1 9.50448 4.1602 13.4534 -7.03668 0.546396 1.05578 1.63598 
6204 1 9.61754 4.33829 18.9483 -7.70384 -0.490847 -0.85662 -0.388992 
7202 1 6.93884 1.41587 10.8222 -7.50592 -0.32921 0.659963 -1.22469 
7402 1 12.3792 1.5545 10.7515 -7.78641 0.162891 0.934196 -0.443835 
7403 1 12.3866 1.60804 16.0421 -7.08743 -2.07294 -0.0164239 0.744439 
8202 1 9.58504 1.68679 10.5448 -7.61401 -0.0510783 -1.30503 1.10254 
8203 1 9.59507 1.61186 16.0528 -7.76631 -0.0150042 -0.988348 0.199923 
9403 1 12.2743 4.37909 13.4039 -7.24116 -0.887822 -0.618648 0.334683 
9404 1 12.3383 4.31218 18.8644 -7.56273 0.236455 0.0725325 -0.229292 
10202 1 6.96774 4.15484 10.7849 -7.61836 -0.0339255 0.160124 -0.458632 
10402 1 12.3185 4.19761 10.7569 -7.61616 -0.41319 1.09237 -0.141998 
10403 1 12.3449 4.31714 16.1404 -7.46297 -0.368701 0.441365 0.196539 
11203 1 9.56895 1.60229 13.3218 -7.58874 0.255225 -0.522167 -0.0437694 
11204 1 9.69402 1.47988 18.7297 -7.80982 -0.661094 0.676442 0.837928 
3404 2 13.6428 2.95104 17.4749 -26.2554 0.107832 -1.04183 0.0950706 
4243 1 6.95062 6.8994 13.4596 -7.5547 -0.497344 0.552131 0.0779937 
8242 1 9.49202 6.84341 10.7457 -7.95873 1.36585 0.433593 -0.501797 
404 3 10.8504 0.190949 17.561 -29.0231 1.73018 -0.188057 -0.369718 
403 2 10.9779 0.358632 11.9463 -25.5291 -0.679196 -1.79506 1.73045 
2203 2 8.19128 0.174786 14.8038 -25.3072 0.635059 0.31802 -0.0293746 
2403 2 13.657 0.171744 14.9066 -26.2068 0.206406 0.100404 -0.787121 
3403 2 13.6846 3.03474 12.219 -25.9509 0.665606 -0.4408 -0.335291 
2443 2 13.6892 5.65356 14.8925 -25.6906 0.129553 0.128413 -0.468532 
2603 2 19.2787 0.206283 14.7786 -25.2398 -2.39876 -0.4886 -0.084325 
643 2 16.4088 5.69274 12.0035 -25.7994 -0.899699 -0.880059 0.8096 
644 3 16.4793 5.61102 17.4532 -28.388 -0.645673 -0.574178 0.487897 
1603 2 16.5104 2.94091 14.8451 -25.4871 -2.06726 -0.884025 -0.100979 
2643 2 19.1099 5.65258 14.7586 -25.4478 -0.262881 -2.07845 -0.215172 
3603 2 19.0346 2.91618 12.0947 -25.1496 0.372389 -1.01386 -0.475077 
3604 2 19.0586 2.8537 17.5724 -25.6677 1.49666 0.461043 -0.130449 
4603 1 17.8026 1.41784 13.352 -7.85067 0.190385 1.62139 1.00457 
4604 1 17.8084 1.48379 18.9326 -7.59794 -1.2604 0.36965 -0.350692 
5402 1 15.0211 4.3191 10.7702 -7.35398 0.494722 0.0564211 -0.166277 
5403 1 15.0428 4.20904 16.1748 -7.55822 1.20655 0.953045 0.0295424 
6403 1 14.9816 4.38435 13.5023 -7.06754 0.445589 -0.604293 -0.17439 
6404 1 15.0831 4.14693 18.8055 -7.53145 -0.45054 2.1957 0.170163 
7602 1 17.8498 1.34742 10.6399 -6.89963 -0.778918 1.77707 0.697902 
7603 1 17.8302 1.56366 16.1852 -7.72227 -1.2835 -0.448481 -0.489559 
8402 1 15.1754 1.61927 10.9982 -7.58951 -0.851853 0.225105 -0.386656 
8403 1 14.9711 1.48418 16.2095 -6.79533 2.06266 -0.183024 1.58807 
9603 1 17.6254 4.22412 13.4074 -7.57422 0.804464 0.289032 -0.241286 
9604 1 17.7213 4.26907 18.9193 -7.97802 -0.314427 -0.538845 -0.946724 
10602 1 17.8271 4.21204 10.7724 -7.70112 -0.563417 -0.0733964 -0.883078 
10603 1 17.8797 4.25629 16.0539 -7.73065 -0.860079 -0.425778 1.74509 
11403 1 14.9305 1.61421 13.7604 -6.9054 1.92329 0.117414 -2.43467 
11404 1 14.9105 1.54121 18.8617 -7.0692 1.16694 -0.76269 0.280985 
7642 1 17.5896 6.89375 10.5886 -7.43468 1.05983 0.324099 -0.894248 
7643 1 17.6548 6.78813 16.053 -7.97089 0.441536 1.49973 0.167017 
8602 1 20.4238 1.71725 10.681 -7.73373 0.710809 -0.760112 1.28472 
6603 1 20.3668 4.10749 13.5099 -7.74578 0.30287 0.817888 -1.46661 
8643 1 20.4218 6.71266 16.213 -7.96293 -0.906998 2.63684 0.239945 
4644 1 17.7932 6.85831 18.7555 -7.92582 -0.429401 0.902179 -0.962605 
603 2 16.383 0.187954 12.1759 -25.6461 0.762458 -1.16598 -0.394496 
803 2 21.8756 0.228912 12.1595 -25.1741 0.343986 -0.486172 -1.72723 
804 2 21.7911 0.189386 17.4823 -25.7367 0.50512 -0.488316 1.61906 
6604 1 20.448 4.20539 18.8262 -7.33072 -0.10945 -0.215241 0.538469 
5603 1 20.5677 4.1267 16.1668 -6.67953 -0.144296 -0.150331 0.0776737 
8603 1 20.4351 1.47453 16.2253 -7.58317 1.05787 0.0530625 0.000883929 
5602 1 20.4787 4.37777 10.5959 -7.86617 -0.635017 0.0915702 0.956003 
11604 1 20.5084 1.48354 18.9809 -7.35152 0.130036 0.82109 -0.198224 
11643 1 20.4559 6.86334 13.4948 -7.64289 0.949875 0.462385 -0.543748 
11644 1 20.505 6.89318 18.9555 -7.80873 -0.612282 0.73899 -0.907413 
11603 1 20.5917 1.4866 13.5016 -8.07888 -0.0726527 0.101596 -0.875143 
4843 1 23.2215 6.85885 13.519 -7.11069 -0.288362 -0.326692 -0.163322 
843 2 21.7296 5.48745 12.0603 -25.3193 1.00195 1.13451 1.16968 
844 2 21.8336 5.5908 17.4624 -25.8614 -0.271806 -3.10021 1.07341 
1803 2 21.9079 2.83624 14.7551 -25.6841 -0.431782 0.955256 1.55387 
2843 3 24.5837 5.49933 14.7674 -29.4035 -0.510971 0.353931 0.198993 
3803 2 24.6538 2.84171 12.0981 -25.7488 -0.573938 1.23797 -0.774147 
3804 2 24.6323 2.92845 17.4908 -25.7156 -0.927352 -0.390317 0.0298235 
4803 1 23.3767 1.60498 13.4321 -7.77673 -1.62223 -1.43225 -0.0652363 
4804 1 23.2416 1.4322 18.8943 -7.23195 0.242006 0.853072 0.17462 
5802 1 25.8507 4.24188 10.7141 -7.15582 0.0068658 0.193884 -0.247934 
5803 1 25.9323 4.34843 16.0868 -7.41704 -0.188643 -0.316996 0.036968 
6803 1 26.0184 4.18446 13.3836 -7.36972 -1.22954 -0.12384 1.08922 
6804 1 25.8529 4.28179 18.8024 -7.73492 0.698339 -0.356788 0.262426 
7802 1 23.2322 1.60374 10.571 -7.54456 -0.339811 -0.784676 1.07483 
7803 1 23.2591 1.542 16.2101 -7.68383 -0.526895 -0.288898 -0.470785 
8802 1 25.8916 1.47276 10.7738 -7.73867 -0.375297 0.246633 -0.769926 
8803 1 25.9797 1.59873 16.2552 -7.80455 -0.120786 -0.706572 -0.727928 
9803 1 23.1625 4.17023 13.4531 -7.34195 0.368517 0.932372 -1.00517 
9804 1 23.1883 4.12008 18.7718 -7.37689 -0.618973 -0.337761 0.764889 
10802 1 23.1944 4.20822 10.7525 -7.32736 -0.473178 0.600137 0.270867 
10803 1 23.2636 4.17494 16.0292 -7.07038 0.513247 0.297623 0.652075 
11803 1 25.9381 1.5848 13.5095 -7.39015 0.854724 -1.44863 0.221602 
11804 1 26.0446 1.52422 18.8306 -7.3382 -0.738715 -0.162673 0.226553 
4844 1 23.2067 6.75426 18.7585 -7.27912 -0.734448 1.41326 0.90698 
7843 1 23.0987 6.80106 16.1858 -7.52275 0.311669 1.73986 -1.02023 
11843 1 25.8612 6.80893 13.4086 -7.57708 -0.25822 0.653629 0.203343 
2803 2 24.6281 0.272884 14.8873 -25.3072 0.0611033 -1.29465 -0.574925 
4044 1 1.38805 6.94115 18.893 -7.8067 0.629672 1.75733 0.721354 
8043 1 4.04305 7.03346 16.0738 -7.60985 0.760093 -1.24103 0.439094 
4244 1 6.8362 6.98616 18.8708 -7.07332 -0.286971 -0.373522 0.483217 
11043 1 4.21042 6.97884 13.4028 -7.8774 0.461546 -0.411816 -0.344109 
8042 1 4.19175 6.92946 10.7474 -7.63591 -0.552855 0.577682 -0.517619 
7243 1 6.82858 6.94803 16.2514 -7.23251 -0.739167 1.25274 -1.17635 
7242 1 6.81341 6.92149 10.7571 -7.66222 0.242994 -0.0395283 0.297754 
1283 3 5.64022 13.6526 14.8081 -29.4195 0.0244003 0.218222 -0.340889 
7043 1 1.35242 6.92282 16.1703 -7.47576 0.672867 0.452831 0.482853 
283 3 5.44398 11.086 12.1018 -29.5817 1.87125 -1.20857 0.068701 
284 2 5.62186 10.8892 17.4921 -25.2751 -0.0691231 1.40899 -0.102283 
1243 2 5.51667 8.30119 14.7473 -25.3166 0.678168 0.16638 -0.446722 
2083 2 2.85277 10.9941 14.8459 -25.1636 0.714222 -0.467409 0.0511149 
3043 2 2.83001 8.26658 12.0546 -25.407 0.666394 -0.205527 0.781135 
3044 2 2.78768 8.25914 17.499 -25.0546 -0.805324 0.114315 -0.150474 
4083 1 1.67816 12.1038 13.3588 -7.85955 -0.691482 1.21955 -0.0530513 
4084 1 1.50657 12.3766 18.9195 -7.38631 0.437348 0.960461 -1.17329 
5042 1 4.34358 9.72176 10.5926 -7.17202 -0.823155 -1.05337 0.40338 
5043 1 4.14977 9.5899 16.1601 -7.75364 0.663741 1.20059 -0.627114 
6043 1 4.22608 9.69829 13.3419 -7.78249 -0.852511 -0.296228 0.599647 
6044 1 4.25121 9.54511 18.768 -8.25709 -1.31115 0.418251 0.570441 
7082 1 1.49736 12.3576 10.6136 -7.76683 0.650914 -0.617082 -0.351733 
7083 1 1.5133 12.3746 16.1948 -7.59194 0.722974 -0.57224 -0.333511 
8082 1 4.23517 12.2038 10.8911 -7.51163 -0.907954 2.1404 -1.85559 
8083 1 4.37941 12.3806 16.1005 -7.64575 -0.772029 -0.943287 0.677426 
9043 1 1.33679 9.4111 13.4222 -7.22996 1.17975 1.6024 0.0115265 
9044 1 1.20469 9.80849 18.7954 -7.92812 1.44853 -1.84039 0.705882 
10042 1 1.64143 9.53238 10.6939 -7.85594 -0.137927 0.881626 -0.628376 
10043 1 1.47186 9.6653 16.1839 -7.67648 -0.390485 0.0758016 -0.154015 
11083 1 4.32878 12.3523 13.4559 -7.38237 -0.0906435 0.463093 0.785647 
11084 1 4.25794 12.3259 18.9002 -7.71198 -1.39272 -0.636068 -0.485322 
7282 1 6.86487 12.375 10.7203 -7.58751 0.69638 -0.495161 0.0765603 
4284 1 6.82303 12.2488 18.9373 -6.99909 0.769863 -0.0502168 -1.06229 
83 2 0.248085 10.8856 11.9772 -25.3997 -0.453269 0.359679 0.358541 
1083 2 0.198321 13.6442 14.7209 -25.4176 -0.0957519 -0.446002 0.611736 
11243 1 9.63245 6.9636 13.4637 -7.54543 0.806928 0.277219 -0.285414 
7442 1 12.2615 6.92567 10.6388 -7.86635 -0.661927 -0.06831 0.333512 
7443 1 12.2407 7.10289 16.2618 -7.77039 0.93491 -0.995296 -0.105256 
4283 1 7.01468 12.4117 13.419 -7.46583 -1.00412 -0.0215335 0.624612 
10243 1 6.93639 9.73269 15.9843 -7.98546 -0.642362 -1.18254 0.360567 
10242 1 6.97614 9.68076 10.754 -7.18197 -0.0402223 -0.0382523 -1.33127 
7283 1 7.09359 12.3022 16.2153 -7.50236 -1.13863 0.205097 -0.833112 
4443 1 12.3923 6.91444 13.463 -7.60645 -0.518649 1.57328 -0.279071 
4444 1 12.3649 6.9908 18.9489 -7.641 -0.0151747 -0.178976 0.490314 
8243 1 9.48867 7.00265 16.1991 -7.52967 1.33671 -0.325701 -0.588113 
9243 1 6.92844 9.72469 13.2604 -6.99709 -0.1557 -0.638827 1.37114 
9244 1 7.02349 9.5944 18.8719 -7.77519 -0.17058 0.30323 -0.423423 
11244 1 9.67249 7.08078 18.9002 -6.68653 -0.338639 -0.212879 -0.243532 
483 2 11.0336 10.9062 12.1405 -24.979 -0.432995 2.0922 -1.36252 
484 2 11.0471 11.0882 17.5943 -25.7771 -0.118192 -0.515949 0.0575632 
1443 2 11.0528 8.34783 14.8743 -25.2956 -0.713453 0.20553 -0.613562 
2283 2 8.37104 11.0309 14.7182 -25.831 -1.2384 0.976927 0.895565 
3243 2 8.29759 8.29596 11.9704 -25.5197 -1.04706 -0.170607 2.03916 
3244 2 8.22446 8.40571 17.366 -25.542 0.704893 -1.23569 2.1977 
4483 1 12.3631 12.434 13.6037 -7.72646 0.0353889 -0.132404 -0.596375 
4484 1 12.3074 12.3812 18.9317 -7.42528 -1.02542 -0.228301 0.480453 
5242 1 9.63459 9.58871 10.7445 -7.89625 1.26867 0.116866 -0.424574 
5243 1 9.66992 9.69311 16.1796 -7.47924 0.255443 -0.322287 0.232393 
6243 1 9.67013 9.79137 13.515 -7.75541 0.500134 -2.00058 -0.975309 
6244 1 9.83353 9.75708 18.9605 -7.28822 -1.48331 0.0616091 -0.175082 
7482 1 12.3516 12.3717 10.7832 -7.79863 0.45344 -0.950483 0.728957 
7483 1 12.3371 12.5183 16.2516 -7.48231 0.651573 -1.68261 -0.716206 
8282 1 9.60891 12.3757 10.7352 -7.85883 0.467117 -0.465437 0.982314 
8283 1 9.7459 12.2905 16.2048 -7.15907 -0.27603 0.955368 -0.167655 
9443 1 12.3446 9.72847 13.3883 -7.85376 0.439123 -1.10727 0.878129 
9444 1 12.3212 9.62172 19.0204 -7.19597 0.766855 0.708837 -0.370161 