LAMMPS data file via write_data, version 22 Dec 2022, timestep = 73

8 atoms
2 atom types

0.1539336791570375 5.2733947908429455 xlo xhi
0.13331047664792553 4.566893853052089 ylo yhi
0.12424123929890858 4.256203760701071 zlo zhi
-2.5597305558429713 0 0 xy xz yz

Masses

1 58.693
2 186.21

Atoms # atomic

1 2 0.15393367915218295 1.5891259608429884 1.157231869649452 0 0 0
6 2 1.4147068716894415 0.8612182187454328 3.223213130350532 0 0 0
2 2 -1.1450236841533603 3.8389861109539485 1.1572318696494517 0 0 0
7 1 0.1539336791519447 3.0890327275845584 3.2232131303505316 0 0 0
8 1 2.713664234995983 1.611171602115459 1.157231869649452 0 0 0
5 2 4.012621598302013 0.8612182187458387 3.2232131303505316 0 0 0
3 2 1.4528910424592105 3.838986110954816 1.1572318696494521 0 0 0
4 2 2.713664234996071 3.1110783688570294 3.2232131303505316 0 0 0

Velocities

1 0 0 0
6 0 0 0
2 0 0 0
7 0 0 0
8 0 0 0
5 0 0 0
3 0 0 0
4 0 0 0
