LAMMPS data file via write_data, version 22 Dec 2022, timestep = 4

2 atoms
2 atom types

6.704321772211135e-05 2.949932956782278 xlo xhi
6.704321772211135e-05 2.949932956782278 ylo yhi
6.704321772211135e-05 2.949932956782278 zlo zhi

Masses

1 58.693
2 186.21

Atoms # atomic

1 1 6.704321772211147e-05 6.704321772232902e-05 6.704321772232902e-05 0 0 0
2 2 1.4749999999999999 1.4749999999999999 1.4749999999999999 0 0 0

Velocities

1 0 0 0
2 0 0 0
