LAMMPS (22 Dec 2022)
  using 1 OpenMP thread(s) per MPI task
Loaded 1 plugins from C:\Program Files\LAMMPS 64-bit 23Jun2022\plugins
Loaded 0 plugins from C:\Program Files\LAMMPS 64-bit 23Jun2022-MPI\plugins
Loaded 1 plugins from C:\Program Files\LAMMPS 64-bit 22Dec2022-MSMPI\plugins
Loaded 1 plugins from C:\Program Files\LAMMPS 64-bit 28Mar2023-MPI\plugins
# Compute elastic constant tensor for a crystal
#
# Written by Aidan Thompson (Sandia, athomps@sandia.gov)
#
#  This script uses the following three include files.
#
#   init.mod      (must be modified for different crystal structures)
# 	       	  Define units, deformation parameters and initial
#		  configuration of the atoms and simulation cell.
#
#
#   potential.mod    (must be modified for different pair styles)
# 		     Define pair style and other attributes
#		     not stored in restart file
#
#
#   displace.mod    (displace.mod should not need to be modified)
# 		    Perform positive and negative box displacements
# 		    in direction ${dir} and size ${up}.
# 		    It uses the resultant changes
#		    in stress to compute one
# 		    row of the elastic stiffness tensor
#
#		    Inputs variables:
#		    	   dir = the Voigt deformation component
#		    		    (1,2,3,4,5,6)
#		    Global constants:
#       	    	   up = the deformation magnitude (strain units)
#       		   cfac = conversion from LAMMPS pressure units to
#               	   output units for elastic constants
#
#
#  To run this on a different system, it should only be necessary to
#  modify the files init.mod and potential.mod. In order to calculate
#  the elastic constants correctly, care must be taken to specify
#  the correct units in init.mod (units, cfac and cunits). It is also
#  important to verify that the minimization of energy w.r.t atom
#  positions in the deformed cell is fully converged.
#  One indication of this is that the elastic constants are insensitive
#  to the choice of the variable ${up} in init.mod. Another is to check
#  the final max and two-norm forces reported in the log file. If you know
#  that minimization is not required, you can set maxiter = 0.0 in
#  init.mod.
#

include init.mod
# NOTE: This script can be modified for different atomic structures,
# units, etc. See in.elastic for more info.
#

# Define the finite deformation size. Try several values of this
# variable to verify that results do not depend on it.
variable up equal 1.0e-6

# Define the amount of random jiggle for atoms
# This prevents atoms from staying on saddle points
variable atomjiggle equal 1.0e-5

# Uncomment one of these blocks, depending on what units
# you are using in LAMMPS and for output

# metal units, elastic constants in eV/A^3
#units		metal
#variable cfac equal 6.2414e-7
#variable cunits string eV/A^3

# metal units, elastic constants in GPa
units		metal
variable cfac equal 1.0e-4
variable cunits string GPa

# real units, elastic constants in GPa
#units		real
#variable cfac equal 1.01325e-4
#variable cunits string GPa

# Define minimization parameters
variable etol equal 0.0
variable ftol equal 1.0e-10
variable maxiter equal 1000
variable maxeval equal 100000
variable dmax equal 1.0e-2

# generate the box and atom positions using a diamond lattice

dimension    3
boundary     p p p
read_data    data.in
Reading data file ...
  orthogonal box = (6.7043218e-05 6.7043218e-05 6.7043218e-05) to (2.949933 2.949933 2.949933)
  1 by 2 by 2 MPI processor grid
  reading atoms ...
  2 atoms
  reading velocities ...
  2 velocities
  read_data CPU = 0.001 seconds
#replicate    2 3 4
replicate    2 3 4
Replication is creating a 2x3x4 = 24 times larger system...
  orthogonal box = (6.7043218e-05 6.7043218e-05 6.7043218e-05) to (5.8997989 8.8496648 11.799531)
  1 by 2 by 2 MPI processor grid
  48 atoms
  replicate CPU = 0.000 seconds
change_box   all triclinic
Changing box ...
  triclinic box = (6.7043218e-05 6.7043218e-05 6.7043218e-05) to (5.8997989 8.8496648 11.799531) with tilt (0 0 0)

# Need to set mass to something, just to satisfy LAMMPS
mass 1 1.0e-20

include potential.mod
# NOTE: This script can be modified for different pair styles
# See in.elastic for more info.

# Choose potential
#-----------------------
#pair_style	sw
#pair_coeff * * Si.sw Si
#-----------------------
#pair_style morse	2.83994742	# D0[eV] a[1/A] r0[A] rc[A], 1NN for BCC
#pair_coeff 1 1	2.1173	1.0202	2.4595	2.6497	#	Fe-Fe
#-----------------------
#pair_style smatb # R0(A)   p       q     A(eV)   xi(eV)  Rcs(A)   Rc(A), 4NN: Rcs=4NN, Rc=(4NN+5NN)/2
#pair_coeff 1 1	2.4802	7.0149	2.3779	0.3144	3.0551	4.033	4.176	#	Co	Co
#-----------------------
#pair_style eam/alloy
#pair_coeff * * AlCrFeCoNi_Zhou04.eam.alloy Fe
#-----------------------
pair_style meam
pair_coeff * * ./../../library.meam Ni Re ./../../NiRe.meam Ni Re
#-----------------------

# Setup neighbor style
neighbor 1.0 nsq
neigh_modify once no every 1 delay 0 check yes

# Setup minimization style
min_style	     cg
min_modify	     dmax ${dmax} line quadratic
min_modify	     dmax 0.01 line quadratic

# Setup output
thermo		1
thermo_style custom step temp pe press pxx pyy pzz pxy pxz pyz lx ly lz vol
thermo_modify norm no

# Compute initial state
fix 3 all box/relax  aniso 0.0
minimize ${etol} ${ftol} ${maxiter} ${maxeval}
minimize 0 ${ftol} ${maxiter} ${maxeval}
minimize 0 1e-10 ${maxiter} ${maxeval}
minimize 0 1e-10 1000 ${maxeval}
minimize 0 1e-10 1000 100000
Neighbor list info ...
  update: every = 1 steps, delay = 0 steps, check = yes
  max neighbors/atom: 2000, page size: 100000
  master list distance cutoff = 6.5
  ghost atom cutoff = 6.5
  2 neighbor lists, perpetual/occasional/extra = 2 0 0
  (1) pair meam, perpetual
      attributes: full, newton on
      pair build: full/nsq
      stencil: none
      bin: none
  (2) pair meam, perpetual, half/full from (1)
      attributes: half, newton on
      pair build: halffull/newton
      stencil: none
      bin: none
Per MPI rank memory allocation (min/avg/max) = 9.711 | 9.715 | 9.719 Mbytes
   Step          Temp          PotEng         Press           Pxx            Pyy            Pzz            Pxy            Pxz            Pyz             Lx             Ly             Lz           Volume    
         0   0             -295.75686      3.1753166e-10  4.3472703e-10  1.486274e-10   3.6924055e-10 -9.0771711e-12  1.6115137e-11 -6.1834844e-11  5.8997318      8.8495977      11.799464      616.05299    
         1   0             -295.75686     -1.064909e-10  -1.1234898e-10 -2.6617045e-10  5.9046727e-11  1.6746749e-11  1.2877673e-10 -1.0510931e-10  5.8997318      8.8495977      11.799464      616.05299    
Loop time of 0.000876 on 4 procs for 1 steps with 48 atoms

0.0% CPU use with 4 MPI tasks x 1 OpenMP threads

Minimization stats:
  Stopping criterion = force tolerance
  Energy initial, next-to-last, final = 
     -295.756864494575  -295.756864494575  -295.756864494575
  Force two-norm initial, final = 2.8213054e-13 2.1676617e-13
  Force max component initial, final = 1.6715692e-13 1.0234522e-13
  Final line search alpha, max atom move = 1 1.0234522e-13
  Iterations, force evaluations = 1 2

MPI task timing breakdown:
Section |  min time  |  avg time  |  max time  |%varavg| %total
---------------------------------------------------------------
Pair    | 0.00067    | 0.0007025  | 0.000736   |   0.0 | 80.19
Neigh   | 0          | 0          | 0          |   0.0 |  0.00
Comm    | 4.5e-05    | 7.8e-05    | 0.000109   |   0.0 |  8.90
Output  | 0          | 0          | 0          |   0.0 |  0.00
Modify  | 0          | 0          | 0          |   0.0 |  0.00
Other   |            | 9.55e-05   |            |       | 10.90

Nlocal:             12 ave          16 max           8 min
Histogram: 2 0 0 0 0 0 0 0 0 2
Nghost:            498 ave         502 max         494 min
Histogram: 2 0 0 0 0 0 0 0 0 2
Neighs:            528 ave         704 max         352 min
Histogram: 2 0 0 0 0 0 0 0 0 2
FullNghs:         1056 ave        1408 max         704 min
Histogram: 2 0 0 0 0 0 0 0 0 2

Total # of neighbors = 4224
Ave neighs/atom = 88
Neighbor list builds = 0
Dangerous builds = 0

variable tmp equal pxx
variable pxx0 equal ${tmp}
variable pxx0 equal -1.12348984310764e-10
variable tmp equal pyy
variable pyy0 equal ${tmp}
variable pyy0 equal -2.66170447329913e-10
variable tmp equal pzz
variable pzz0 equal ${tmp}
variable pzz0 equal 5.90467272560747e-11
variable tmp equal pyz
variable pyz0 equal ${tmp}
variable pyz0 equal -1.05109310178181e-10
variable tmp equal pxz
variable pxz0 equal ${tmp}
variable pxz0 equal 1.28776725458236e-10
variable tmp equal pxy
variable pxy0 equal ${tmp}
variable pxy0 equal 1.67467490506227e-11

variable tmp equal lx
variable lx0 equal ${tmp}
variable lx0 equal 5.89973182712911
variable tmp equal ly
variable ly0 equal ${tmp}
variable ly0 equal 8.84959774069367
variable tmp equal lz
variable lz0 equal ${tmp}
variable lz0 equal 11.7994636542582

# These formulas define the derivatives w.r.t. strain components
# Constants uses $, variables use v_
variable d1 equal -(v_pxx1-${pxx0})/(v_delta/v_len0)*${cfac}
variable d1 equal -(v_pxx1--1.12348984310764e-10)/(v_delta/v_len0)*${cfac}
variable d1 equal -(v_pxx1--1.12348984310764e-10)/(v_delta/v_len0)*0.0001
variable d2 equal -(v_pyy1-${pyy0})/(v_delta/v_len0)*${cfac}
variable d2 equal -(v_pyy1--2.66170447329913e-10)/(v_delta/v_len0)*${cfac}
variable d2 equal -(v_pyy1--2.66170447329913e-10)/(v_delta/v_len0)*0.0001
variable d3 equal -(v_pzz1-${pzz0})/(v_delta/v_len0)*${cfac}
variable d3 equal -(v_pzz1-5.90467272560747e-11)/(v_delta/v_len0)*${cfac}
variable d3 equal -(v_pzz1-5.90467272560747e-11)/(v_delta/v_len0)*0.0001
variable d4 equal -(v_pyz1-${pyz0})/(v_delta/v_len0)*${cfac}
variable d4 equal -(v_pyz1--1.05109310178181e-10)/(v_delta/v_len0)*${cfac}
variable d4 equal -(v_pyz1--1.05109310178181e-10)/(v_delta/v_len0)*0.0001
variable d5 equal -(v_pxz1-${pxz0})/(v_delta/v_len0)*${cfac}
variable d5 equal -(v_pxz1-1.28776725458236e-10)/(v_delta/v_len0)*${cfac}
variable d5 equal -(v_pxz1-1.28776725458236e-10)/(v_delta/v_len0)*0.0001
variable d6 equal -(v_pxy1-${pxy0})/(v_delta/v_len0)*${cfac}
variable d6 equal -(v_pxy1-1.67467490506227e-11)/(v_delta/v_len0)*${cfac}
variable d6 equal -(v_pxy1-1.67467490506227e-11)/(v_delta/v_len0)*0.0001

displace_atoms all random ${atomjiggle} ${atomjiggle} ${atomjiggle} 87287 units box
displace_atoms all random 1e-05 ${atomjiggle} ${atomjiggle} 87287 units box
displace_atoms all random 1e-05 1e-05 ${atomjiggle} 87287 units box
displace_atoms all random 1e-05 1e-05 1e-05 87287 units box
Displacing atoms ...

# Write restart
unfix 3
write_restart restart.equil
System init for write_restart ...

# uxx Perturbation

variable dir equal 1
include displace.mod
# NOTE: This script should not need to be
# modified. See in.elastic for more info.
#
# Find which reference length to use

if "${dir} == 1" then    "variable len0 equal ${lx0}"
variable len0 equal ${lx0}
variable len0 equal 5.89973182712911
if "${dir} == 2" then    "variable len0 equal ${ly0}"
if "${dir} == 3" then    "variable len0 equal ${lz0}"
if "${dir} == 4" then    "variable len0 equal ${lz0}"
if "${dir} == 5" then    "variable len0 equal ${lz0}"
if "${dir} == 6" then    "variable len0 equal ${ly0}"

# Reset box and simulation parameters

clear
  using 1 OpenMP thread(s) per MPI task
Loaded 1 plugins from C:\Program Files\LAMMPS 64-bit 23Jun2022\plugins
Loaded 0 plugins from C:\Program Files\LAMMPS 64-bit 23Jun2022-MPI\plugins
Loaded 1 plugins from C:\Program Files\LAMMPS 64-bit 22Dec2022-MSMPI\plugins
Loaded 1 plugins from C:\Program Files\LAMMPS 64-bit 28Mar2023-MPI\plugins
box tilt large

The 'box' command has been removed and will be ignored

read_restart restart.equil
Reading restart file ...
  restart file = 22 Dec 2022, LAMMPS = 22 Dec 2022
  restoring atom style atomic from restart
  triclinic box = (6.7043218e-05 6.7043218e-05 6.7043218e-05) to (5.8997989 8.8496648 11.799531) with tilt (0 0 0)
  1 by 2 by 2 MPI processor grid
  pair style meam stores no restart info
  48 atoms
  read_restart CPU = 0.000 seconds
include potential.mod
# NOTE: This script can be modified for different pair styles
# See in.elastic for more info.

# Choose potential
#-----------------------
#pair_style	sw
#pair_coeff * * Si.sw Si
#-----------------------
#pair_style morse	2.83994742	# D0[eV] a[1/A] r0[A] rc[A], 1NN for BCC
#pair_coeff 1 1	2.1173	1.0202	2.4595	2.6497	#	Fe-Fe
#-----------------------
#pair_style smatb # R0(A)   p       q     A(eV)   xi(eV)  Rcs(A)   Rc(A), 4NN: Rcs=4NN, Rc=(4NN+5NN)/2
#pair_coeff 1 1	2.4802	7.0149	2.3779	0.3144	3.0551	4.033	4.176	#	Co	Co
#-----------------------
#pair_style eam/alloy
#pair_coeff * * AlCrFeCoNi_Zhou04.eam.alloy Fe
#-----------------------
pair_style meam
pair_coeff * * ./../../library.meam Ni Re ./../../NiRe.meam Ni Re
#-----------------------

# Setup neighbor style
neighbor 1.0 nsq
neigh_modify once no every 1 delay 0 check yes

# Setup minimization style
min_style	     cg
min_modify	     dmax ${dmax} line quadratic
min_modify	     dmax 0.01 line quadratic

# Setup output
thermo		1
thermo_style custom step temp pe press pxx pyy pzz pxy pxz pyz lx ly lz vol
thermo_modify norm no

# Negative deformation

variable delta equal -${up}*${len0}
variable delta equal -1e-06*${len0}
variable delta equal -1e-06*5.89973182712911
variable deltaxy equal -${up}*xy
variable deltaxy equal -1e-06*xy
variable deltaxz equal -${up}*xz
variable deltaxz equal -1e-06*xz
variable deltayz equal -${up}*yz
variable deltayz equal -1e-06*yz
if "${dir} == 1" then    "change_box all x delta 0 ${delta} xy delta ${deltaxy} xz delta ${deltaxz} remap units box"
change_box all x delta 0 ${delta} xy delta ${deltaxy} xz delta ${deltaxz} remap units box
change_box all x delta 0 -5.89973182712911e-06 xy delta ${deltaxy} xz delta ${deltaxz} remap units box
change_box all x delta 0 -5.89973182712911e-06 xy delta -0 xz delta ${deltaxz} remap units box
change_box all x delta 0 -5.89973182712911e-06 xy delta -0 xz delta -0 remap units box
Changing box ...
  triclinic box = (6.7043218e-05 6.7043218e-05 6.7043218e-05) to (5.899793 8.8496648 11.799531) with tilt (0 0 0)
  triclinic box = (6.7043218e-05 6.7043218e-05 6.7043218e-05) to (5.899793 8.8496648 11.799531) with tilt (0 0 0)
  triclinic box = (6.7043218e-05 6.7043218e-05 6.7043218e-05) to (5.899793 8.8496648 11.799531) with tilt (0 0 0)
if "${dir} == 2" then    "change_box all y delta 0 ${delta} yz delta ${deltayz} remap units box"
if "${dir} == 3" then    "change_box all z delta 0 ${delta} remap units box"
if "${dir} == 4" then    "change_box all yz delta ${delta} remap units box"
if "${dir} == 5" then    "change_box all xz delta ${delta} remap units box"
if "${dir} == 6" then    "change_box all xy delta ${delta} remap units box"

# Relax atoms positions

minimize ${etol} ${ftol} ${maxiter} ${maxeval}
minimize 0 ${ftol} ${maxiter} ${maxeval}
minimize 0 1e-10 ${maxiter} ${maxeval}
minimize 0 1e-10 1000 ${maxeval}
minimize 0 1e-10 1000 100000
Neighbor list info ...
  update: every = 1 steps, delay = 0 steps, check = yes
  max neighbors/atom: 2000, page size: 100000
  master list distance cutoff = 6.5
  ghost atom cutoff = 6.5
  2 neighbor lists, perpetual/occasional/extra = 2 0 0
  (1) pair meam, perpetual
      attributes: full, newton on
      pair build: full/nsq
      stencil: none
      bin: none
  (2) pair meam, perpetual, half/full from (1)
      attributes: half, newton on
      pair build: halffull/newton
      stencil: none
      bin: none
Per MPI rank memory allocation (min/avg/max) = 9.713 | 9.715 | 9.717 Mbytes
   Step          Temp          PotEng         Press           Pxx            Pyy            Pzz            Pxy            Pxz            Pyz             Lx             Ly             Lz           Volume    
         1   0             -295.75686      2.9233395      4.7438414      2.0130364      2.0131407     -2.0952814e-05  1.8335417e-05 -5.0842244e-05  5.8997259      8.8495977      11.799464      616.05237    
         2   0             -295.75686      2.9231957      4.7435839      2.0130046      2.0129987     -7.0350067e-06  1.1467531e-05 -2.4024194e-06  5.8997259      8.8495977      11.799464      616.05237    
         3   0             -295.75686      2.9231943      4.7435716      2.013004       2.0130074      2.7964976e-07 -3.1867848e-07 -1.5151364e-06  5.8997259      8.8495977      11.799464      616.05237    
         4   0             -295.75686      2.9231962      4.7435745      2.0130068      2.0130072      1.3549545e-07  4.5964136e-07 -5.8609975e-07  5.8997259      8.8495977      11.799464      616.05237    
         5   0             -295.75686      2.923196       4.7435755      2.0130059      2.0130065      1.2024309e-07 -1.2701569e-07 -8.3343436e-08  5.8997259      8.8495977      11.799464      616.05237    
         6   0             -295.75686      2.923196       4.7435758      2.013006       2.0130061      1.859991e-08   1.4270435e-08 -4.2878719e-09  5.8997259      8.8495977      11.799464      616.05237    
         7   0             -295.75686      2.9231959      4.7435758      2.013006       2.013006       3.0130424e-09 -2.0339018e-09 -6.5246922e-10  5.8997259      8.8495977      11.799464      616.05237    
         8   0             -295.75686      2.9231959      4.7435758      2.013006       2.013006       5.9235521e-10 -1.6463774e-10 -6.0246201e-10  5.8997259      8.8495977      11.799464      616.05237    
         9   0             -295.75686      2.9231959      4.7435758      2.013006       2.013006       1.3121761e-10  3.4660982e-10  5.5275423e-11  5.8997259      8.8495977      11.799464      616.05237    
        10   0             -295.75686      2.9231959      4.7435758      2.013006       2.013006      -2.6762277e-11  1.1342795e-10 -6.5638204e-11  5.8997259      8.8495977      11.799464      616.05237    
        11   0             -295.75686      2.9231959      4.7435758      2.013006       2.013006       2.705405e-11   1.2175414e-10  2.6209673e-12  5.8997259      8.8495977      11.799464      616.05237    
        12   0             -295.75686      2.9231959      4.7435758      2.013006       2.013006      -6.2930421e-11  4.2961952e-11  1.0445148e-10  5.8997259      8.8495977      11.799464      616.05237    
        13   0             -295.75686      2.9231959      4.7435758      2.013006       2.013006      -9.3573081e-12  3.3594968e-11  2.1633961e-11  5.8997259      8.8495977      11.799464      616.05237    
        14   0             -295.75686      2.9231959      4.7435758      2.013006       2.013006       1.9843887e-11  3.0054061e-11  6.0826947e-11  5.8997259      8.8495977      11.799464      616.05237    
        15   0             -295.75686      2.9231959      4.7435758      2.013006       2.013006      -3.485038e-12  -5.1960045e-11 -7.796823e-12   5.8997259      8.8495977      11.799464      616.05237    
        16   0             -295.75686      2.9231959      4.7435758      2.013006       2.013006       4.0634974e-11  2.9797376e-11  8.9600672e-11  5.8997259      8.8495977      11.799464      616.05237    
        17   0             -295.75686      2.9231959      4.7435758      2.013006       2.013006      -1.4313667e-11 -3.3692435e-11 -1.3605506e-10  5.8997259      8.8495977      11.799464      616.05237    
        18   0             -295.75686      2.9231959      4.7435758      2.013006       2.013006      -4.3768273e-11 -5.3627032e-11 -3.6929204e-11  5.8997259      8.8495977      11.799464      616.05237    
        19   0             -295.75686      2.9231959      4.7435758      2.013006       2.013006       6.1416902e-11 -7.4344747e-11 -4.1449555e-11  5.8997259      8.8495977      11.799464      616.05237    
        20   0             -295.75686      2.9231959      4.7435758      2.013006       2.013006      -6.3883937e-11 -1.2054836e-11 -4.8268133e-11  5.8997259      8.8495977      11.799464      616.05237    
        21   0             -295.75686      2.9231959      4.7435758      2.013006       2.013006       2.4048825e-11  7.1138019e-11  5.4029201e-11  5.8997259      8.8495977      11.799464      616.05237    
Loop time of 0.00918575 on 4 procs for 20 steps with 48 atoms

0.0% CPU use with 4 MPI tasks x 1 OpenMP threads

Minimization stats:
  Stopping criterion = force tolerance
  Energy initial, next-to-last, final = 
     -295.756864445262  -295.756864493663  -295.756864493663
  Force two-norm initial, final = 0.0016893211 8.8486695e-11
  Force max component initial, final = 0.00038679427 1.6662186e-11
  Final line search alpha, max atom move = 1 1.6662186e-11
  Iterations, force evaluations = 20 40

MPI task timing breakdown:
Section |  min time  |  avg time  |  max time  |%varavg| %total
---------------------------------------------------------------
Pair    | 0.007736   | 0.0080273  | 0.008266   |   0.2 | 87.39
Neigh   | 0          | 0          | 0          |   0.0 |  0.00
Comm    | 0.000506   | 0.00074375 | 0.001034   |   0.0 |  8.10
Output  | 0.000199   | 0.00021    | 0.000237   |   0.0 |  2.29
Modify  | 0          | 0          | 0          |   0.0 |  0.00
Other   |            | 0.0002047  |            |       |  2.23

Nlocal:             12 ave          14 max          10 min
Histogram: 1 0 1 0 0 0 0 1 0 1
Nghost:            498 ave         500 max         496 min
Histogram: 1 0 1 0 0 0 0 1 0 1
Neighs:            528 ave         614 max         442 min
Histogram: 1 0 1 0 0 0 0 1 0 1
FullNghs:         1056 ave        1232 max         880 min
Histogram: 1 0 1 0 0 0 0 1 0 1

Total # of neighbors = 4224
Ave neighs/atom = 88
Neighbor list builds = 0
Dangerous builds = 0

# Obtain new stress tensor

variable tmp equal pxx
variable pxx1 equal ${tmp}
variable pxx1 equal 4.74357577579245
variable tmp equal pyy
variable pyy1 equal ${tmp}
variable pyy1 equal 2.01300600913902
variable tmp equal pzz
variable pzz1 equal ${tmp}
variable pzz1 equal 2.01300600937982
variable tmp equal pxy
variable pxy1 equal ${tmp}
variable pxy1 equal 2.40488246907519e-11
variable tmp equal pxz
variable pxz1 equal ${tmp}
variable pxz1 equal 7.11380189609694e-11
variable tmp equal pyz
variable pyz1 equal ${tmp}
variable pyz1 equal 5.40292006809587e-11

# Compute elastic constant from pressure tensor

variable C1neg equal ${d1}
variable C1neg equal 474.35757759048
variable C2neg equal ${d2}
variable C2neg equal 201.300600940519
variable C3neg equal ${d3}
variable C3neg equal 201.300600932077
variable C4neg equal ${d4}
variable C4neg equal 1.5913851085914e-08
variable C5neg equal ${d5}
variable C5neg equal -5.76387064972666e-09
variable C6neg equal ${d6}
variable C6neg equal 7.3020756401292e-10

# Reset box and simulation parameters

clear
  using 1 OpenMP thread(s) per MPI task
Loaded 1 plugins from C:\Program Files\LAMMPS 64-bit 23Jun2022\plugins
Loaded 0 plugins from C:\Program Files\LAMMPS 64-bit 23Jun2022-MPI\plugins
Loaded 1 plugins from C:\Program Files\LAMMPS 64-bit 22Dec2022-MSMPI\plugins
Loaded 1 plugins from C:\Program Files\LAMMPS 64-bit 28Mar2023-MPI\plugins
box tilt large

The 'box' command has been removed and will be ignored

read_restart restart.equil
Reading restart file ...
  restart file = 22 Dec 2022, LAMMPS = 22 Dec 2022
  restoring atom style atomic from restart
  triclinic box = (6.7043218e-05 6.7043218e-05 6.7043218e-05) to (5.8997989 8.8496648 11.799531) with tilt (0 0 0)
  1 by 2 by 2 MPI processor grid
  pair style meam stores no restart info
  48 atoms
  read_restart CPU = 0.000 seconds
include potential.mod
# NOTE: This script can be modified for different pair styles
# See in.elastic for more info.

# Choose potential
#-----------------------
#pair_style	sw
#pair_coeff * * Si.sw Si
#-----------------------
#pair_style morse	2.83994742	# D0[eV] a[1/A] r0[A] rc[A], 1NN for BCC
#pair_coeff 1 1	2.1173	1.0202	2.4595	2.6497	#	Fe-Fe
#-----------------------
#pair_style smatb # R0(A)   p       q     A(eV)   xi(eV)  Rcs(A)   Rc(A), 4NN: Rcs=4NN, Rc=(4NN+5NN)/2
#pair_coeff 1 1	2.4802	7.0149	2.3779	0.3144	3.0551	4.033	4.176	#	Co	Co
#-----------------------
#pair_style eam/alloy
#pair_coeff * * AlCrFeCoNi_Zhou04.eam.alloy Fe
#-----------------------
pair_style meam
pair_coeff * * ./../../library.meam Ni Re ./../../NiRe.meam Ni Re
#-----------------------

# Setup neighbor style
neighbor 1.0 nsq
neigh_modify once no every 1 delay 0 check yes

# Setup minimization style
min_style	     cg
min_modify	     dmax ${dmax} line quadratic
min_modify	     dmax 0.01 line quadratic

# Setup output
thermo		1
thermo_style custom step temp pe press pxx pyy pzz pxy pxz pyz lx ly lz vol
thermo_modify norm no

# Positive deformation

variable delta equal ${up}*${len0}
variable delta equal 1e-06*${len0}
variable delta equal 1e-06*5.89973182712911
variable deltaxy equal ${up}*xy
variable deltaxy equal 1e-06*xy
variable deltaxz equal ${up}*xz
variable deltaxz equal 1e-06*xz
variable deltayz equal ${up}*yz
variable deltayz equal 1e-06*yz
if "${dir} == 1" then    "change_box all x delta 0 ${delta} xy delta ${deltaxy} xz delta ${deltaxz} remap units box"
change_box all x delta 0 ${delta} xy delta ${deltaxy} xz delta ${deltaxz} remap units box
change_box all x delta 0 5.89973182712911e-06 xy delta ${deltaxy} xz delta ${deltaxz} remap units box
change_box all x delta 0 5.89973182712911e-06 xy delta 0 xz delta ${deltaxz} remap units box
change_box all x delta 0 5.89973182712911e-06 xy delta 0 xz delta 0 remap units box
Changing box ...
  triclinic box = (6.7043218e-05 6.7043218e-05 6.7043218e-05) to (5.8998048 8.8496648 11.799531) with tilt (0 0 0)
  triclinic box = (6.7043218e-05 6.7043218e-05 6.7043218e-05) to (5.8998048 8.8496648 11.799531) with tilt (0 0 0)
  triclinic box = (6.7043218e-05 6.7043218e-05 6.7043218e-05) to (5.8998048 8.8496648 11.799531) with tilt (0 0 0)
if "${dir} == 2" then    "change_box all y delta 0 ${delta} yz delta ${deltayz} remap units box"
if "${dir} == 3" then    "change_box all z delta 0 ${delta} remap units box"
if "${dir} == 4" then    "change_box all yz delta ${delta} remap units box"
if "${dir} == 5" then    "change_box all xz delta ${delta} remap units box"
if "${dir} == 6" then    "change_box all xy delta ${delta} remap units box"

# Relax atoms positions

minimize ${etol} ${ftol} ${maxiter} ${maxeval}
minimize 0 ${ftol} ${maxiter} ${maxeval}
minimize 0 1e-10 ${maxiter} ${maxeval}
minimize 0 1e-10 1000 ${maxeval}
minimize 0 1e-10 1000 100000
Neighbor list info ...
  update: every = 1 steps, delay = 0 steps, check = yes
  max neighbors/atom: 2000, page size: 100000
  master list distance cutoff = 6.5
  ghost atom cutoff = 6.5
  2 neighbor lists, perpetual/occasional/extra = 2 0 0
  (1) pair meam, perpetual
      attributes: full, newton on
      pair build: full/nsq
      stencil: none
      bin: none
  (2) pair meam, perpetual, half/full from (1)
      attributes: half, newton on
      pair build: halffull/newton
      stencil: none
      bin: none
Per MPI rank memory allocation (min/avg/max) = 9.713 | 9.715 | 9.717 Mbytes
   Step          Temp          PotEng         Press           Pxx            Pyy            Pzz            Pxy            Pxz            Pyz             Lx             Ly             Lz           Volume    
         1   0             -295.75686     -2.9230412     -4.7432717     -2.0129782     -2.0128738     -2.0951823e-05  1.8336146e-05 -5.0843952e-05  5.8997377      8.8495977      11.799464      616.0536     
         2   0             -295.75686     -2.923185      -4.7435291     -2.01301       -2.0130159     -7.0350343e-06  1.146725e-05  -2.4030292e-06  5.8997377      8.8495977      11.799464      616.0536     
         3   0             -295.75686     -2.9231864     -4.7435415     -2.0130106     -2.0130072      2.7969597e-07 -3.1870888e-07 -1.5150529e-06  5.8997377      8.8495977      11.799464      616.0536     
         4   0             -295.75686     -2.9231846     -4.7435386     -2.0130078     -2.0130073      1.3558429e-07  4.596337e-07  -5.85897e-07    5.8997377      8.8495977      11.799464      616.0536     
         5   0             -295.75686     -2.9231848     -4.7435376     -2.0130087     -2.013008       1.2035336e-07 -1.2697589e-07 -8.3338257e-08  5.8997377      8.8495977      11.799464      616.0536     
         6   0             -295.75686     -2.9231848     -4.7435373     -2.0130085     -2.0130085      1.8651246e-08  1.4277292e-08 -4.3073031e-09  5.8997377      8.8495977      11.799464      616.0536     
         7   0             -295.75686     -2.9231848     -4.7435373     -2.0130085     -2.0130085      3.0051806e-09 -2.0099708e-09 -7.2570975e-10  5.8997377      8.8495977      11.799464      616.0536     
         8   0             -295.75686     -2.9231848     -4.7435373     -2.0130085     -2.0130085      6.0254001e-10 -1.9916714e-10 -7.744242e-10   5.8997377      8.8495977      11.799464      616.0536     
         9   0             -295.75686     -2.9231848     -4.7435373     -2.0130085     -2.0130085      7.3723455e-11  4.8456208e-10  3.0980344e-12  5.8997377      8.8495977      11.799464      616.0536     
        10   0             -295.75686     -2.9231848     -4.7435373     -2.0130086     -2.0130085      7.3318638e-11 -4.4899704e-12  4.9262721e-11  5.8997377      8.8495977      11.799464      616.0536     
        11   0             -295.75686     -2.9231848     -4.7435373     -2.0130085     -2.0130085      5.7560233e-11  1.8558485e-11  6.6875998e-11  5.8997377      8.8495977      11.799464      616.0536     
        12   0             -295.75686     -2.9231848     -4.7435373     -2.0130085     -2.0130085      2.226587e-11   7.2344432e-12 -8.6131092e-12  5.8997377      8.8495977      11.799464      616.0536     
        13   0             -295.75686     -2.9231848     -4.7435373     -2.0130085     -2.0130085     -2.5473343e-11 -1.1543095e-10  5.7408588e-11  5.8997377      8.8495977      11.799464      616.0536     
        14   0             -295.75686     -2.9231848     -4.7435373     -2.0130085     -2.0130085     -4.0622126e-11 -6.0853007e-12  7.1818286e-11  5.8997377      8.8495977      11.799464      616.0536     
        15   0             -295.75686     -2.9231848     -4.7435373     -2.0130085     -2.0130085      2.6407459e-12  2.045642e-11  -5.9745504e-11  5.8997377      8.8495977      11.799464      616.0536     
        16   0             -295.75686     -2.9231848     -4.7435373     -2.0130086     -2.0130085      6.6038341e-12  8.5002037e-11 -4.7014443e-12  5.8997377      8.8495977      11.799464      616.0536     
        17   0             -295.75686     -2.9231848     -4.7435373     -2.0130085     -2.0130085      6.3526365e-11  1.1400338e-10  7.180743e-11   5.8997377      8.8495977      11.799464      616.0536     
        18   0             -295.75686     -2.9231848     -4.7435373     -2.0130085     -2.0130085      1.1454664e-11  6.4544548e-11  2.6707138e-11  5.8997377      8.8495977      11.799464      616.0536     
        19   0             -295.75686     -2.9231848     -4.7435373     -2.0130085     -2.0130085     -4.0574668e-11  4.3843169e-11 -5.0734856e-11  5.8997377      8.8495977      11.799464      616.0536     
        20   0             -295.75686     -2.9231848     -4.7435373     -2.0130085     -2.0130085     -5.3283774e-11 -5.1358706e-13  1.1870781e-12  5.8997377      8.8495977      11.799464      616.0536     
        21   0             -295.75686     -2.9231848     -4.7435373     -2.0130086     -2.0130085     -8.9163961e-12 -9.6891211e-12  3.0892417e-11  5.8997377      8.8495977      11.799464      616.0536     
Loop time of 0.00915 on 4 procs for 20 steps with 48 atoms

0.0% CPU use with 4 MPI tasks x 1 OpenMP threads

Minimization stats:
  Stopping criterion = force tolerance
  Energy initial, next-to-last, final = 
     -295.756864445262  -295.756864493663  -295.756864493663
  Force two-norm initial, final = 0.0016893126 8.8474006e-11
  Force max component initial, final = 0.00038679351 1.6630558e-11
  Final line search alpha, max atom move = 1 1.6630558e-11
  Iterations, force evaluations = 20 40

MPI task timing breakdown:
Section |  min time  |  avg time  |  max time  |%varavg| %total
---------------------------------------------------------------
Pair    | 0.00775    | 0.0080575  | 0.008361   |   0.3 | 88.06
Neigh   | 0          | 0          | 0          |   0.0 |  0.00
Comm    | 0.000398   | 0.00069825 | 0.001004   |   0.0 |  7.63
Output  | 0.000178   | 0.00018775 | 0.000215   |   0.0 |  2.05
Modify  | 0          | 0          | 0          |   0.0 |  0.00
Other   |            | 0.0002065  |            |       |  2.26

Nlocal:             12 ave          14 max          10 min
Histogram: 1 0 1 0 0 0 0 1 0 1
Nghost:            498 ave         500 max         496 min
Histogram: 1 0 1 0 0 0 0 1 0 1
Neighs:            528 ave         614 max         442 min
Histogram: 1 0 1 0 0 0 0 1 0 1
FullNghs:         1056 ave        1232 max         880 min
Histogram: 1 0 1 0 0 0 0 1 0 1

Total # of neighbors = 4224
Ave neighs/atom = 88
Neighbor list builds = 0
Dangerous builds = 0

# Obtain new stress tensor

variable tmp equal pe
variable e1 equal ${tmp}
variable e1 equal -295.756864493663
variable tmp equal press
variable p1 equal ${tmp}
variable p1 equal -2.92318480458771
variable tmp equal pxx
variable pxx1 equal ${tmp}
variable pxx1 equal -4.74353731400968
variable tmp equal pyy
variable pyy1 equal ${tmp}
variable pyy1 equal -2.01300855003164
variable tmp equal pzz
variable pzz1 equal ${tmp}
variable pzz1 equal -2.01300854972182
variable tmp equal pxy
variable pxy1 equal ${tmp}
variable pxy1 equal -8.91639606624721e-12
variable tmp equal pxz
variable pxz1 equal ${tmp}
variable pxz1 equal -9.68912114752053e-12
variable tmp equal pyz
variable pyz1 equal ${tmp}
variable pyz1 equal 3.08924170286629e-11

# Compute elastic constant from pressure tensor

variable C1pos equal ${d1}
variable C1pos equal 474.353731389733
variable C2pos equal ${d2}
variable C2pos equal 201.300854976547
variable C3pos equal ${d3}
variable C3pos equal 201.300854978087
variable C4pos equal ${d4}
variable C4pos equal -1.36001727206844e-08
variable C5pos equal ${d5}
variable C5pos equal 1.38465846605757e-08
variable C6pos equal ${d6}
variable C6pos equal 2.56631451168699e-09

# Combine positive and negative

variable C1${dir} equal 0.5*(${C1neg}+${C1pos})
variable C11 equal 0.5*(${C1neg}+${C1pos})
variable C11 equal 0.5*(474.35757759048+${C1pos})
variable C11 equal 0.5*(474.35757759048+474.353731389733)
variable C2${dir} equal 0.5*(${C2neg}+${C2pos})
variable C21 equal 0.5*(${C2neg}+${C2pos})
variable C21 equal 0.5*(201.300600940519+${C2pos})
variable C21 equal 0.5*(201.300600940519+201.300854976547)
variable C3${dir} equal 0.5*(${C3neg}+${C3pos})
variable C31 equal 0.5*(${C3neg}+${C3pos})
variable C31 equal 0.5*(201.300600932077+${C3pos})
variable C31 equal 0.5*(201.300600932077+201.300854978087)
variable C4${dir} equal 0.5*(${C4neg}+${C4pos})
variable C41 equal 0.5*(${C4neg}+${C4pos})
variable C41 equal 0.5*(1.5913851085914e-08+${C4pos})
variable C41 equal 0.5*(1.5913851085914e-08+-1.36001727206844e-08)
variable C5${dir} equal 0.5*(${C5neg}+${C5pos})
variable C51 equal 0.5*(${C5neg}+${C5pos})
variable C51 equal 0.5*(-5.76387064972666e-09+${C5pos})
variable C51 equal 0.5*(-5.76387064972666e-09+1.38465846605757e-08)
variable C6${dir} equal 0.5*(${C6neg}+${C6pos})
variable C61 equal 0.5*(${C6neg}+${C6pos})
variable C61 equal 0.5*(7.3020756401292e-10+${C6pos})
variable C61 equal 0.5*(7.3020756401292e-10+2.56631451168699e-09)

# Delete dir to make sure it is not reused

variable dir delete

# uyy Perturbation

variable dir equal 2
include displace.mod
# NOTE: This script should not need to be
# modified. See in.elastic for more info.
#
# Find which reference length to use

if "${dir} == 1" then    "variable len0 equal ${lx0}"
if "${dir} == 2" then    "variable len0 equal ${ly0}"
variable len0 equal ${ly0}
variable len0 equal 8.84959774069367
if "${dir} == 3" then    "variable len0 equal ${lz0}"
if "${dir} == 4" then    "variable len0 equal ${lz0}"
if "${dir} == 5" then    "variable len0 equal ${lz0}"
if "${dir} == 6" then    "variable len0 equal ${ly0}"

# Reset box and simulation parameters

clear
  using 1 OpenMP thread(s) per MPI task
Loaded 1 plugins from C:\Program Files\LAMMPS 64-bit 23Jun2022\plugins
Loaded 0 plugins from C:\Program Files\LAMMPS 64-bit 23Jun2022-MPI\plugins
Loaded 1 plugins from C:\Program Files\LAMMPS 64-bit 22Dec2022-MSMPI\plugins
Loaded 1 plugins from C:\Program Files\LAMMPS 64-bit 28Mar2023-MPI\plugins
box tilt large

The 'box' command has been removed and will be ignored

read_restart restart.equil
Reading restart file ...
  restart file = 22 Dec 2022, LAMMPS = 22 Dec 2022
  restoring atom style atomic from restart
  triclinic box = (6.7043218e-05 6.7043218e-05 6.7043218e-05) to (5.8997989 8.8496648 11.799531) with tilt (0 0 0)
  1 by 2 by 2 MPI processor grid
  pair style meam stores no restart info
  48 atoms
  read_restart CPU = 0.000 seconds
include potential.mod
# NOTE: This script can be modified for different pair styles
# See in.elastic for more info.

# Choose potential
#-----------------------
#pair_style	sw
#pair_coeff * * Si.sw Si
#-----------------------
#pair_style morse	2.83994742	# D0[eV] a[1/A] r0[A] rc[A], 1NN for BCC
#pair_coeff 1 1	2.1173	1.0202	2.4595	2.6497	#	Fe-Fe
#-----------------------
#pair_style smatb # R0(A)   p       q     A(eV)   xi(eV)  Rcs(A)   Rc(A), 4NN: Rcs=4NN, Rc=(4NN+5NN)/2
#pair_coeff 1 1	2.4802	7.0149	2.3779	0.3144	3.0551	4.033	4.176	#	Co	Co
#-----------------------
#pair_style eam/alloy
#pair_coeff * * AlCrFeCoNi_Zhou04.eam.alloy Fe
#-----------------------
pair_style meam
pair_coeff * * ./../../library.meam Ni Re ./../../NiRe.meam Ni Re
#-----------------------

# Setup neighbor style
neighbor 1.0 nsq
neigh_modify once no every 1 delay 0 check yes

# Setup minimization style
min_style	     cg
min_modify	     dmax ${dmax} line quadratic
min_modify	     dmax 0.01 line quadratic

# Setup output
thermo		1
thermo_style custom step temp pe press pxx pyy pzz pxy pxz pyz lx ly lz vol
thermo_modify norm no

# Negative deformation

variable delta equal -${up}*${len0}
variable delta equal -1e-06*${len0}
variable delta equal -1e-06*8.84959774069367
variable deltaxy equal -${up}*xy
variable deltaxy equal -1e-06*xy
variable deltaxz equal -${up}*xz
variable deltaxz equal -1e-06*xz
variable deltayz equal -${up}*yz
variable deltayz equal -1e-06*yz
if "${dir} == 1" then    "change_box all x delta 0 ${delta} xy delta ${deltaxy} xz delta ${deltaxz} remap units box"
if "${dir} == 2" then    "change_box all y delta 0 ${delta} yz delta ${deltayz} remap units box"
change_box all y delta 0 ${delta} yz delta ${deltayz} remap units box
change_box all y delta 0 -8.84959774069367e-06 yz delta ${deltayz} remap units box
change_box all y delta 0 -8.84959774069367e-06 yz delta -0 remap units box
Changing box ...
  triclinic box = (6.7043218e-05 6.7043218e-05 6.7043218e-05) to (5.8997989 8.8496559 11.799531) with tilt (0 0 0)
  triclinic box = (6.7043218e-05 6.7043218e-05 6.7043218e-05) to (5.8997989 8.8496559 11.799531) with tilt (0 0 0)
if "${dir} == 3" then    "change_box all z delta 0 ${delta} remap units box"
if "${dir} == 4" then    "change_box all yz delta ${delta} remap units box"
if "${dir} == 5" then    "change_box all xz delta ${delta} remap units box"
if "${dir} == 6" then    "change_box all xy delta ${delta} remap units box"

# Relax atoms positions

minimize ${etol} ${ftol} ${maxiter} ${maxeval}
minimize 0 ${ftol} ${maxiter} ${maxeval}
minimize 0 1e-10 ${maxiter} ${maxeval}
minimize 0 1e-10 1000 ${maxeval}
minimize 0 1e-10 1000 100000
Neighbor list info ...
  update: every = 1 steps, delay = 0 steps, check = yes
  max neighbors/atom: 2000, page size: 100000
  master list distance cutoff = 6.5
  ghost atom cutoff = 6.5
  2 neighbor lists, perpetual/occasional/extra = 2 0 0
  (1) pair meam, perpetual
      attributes: full, newton on
      pair build: full/nsq
      stencil: none
      bin: none
  (2) pair meam, perpetual, half/full from (1)
      attributes: half, newton on
      pair build: halffull/newton
      stencil: none
      bin: none
Per MPI rank memory allocation (min/avg/max) = 9.713 | 9.715 | 9.717 Mbytes
   Step          Temp          PotEng         Press           Pxx            Pyy            Pzz            Pxy            Pxz            Pyz             Lx             Ly             Lz           Volume    
         1   0             -295.75686      2.9233395      2.0132716      4.7436062      2.0131407     -2.0951981e-05  1.8335772e-05 -5.0843722e-05  5.8997318      8.8495889      11.799464      616.05237    
         2   0             -295.75686      2.9231957      2.0130142      4.7435743      2.0129987     -7.0352745e-06  1.1467467e-05 -2.4027239e-06  5.8997318      8.8495889      11.799464      616.05237    
         3   0             -295.75686      2.9231943      2.0130018      4.7435738      2.0130074      2.7959731e-07 -3.1881154e-07 -1.515185e-06   5.8997318      8.8495889      11.799464      616.05237    
         4   0             -295.75686      2.9231962      2.0130047      4.7435765      2.0130072      1.3552428e-07  4.5966689e-07 -5.861245e-07   5.8997318      8.8495889      11.799464      616.05237    
         5   0             -295.75686      2.923196       2.0130058      4.7435756      2.0130065      1.2028661e-07 -1.2700274e-07 -8.3290094e-08  5.8997318      8.8495889      11.799464      616.05237    
         6   0             -295.75686      2.923196       2.013006       4.7435758      2.0130061      1.8557589e-08  1.4262377e-08 -4.3473142e-09  5.8997318      8.8495889      11.799464      616.05237    
         7   0             -295.75686      2.9231959      2.013006       4.7435758      2.013006       2.8939059e-09 -2.074662e-09  -7.3724132e-10  5.8997318      8.8495889      11.799464      616.05237    
         8   0             -295.75686      2.9231959      2.013006       4.7435758      2.013006       5.7138731e-10 -1.0355765e-10 -7.3023594e-10  5.8997318      8.8495889      11.799464      616.05237    
         9   0             -295.75686      2.9231959      2.013006       4.7435758      2.013006       1.605438e-10   4.5235111e-10  4.0043623e-11  5.8997318      8.8495889      11.799464      616.05237    
        10   0             -295.75686      2.9231959      2.013006       4.7435758      2.013006       1.3025211e-11  3.8279788e-12 -8.508647e-11   5.8997318      8.8495889      11.799464      616.05237    
        11   0             -295.75686      2.9231959      2.013006       4.7435758      2.013006       3.3964901e-11  2.3632227e-11  3.230339e-11   5.8997318      8.8495889      11.799464      616.05237    
        12   0             -295.75686      2.9231959      2.013006       4.7435758      2.013006       7.7558197e-12  4.8773602e-12  2.1833153e-11  5.8997318      8.8495889      11.799464      616.05237    
        13   0             -295.75686      2.9231959      2.013006       4.7435758      2.013006       2.0165406e-11  7.1071539e-12  6.3261295e-11  5.8997318      8.8495889      11.799464      616.05237    
        14   0             -295.75686      2.9231959      2.013006       4.7435758      2.013006       5.6693544e-11 -4.8553707e-12  5.0451002e-11  5.8997318      8.8495889      11.799464      616.05237    
        15   0             -295.75686      2.9231959      2.013006       4.7435758      2.013006       5.8898848e-11  6.3647151e-11 -4.4689618e-11  5.8997318      8.8495889      11.799464      616.05237    
        16   0             -295.75686      2.9231959      2.013006       4.7435758      2.013006      -3.8184202e-11 -8.8919678e-11 -1.1656586e-11  5.8997318      8.8495889      11.799464      616.05237    
        17   0             -295.75686      2.9231959      2.013006       4.7435758      2.013006      -4.0977829e-11 -5.2244792e-11 -1.9555386e-11  5.8997318      8.8495889      11.799464      616.05237    
        18   0             -295.75686      2.9231959      2.013006       4.7435758      2.013006      -2.2355143e-11 -1.2181014e-11  9.4029255e-12  5.8997318      8.8495889      11.799464      616.05237    
        19   0             -295.75686      2.9231959      2.013006       4.7435758      2.013006       2.8615575e-12  2.7578514e-11  2.1167189e-11  5.8997318      8.8495889      11.799464      616.05237    
        20   0             -295.75686      2.9231959      2.013006       4.7435758      2.013006      -2.4302043e-13 -2.0968016e-11 -8.0544095e-12  5.8997318      8.8495889      11.799464      616.05237    
        21   0             -295.75686      2.9231959      2.013006       4.7435758      2.013006       5.9251967e-11 -1.0297735e-10 -3.742767e-11   5.8997318      8.8495889      11.799464      616.05237    
Loop time of 0.009255 on 4 procs for 20 steps with 48 atoms

0.0% CPU use with 4 MPI tasks x 1 OpenMP threads

Minimization stats:
  Stopping criterion = force tolerance
  Energy initial, next-to-last, final = 
     -295.756864445262  -295.756864493663  -295.756864493663
  Force two-norm initial, final = 0.0016893189 8.8489951e-11
  Force max component initial, final = 0.00038679437 1.6637108e-11
  Final line search alpha, max atom move = 1 1.6637108e-11
  Iterations, force evaluations = 20 40

MPI task timing breakdown:
Section |  min time  |  avg time  |  max time  |%varavg| %total
---------------------------------------------------------------
Pair    | 0.007921   | 0.008093   | 0.008249   |   0.1 | 87.44
Neigh   | 0          | 0          | 0          |   0.0 |  0.00
Comm    | 0.000604   | 0.000762   | 0.000929   |   0.0 |  8.23
Output  | 0.000173   | 0.00018625 | 0.000212   |   0.0 |  2.01
Modify  | 0          | 0          | 0          |   0.0 |  0.00
Other   |            | 0.0002138  |            |       |  2.31

Nlocal:             12 ave          14 max          10 min
Histogram: 1 0 1 0 0 0 0 1 0 1
Nghost:            498 ave         500 max         496 min
Histogram: 1 0 1 0 0 0 0 1 0 1
Neighs:            528 ave         614 max         442 min
Histogram: 1 0 1 0 0 0 0 1 0 1
FullNghs:         1056 ave        1232 max         880 min
Histogram: 1 0 1 0 0 0 0 1 0 1

Total # of neighbors = 4224
Ave neighs/atom = 88
Neighbor list builds = 0
Dangerous builds = 0

# Obtain new stress tensor

variable tmp equal pxx
variable pxx1 equal ${tmp}
variable pxx1 equal 2.01300600889821
variable tmp equal pyy
variable pyy1 equal ${tmp}
variable pyy1 equal 4.74357577577253
variable tmp equal pzz
variable pzz1 equal ${tmp}
variable pzz1 equal 2.01300600941692
variable tmp equal pxy
variable pxy1 equal ${tmp}
variable pxy1 equal 5.92519671589558e-11
variable tmp equal pxz
variable pxz1 equal ${tmp}
variable pxz1 equal -1.02977353132401e-10
variable tmp equal pyz
variable pyz1 equal ${tmp}
variable pyz1 equal -3.74276698411597e-11

# Compute elastic constant from pressure tensor

variable C1neg equal ${d1}
variable C1neg equal 201.300600901056
variable C2neg equal ${d2}
variable C2neg equal 474.35757760387
variable C3neg equal ${d3}
variable C3neg equal 201.300600935787
variable C4neg equal ${d4}
variable C4neg equal 6.76816403370213e-09
variable C5neg equal ${d5}
variable C5neg equal -2.31754078590637e-08
variable C6neg equal ${d6}
variable C6neg equal 4.25052181083331e-09

# Reset box and simulation parameters

clear
  using 1 OpenMP thread(s) per MPI task
Loaded 1 plugins from C:\Program Files\LAMMPS 64-bit 23Jun2022\plugins
Loaded 0 plugins from C:\Program Files\LAMMPS 64-bit 23Jun2022-MPI\plugins
Loaded 1 plugins from C:\Program Files\LAMMPS 64-bit 22Dec2022-MSMPI\plugins
Loaded 1 plugins from C:\Program Files\LAMMPS 64-bit 28Mar2023-MPI\plugins
box tilt large

The 'box' command has been removed and will be ignored

read_restart restart.equil
Reading restart file ...
  restart file = 22 Dec 2022, LAMMPS = 22 Dec 2022
  restoring atom style atomic from restart
  triclinic box = (6.7043218e-05 6.7043218e-05 6.7043218e-05) to (5.8997989 8.8496648 11.799531) with tilt (0 0 0)
  1 by 2 by 2 MPI processor grid
  pair style meam stores no restart info
  48 atoms
  read_restart CPU = 0.000 seconds
include potential.mod
# NOTE: This script can be modified for different pair styles
# See in.elastic for more info.

# Choose potential
#-----------------------
#pair_style	sw
#pair_coeff * * Si.sw Si
#-----------------------
#pair_style morse	2.83994742	# D0[eV] a[1/A] r0[A] rc[A], 1NN for BCC
#pair_coeff 1 1	2.1173	1.0202	2.4595	2.6497	#	Fe-Fe
#-----------------------
#pair_style smatb # R0(A)   p       q     A(eV)   xi(eV)  Rcs(A)   Rc(A), 4NN: Rcs=4NN, Rc=(4NN+5NN)/2
#pair_coeff 1 1	2.4802	7.0149	2.3779	0.3144	3.0551	4.033	4.176	#	Co	Co
#-----------------------
#pair_style eam/alloy
#pair_coeff * * AlCrFeCoNi_Zhou04.eam.alloy Fe
#-----------------------
pair_style meam
pair_coeff * * ./../../library.meam Ni Re ./../../NiRe.meam Ni Re
#-----------------------

# Setup neighbor style
neighbor 1.0 nsq
neigh_modify once no every 1 delay 0 check yes

# Setup minimization style
min_style	     cg
min_modify	     dmax ${dmax} line quadratic
min_modify	     dmax 0.01 line quadratic

# Setup output
thermo		1
thermo_style custom step temp pe press pxx pyy pzz pxy pxz pyz lx ly lz vol
thermo_modify norm no

# Positive deformation

variable delta equal ${up}*${len0}
variable delta equal 1e-06*${len0}
variable delta equal 1e-06*8.84959774069367
variable deltaxy equal ${up}*xy
variable deltaxy equal 1e-06*xy
variable deltaxz equal ${up}*xz
variable deltaxz equal 1e-06*xz
variable deltayz equal ${up}*yz
variable deltayz equal 1e-06*yz
if "${dir} == 1" then    "change_box all x delta 0 ${delta} xy delta ${deltaxy} xz delta ${deltaxz} remap units box"
if "${dir} == 2" then    "change_box all y delta 0 ${delta} yz delta ${deltayz} remap units box"
change_box all y delta 0 ${delta} yz delta ${deltayz} remap units box
change_box all y delta 0 8.84959774069367e-06 yz delta ${deltayz} remap units box
change_box all y delta 0 8.84959774069367e-06 yz delta 0 remap units box
Changing box ...
  triclinic box = (6.7043218e-05 6.7043218e-05 6.7043218e-05) to (5.8997989 8.8496736 11.799531) with tilt (0 0 0)
  triclinic box = (6.7043218e-05 6.7043218e-05 6.7043218e-05) to (5.8997989 8.8496736 11.799531) with tilt (0 0 0)
if "${dir} == 3" then    "change_box all z delta 0 ${delta} remap units box"
if "${dir} == 4" then    "change_box all yz delta ${delta} remap units box"
if "${dir} == 5" then    "change_box all xz delta ${delta} remap units box"
if "${dir} == 6" then    "change_box all xy delta ${delta} remap units box"

# Relax atoms positions

minimize ${etol} ${ftol} ${maxiter} ${maxeval}
minimize 0 ${ftol} ${maxiter} ${maxeval}
minimize 0 1e-10 ${maxiter} ${maxeval}
minimize 0 1e-10 1000 ${maxeval}
minimize 0 1e-10 1000 100000
Neighbor list info ...
  update: every = 1 steps, delay = 0 steps, check = yes
  max neighbors/atom: 2000, page size: 100000
  master list distance cutoff = 6.5
  ghost atom cutoff = 6.5
  2 neighbor lists, perpetual/occasional/extra = 2 0 0
  (1) pair meam, perpetual
      attributes: full, newton on
      pair build: full/nsq
      stencil: none
      bin: none
  (2) pair meam, perpetual, half/full from (1)
      attributes: half, newton on
      pair build: halffull/newton
      stencil: none
      bin: none
Per MPI rank memory allocation (min/avg/max) = 9.713 | 9.715 | 9.717 Mbytes
   Step          Temp          PotEng         Press           Pxx            Pyy            Pzz            Pxy            Pxz            Pyz             Lx             Ly             Lz           Volume    
         1   0             -295.75686     -2.9230412     -2.012743      -4.7435069     -2.0128738     -2.0952745e-05  1.8335621e-05 -5.0842597e-05  5.8997318      8.8496066      11.799464      616.0536     
         2   0             -295.75686     -2.923185      -2.0130004     -4.7435388     -2.0130159     -7.0349257e-06  1.1467342e-05 -2.4025874e-06  5.8997318      8.8496066      11.799464      616.0536     
         3   0             -295.75686     -2.9231864     -2.0130127     -4.7435393     -2.0130072      2.7973521e-07 -3.1879782e-07 -1.5149646e-06  5.8997318      8.8496066      11.799464      616.0536     
         4   0             -295.75686     -2.9231846     -2.0130098     -4.7435366     -2.0130073      1.3544844e-07  4.5956851e-07 -5.8599289e-07  5.8997318      8.8496066      11.799464      616.0536     
         5   0             -295.75686     -2.9231848     -2.0130088     -4.7435375     -2.013008       1.2032595e-07 -1.2690874e-07 -8.3343205e-08  5.8997318      8.8496066      11.799464      616.0536     
         6   0             -295.75686     -2.9231848     -2.0130085     -4.7435373     -2.0130085      1.8568241e-08  1.4337838e-08 -4.3750068e-09  5.8997318      8.8496066      11.799464      616.0536     
         7   0             -295.75686     -2.9231848     -2.0130086     -4.7435373     -2.0130085      2.8807496e-09 -2.0660541e-09 -7.4942413e-10  5.8997318      8.8496066      11.799464      616.0536     
         8   0             -295.75686     -2.9231848     -2.0130086     -4.7435373     -2.0130085      6.0576961e-10 -7.8033125e-11 -5.8445041e-10  5.8997318      8.8496066      11.799464      616.0536     
         9   0             -295.75686     -2.9231848     -2.0130086     -4.7435373     -2.0130085      5.3868442e-11  3.0067822e-10 -9.1129958e-12  5.8997318      8.8496066      11.799464      616.0536     
        10   0             -295.75686     -2.9231848     -2.0130086     -4.7435373     -2.0130085      5.6648168e-11 -5.4094197e-12  3.6754289e-11  5.8997318      8.8496066      11.799464      616.0536     
        11   0             -295.75686     -2.9231848     -2.0130086     -4.7435373     -2.0130085     -9.4538929e-12 -1.0494814e-10  1.2706739e-10  5.8997318      8.8496066      11.799464      616.0536     
        12   0             -295.75686     -2.9231848     -2.0130086     -4.7435373     -2.0130085      3.3464939e-11 -5.0530145e-13  4.0622137e-11  5.8997318      8.8496066      11.799464      616.0536     
        13   0             -295.75686     -2.9231848     -2.0130086     -4.7435373     -2.0130085     -8.1423729e-11 -5.9180348e-12  4.5686266e-11  5.8997318      8.8496066      11.799464      616.0536     
        14   0             -295.75686     -2.9231848     -2.0130085     -4.7435373     -2.0130085     -5.2756226e-11  4.0874972e-11 -2.7505372e-11  5.8997318      8.8496066      11.799464      616.0536     
        15   0             -295.75686     -2.9231848     -2.0130086     -4.7435373     -2.0130085     -5.1885719e-11 -8.2727019e-11 -6.0581347e-12  5.8997318      8.8496066      11.799464      616.0536     
        16   0             -295.75686     -2.9231848     -2.0130086     -4.7435373     -2.0130085     -2.1180355e-11  1.636911e-11  -1.5627032e-11  5.8997318      8.8496066      11.799464      616.0536     
        17   0             -295.75686     -2.9231848     -2.0130086     -4.7435373     -2.0130085     -5.9994944e-11  2.8025251e-11  4.382157e-11   5.8997318      8.8496066      11.799464      616.0536     
        18   0             -295.75686     -2.9231848     -2.0130086     -4.7435373     -2.0130085      1.0459834e-10 -2.2667366e-11 -7.0723411e-11  5.8997318      8.8496066      11.799464      616.0536     
        19   0             -295.75686     -2.9231848     -2.0130085     -4.7435373     -2.0130085     -2.5859728e-11  4.7147494e-11  1.4261735e-10  5.8997318      8.8496066      11.799464      616.0536     
        20   0             -295.75686     -2.9231848     -2.0130086     -4.7435373     -2.0130085     -3.6284097e-11 -3.948296e-11  -5.6113001e-11  5.8997318      8.8496066      11.799464      616.0536     
        21   0             -295.75686     -2.9231848     -2.0130085     -4.7435373     -2.0130085     -1.531313e-11   2.2880309e-11  4.2567511e-11  5.8997318      8.8496066      11.799464      616.0536     
Loop time of 0.00911375 on 4 procs for 20 steps with 48 atoms

0.0% CPU use with 4 MPI tasks x 1 OpenMP threads

Minimization stats:
  Stopping criterion = force tolerance
  Energy initial, next-to-last, final = 
     -295.756864445262  -295.756864493663  -295.756864493663
  Force two-norm initial, final = 0.0016893148 8.8473375e-11
  Force max component initial, final = 0.00038679341 1.6646753e-11
  Final line search alpha, max atom move = 1 1.6646753e-11
  Iterations, force evaluations = 20 40

MPI task timing breakdown:
Section |  min time  |  avg time  |  max time  |%varavg| %total
---------------------------------------------------------------
Pair    | 0.007703   | 0.008027   | 0.008336   |   0.3 | 88.08
Neigh   | 0          | 0          | 0          |   0.0 |  0.00
Comm    | 0.000394   | 0.000705   | 0.001026   |   0.0 |  7.74
Output  | 0.000175   | 0.000184   | 0.000208   |   0.0 |  2.02
Modify  | 0          | 0          | 0          |   0.0 |  0.00
Other   |            | 0.0001977  |            |       |  2.17

Nlocal:             12 ave          14 max          10 min
Histogram: 1 0 1 0 0 0 0 1 0 1
Nghost:            498 ave         500 max         496 min
Histogram: 1 0 1 0 0 0 0 1 0 1
Neighs:            528 ave         614 max         442 min
Histogram: 1 0 1 0 0 0 0 1 0 1
FullNghs:         1056 ave        1232 max         880 min
Histogram: 1 0 1 0 0 0 0 1 0 1

Total # of neighbors = 4224
Ave neighs/atom = 88
Neighbor list builds = 0
Dangerous builds = 0

# Obtain new stress tensor

variable tmp equal pe
variable e1 equal ${tmp}
variable e1 equal -295.756864493663
variable tmp equal press
variable p1 equal ${tmp}
variable p1 equal -2.92318480426341
variable tmp equal pxx
variable pxx1 equal ${tmp}
variable pxx1 equal -2.01300854989275
variable tmp equal pyy
variable pyy1 equal ${tmp}
variable pyy1 equal -4.74353731338139
variable tmp equal pzz
variable pzz1 equal ${tmp}
variable pzz1 equal -2.0130085495161
variable tmp equal pxy
variable pxy1 equal ${tmp}
variable pxy1 equal -1.53131302020339e-11
variable tmp equal pxz
variable pxz1 equal ${tmp}
variable pxz1 equal 2.28803094239277e-11
variable tmp equal pyz
variable pyz1 equal ${tmp}
variable pyz1 equal 4.25675111891378e-11

# Compute elastic constant from pressure tensor

variable C1pos equal ${d1}
variable C1pos equal 201.30085497804
variable C2pos equal ${d2}
variable C2pos equal 474.353731311522
variable C3pos equal ${d3}
variable C3pos equal 201.300854957515
variable C4pos equal ${d4}
variable C4pos equal -1.47676821367319e-08
variable C5pos equal ${d5}
variable C5pos equal 1.05896416034308e-08
variable C6pos equal ${d6}
variable C6pos equal 3.20598792526566e-09

# Combine positive and negative

variable C1${dir} equal 0.5*(${C1neg}+${C1pos})
variable C12 equal 0.5*(${C1neg}+${C1pos})
variable C12 equal 0.5*(201.300600901056+${C1pos})
variable C12 equal 0.5*(201.300600901056+201.30085497804)
variable C2${dir} equal 0.5*(${C2neg}+${C2pos})
variable C22 equal 0.5*(${C2neg}+${C2pos})
variable C22 equal 0.5*(474.35757760387+${C2pos})
variable C22 equal 0.5*(474.35757760387+474.353731311522)
variable C3${dir} equal 0.5*(${C3neg}+${C3pos})
variable C32 equal 0.5*(${C3neg}+${C3pos})
variable C32 equal 0.5*(201.300600935787+${C3pos})
variable C32 equal 0.5*(201.300600935787+201.300854957515)
variable C4${dir} equal 0.5*(${C4neg}+${C4pos})
variable C42 equal 0.5*(${C4neg}+${C4pos})
variable C42 equal 0.5*(6.76816403370213e-09+${C4pos})
variable C42 equal 0.5*(6.76816403370213e-09+-1.47676821367319e-08)
variable C5${dir} equal 0.5*(${C5neg}+${C5pos})
variable C52 equal 0.5*(${C5neg}+${C5pos})
variable C52 equal 0.5*(-2.31754078590637e-08+${C5pos})
variable C52 equal 0.5*(-2.31754078590637e-08+1.05896416034308e-08)
variable C6${dir} equal 0.5*(${C6neg}+${C6pos})
variable C62 equal 0.5*(${C6neg}+${C6pos})
variable C62 equal 0.5*(4.25052181083331e-09+${C6pos})
variable C62 equal 0.5*(4.25052181083331e-09+3.20598792526566e-09)

# Delete dir to make sure it is not reused

variable dir delete

# uzz Perturbation

variable dir equal 3
include displace.mod
# NOTE: This script should not need to be
# modified. See in.elastic for more info.
#
# Find which reference length to use

if "${dir} == 1" then    "variable len0 equal ${lx0}"
if "${dir} == 2" then    "variable len0 equal ${ly0}"
if "${dir} == 3" then    "variable len0 equal ${lz0}"
variable len0 equal ${lz0}
variable len0 equal 11.7994636542582
if "${dir} == 4" then    "variable len0 equal ${lz0}"
if "${dir} == 5" then    "variable len0 equal ${lz0}"
if "${dir} == 6" then    "variable len0 equal ${ly0}"

# Reset box and simulation parameters

clear
  using 1 OpenMP thread(s) per MPI task
Loaded 1 plugins from C:\Program Files\LAMMPS 64-bit 23Jun2022\plugins
Loaded 0 plugins from C:\Program Files\LAMMPS 64-bit 23Jun2022-MPI\plugins
Loaded 1 plugins from C:\Program Files\LAMMPS 64-bit 22Dec2022-MSMPI\plugins
Loaded 1 plugins from C:\Program Files\LAMMPS 64-bit 28Mar2023-MPI\plugins
box tilt large

The 'box' command has been removed and will be ignored

read_restart restart.equil
Reading restart file ...
  restart file = 22 Dec 2022, LAMMPS = 22 Dec 2022
  restoring atom style atomic from restart
  triclinic box = (6.7043218e-05 6.7043218e-05 6.7043218e-05) to (5.8997989 8.8496648 11.799531) with tilt (0 0 0)
  1 by 2 by 2 MPI processor grid
  pair style meam stores no restart info
  48 atoms
  read_restart CPU = 0.000 seconds
include potential.mod
# NOTE: This script can be modified for different pair styles
# See in.elastic for more info.

# Choose potential
#-----------------------
#pair_style	sw
#pair_coeff * * Si.sw Si
#-----------------------
#pair_style morse	2.83994742	# D0[eV] a[1/A] r0[A] rc[A], 1NN for BCC
#pair_coeff 1 1	2.1173	1.0202	2.4595	2.6497	#	Fe-Fe
#-----------------------
#pair_style smatb # R0(A)   p       q     A(eV)   xi(eV)  Rcs(A)   Rc(A), 4NN: Rcs=4NN, Rc=(4NN+5NN)/2
#pair_coeff 1 1	2.4802	7.0149	2.3779	0.3144	3.0551	4.033	4.176	#	Co	Co
#-----------------------
#pair_style eam/alloy
#pair_coeff * * AlCrFeCoNi_Zhou04.eam.alloy Fe
#-----------------------
pair_style meam
pair_coeff * * ./../../library.meam Ni Re ./../../NiRe.meam Ni Re
#-----------------------

# Setup neighbor style
neighbor 1.0 nsq
neigh_modify once no every 1 delay 0 check yes

# Setup minimization style
min_style	     cg
min_modify	     dmax ${dmax} line quadratic
min_modify	     dmax 0.01 line quadratic

# Setup output
thermo		1
thermo_style custom step temp pe press pxx pyy pzz pxy pxz pyz lx ly lz vol
thermo_modify norm no

# Negative deformation

variable delta equal -${up}*${len0}
variable delta equal -1e-06*${len0}
variable delta equal -1e-06*11.7994636542582
variable deltaxy equal -${up}*xy
variable deltaxy equal -1e-06*xy
variable deltaxz equal -${up}*xz
variable deltaxz equal -1e-06*xz
variable deltayz equal -${up}*yz
variable deltayz equal -1e-06*yz
if "${dir} == 1" then    "change_box all x delta 0 ${delta} xy delta ${deltaxy} xz delta ${deltaxz} remap units box"
if "${dir} == 2" then    "change_box all y delta 0 ${delta} yz delta ${deltayz} remap units box"
if "${dir} == 3" then    "change_box all z delta 0 ${delta} remap units box"
change_box all z delta 0 ${delta} remap units box
change_box all z delta 0 -1.17994636542582e-05 remap units box
Changing box ...
  triclinic box = (6.7043218e-05 6.7043218e-05 6.7043218e-05) to (5.8997989 8.8496648 11.799519) with tilt (0 0 0)
if "${dir} == 4" then    "change_box all yz delta ${delta} remap units box"
if "${dir} == 5" then    "change_box all xz delta ${delta} remap units box"
if "${dir} == 6" then    "change_box all xy delta ${delta} remap units box"

# Relax atoms positions

minimize ${etol} ${ftol} ${maxiter} ${maxeval}
minimize 0 ${ftol} ${maxiter} ${maxeval}
minimize 0 1e-10 ${maxiter} ${maxeval}
minimize 0 1e-10 1000 ${maxeval}
minimize 0 1e-10 1000 100000
Neighbor list info ...
  update: every = 1 steps, delay = 0 steps, check = yes
  max neighbors/atom: 2000, page size: 100000
  master list distance cutoff = 6.5
  ghost atom cutoff = 6.5
  2 neighbor lists, perpetual/occasional/extra = 2 0 0
  (1) pair meam, perpetual
      attributes: full, newton on
      pair build: full/nsq
      stencil: none
      bin: none
  (2) pair meam, perpetual, half/full from (1)
      attributes: half, newton on
      pair build: halffull/newton
      stencil: none
      bin: none
Per MPI rank memory allocation (min/avg/max) = 9.713 | 9.715 | 9.717 Mbytes
   Step          Temp          PotEng         Press           Pxx            Pyy            Pzz            Pxy            Pxz            Pyz             Lx             Ly             Lz           Volume    
         1   0             -295.75686      2.9233395      2.0132716      2.0130364      4.7437105     -2.0951853e-05  1.833572e-05  -5.0843216e-05  5.8997318      8.8495977      11.799452      616.05237    
         2   0             -295.75686      2.9231957      2.0130142      2.0130046      4.7435684     -7.0347926e-06  1.1467317e-05 -2.4030065e-06  5.8997318      8.8495977      11.799452      616.05237    
         3   0             -295.75686      2.9231943      2.0130018      2.013004       4.7435771      2.7966925e-07 -3.188177e-07  -1.5151764e-06  5.8997318      8.8495977      11.799452      616.05237    
         4   0             -295.75686      2.9231962      2.0130047      2.0130068      4.743577       1.3552603e-07  4.596491e-07  -5.8599064e-07  5.8997318      8.8495977      11.799452      616.05237    
         5   0             -295.75686      2.923196       2.0130058      2.0130059      4.7435763      1.20378e-07   -1.2698985e-07 -8.3160891e-08  5.8997318      8.8495977      11.799452      616.05237    
         6   0             -295.75686      2.923196       2.013006       2.013006       4.7435758      1.8565249e-08  1.4174916e-08 -4.341777e-09   5.8997318      8.8495977      11.799452      616.05237    
         7   0             -295.75686      2.9231959      2.013006       2.013006       4.7435758      2.9464122e-09 -2.032316e-09  -7.3582718e-10  5.8997318      8.8495977      11.799452      616.05237    
         8   0             -295.75686      2.9231959      2.013006       2.013006       4.7435758      5.8018995e-10 -1.3648291e-10 -6.6687566e-10  5.8997318      8.8495977      11.799452      616.05237    
         9   0             -295.75686      2.9231959      2.013006       2.013006       4.7435758      1.4329564e-10  3.6824128e-10 -2.7485887e-11  5.8997318      8.8495977      11.799452      616.05237    
        10   0             -295.75686      2.9231959      2.013006       2.013006       4.7435758     -4.4055775e-11  6.1091922e-11 -6.3384679e-11  5.8997318      8.8495977      11.799452      616.05237    
        11   0             -295.75686      2.9231959      2.013006       2.013006       4.7435758     -2.6624499e-12 -5.4007331e-13  5.9387583e-11  5.8997318      8.8495977      11.799452      616.05237    
        12   0             -295.75686      2.9231959      2.013006       2.013006       4.7435758     -7.0511991e-12  4.9501978e-11 -4.6771295e-11  5.8997318      8.8495977      11.799452      616.05237    
        13   0             -295.75686      2.9231959      2.013006       2.013006       4.7435758      2.4730793e-11  1.6140079e-11  7.1518613e-11  5.8997318      8.8495977      11.799452      616.05237    
        14   0             -295.75686      2.9231959      2.013006       2.013006       4.7435758     -1.5027908e-11  4.0356049e-11 -4.6746822e-13  5.8997318      8.8495977      11.799452      616.05237    
        15   0             -295.75686      2.9231959      2.013006       2.013006       4.7435758     -9.8259257e-12  1.0879623e-11 -6.3664289e-11  5.8997318      8.8495977      11.799452      616.05237    
        16   0             -295.75686      2.9231959      2.013006       2.013006       4.7435758      2.6371001e-11  5.9091028e-11  2.3913383e-11  5.8997318      8.8495977      11.799452      616.05237    
        17   0             -295.75686      2.9231959      2.013006       2.013006       4.7435758      1.8318375e-11 -4.8196288e-11  4.6809322e-12  5.8997318      8.8495977      11.799452      616.05237    
        18   0             -295.75686      2.9231959      2.013006       2.013006       4.7435758      7.1788937e-11 -2.3825142e-11 -5.9788192e-12  5.8997318      8.8495977      11.799452      616.05237    
        19   0             -295.75686      2.9231959      2.013006       2.013006       4.7435758      2.5235639e-11 -6.9218904e-11  1.6504019e-11  5.8997318      8.8495977      11.799452      616.05237    
        20   0             -295.75686      2.9231959      2.013006       2.013006       4.7435758      5.2148447e-11 -1.4285218e-12 -1.414905e-12   5.8997318      8.8495977      11.799452      616.05237    
        21   0             -295.75686      2.9231959      2.013006       2.013006       4.7435758     -4.5370067e-11 -1.3065098e-11  7.6551664e-11  5.8997318      8.8495977      11.799452      616.05237    
Loop time of 0.0091395 on 4 procs for 20 steps with 48 atoms

0.0% CPU use with 4 MPI tasks x 1 OpenMP threads

Minimization stats:
  Stopping criterion = force tolerance
  Energy initial, next-to-last, final = 
     -295.756864445262  -295.756864493663  -295.756864493663
  Force two-norm initial, final = 0.0016893198 8.8481088e-11
  Force max component initial, final = 0.00038679517 1.6661825e-11
  Final line search alpha, max atom move = 1 1.6661825e-11
  Iterations, force evaluations = 20 40

MPI task timing breakdown:
Section |  min time  |  avg time  |  max time  |%varavg| %total
---------------------------------------------------------------
Pair    | 0.00767    | 0.0079827  | 0.00831    |   0.3 | 87.34
Neigh   | 0          | 0          | 0          |   0.0 |  0.00
Comm    | 0.000409   | 0.00074175 | 0.001049   |   0.0 |  8.12
Output  | 0.00018    | 0.000195   | 0.000232   |   0.0 |  2.13
Modify  | 0          | 0          | 0          |   0.0 |  0.00
Other   |            | 0.00022    |            |       |  2.41

Nlocal:             12 ave          14 max          10 min
Histogram: 1 0 1 0 0 0 0 1 0 1
Nghost:            498 ave         500 max         496 min
Histogram: 1 0 1 0 0 0 0 1 0 1
Neighs:            528 ave         614 max         442 min
Histogram: 1 0 1 0 0 0 0 1 0 1
FullNghs:         1056 ave        1232 max         880 min
Histogram: 1 0 1 0 0 0 0 1 0 1

Total # of neighbors = 4224
Ave neighs/atom = 88
Neighbor list builds = 0
Dangerous builds = 0

# Obtain new stress tensor

variable tmp equal pxx
variable pxx1 equal ${tmp}
variable pxx1 equal 2.01300600899089
variable tmp equal pyy
variable pyy1 equal ${tmp}
variable pyy1 equal 2.01300600912212
variable tmp equal pzz
variable pzz1 equal ${tmp}
variable pzz1 equal 4.74357577622772
variable tmp equal pxy
variable pxy1 equal ${tmp}
variable pxy1 equal -4.53700668040084e-11
variable tmp equal pxz
variable pxz1 equal ${tmp}
variable pxz1 equal -1.30650976292515e-11
variable tmp equal pyz
variable pyz1 equal ${tmp}
variable pyz1 equal 7.65516642655815e-11

# Compute elastic constant from pressure tensor

variable C1neg equal ${d1}
variable C1neg equal 201.300600910324
variable C2neg equal ${d2}
variable C2neg equal 201.300600938829
variable C3neg equal ${d3}
variable C3neg equal 474.357577616867
variable C4neg equal ${d4}
variable C4neg equal 1.81660974443763e-08
variable C5neg equal ${d5}
variable C5neg equal -1.41841823087488e-08
variable C6neg equal ${d6}
variable C6neg equal -6.21168158546311e-09

# Reset box and simulation parameters

clear
  using 1 OpenMP thread(s) per MPI task
Loaded 1 plugins from C:\Program Files\LAMMPS 64-bit 23Jun2022\plugins
Loaded 0 plugins from C:\Program Files\LAMMPS 64-bit 23Jun2022-MPI\plugins
Loaded 1 plugins from C:\Program Files\LAMMPS 64-bit 22Dec2022-MSMPI\plugins
Loaded 1 plugins from C:\Program Files\LAMMPS 64-bit 28Mar2023-MPI\plugins
box tilt large

The 'box' command has been removed and will be ignored

read_restart restart.equil
Reading restart file ...
  restart file = 22 Dec 2022, LAMMPS = 22 Dec 2022
  restoring atom style atomic from restart
  triclinic box = (6.7043218e-05 6.7043218e-05 6.7043218e-05) to (5.8997989 8.8496648 11.799531) with tilt (0 0 0)
  1 by 2 by 2 MPI processor grid
  pair style meam stores no restart info
  48 atoms
  read_restart CPU = 0.000 seconds
include potential.mod
# NOTE: This script can be modified for different pair styles
# See in.elastic for more info.

# Choose potential
#-----------------------
#pair_style	sw
#pair_coeff * * Si.sw Si
#-----------------------
#pair_style morse	2.83994742	# D0[eV] a[1/A] r0[A] rc[A], 1NN for BCC
#pair_coeff 1 1	2.1173	1.0202	2.4595	2.6497	#	Fe-Fe
#-----------------------
#pair_style smatb # R0(A)   p       q     A(eV)   xi(eV)  Rcs(A)   Rc(A), 4NN: Rcs=4NN, Rc=(4NN+5NN)/2
#pair_coeff 1 1	2.4802	7.0149	2.3779	0.3144	3.0551	4.033	4.176	#	Co	Co
#-----------------------
#pair_style eam/alloy
#pair_coeff * * AlCrFeCoNi_Zhou04.eam.alloy Fe
#-----------------------
pair_style meam
pair_coeff * * ./../../library.meam Ni Re ./../../NiRe.meam Ni Re
#-----------------------

# Setup neighbor style
neighbor 1.0 nsq
neigh_modify once no every 1 delay 0 check yes

# Setup minimization style
min_style	     cg
min_modify	     dmax ${dmax} line quadratic
min_modify	     dmax 0.01 line quadratic

# Setup output
thermo		1
thermo_style custom step temp pe press pxx pyy pzz pxy pxz pyz lx ly lz vol
thermo_modify norm no

# Positive deformation

variable delta equal ${up}*${len0}
variable delta equal 1e-06*${len0}
variable delta equal 1e-06*11.7994636542582
variable deltaxy equal ${up}*xy
variable deltaxy equal 1e-06*xy
variable deltaxz equal ${up}*xz
variable deltaxz equal 1e-06*xz
variable deltayz equal ${up}*yz
variable deltayz equal 1e-06*yz
if "${dir} == 1" then    "change_box all x delta 0 ${delta} xy delta ${deltaxy} xz delta ${deltaxz} remap units box"
if "${dir} == 2" then    "change_box all y delta 0 ${delta} yz delta ${deltayz} remap units box"
if "${dir} == 3" then    "change_box all z delta 0 ${delta} remap units box"
change_box all z delta 0 ${delta} remap units box
change_box all z delta 0 1.17994636542582e-05 remap units box
Changing box ...
  triclinic box = (6.7043218e-05 6.7043218e-05 6.7043218e-05) to (5.8997989 8.8496648 11.799542) with tilt (0 0 0)
if "${dir} == 4" then    "change_box all yz delta ${delta} remap units box"
if "${dir} == 5" then    "change_box all xz delta ${delta} remap units box"
if "${dir} == 6" then    "change_box all xy delta ${delta} remap units box"

# Relax atoms positions

minimize ${etol} ${ftol} ${maxiter} ${maxeval}
minimize 0 ${ftol} ${maxiter} ${maxeval}
minimize 0 1e-10 ${maxiter} ${maxeval}
minimize 0 1e-10 1000 ${maxeval}
minimize 0 1e-10 1000 100000
Neighbor list info ...
  update: every = 1 steps, delay = 0 steps, check = yes
  max neighbors/atom: 2000, page size: 100000
  master list distance cutoff = 6.5
  ghost atom cutoff = 6.5
  2 neighbor lists, perpetual/occasional/extra = 2 0 0
  (1) pair meam, perpetual
      attributes: full, newton on
      pair build: full/nsq
      stencil: none
      bin: none
  (2) pair meam, perpetual, half/full from (1)
      attributes: half, newton on
      pair build: halffull/newton
      stencil: none
      bin: none
Per MPI rank memory allocation (min/avg/max) = 9.713 | 9.715 | 9.717 Mbytes
   Step          Temp          PotEng         Press           Pxx            Pyy            Pzz            Pxy            Pxz            Pyz             Lx             Ly             Lz           Volume    
         1   0             -295.75686     -2.9230412     -2.012743      -2.0129782     -4.7434026     -2.0952679e-05  1.8335783e-05 -5.0842909e-05  5.8997318      8.8495977      11.799475      616.0536     
         2   0             -295.75686     -2.923185      -2.0130004     -2.01301       -4.7435446     -7.0352172e-06  1.1467434e-05 -2.4023192e-06  5.8997318      8.8495977      11.799475      616.0536     
         3   0             -295.75686     -2.9231864     -2.0130127     -2.0130106     -4.743536       2.7963705e-07 -3.1874869e-07 -1.5150742e-06  5.8997318      8.8495977      11.799475      616.0536     
         4   0             -295.75686     -2.9231846     -2.0130098     -2.0130078     -4.7435361      1.354659e-07   4.5959639e-07 -5.8611121e-07  5.8997318      8.8495977      11.799475      616.0536     
         5   0             -295.75686     -2.9231848     -2.0130088     -2.0130087     -4.7435368      1.2035988e-07 -1.2699425e-07 -8.3308461e-08  5.8997318      8.8495977      11.799475      616.0536     
         6   0             -295.75686     -2.9231848     -2.0130085     -2.0130085     -4.7435373      1.8515642e-08  1.4216333e-08 -4.2746284e-09  5.8997318      8.8495977      11.799475      616.0536     
         7   0             -295.75686     -2.9231848     -2.0130086     -2.0130085     -4.7435373      2.8808446e-09 -2.1619191e-09 -6.0010855e-10  5.8997318      8.8495977      11.799475      616.0536     
         8   0             -295.75686     -2.9231848     -2.0130086     -2.0130085     -4.7435373      4.7595817e-10 -1.6181968e-10 -6.4980195e-10  5.8997318      8.8495977      11.799475      616.0536     
         9   0             -295.75686     -2.9231848     -2.0130086     -2.0130085     -4.7435373      1.1058784e-10  3.7419044e-10 -1.0686722e-10  5.8997318      8.8495977      11.799475      616.0536     
        10   0             -295.75686     -2.9231848     -2.0130086     -2.0130086     -4.7435373      1.7718517e-11 -6.6414254e-11 -4.1792313e-11  5.8997318      8.8495977      11.799475      616.0536     
        11   0             -295.75686     -2.9231848     -2.0130086     -2.0130086     -4.7435373      3.0749401e-11 -5.6829545e-12 -7.7429045e-12  5.8997318      8.8495977      11.799475      616.0536     
        12   0             -295.75686     -2.9231848     -2.0130086     -2.0130085     -4.7435373      3.7895736e-11  5.8639031e-11 -2.0438235e-11  5.8997318      8.8495977      11.799475      616.0536     
        13   0             -295.75686     -2.9231848     -2.0130086     -2.0130086     -4.7435373      9.0923614e-12  1.5612351e-11 -3.9090771e-11  5.8997318      8.8495977      11.799475      616.0536     
        14   0             -295.75686     -2.9231848     -2.0130085     -2.0130085     -4.7435373     -4.1248179e-12  4.9299256e-11  1.6080096e-11  5.8997318      8.8495977      11.799475      616.0536     
[...]
  1 by 2 by 2 MPI processor grid
  pair style meam stores no restart info
  48 atoms
  read_restart CPU = 0.000 seconds
include potential.mod
# NOTE: This script can be modified for different pair styles
# See in.elastic for more info.

# Choose potential
#-----------------------
#pair_style	sw
#pair_coeff * * Si.sw Si
#-----------------------
#pair_style morse	2.83994742	# D0[eV] a[1/A] r0[A] rc[A], 1NN for BCC
#pair_coeff 1 1	2.1173	1.0202	2.4595	2.6497	#	Fe-Fe
#-----------------------
#pair_style smatb # R0(A)   p       q     A(eV)   xi(eV)  Rcs(A)   Rc(A), 4NN: Rcs=4NN, Rc=(4NN+5NN)/2
#pair_coeff 1 1	2.4802	7.0149	2.3779	0.3144	3.0551	4.033	4.176	#	Co	Co
#-----------------------
#pair_style eam/alloy
#pair_coeff * * AlCrFeCoNi_Zhou04.eam.alloy Fe
#-----------------------
pair_style meam
pair_coeff * * ./../../library.meam Ni Re ./../../NiRe.meam Ni Re
#-----------------------

# Setup neighbor style
neighbor 1.0 nsq
neigh_modify once no every 1 delay 0 check yes

# Setup minimization style
min_style	     cg
min_modify	     dmax ${dmax} line quadratic
min_modify	     dmax 0.01 line quadratic

# Setup output
thermo		1
thermo_style custom step temp pe press pxx pyy pzz pxy pxz pyz lx ly lz vol
thermo_modify norm no

# Positive deformation

variable delta equal ${up}*${len0}
variable delta equal 1e-06*${len0}
variable delta equal 1e-06*8.84959774069367
variable deltaxy equal ${up}*xy
variable deltaxy equal 1e-06*xy
variable deltaxz equal ${up}*xz
variable deltaxz equal 1e-06*xz
variable deltayz equal ${up}*yz
variable deltayz equal 1e-06*yz
if "${dir} == 1" then    "change_box all x delta 0 ${delta} xy delta ${deltaxy} xz delta ${deltaxz} remap units box"
if "${dir} == 2" then    "change_box all y delta 0 ${delta} yz delta ${deltayz} remap units box"
if "${dir} == 3" then    "change_box all z delta 0 ${delta} remap units box"
if "${dir} == 4" then    "change_box all yz delta ${delta} remap units box"
if "${dir} == 5" then    "change_box all xz delta ${delta} remap units box"
if "${dir} == 6" then    "change_box all xy delta ${delta} remap units box"
change_box all xy delta ${delta} remap units box
change_box all xy delta 8.84959774069367e-06 remap units box
Changing box ...
  triclinic box = (6.7043218e-05 6.7043218e-05 6.7043218e-05) to (5.8997989 8.8496648 11.799531) with tilt (8.8495977e-06 0 0)

# Relax atoms positions

minimize ${etol} ${ftol} ${maxiter} ${maxeval}
minimize 0 ${ftol} ${maxiter} ${maxeval}
minimize 0 1e-10 ${maxiter} ${maxeval}
minimize 0 1e-10 1000 ${maxeval}
minimize 0 1e-10 1000 100000
Neighbor list info ...
  update: every = 1 steps, delay = 0 steps, check = yes
  max neighbors/atom: 2000, page size: 100000
  master list distance cutoff = 6.5
  ghost atom cutoff = 6.5
  2 neighbor lists, perpetual/occasional/extra = 2 0 0
  (1) pair meam, perpetual
      attributes: full, newton on
      pair build: full/nsq
      stencil: none
      bin: none
  (2) pair meam, perpetual, half/full from (1)
      attributes: half, newton on
      pair build: halffull/newton
      stencil: none
      bin: none
Per MPI rank memory allocation (min/avg/max) = 9.713 | 9.715 | 9.717 Mbytes
   Step          Temp          PotEng         Press           Pxx            Pyy            Pzz            Pxy            Pxz            Pyz             Lx             Ly             Lz           Volume    
         1   0             -295.75686      0.00014592397  0.0002654326   3.5063976e-05  0.00013727534 -3.1052443      1.8335184e-05 -5.0843027e-05  5.8997318      8.8495977      11.799464      616.05299    
         2   0             -295.75686      2.149372e-06   8.0124769e-06  3.229267e-06  -4.7936277e-06 -3.1052303      1.1467464e-05 -2.4025588e-06  5.8997318      8.8495977      11.799464      616.05299    
         3   0             -295.75686      7.4411364e-07 -4.3382173e-06  2.6686308e-06  3.9019274e-06 -3.105223      -3.1878278e-07 -1.515073e-06   5.8997318      8.8495977      11.799464      616.05299    
         4   0             -295.75686      2.5859564e-06 -1.4503881e-06  5.4414192e-06  3.766838e-06  -3.1052232      4.596264e-07  -5.8605075e-07  5.8997318      8.8495977      11.799464      616.05299    
         5   0             -295.75686      2.3876435e-06 -4.1017639e-07  4.5316068e-06  3.0415001e-06 -3.1052232     -1.2697047e-07 -8.3404573e-08  5.8997318      8.8495977      11.799464      616.05299    
         6   0             -295.75686      2.3760196e-06 -1.4650691e-07  4.6869386e-06  2.5876271e-06 -3.1052233      1.4330983e-08 -4.3610222e-09  5.8997318      8.8495977      11.799464      616.05299    
         7   0             -295.75686      2.3582244e-06 -1.6407555e-07  4.6907634e-06  2.5479852e-06 -3.1052233     -2.0722948e-09 -7.4694724e-10  5.8997318      8.8495977      11.799464      616.05299    
         8   0             -295.75686      2.3536732e-06 -1.6569926e-07  4.6844731e-06  2.5422459e-06 -3.1052233     -1.6818627e-10 -6.2072416e-10  5.8997318      8.8495977      11.799464      616.05299    
         9   0             -295.75686      2.3535097e-06 -1.641411e-07   4.6828562e-06  2.5418139e-06 -3.1052233      4.0616021e-10  4.7053038e-11  5.8997318      8.8495977      11.799464      616.05299    
        10   0             -295.75686      2.3535129e-06 -1.6334996e-07  4.6820422e-06  2.5418464e-06 -3.1052233     -3.9438487e-11 -2.7799833e-11  5.8997318      8.8495977      11.799464      616.05299    
        11   0             -295.75686      2.3534745e-06 -1.6325179e-07  4.6821761e-06  2.5414993e-06 -3.1052233     -4.1461976e-11  7.5862106e-11  5.8997318      8.8495977      11.799464      616.05299    
        12   0             -295.75686      2.3534357e-06 -1.6319606e-07  4.6820575e-06  2.5414456e-06 -3.1052233      3.141792e-11  -7.2934766e-11  5.8997318      8.8495977      11.799464      616.05299    
        13   0             -295.75686      2.3534397e-06 -1.6323042e-07  4.6820945e-06  2.5414549e-06 -3.1052233     -1.3166347e-10 -2.3962255e-11  5.8997318      8.8495977      11.799464      616.05299    
        14   0             -295.75686      2.3536121e-06 -1.6306035e-07  4.682268e-06   2.5416286e-06 -3.1052233     -7.1137629e-11  2.2631033e-11  5.8997318      8.8495977      11.799464      616.05299    
        15   0             -295.75686      2.3535066e-06 -1.6324587e-07  4.6821782e-06  2.5415874e-06 -3.1052233     -8.5459828e-11 -6.7895022e-11  5.8997318      8.8495977      11.799464      616.05299    
        16   0             -295.75686      2.3535699e-06 -1.6303451e-07  4.6821238e-06  2.5416205e-06 -3.1052233      3.1558617e-11 -1.3959771e-11  5.8997318      8.8495977      11.799464      616.05299    
        17   0             -295.75686      2.353499e-06  -1.6314856e-07  4.6821279e-06  2.5415177e-06 -3.1052233      9.8229097e-12 -5.700837e-12   5.8997318      8.8495977      11.799464      616.05299    
        18   0             -295.75686      2.3534521e-06 -1.6318119e-07  4.68203e-06    2.5415076e-06 -3.1052233      2.9086676e-11 -1.4735546e-10  5.8997318      8.8495977      11.799464      616.05299    
        19   0             -295.75686      2.3533801e-06 -1.6324211e-07  4.6819956e-06  2.5413869e-06 -3.1052233      2.772775e-11  -4.1451735e-11  5.8997318      8.8495977      11.799464      616.05299    
        20   0             -295.75686      2.3533404e-06 -1.6324818e-07  4.6819585e-06  2.5413109e-06 -3.1052233     -1.1898721e-10  1.3185231e-10  5.8997318      8.8495977      11.799464      616.05299    
        21   0             -295.75686      2.3536573e-06 -1.6297907e-07  4.6823038e-06  2.541647e-06  -3.1052233      4.6812981e-11  4.6462973e-11  5.8997318      8.8495977      11.799464      616.05299    
Loop time of 0.00971425 on 4 procs for 20 steps with 48 atoms

0.0% CPU use with 4 MPI tasks x 1 OpenMP threads

Minimization stats:
  Stopping criterion = force tolerance
  Energy initial, next-to-last, final = 
     -295.756864445577  -295.756864493978  -295.756864493978
  Force two-norm initial, final = 0.0016893172 8.8473171e-11
  Force max component initial, final = 0.0003867939 1.6627741e-11
  Final line search alpha, max atom move = 1 1.6627741e-11
  Iterations, force evaluations = 20 40

MPI task timing breakdown:
Section |  min time  |  avg time  |  max time  |%varavg| %total
---------------------------------------------------------------
Pair    | 0.008031   | 0.0082723  | 0.008511   |   0.2 | 85.16
Neigh   | 0          | 0          | 0          |   0.0 |  0.00
Comm    | 0.000653   | 0.00083375 | 0.001138   |   0.0 |  8.58
Output  | 0.000286   | 0.0003035  | 0.00032    |   0.0 |  3.12
Modify  | 0          | 0          | 0          |   0.0 |  0.00
Other   |            | 0.0003047  |            |       |  3.14

Nlocal:             12 ave          14 max          10 min
Histogram: 1 0 1 0 0 0 0 1 0 1
Nghost:            498 ave         500 max         496 min
Histogram: 1 0 1 0 0 0 0 1 0 1
Neighs:            528 ave         614 max         442 min
Histogram: 1 0 1 0 0 0 0 1 0 1
FullNghs:         1056 ave        1232 max         880 min
Histogram: 1 0 1 0 0 0 0 1 0 1

Total # of neighbors = 4224
Ave neighs/atom = 88
Neighbor list builds = 0
Dangerous builds = 0

# Obtain new stress tensor

variable tmp equal pe
variable e1 equal ${tmp}
variable e1 equal -295.756864493978
variable tmp equal press
variable p1 equal ${tmp}
variable p1 equal 2.35365726409861e-06
variable tmp equal pxx
variable pxx1 equal ${tmp}
variable pxx1 equal -1.62979073023607e-07
variable tmp equal pyy
variable pyy1 equal ${tmp}
variable pyy1 equal 4.68230383596421e-06
variable tmp equal pzz
variable pzz1 equal ${tmp}
variable pzz1 equal 2.54164702935521e-06
variable tmp equal pxy
variable pxy1 equal ${tmp}
variable pxy1 equal -3.10522330226791
variable tmp equal pxz
variable pxz1 equal ${tmp}
variable pxz1 equal 4.68129810652007e-11
variable tmp equal pyz
variable pyz1 equal ${tmp}
variable pyz1 equal 4.64629725620833e-11

# Compute elastic constant from pressure tensor

variable C1pos equal ${d1}
variable C1pos equal 1.62866724039296e-05
variable C2pos equal ${d2}
variable C2pos equal -0.000468257000641154
variable C3pos equal ${d3}
variable C3pos equal -0.000254158798262795
variable C4pos equal ${d4}
variable C4pos equal -1.51572282740264e-08
variable C5pos equal ${d5}
variable C5pos equal 8.19637443930353e-09
variable C6pos equal ${d6}
variable C6pos equal 310.522330228466

# Combine positive and negative

variable C1${dir} equal 0.5*(${C1neg}+${C1pos})
variable C16 equal 0.5*(${C1neg}+${C1pos})
variable C16 equal 0.5*(-1.62993046499807e-05+${C1pos})
variable C16 equal 0.5*(-1.62993046499807e-05+1.62866724039296e-05)
variable C2${dir} equal 0.5*(${C2neg}+${C2pos})
variable C26 equal 0.5*(${C2neg}+${C2pos})
variable C26 equal 0.5*(0.000468243906415819+${C2pos})
variable C26 equal 0.5*(0.000468243906415819+-0.000468257000641154)
variable C3${dir} equal 0.5*(${C3neg}+${C3pos})
variable C36 equal 0.5*(${C3neg}+${C3pos})
variable C36 equal 0.5*(0.000254152474921344+${C3pos})
variable C36 equal 0.5*(0.000254152474921344+-0.000254158798262795)
variable C4${dir} equal 0.5*(${C4neg}+${C4pos})
variable C46 equal 0.5*(${C4neg}+${C4pos})
variable C46 equal 0.5*(6.94609347767339e-09+${C4pos})
variable C46 equal 0.5*(6.94609347767339e-09+-1.51572282740264e-08)
variable C5${dir} equal 0.5*(${C5neg}+${C5pos})
variable C56 equal 0.5*(${C5neg}+${C5pos})
variable C56 equal 0.5*(-5.24789435726307e-09+${C5pos})
variable C56 equal 0.5*(-5.24789435726307e-09+8.19637443930353e-09)
variable C6${dir} equal 0.5*(${C6neg}+${C6pos})
variable C66 equal 0.5*(${C6neg}+${C6pos})
variable C66 equal 0.5*(310.522330236263+${C6pos})
variable C66 equal 0.5*(310.522330236263+310.522330228466)

# Delete dir to make sure it is not reused

variable dir delete

# Output final values

variable C11all equal ${C11}
variable C11all equal 474.355654490107
variable C22all equal ${C22}
variable C22all equal 474.355654457696
variable C33all equal ${C33}
variable C33all equal 474.355654489594

variable C12all equal 0.5*(${C12}+${C21})
variable C12all equal 0.5*(201.300727939548+${C21})
variable C12all equal 0.5*(201.300727939548+201.300727958533)
variable C13all equal 0.5*(${C13}+${C31})
variable C13all equal 0.5*(201.300727950808+${C31})
variable C13all equal 0.5*(201.300727950808+201.300727955082)
variable C23all equal 0.5*(${C23}+${C32})
variable C23all equal 0.5*(201.300727952585+${C32})
variable C23all equal 0.5*(201.300727952585+201.300727946651)

variable C44all equal ${C44}
variable C44all equal 310.522330229735
variable C55all equal ${C55}
variable C55all equal 310.522330221753
variable C66all equal ${C66}
variable C66all equal 310.522330232364

variable C14all equal 0.5*(${C14}+${C41})
variable C14all equal 0.5*(-8.08463747499748e-10+${C41})
variable C14all equal 0.5*(-8.08463747499748e-10+1.1568391826148e-09)
variable C15all equal 0.5*(${C15}+${C51})
variable C15all equal 0.5*(3.60921315745127e-09+${C51})
variable C15all equal 0.5*(3.60921315745127e-09+4.04135700542452e-09)
variable C16all equal 0.5*(${C16}+${C61})
variable C16all equal 0.5*(-6.31612302554946e-09+${C61})
variable C16all equal 0.5*(-6.31612302554946e-09+1.64826103784995e-09)

variable C24all equal 0.5*(${C24}+${C42})
variable C24all equal 0.5*(6.33055987819936e-09+${C42})
variable C24all equal 0.5*(6.33055987819936e-09+-3.99975905151488e-09)
variable C25all equal 0.5*(${C25}+${C52})
variable C25all equal 0.5*(5.39938288350583e-09+${C52})
variable C25all equal 0.5*(5.39938288350583e-09+-6.29288312781645e-09)
variable C26all equal 0.5*(${C26}+${C62})
variable C26all equal 0.5*(-6.5471126674938e-09+${C62})
variable C26all equal 0.5*(-6.5471126674938e-09+3.72825486804949e-09)

variable C34all equal 0.5*(${C34}+${C43})
variable C34all equal 0.5*(-2.74300199524721e-10+${C43})
variable C34all equal 0.5*(-2.74300199524721e-10+4.63973567062364e-09)
variable C35all equal 0.5*(${C35}+${C53})
variable C35all equal 0.5*(5.75308577350792e-09+${C53})
variable C35all equal 0.5*(5.75308577350792e-09+-1.5979430353675e-09)
variable C36all equal 0.5*(${C36}+${C63})
variable C36all equal 0.5*(-3.16167072549251e-09+${C63})
variable C36all equal 0.5*(-3.16167072549251e-09+-3.54035648380165e-09)

variable C45all equal 0.5*(${C45}+${C54})
variable C45all equal 0.5*(3.33291466078171e-09+${C54})
variable C45all equal 0.5*(3.33291466078171e-09+2.54566980104745e-09)
variable C46all equal 0.5*(${C46}+${C64})
variable C46all equal 0.5*(-4.10556739817651e-09+${C64})
variable C46all equal 0.5*(-4.10556739817651e-09+5.45211344869205e-10)
variable C56all equal 0.5*(${C56}+${C65})
variable C56all equal 0.5*(1.47424004102023e-09+${C65})
variable C56all equal 0.5*(1.47424004102023e-09+3.65605213982051e-09)

# Average moduli for cubic crystals

variable C11cubic equal (${C11all}+${C22all}+${C33all})/3.0
variable C11cubic equal (474.355654490107+${C22all}+${C33all})/3.0
variable C11cubic equal (474.355654490107+474.355654457696+${C33all})/3.0
variable C11cubic equal (474.355654490107+474.355654457696+474.355654489594)/3.0
variable C12cubic equal (${C12all}+${C13all}+${C23all})/3.0
variable C12cubic equal (201.30072794904+${C13all}+${C23all})/3.0
variable C12cubic equal (201.30072794904+201.300727952945+${C23all})/3.0
variable C12cubic equal (201.30072794904+201.300727952945+201.300727949618)/3.0
variable C44cubic equal (${C44all}+${C55all}+${C66all})/3.0
variable C44cubic equal (310.522330229735+${C55all}+${C66all})/3.0
variable C44cubic equal (310.522330229735+310.522330221753+${C66all})/3.0
variable C44cubic equal (310.522330229735+310.522330221753+310.522330232364)/3.0

variable bulkmodulus equal (${C11cubic}+2*${C12cubic})/3.0
variable bulkmodulus equal (474.355654479132+2*${C12cubic})/3.0
variable bulkmodulus equal (474.355654479132+2*201.300727950534)/3.0
variable shearmodulus1 equal ${C44cubic}
variable shearmodulus1 equal 310.522330227951
variable shearmodulus2 equal (${C11cubic}-${C12cubic})/2.0
variable shearmodulus2 equal (474.355654479132-${C12cubic})/2.0
variable shearmodulus2 equal (474.355654479132-201.300727950534)/2.0
variable poissonratio equal 1.0/(1.0+${C11cubic}/${C12cubic})
variable poissonratio equal 1.0/(1.0+474.355654479132/${C12cubic})
variable poissonratio equal 1.0/(1.0+474.355654479132/201.300727950534)

# For Stillinger-Weber silicon, the analytical results
# are known to be (E. R. Cowley, 1988):
#               C11 = 151.4 GPa
#               C12 = 76.4 GPa
#               C44 = 56.4 GPa

print "========================================="
=========================================
print "Components of the Elastic Constant Tensor"
Components of the Elastic Constant Tensor
print "========================================="
=========================================

print "Elastic Constant C11all = ${C11all} ${cunits}"
Elastic Constant C11all = 474.355654490107 GPa
print "Elastic Constant C22all = ${C22all} ${cunits}"
Elastic Constant C22all = 474.355654457696 GPa
print "Elastic Constant C33all = ${C33all} ${cunits}"
Elastic Constant C33all = 474.355654489594 GPa

print "Elastic Constant C12all = ${C12all} ${cunits}"
Elastic Constant C12all = 201.30072794904 GPa
print "Elastic Constant C13all = ${C13all} ${cunits}"
Elastic Constant C13all = 201.300727952945 GPa
print "Elastic Constant C23all = ${C23all} ${cunits}"
Elastic Constant C23all = 201.300727949618 GPa

print "Elastic Constant C44all = ${C44all} ${cunits}"
Elastic Constant C44all = 310.522330229735 GPa
print "Elastic Constant C55all = ${C55all} ${cunits}"
Elastic Constant C55all = 310.522330221753 GPa
print "Elastic Constant C66all = ${C66all} ${cunits}"
Elastic Constant C66all = 310.522330232364 GPa

print "Elastic Constant C14all = ${C14all} ${cunits}"
Elastic Constant C14all = 1.74187717557526e-10 GPa
print "Elastic Constant C15all = ${C15all} ${cunits}"
Elastic Constant C15all = 3.82528508143789e-09 GPa
print "Elastic Constant C16all = ${C16all} ${cunits}"
Elastic Constant C16all = -2.33393099384975e-09 GPa

print "Elastic Constant C24all = ${C24all} ${cunits}"
Elastic Constant C24all = 1.16540041334224e-09 GPa
print "Elastic Constant C25all = ${C25all} ${cunits}"
Elastic Constant C25all = -4.4675012215531e-10 GPa
print "Elastic Constant C26all = ${C26all} ${cunits}"
Elastic Constant C26all = -1.40942889972215e-09 GPa

print "Elastic Constant C34all = ${C34all} ${cunits}"
Elastic Constant C34all = 2.18271773554946e-09 GPa
print "Elastic Constant C35all = ${C35all} ${cunits}"
Elastic Constant C35all = 2.07757136907021e-09 GPa
print "Elastic Constant C36all = ${C36all} ${cunits}"
Elastic Constant C36all = -3.35101360464708e-09 GPa

print "Elastic Constant C45all = ${C45all} ${cunits}"
Elastic Constant C45all = 2.93929223091458e-09 GPa
print "Elastic Constant C46all = ${C46all} ${cunits}"
Elastic Constant C46all = -1.78017802665365e-09 GPa
print "Elastic Constant C56all = ${C56all} ${cunits}"
Elastic Constant C56all = 2.56514609042037e-09 GPa

print "========================================="
=========================================
print "Average properties for a cubic crystal"
Average properties for a cubic crystal
print "========================================="
=========================================

print "Bulk Modulus = ${bulkmodulus} ${cunits}"
Bulk Modulus = 292.3190367934 GPa
print "Shear Modulus 1 = ${shearmodulus1} ${cunits}"
Shear Modulus 1 = 310.522330227951 GPa
print "Shear Modulus 2 = ${shearmodulus2} ${cunits}"
Shear Modulus 2 = 136.527463264299 GPa
print "Poisson Ratio = ${poissonratio}"
Poisson Ratio = 0.297933584563584
Total wall time: 0:00:00
