ITEM: TIMESTEP
0
ITEM: NUMBER OF ATOMS
6000
ITEM: BOX BOUNDS pp pp pp
8.3457931426908161e-02 2.7257542068572725e+01
8.6706045349071559e-02 2.7254293954651061e+01
3.4562233416711763e-01 1.0901837766583313e+02
ITEM: ATOMS id type x y z c_peratom fx fy fz 
122 2 5.314 5.54309 5.95687 -25.2686 1.6943 -1.42648 -1.14078 
601 2 5.50919 2.62943 3.1048 -25.2001 0.150397 1.13899 0.255415 
602 2 5.40743 2.73291 8.49352 -25.193 -0.156011 0.438153 -0.578891 
1021 2 2.74348 5.42902 3.20057 -25.5433 0.247006 -1.24228 -0.444968 
1022 2 2.57464 5.35587 8.65455 -25.6456 0.879256 1.84046 -1.82132 
1502 2 2.69634 2.67973 5.8977 -25.5276 0.455503 -0.342281 -0.68751 
2001 1 1.43849 1.39602 1.78261 -7.47727 -0.596782 -1.03725 -0.650311 
2002 1 1.41052 1.30822 7.33729 -7.35329 0.267281 -0.00536176 -1.7124 
2501 1 4.27712 3.86685 4.41662 -7.17594 -1.23874 1.31846 0.769053 
3001 1 4.19878 4.07042 1.75157 -7.64859 -1.03292 -0.924785 0.469607 
3002 1 3.98014 4.2146 7.08853 -7.51798 -1.15136 -2.31409 0.817325 
3501 1 1.47745 1.29109 4.42675 -7.39873 0.126114 -0.706722 0.919566 
4001 1 4.17894 1.25281 4.46576 -7.47078 -0.608495 0.0877999 -2.0931 
4501 1 1.42834 4.0144 1.74153 -7.88448 0.0203448 0.894185 0.926447 
4502 1 1.18855 3.81089 7.35917 -7.50551 1.19691 1.85632 -0.548273 
5001 1 1.37447 3.99875 4.61299 -7.6129 1.0011 0.0244191 -0.385761 
5501 1 4.18124 1.23488 1.56517 -8.08616 -0.0335283 0.532261 0.80289 
5502 1 4.1093 1.28784 7.11501 -7.58929 0.027235 1.36953 1.0231 
2102 1 6.80894 1.49571 7.05729 -6.94845 0.588531 -0.578779 0.776027 
4601 1 6.73999 4.15223 1.5935 -8.13831 2.67949 -1.00247 0.96318 
5522 1 3.94393 6.72273 7.36159 -7.40736 -0.0932805 1.59993 -0.95466 
3521 1 1.37314 6.61984 4.59239 -7.5671 -1.23196 1.47881 -0.292522 
2022 1 1.24344 6.73245 7.33323 -7.45004 -0.664348 -1.1428 -0.089699 
4021 1 3.93606 6.61517 4.66188 -7.57099 0.465617 1.63736 -0.0669808 
4602 1 6.66963 4.09886 7.17738 -7.61819 0.41081 0.70937 -0.784888 
121 3 5.52909 5.19357 0.488336 -28.5294 -0.421401 3.3439 -0.67595 
2101 1 6.7954 1.48172 1.70816 -7.96649 0.14145 0.00696481 -0.155174 
3621 1 6.64346 6.79435 4.4631 -7.56468 1.18078 0.346963 1.02867 
5521 1 4.18229 6.74116 2.01004 -7.08258 0.0202308 0.331808 -1.3999 
2121 1 6.80324 6.84086 1.64223 -7.57739 0.531345 0.286725 1.03451 
1501 2 2.9284 2.77995 0.37443 -25.2605 -1.20851 -0.673289 0.00591275 
21 2 0.215935 5.30248 0.359597 -25.1774 -0.670411 1.21844 -1.29983 
5101 1 7.09527 4.07488 4.37135 -6.83418 -0.510502 0.412457 -0.907697 
3601 1 6.98466 1.41198 4.42273 -7.75388 -0.441816 -0.668843 -0.79074 
222 2 10.8644 5.45771 5.88849 -24.9442 1.36745 0.559556 -2.40364 
701 2 10.9929 2.68691 3.15215 -25.3079 -0.344947 0.847245 -2.25422 
702 2 10.9764 2.80499 8.52752 -25.3615 0.0519048 -0.463126 0.350264 
1121 2 8.32302 5.53056 2.78495 -25.1505 -1.0449 0.0484023 2.98559 
1122 2 8.0359 5.4162 8.34631 -24.9123 1.78409 0.191214 1.82918 
1602 2 8.29712 2.75395 5.68199 -25.2692 -1.06015 -0.82438 0.210167 
2201 1 12.2604 1.48954 1.74042 -7.87893 1.26521 -0.453143 0.182988 
2202 1 12.476 1.50102 7.05167 -6.89601 -1.71144 -0.220662 1.34703 
2601 1 9.74308 4.22744 4.24683 -7.38175 -0.457638 -0.592566 1.12609 
3101 1 9.7332 4.32433 1.6441 -7.45603 -0.765491 -0.791844 -0.770603 
3102 1 9.45037 4.07996 6.98188 -8.31849 1.07237 0.26533 1.40601 
3701 1 12.4674 1.24538 4.49626 -7.46495 0.322221 0.870675 -2.04296 
4101 1 9.75973 1.29578 4.38179 -7.94209 -0.954676 0.635598 0.493024 
4701 1 12.4818 4.20362 1.70304 -6.97621 -1.25729 -0.388204 -0.817396 
4702 1 12.4392 4.18087 7.11667 -8.00093 -1.88555 0.628689 0.609528 
5201 1 12.3669 3.89289 4.37248 -7.59317 0.510331 1.2383 0.493016 
5601 1 9.47204 1.5117 1.6554 -7.59891 0.101999 0.596463 -0.573392 
5602 1 9.71034 1.37537 7.22907 -7.63531 -0.272913 0.838546 -0.779976 
3721 1 12.4108 6.67191 4.50085 -7.68152 -0.711225 0.433218 0.404761 
5622 1 9.51511 6.79709 6.95634 -7.88173 -0.709055 0.574403 1.36474 
2222 1 12.2294 6.8481 7.28939 -7.94348 -0.0153678 -0.0777295 0.0642277 
1601 3 8.10595 2.84723 0.394288 -28.6147 1.70779 -1.14799 -0.887207 
202 2 11.1362 0.125529 5.76811 -25.6364 -0.8044 -2.67129 1.93391 
1102 2 8.27668 0.187337 8.61529 -25.3152 1.07636 -0.422047 -2.18604 
2021 1 1.59001 6.88444 1.80077 -7.54683 -1.17707 -0.589921 0.783916 
142 2 5.33876 11.0574 5.76195 -25.5047 1.00582 -0.753124 0.480079 
621 2 5.43282 8.12825 3.18584 -25.42 -0.226939 0.198008 -1.89631 
622 2 5.26645 8.03305 8.55483 -25.9565 0.766976 2.79966 2.0102 
1041 2 2.87375 10.897 3.08251 -25.5881 -2.63267 1.42121 -0.938568 
1042 2 2.52033 10.9887 8.71814 -25.1602 1.48093 -0.00440031 -1.9993 
1522 2 2.66263 8.22877 5.74436 -25.2567 -0.453349 -1.1113 1.75226 
2041 1 1.27646 12.4558 1.72225 -7.10448 1.18592 -0.0153585 1.2667 
2042 1 1.27161 12.2371 7.21735 -7.38005 -0.872168 -0.494899 0.492113 
2521 1 3.95239 9.41953 4.32688 -7.74827 1.79347 0.231284 1.25234 
3021 1 4.05778 9.67218 1.6788 -7.44724 0.529716 -1.51696 -1.31784 
3022 1 4.18636 9.54186 7.09278 -7.17172 -1.26258 -0.432136 -0.579674 
3541 1 1.46172 12.2329 4.5429 -6.78754 -1.93192 0.21022 -0.559473 
4041 1 3.97677 12.3778 4.36364 -7.8922 2.43252 -0.444589 0.0506852 
4521 1 1.32782 9.64207 1.61826 -7.56681 0.455258 -0.991738 0.755485 
4522 1 1.31693 9.34448 7.25703 -7.61415 1.18488 1.1276 -0.85418 
5021 1 1.45434 9.60014 4.33713 -7.41009 -1.37375 -1.51934 0.948746 
5541 1 4.1021 12.3227 1.53995 -7.60448 -1.59529 0.205914 0.0340068 
5542 1 3.85468 12.3097 7.19623 -7.4971 0.880922 -0.0454411 -0.148051 
2122 1 6.75629 6.9103 7.38344 -8.18227 -0.133206 -0.511592 -1.64387 
2141 1 6.6261 12.3686 1.62667 -7.27017 1.81714 0.155911 0.483097 
5121 1 6.67002 9.56997 4.25224 -7.18743 0.588897 0.111157 1.83415 
2142 1 6.67527 12.3228 7.21328 -7.20022 -0.349002 -1.14557 0.0751769 
4622 1 6.83171 9.57859 7.03647 -7.2451 0.544282 1.02166 0.0539022 
4621 1 6.81581 9.67057 1.72547 -7.27368 0.101095 -0.406775 -0.719974 
642 2 5.2489 13.5971 8.5011 -26.2056 0.934928 0.37839 0.738203 
1621 2 8.12295 8.33982 0.488504 -24.7017 -0.685235 -0.385864 -2.18535 
4121 1 9.5987 7.00376 4.28943 -7.22376 -0.362419 -0.195342 -0.0218802 
2221 1 12.3711 6.92299 1.67176 -8.19715 -0.258371 0.688731 0.461176 
1242 2 13.5233 10.8891 8.42572 -25.8694 1.15539 1.28026 1.24731 
5621 1 9.53126 7.08115 1.62321 -8.16838 1.06954 -0.396711 -0.279004 
3641 1 6.95042 12.2153 4.51004 -6.83798 -1.55627 -0.102962 -0.519781 
242 2 10.8532 10.8577 5.79773 -24.7112 -0.492607 0.799483 0.11164 
721 2 10.9382 8.28733 2.93698 -24.4566 -0.253428 -0.461156 1.21168 
722 3 10.8844 8.14656 8.4692 -29.0414 -0.258399 0.564066 1.35681 
1141 3 8.24947 10.9379 2.99392 -28.8978 -2.0378 0.798543 1.28565 
1142 3 8.0854 10.9251 8.48754 -28.9071 -1.0282 -0.601422 0.531282 
1622 2 8.10823 8.32377 5.80562 -25.163 0.341508 -1.22089 -0.564418 
2241 1 12.1525 12.3336 1.58121 -7.67231 1.21395 1.91238 1.2211 
2242 1 12.2679 12.231 7.0304 -7.78153 -0.454132 -0.305592 0.160988 
2621 1 9.37158 9.6415 4.49819 -7.99934 1.56655 -0.0549144 -0.506784 
3121 1 9.49023 9.79429 1.67525 -8.29559 0.345173 -0.989213 -0.268304 
3122 1 9.62723 9.50875 7.30217 -7.57239 -0.552362 0.507305 -2.17789 
3741 1 12.1545 12.3035 4.37492 -7.52943 0.0967362 -0.871252 -0.176538 
4141 1 9.48024 12.2418 4.40167 -7.34345 1.31304 1.08013 -0.522133 
4721 1 12.1815 9.69308 1.67581 -7.92221 0.948738 -0.77381 0.595771 
4722 1 12.2807 9.53004 7.23617 -8.01219 -0.907757 -0.595455 -1.42606 
5221 1 12.4238 9.43984 4.38292 -8.67338 -1.68453 0.161354 0.667753 
5641 1 9.49118 12.3712 1.64494 -8.23599 -0.858907 0.775941 0.215175 
5642 1 9.32634 12.2507 7.13363 -8.02946 1.48285 -1.2386 0.986362 
742 2 10.7435 13.5432 8.47713 -25.3171 0.369157 -0.0858418 0.699187 
1241 2 13.593 10.9179 3.25005 -24.9392 1.3213 1.2151 -1.77704 
1722 2 13.576 8.1751 5.86471 -25.1264 1.89511 -0.907839 -0.427281 
241 2 10.8754 11.1251 0.364667 -25.0509 -0.213944 -1.35707 -2.79193 
24 3 0.106294 5.53714 16.6293 -29.5287 0.217662 -0.350871 -0.0275249 
4504 1 1.18072 4.08307 18.097 -7.15975 1.77194 0.926805 -0.679127 
123 3 5.45904 5.42825 11.3621 -29.3716 -0.282655 1.53322 -0.876921 
124 2 5.33383 5.53104 16.5464 -25.8831 0.230923 0.0457587 1.46258 
603 2 5.48544 2.73709 13.8871 -25.6212 -1.7959 -0.056143 0.0574573 
1023 2 2.71329 5.61312 14.0306 -25.5778 0.00504916 0.206187 -1.00684 
1503 2 2.71545 2.88 11.2528 -25.4956 -0.665658 -0.513661 0.714769 
1504 3 2.71628 2.85603 16.6372 -29.1608 1.29149 0.313756 -0.580406 
2003 1 1.29441 1.53874 12.5411 -7.42956 0.0448244 -1.06672 0.016412 
2004 1 1.47885 1.59345 17.9589 -8.01359 0.366549 -0.638954 -0.462842 
2502 1 3.96003 4.05098 9.80009 -7.66699 0.885952 -1.23423 0.489214 
2503 1 4.14108 4.24143 15.235 -7.10638 -0.574518 -0.130056 -0.842249 
3003 1 4.17368 4.25503 12.5599 -7.60555 -0.712167 -1.17769 -0.377444 
3004 1 3.98077 4.11825 17.8727 -7.52744 -1.05344 -0.451437 1.33399 
3502 1 1.33988 1.60655 9.90752 -7.4128 0.389797 -0.0043693 -0.109938 
3503 1 1.50485 1.67104 15.1822 -7.84284 -0.29841 0.420142 1.07683 
4002 1 4.1408 1.37643 9.99913 -7.75186 0.49943 0.731085 -0.834179 
4003 1 4.15523 1.57887 15.3015 -6.79719 -0.141299 -0.66183 0.308644 
4503 1 1.40414 4.12603 12.7977 -7.7932 -0.0236498 0.729314 0.00955854 
5002 1 1.2618 4.40524 10.0111 -7.77928 -1.73881 -1.53319 1.4439 
5003 1 1.61814 4.44922 15.5308 -7.73975 -1.83849 -1.76695 -0.094663 
5503 1 3.98478 1.40495 12.6942 -7.42013 1.10128 1.80567 -1.61844 
5504 1 4.21187 1.42134 17.9254 -7.78635 -0.192011 0.183126 0.0233147 
5523 1 4.09988 6.85616 12.6488 -7.62079 -0.833639 -0.0271515 -0.0784941 
5524 1 4.11489 6.81513 18.0298 -7.06168 1.06617 0.261463 0.269645 
4603 1 6.78875 4.03089 12.4821 -7.83741 0.682431 -0.526838 -0.32236 
5102 1 6.67844 4.41603 9.81019 -7.78795 0.182486 -1.29321 0.658373 
5103 1 6.69514 4.0228 15.1459 -8.02325 2.55711 1.69223 0.780706 
4604 1 6.58717 4.27549 17.96 -7.14594 1.33708 -0.789424 -0.439412 
3623 1 6.76336 6.83183 15.4088 -7.58487 0.0875578 -0.913586 -1.63646 
2123 1 6.82973 6.58875 12.7853 -7.30171 -0.00223237 0.399536 0.413746 
2103 1 6.75454 1.38614 12.5592 -8.12281 0.194074 -0.856035 -1.13919 
2024 1 1.525 6.73646 17.8077 -7.22149 0.249679 0.876693 1.24719 
4022 1 4.00096 6.65329 9.96767 -6.9971 0.378918 1.13716 0.53495 
4 2 0.135033 0.264641 16.7506 -25.4286 -0.322003 0.199464 -0.0720543 
503 3 0.236934 2.81621 13.9484 -28.4065 -1.37967 -0.206299 -0.118301 
1003 2 2.76192 0.0982728 13.8815 -25.5122 -0.447514 0.411913 0.883941 
1203 2 13.6586 0.206559 13.8756 -25.3777 0.582451 -2.13861 1.55442 
1103 2 8.21429 0.09379 13.9216 -24.8791 -0.14772 -0.883615 -0.678376 
1223 2 13.6178 5.62276 14.1235 -24.9905 0.442253 -0.32522 -1.71399 
3602 1 6.9748 1.65157 9.7961 -8.33229 -1.78887 -0.870951 0.458072 
3603 1 6.8823 1.34965 15.209 -7.75988 0.0832313 0.294382 0.692203 
2104 1 7.00633 1.60277 18.0192 -6.98652 -1.74527 -1.12306 -0.902481 
2124 1 6.92768 6.84955 17.9275 -7.40147 -0.621853 0.962813 1.61887 
223 2 10.7189 5.52009 11.3138 -25.1787 1.45215 -0.46956 -1.63186 
224 3 10.9054 5.75993 16.7274 -28.3699 0.0919562 -1.19167 0.154894 
703 2 11.0927 2.748 13.7797 -24.8874 -2.82398 1.0734 0.277762 
1123 3 8.15541 5.35131 13.9742 -28.4823 0.176281 0.579953 -0.382965 
1603 3 8.00171 2.81472 11.1588 -28.5912 2.38846 0.429021 0.605652 
1604 2 8.19207 2.87292 16.4441 -25.0504 -0.400527 -1.3575 2.20989 
2203 1 12.3587 1.35304 12.4057 -7.97591 -1.27735 0.760065 0.925775 
2204 1 12.3081 1.34964 17.8468 -7.6165 -0.200012 0.942765 0.624035 
2602 1 9.54459 4.07873 9.81857 -7.34969 -1.07476 0.515228 -0.74236 
2603 1 9.56895 4.04557 15.218 -7.60478 -0.110993 0.257397 -0.866271 
3103 1 9.50525 4.13654 12.4739 -7.85907 -0.216078 -0.403216 1.14998 
3104 1 9.5191 4.27189 17.9122 -8.3609 0.240317 -0.180803 -0.231197 
3702 1 12.4113 1.55372 9.82871 -7.33045 -0.484992 -1.32448 -0.83615 
3703 1 12.2912 1.57184 15.1453 -7.90699 0.464735 -0.449444 0.534042 
4102 1 9.54122 1.47653 9.93198 -7.25852 1.11335 -0.786942 -0.184133 
4103 1 9.56947 1.4119 15.1489 -7.81928 0.626377 -0.343931 1.03238 
4703 1 12.4421 4.18106 12.7444 -7.91028 -0.897386 -0.162575 -0.488759 
4704 1 12.397 4.16838 18.2496 -7.31787 -0.965676 0.509982 -2.35839 
5202 1 12.2356 4.14711 9.92167 -7.62995 0.428848 1.31569 0.147321 
5203 1 12.3554 4.40165 15.4941 -7.58102 -0.560957 -0.691406 0.578615 
5603 1 9.47107 1.43367 12.5236 -7.17734 0.696107 -0.040623 0.186457 
5604 1 9.41448 1.20454 18.0302 -6.91643 2.4949 0.952019 -1.56201 
5623 1 9.52185 6.81766 12.6542 -7.93576 -0.701629 0.0387415 -0.0858096 
4123 1 9.57083 6.61807 15.3173 -7.71033 -0.925012 1.40314 -0.744069 
4122 1 9.29016 6.73028 9.80485 -7.60097 0.840087 -0.725546 -0.822842 
204 2 10.9121 0.172783 16.5956 -25.4526 0.0831489 -1.80897 0.824244 
1543 3 2.58856 13.6335 11.3743 -29.0925 1.05724 0.0709087 -0.525246 
1544 3 2.93253 13.5884 16.5317 -27.6979 -0.829984 0.825797 0.663365 
3523 1 1.31939 7.00246 15.2655 -7.29717 -0.831198 0.262154 -0.441803 
4023 1 3.92571 7.00613 15.4274 -7.6866 0.877745 -0.304076 -1.34352 
3622 1 6.67589 7.06383 10.2367 -6.75311 -2.31592 -2.4563 -1.73129 
2023 1 1.25341 6.95628 12.6716 -7.72103 0.377198 -0.306736 -0.465627 
3522 1 1.41182 6.97085 10.0319 -7.79477 -1.25064 0.0734956 -0.596888 
143 2 5.41088 10.9432 11.3469 -26.1492 -0.561891 -0.456182 -1.81879 
144 2 5.41757 10.8844 16.5735 -25.5137 1.59149 -0.848814 0.448486 
623 2 5.41846 8.10153 13.8853 -25.7831 0.393302 1.03326 0.6576 
1043 3 2.51994 10.9284 13.8955 -28.1139 1.84505 -0.325622 0.787805 
1523 2 2.63967 8.33148 11.2203 -25.0428 2.01414 -1.4446 0.893995 
1524 3 2.61155 8.28831 16.5917 -29.5796 1.53471 -0.854499 -0.481571 
2043 1 1.26175 12.2364 12.6371 -8.1369 0.550105 0.441451 1.1791 
2044 1 1.313 12.2929 18.3614 -8.21771 -1.5374 0.828699 -2.76391 
2522 1 4.07202 9.59724 9.82614 -7.54045 -2.18052 -0.598232 0.802965 
2523 1 4.1677 9.68463 15.2599 -6.96045 -1.70148 -0.361267 -1.18012 
3023 1 4.11844 9.53553 12.6361 -7.44443 -1.45897 0.619956 -0.614371 
3024 1 4.16943 9.44929 17.8216 -7.25079 0.37577 -0.0731694 1.22774 
3542 1 1.15393 12.2695 9.92844 -7.81259 1.18079 0.706392 0.426746 
3543 1 1.49853 12.272 15.6493 -8.30389 0.0581325 -0.285794 -1.21795 
4042 1 3.95643 12.3039 9.98579 -7.31158 -1.3805 0.292769 -1.00203 
4043 1 4.29637 12.356 15.3646 -7.7613 -2.49192 1.98618 -1.94815 
4523 1 1.4591 9.66918 12.5422 -8.11428 0.0694171 -0.198224 0.16994 
4524 1 1.56534 9.53119 17.8791 -8.08197 -1.85787 0.286248 -0.186138 
5022 1 1.23452 9.59293 9.87769 -8.09672 0.845804 -0.0299961 1.00262 
5023 1 1.41828 9.58151 15.1962 -7.57788 -0.133806 0.910102 -0.199346 
5543 1 3.94158 12.3121 12.4867 -7.34301 -0.368006 -1.23283 2.19409 
5544 1 4.07052 12.0647 17.8551 -8.03128 -0.40828 3.03607 0.751939 
3642 1 6.6073 12.2704 9.97089 -6.80254 0.801048 -0.126765 -0.50948 
2143 1 6.7458 12.3059 12.6658 -8.10285 0.433401 -0.847904 -0.179035 
4623 1 6.72232 9.47101 12.4822 -7.37267 1.53965 0.113771 0.497258 
5123 1 6.81313 9.43584 15.1642 -7.77988 0.253063 0.833157 0.455155 
3643 1 6.78041 12.2317 15.3411 -7.89032 1.89198 0.655003 0.502438 
5122 1 6.66419 9.5605 9.78423 -6.46054 1.73757 1.05053 -0.519777 
2144 1 6.78206 12.3697 18.1103 -7.31936 -0.0423851 -0.717198 -1.29907 
2623 1 9.54998 9.63956 15.4107 -7.63184 -1.29958 -1.41669 0.117396 
4143 1 9.61056 12.2707 15.3893 -7.49051 -0.358356 0.41359 1.95966 
5643 1 9.49983 12.3864 12.91 -7.74703 -0.649322 -2.01709 -2.7912 
1243 2 13.5366 11.0873 13.9814 -25.1182 2.67044 -2.77611 -2.47581 
2622 1 9.54758 9.3861 9.75159 -7.18244 -0.430121 0.927802 1.89313 
5644 1 9.48651 12.3125 18.275 -7.16478 -0.134407 1.09866 -0.760193 
3123 1 9.54393 9.50331 12.6345 -7.66743 -1.26046 0.972028 -0.814102 
1143 2 8.03649 10.9395 14.0039 -25.0912 1.91854 -0.933906 -0.321557 
5624 1 9.63771 7.17184 17.8399 -7.41537 0.593972 -0.755821 0.37146 
2223 1 12.2293 6.92352 12.6793 -8.01117 -0.292766 -1.17932 1.97286 
4724 1 12.359 9.73146 18.0313 -7.57049 1.68668 -0.791077 0.336009 
1724 2 13.6368 8.29879 16.5494 -25.1304 0.835916 0.843151 3.28973 
1723 2 13.4269 8.17241 11.401 -25.7114 2.20996 1.77508 -1.55529 
244 3 11.0285 10.8588 16.7044 -29.4988 -1.06042 0.748805 0.157644 
1624 2 8.09884 8.23202 16.5865 -25.1713 1.32843 -0.17374 0.225022 
4723 1 12.1732 9.69547 12.8034 -7.37049 0.341516 -0.275302 -1.19968 
5222 1 12.3237 9.46741 9.96722 -6.61972 -1.67079 1.15197 -0.00254359 
2243 1 12.2977 12.4002 12.4211 -7.77988 0.0884625 -0.297203 0.346457 
2244 1 12.2274 12.335 17.8639 -7.43118 -0.0377766 1.13415 0.572164 
243 2 10.7822 11.0618 11.2991 -25.2652 0.913657 -1.95283 0.0551108 
3723 1 12.1947 7.0158 15.5307 -8.17507 0.100055 -0.591697 -1.18335 
3743 1 12.3206 12.162 15.2217 -7.86694 -2.48439 3.34908 1.50813 
3742 1 11.9721 12.1439 9.69454 -7.42882 0.234363 0.112878 0.0884203 
5223 1 12.1262 9.61643 15.3869 -7.15703 1.09406 -0.794712 0.0779129 
4142 1 9.26669 12.1605 10.0654 -7.81831 0.271906 -1.14881 -0.756348 
723 2 10.7903 8.18349 14.0104 -25.3356 0.210375 1.0495 0.529675 
3124 1 9.83799 9.79746 18.2041 -6.93287 -1.82136 -0.124178 -0.879083 
1623 2 8.21638 8.09949 11.1397 -25.56 0.152251 2.60749 1.80998 
3722 1 11.9502 6.97501 10.084 -7.28955 0.494974 -1.4634 -1.10992 
2224 1 12.3534 7.00885 18.2177 -7.98941 0.316853 -0.93531 -0.515325 
4624 1 6.96544 9.659 17.9374 -8.13748 -0.0737408 0.00321616 0.65077 
743 2 10.902 13.5927 14.0159 -25.1863 0.0626509 1.32612 0.574909 
1744 2 13.642 13.6098 16.5774 -24.9988 -1.36361 1.61928 0.356808 
1644 2 8.29005 13.6041 16.7049 -25.4565 -0.900138 0.226898 0.635167 
1643 2 8.13962 13.6579 11.3751 -25.4086 -2.50335 -1.35075 -0.947927 
125 3 5.49747 5.435 22.0054 -28.973 -0.280131 1.01146 -0.494658 
604 2 5.46474 2.63653 19.2562 -25.5664 1.05068 2.24166 1.18055 
605 2 5.54338 2.84961 24.6945 -25.1859 -0.731405 -0.231579 -0.0479601 
1024 2 2.89484 5.52731 19.3869 -25.5889 -1.46552 -0.398972 -0.960363 
1025 3 2.86037 5.54894 24.6725 -28.6942 0.399493 0.363906 0.397922 
1505 3 2.73187 2.91014 22.1787 -28.4844 0.187765 -1.5664 -1.30688 
2005 1 1.59119 1.27955 23.4187 -7.67321 1.1292 0.689271 -0.0280437 
2504 1 4.22884 4.06075 20.7583 -7.91854 -0.550903 -0.0284551 -0.776945 
2505 1 4.01908 4.22481 26.0013 -8.1651 0.888107 -2.09605 -0.478005 
3005 1 3.95896 4.01921 23.3813 -7.75936 0.0115245 0.706217 0.327071 
3504 1 1.19807 1.65671 20.6216 -7.29926 1.83637 0.94318 0.461947 
3505 1 1.46035 1.62352 26.0487 -7.83207 -0.0156674 1.05466 0.893192 
4004 1 4.08122 1.28836 20.7118 -7.78924 0.368529 1.22016 0.00739407 
4005 1 4.15786 1.27692 25.8213 -7.47359 -0.109155 2.64133 2.15363 
4505 1 1.35757 3.94158 23.3462 -8.18139 -0.864766 1.19888 1.45335 
5004 1 1.44698 4.43557 20.7234 -7.39465 1.43111 -1.21444 0.288093 
5005 1 1.42823 4.37248 26.2389 -8.2144 1.10212 -0.616201 -1.89367 
5505 1 4.40041 1.3796 23.3571 -6.91035 -1.6076 0.778647 -0.755705 
1506 2 2.89763 2.85858 27.3402 -24.3469 -2.50476 -1.13088 0.00187213 
5105 1 6.72832 4.40239 26.1009 -7.6107 0.281895 -2.09643 -0.507373 
3605 1 6.80772 1.58025 26.2436 -8.17183 0.99501 0.590457 0.150104 
4024 1 4.14614 6.82101 20.6706 -7.6579 0.421834 0.0672111 1.32955 
2025 1 1.80599 6.71432 23.3834 -7.63265 -0.987209 -0.742459 -0.67881 
4605 1 6.58702 4.38252 23.3358 -7.91655 1.18503 -0.933794 0.395899 
4025 1 3.86444 6.74415 26.0573 -7.17443 1.07349 1.17987 1.52461 
3604 1 6.85593 1.54658 20.7582 -7.34406 -0.834662 -2.1524 0.026627 
126 2 5.33998 5.36456 27.4429 -24.7567 0.846118 3.89289 -0.115374 
5 2 0.135525 0.296426 22.1215 -25.9677 -0.458911 -0.980804 -0.99411 
3624 1 6.75018 6.72034 20.7771 -7.17449 0.383964 0.484648 -1.01392 
25 2 0.114494 5.74342 22.106 -25.5155 0.896745 -0.831048 -0.223546 
5525 1 4.41912 6.74257 23.4492 -7.42904 -0.116313 0.285221 -0.619144 
504 3 0.144511 2.9882 19.3094 -29.1756 -1.37442 -0.647222 1.50987 
1004 2 2.90899 0.199422 19.2881 -25.1028 -2.68011 -0.635977 0.878606 
26 2 0.154233 5.68434 27.3988 -25.1694 -1.57476 0.334874 0.85347 
505 3 0.223531 2.98599 24.8597 -28.3219 -1.24706 -1.34565 -0.583454 
106 2 5.48399 0.0930944 27.3685 -25.3597 0.113703 0.406122 0.843013 
2105 1 6.97367 1.47724 23.4729 -7.72804 0.146586 1.06748 0.525555 
5104 1 6.98103 4.09247 20.6268 -7.2383 -0.95612 0.218808 0.534295 
225 2 10.8759 5.62621 22.2858 -25.2455 2.30056 -1.86781 -3.56176 
704 2 10.851 2.96799 19.3341 -25.4077 1.21288 -1.89813 0.364945 
705 2 10.8326 2.69764 24.782 -24.6047 1.46816 2.25596 0.515676 
1124 2 8.12222 5.46929 19.3041 -25.6785 0.157852 0.445053 -0.00108783 
1125 2 8.12919 5.86603 24.7764 -25.036 0.733186 -2.88847 -0.765713 
1605 2 8.13096 2.83444 22.1057 -25.2335 0.938609 0.638735 -1.15972 
2205 1 12.5041 1.38696 23.5295 -8.03658 -2.76215 1.24627 -1.77799 
2604 1 9.66404 4.20857 20.6778 -7.4622 -0.429369 -0.536197 1.18362 
2605 1 9.31277 4.15321 26.4285 -7.22326 0.853689 0.0811643 -1.23261 
3105 1 9.36256 4.43443 23.5094 -7.79617 -0.306404 -2.01298 0.433619 
3704 1 12.3168 1.56053 20.6233 -7.47431 0.197216 -0.242041 0.702183 
3705 1 12.3374 1.36322 26.3163 -7.67828 0.0798408 0.961592 -0.588461 
4104 1 9.57044 1.33677 20.6172 -7.13984 0.139804 0.86792 0.876815 
4105 1 9.70149 1.35422 26.0692 -8.04224 -1.85006 0.349422 -0.185488 
4705 1 12.0793 4.0365 23.3708 -7.50198 0.437689 -0.0379457 0.587116 
5204 1 12.4209 4.32756 20.6753 -6.83015 0.138111 0.881792 1.75219 
5205 1 12.1194 4.28671 26.188 -7.56519 0.0391891 -0.878884 -0.906771 
5605 1 9.61409 1.51517 23.3067 -8.15576 0.117188 1.09748 0.859751 
4124 1 9.46564 6.81196 20.5069 -7.40709 0.925147 1.67578 0.920726 
2225 1 12.4963 6.80298 23.539 -7.40531 -1.54396 0.241899 0.23697 
1105 2 8.15433 0.0910203 24.8752 -25.3733 0.752903 0.0337129 -0.302698 
205 2 10.9142 0.167469 22.1412 -25.2501 0.506473 -0.827608 -1.80712 
3524 1 1.48902 7.02176 20.6592 -7.34325 -0.342178 -0.577587 0.0775679 
3525 1 1.26011 7.2025 26.0232 -7.32299 0.378454 -1.04585 0.449054 
3625 1 6.76664 6.96392 25.9668 -7.55618 -0.45117 0.809527 3.03824 
145 2 5.54374 10.9786 21.9871 -25.4367 -0.51978 -0.113072 1.20675 
624 2 5.50114 8.23045 19.3334 -25.4675 -0.355816 -1.09625 -0.706564 
625 2 5.53036 8.31992 24.8266 -25.4943 -0.656184 0.172229 -2.01594 
1044 2 2.75333 10.9631 19.1275 -25.1067 1.36214 -2.67481 3.91485 
1045 2 2.70422 10.9951 24.8965 -25.0008 0.0534789 -0.0710145 -1.20191 
1525 2 2.97322 8.29037 22.0951 -25.5131 -1.73277 -1.21218 -0.656801 
2045 1 1.26882 12.1789 23.4832 -7.19555 0.985164 0.290197 0.632673 
2524 1 4.16399 9.57799 20.6132 -7.48161 0.158161 0.464306 -0.078037 
2525 1 4.11971 9.49095 26.2243 -8.16031 0.430953 0.92717 -1.0001 
3025 1 4.14683 9.58123 23.4078 -7.86389 -0.182253 0.439633 0.759306 
3544 1 1.55847 12.2274 20.861 -7.34667 -0.518857 0.878484 -0.456465 
3545 1 1.31242 12.5053 26.1473 -8.07753 0.201433 0.0341829 0.181271 
4044 1 4.2077 12.2983 20.6998 -7.65417 -0.172768 -0.683492 -0.173761 
4045 1 4.16134 12.4415 26.3972 -7.96681 -0.758456 -0.665741 -0.954652 
4525 1 1.32687 9.37788 23.6518 -7.22976 1.60787 0.794046 -1.23927 
5024 1 1.52001 9.55874 20.583 -7.29079 -1.33808 0.824486 0.748329 
5025 1 1.46138 9.83254 26.3482 -7.93425 0.0694484 -0.305611 0.294366 
5545 1 3.98565 12.3183 23.472 -7.66831 0.868676 -0.291443 0.929023 
4625 1 6.82119 9.84871 23.4381 -6.63677 -0.45935 0.316211 0.576735 
5124 1 6.76725 9.46081 20.7452 -7.96454 1.2357 0.818111 -1.16014 
2145 1 6.83635 12.5381 23.3461 -7.54349 -0.88147 -0.276814 0.0200588 
45 2 0.147076 10.9726 21.9614 -25.69 -1.34429 -0.988214 1.13734 
644 2 5.48069 13.5838 19.4972 -25.12 0.656809 1.89038 -1.42839 
524 2 0.145031 8.12865 19.2372 -25.1146 0.345429 0.912879 0.89613 
544 3 0.202692 13.6571 19.3713 -27.9496 -1.08203 0.0893583 0.862156 
2125 1 7.04145 7.21696 23.3637 -7.07184 -0.539882 -1.01957 0.464343 
1746 2 13.5331 13.6164 27.4743 -25.7712 0.325791 1.91107 0.252439 
3725 1 12.3109 7.0439 26.3245 -7.08265 -0.647552 -3.79606 0.235816 
3724 1 12.2636 7.22152 20.9479 -7.85434 -0.534794 -0.581212 -0.716576 
5625 1 9.71308 6.98406 23.3441 -7.87158 -0.675599 2.23435 1.75366 
1244 2 13.6634 11.12 19.4083 -25.3883 0.0627688 -0.990666 -1.05336 
5125 1 6.9695 9.6245 26.2081 -7.89103 -0.325871 -0.280475 0.0195998 
3644 1 6.95922 12.2331 20.6162 -7.82181 -0.233606 -0.162308 1.30342 
4125 1 9.62529 6.96607 26.1885 -8.66014 -1.08746 0.238529 -0.120548 
3645 1 6.91775 12.2527 26.0189 -7.24454 -3.16553 1.97811 2.05018 
245 2 10.8675 10.9219 22.0302 -25.2432 0.232913 2.40521 2.32817 
724 2 11.0472 8.39498 19.3695 -25.2302 -0.812101 -0.505192 0.411996 
725 2 10.9931 8.25401 24.9804 -25.0086 -0.622631 -0.296573 -2.56201 
1144 3 8.11547 10.9771 19.374 -28.6942 1.47142 0.280231 -0.593169 
1145 2 8.25356 11.2704 24.8455 -25.2544 0.35815 -4.53368 -2.62997 
1625 2 8.31378 8.30438 21.9665 -25.6169 -1.14035 -0.394328 0.594585 
2245 1 12.4549 12.3276 23.342 -7.47671 -0.823808 -0.169192 0.464433 
2624 1 9.55095 9.70547 20.775 -8.15451 -0.215121 -0.373636 -1.31263 
2625 1 9.7008 9.80455 26.1621 -8.42828 -0.172701 -0.513878 -0.312665 
3125 1 9.41391 9.69278 23.3972 -6.84046 0.852637 0.242766 0.593995 
3744 1 12.4081 12.6378 20.6261 -7.33686 -1.20276 -0.632802 -0.853385 
3745 1 12.2336 12.1754 26.1507 -8.15149 -1.79219 0.808812 -0.0290493 
4144 1 9.63124 12.554 20.9902 -7.28495 0.659976 -1.03123 -0.512243 
4145 1 9.46858 12.6428 26.1262 -7.66779 1.75807 -0.519219 0.292234 
4725 1 12.0695 9.56967 23.5866 -7.60129 0.774594 0.486061 -2.53313 
5224 1 12.3684 9.91587 20.8229 -8.08644 0.208207 -1.27385 -0.438268 
5225 1 12.5426 9.31825 26.0254 -6.89739 0.243501 3.14018 1.53265 
5645 1 9.59725 12.4117 23.6333 -7.69886 1.50059 1.4152 -1.39447 
1626 2 8.36548 8.44555 27.4991 -24.4133 -1.70144 -0.889241 0.585719 
1725 3 13.631 8.25816 22.0524 -28.8597 1.12357 -0.0822913 1.32884 
1245 2 13.5104 10.8642 24.7814 -25.6727 1.43755 1.69975 -1.11885 
1646 3 8.16077 13.6586 27.4882 -29.6896 -0.457742 0.913118 0.213859 
1006 2 2.72961 0.24675 30.1866 -25.4513 0.257606 0.102147 0.904115 
507 3 0.173607 2.97299 35.659 -28.1645 -0.633925 -1.27358 -0.00791011 
6 2 0.152789 0.127828 27.5279 -24.9997 -2.13785 1.54669 0.201739 
107 2 5.58712 0.121412 33.0615 -25.4919 -0.855716 -0.211163 -1.5684 
127 2 5.54215 5.62441 32.9534 -25.662 -0.685452 -0.0609495 0.598531 
606 2 5.33896 2.77457 30.2163 -24.8585 1.44637 0.886129 0.186819 
607 2 5.49091 2.84144 35.7512 -25.0843 1.3348 0.188115 -0.655238 
1026 2 2.79456 5.59972 30.1163 -25.2164 -1.39875 -0.670052 2.4163 
1027 2 2.64818 5.51362 35.761 -25.0843 2.39966 1.80977 -2.03913 
1507 2 2.79541 2.99576 33.0064 -25.6317 -0.0504533 -1.72651 -0.141773 
2006 1 1.37738 1.66728 28.9269 -7.54514 0.842063 -0.233304 -1.36273 
2007 1 1.45003 1.45292 34.4055 -7.50433 -1.03167 1.28724 -0.552184 
2506 1 4.06776 4.26886 31.6641 -7.72741 0.727211 -0.194011 -1.72341 
3006 1 4.03042 4.19172 28.7117 -8.41771 -0.618209 -1.00085 1.60946 
3007 1 4.15099 4.38461 34.328 -7.30754 0.0703422 -1.88756 0.639573 
3506 1 1.5713 1.52424 31.686 -6.35559 0.00551588 0.587016 0.0595044 
4006 1 4.24963 1.47971 31.5658 -7.58121 -0.813143 -0.165648 0.344043 
4506 1 1.26416 4.45903 28.9661 -7.31263 0.59467 -0.327465 -0.83663 
4507 1 1.32568 4.16575 34.3171 -8.32814 0.720123 0.551507 1.23678 
5006 1 1.35271 4.02092 31.633 -6.88652 0.381538 1.85202 0.129506 
5506 1 4.06945 1.44987 28.656 -8.11744 -0.0626717 0.3868 0.284363 
5507 1 4.13414 1.66461 34.3778 -7.80117 0.246057 -0.847284 -0.375043 
3526 1 1.37726 6.72209 31.5241 -7.27786 0.15625 0.262712 0.25061 
5106 1 6.82683 4.37555 31.5975 -7.29761 -0.783832 -1.44404 -0.484251 
4606 1 6.66489 4.09842 28.8754 -8.10233 0.810212 0.215035 -0.573905 
2106 1 6.70152 1.42318 29.0052 -7.41937 0.115359 0.219701 -1.5167 
5526 1 4.08432 6.8667 28.971 -7.67628 0.289947 0.582272 -1.93634 
5527 1 4.09052 6.86497 34.2373 -7.07395 1.08112 1.11621 1.59429 
1007 2 2.68708 0.149435 35.606 -24.9982 1.72194 -0.865288 1.22861 
1227 2 13.5411 5.62484 35.9387 -24.8077 1.08868 0.207571 -2.65578 
226 2 10.817 5.62564 27.5714 -25.4619 1.50902 -1.19224 0.708625 
1606 3 8.10225 2.94186 27.6499 -28.4515 0.319219 -0.429917 -0.0683939 
3606 1 6.8806 1.33377 31.5872 -7.3493 -0.202813 1.96538 1.55834 
2107 1 6.93046 1.45696 34.285 -7.66668 -2.03365 1.4166 0.9118 
4607 1 7.03199 4.42027 34.328 -7.41231 -0.685962 -1.692 -0.160726 
227 3 10.9939 5.76466 32.94 -28.7328 -1.14863 -0.796825 0.434601 
706 2 10.94 2.87577 30.2652 -26.1064 -1.82643 0.557705 0.843696 
707 2 10.8519 2.97618 35.5843 -25.3935 1.79759 -1.33116 0.467546 
1126 2 8.15655 5.5874 30.0889 -25.5061 -1.2084 -0.180477 2.96843 
1127 2 8.42525 5.73309 35.6769 -25.6421 -1.03258 0.191728 -1.04496 
1607 2 8.20976 2.94519 33.1025 -25.5061 0.251848 -0.170472 -2.03293 
2206 1 12.3158 1.59845 29.113 -8.03733 0.173958 -1.3571 -1.03044 
2207 1 12.2275 1.39537 34.4321 -7.18189 0.091718 0.138626 -0.538722 
2606 1 9.44347 4.1019 31.6659 -6.45662 0.958078 -0.396526 -0.845205 
3106 1 9.4922 4.33091 29.0106 -7.38908 0.356076 -0.656906 -1.08133 
3107 1 9.80294 4.29268 34.1489 -7.94128 -0.110125 1.50736 1.43536 
3706 1 12.1741 1.34347 31.8346 -7.18183 2.44207 1.32599 -0.775608 
4106 1 9.67706 1.38687 31.4742 -6.7891 -1.34026 -0.571575 0.978889 
4706 1 12.1917 4.28508 28.911 -6.80343 0.120521 -0.370772 -0.832746 
4707 1 12.5023 4.235 34.2436 -7.56688 -1.05272 0.69331 0.693964 
5206 1 12.2917 4.30038 31.486 -7.93926 0.0319563 -0.380941 1.87352 
5606 1 9.40874 1.72494 28.8195 -7.10066 0.471424 -0.566106 -0.610516 
5607 1 9.40659 1.49031 34.3784 -7.56182 1.94935 0.544785 -0.667151 
4126 1 9.67466 6.66035 31.4155 -7.33282 0.292345 0.803466 1.33888 
1706 2 13.5942 2.72194 27.5801 -25.0414 -0.240696 2.114 0.659378 
1226 2 13.6025 5.75955 30.4654 -25.2797 0.151752 -1.31205 -3.13605 
1106 2 8.09008 0.14255 30.2707 -25.7975 2.00215 -0.75846 -1.16914 
1206 2 13.561 0.151298 30.362 -25.5048 1.44468 -1.73509 -0.205012 
1547 2 3.03895 13.5771 32.9513 -24.4811 -1.24484 2.12565 -1.59896 
2027 1 1.4128 7.01176 34.387 -7.62887 0.330413 -0.306127 -0.780727 
2026 1 1.30568 7.17074 28.751 -7.87481 0.211641 -1.19502 0.460597 
4026 1 4.00927 7.00964 31.6157 -7.22614 1.87142 -1.39178 -1.193 
2126 1 6.75298 6.89872 28.853 -7.59962 0.156608 0.139367 -0.20971 
1526 2 2.69078 8.33777 27.5859 -25.0068 0.981415 -0.414028 -1.49391 
146 2 5.5345 10.7485 27.5315 -25.4521 1.1493 3.15204 0.168103 