# USER_LATT cell with dimension 10 x 10 x 1 and a = 1
       200  atoms
         1  atom types

 0.    24.67724084900000  xlo xhi
 0.    21.37111747000000  ylo yhi
 0.    20.00000000000000  zlo zhi
  -12.33862042400000     0.00000000000000     0.00000000000000 xy xz yz

Atoms

1 1     0.00000000000000     0.00000000000000    10.00000000000000
2 1     1.23386216091742     0.71237057520963    10.00000000000000
3 1     2.46772408490000     0.00000000000000    10.00000000000000
4 1     3.70158624581742     0.71237057520963    10.00000000000000
5 1     4.93544816980000     0.00000000000000    10.00000000000000
6 1     6.16931033071742     0.71237057520963    10.00000000000000
7 1     7.40317225470000     0.00000000000000    10.00000000000000
8 1     8.63703441561742     0.71237057520963    10.00000000000000
9 1     9.87089633960000     0.00000000000000    10.00000000000000
10 1    11.10475850051742     0.71237057520963    10.00000000000000
11 1    12.33862042450000     0.00000000000000    10.00000000000000
12 1    13.57248258541742     0.71237057520963    10.00000000000000
13 1    14.80634450940000     0.00000000000000    10.00000000000000
14 1    16.04020667031742     0.71237057520963    10.00000000000000
15 1    17.27406859430000     0.00000000000000    10.00000000000000
16 1    18.50793075521742     0.71237057520963    10.00000000000000
17 1    19.74179267920000     0.00000000000000    10.00000000000000
18 1    20.97565484011742     0.71237057520963    10.00000000000000
19 1    22.20951676410000     0.00000000000000    10.00000000000000
20 1    23.44337892501742     0.71237057520963    10.00000000000000
21 1    -1.23386204240000     2.13711174700000    10.00000000000000
22 1     0.00000011851742     2.84948232220963    10.00000000000000
23 1     1.23386204250000     2.13711174700000    10.00000000000000
24 1     2.46772420341742     2.84948232220963    10.00000000000000
25 1     3.70158612740000     2.13711174700000    10.00000000000000
26 1     4.93544828831742     2.84948232220963    10.00000000000000
27 1     6.16931021230000     2.13711174700000    10.00000000000000
28 1     7.40317237321742     2.84948232220963    10.00000000000000
29 1     8.63703429720000     2.13711174700000    10.00000000000000
30 1     9.87089645811742     2.84948232220963    10.00000000000000
31 1    11.10475838210000     2.13711174700000    10.00000000000000
32 1    12.33862054301742     2.84948232220963    10.00000000000000
33 1    13.57248246700000     2.13711174700000    10.00000000000000
34 1    14.80634462791742     2.84948232220963    10.00000000000000
35 1    16.04020655190000     2.13711174700000    10.00000000000000
36 1    17.27406871281742     2.84948232220963    10.00000000000000
37 1    18.50793063680000     2.13711174700000    10.00000000000000
38 1    19.74179279771742     2.84948232220963    10.00000000000000
39 1    20.97565472170000     2.13711174700000    10.00000000000000
40 1    22.20951688261742     2.84948232220963    10.00000000000000
41 1    -2.46772408480000     4.27422349400000    10.00000000000000
42 1    -1.23386192388258     4.98659406920963    10.00000000000000
43 1     0.00000000010000     4.27422349400000    10.00000000000000
44 1     1.23386216101742     4.98659406920963    10.00000000000000
45 1     2.46772408500000     4.27422349400000    10.00000000000000
46 1     3.70158624591742     4.98659406920963    10.00000000000000
47 1     4.93544816990000     4.27422349400000    10.00000000000000
48 1     6.16931033081742     4.98659406920963    10.00000000000000
49 1     7.40317225480000     4.27422349400000    10.00000000000000
50 1     8.63703441571742     4.98659406920963    10.00000000000000
51 1     9.87089633970000     4.27422349400000    10.00000000000000
52 1    11.10475850061742     4.98659406920963    10.00000000000000
53 1    12.33862042460000     4.27422349400000    10.00000000000000
54 1    13.57248258551742     4.98659406920963    10.00000000000000
55 1    14.80634450950000     4.27422349400000    10.00000000000000
56 1    16.04020667041742     4.98659406920963    10.00000000000000
57 1    17.27406859440000     4.27422349400000    10.00000000000000
58 1    18.50793075531742     4.98659406920963    10.00000000000000
59 1    19.74179267930000     4.27422349400000    10.00000000000000
60 1    20.97565484021742     4.98659406920963    10.00000000000000
61 1    -3.70158612720000     6.41133524100000    10.00000000000000
62 1    -2.46772396628258     7.12370581620963    10.00000000000000
63 1    -1.23386204230000     6.41133524100000    10.00000000000000
64 1     0.00000011861742     7.12370581620963    10.00000000000000
65 1     1.23386204260000     6.41133524100000    10.00000000000000
66 1     2.46772420351742     7.12370581620963    10.00000000000000
67 1     3.70158612750000     6.41133524100000    10.00000000000000
68 1     4.93544828841742     7.12370581620963    10.00000000000000
69 1     6.16931021240000     6.41133524100000    10.00000000000000
70 1     7.40317237331742     7.12370581620963    10.00000000000000
71 1     8.63703429730000     6.41133524100000    10.00000000000000
72 1     9.87089645821742     7.12370581620963    10.00000000000000
73 1    11.10475838220000     6.41133524100000    10.00000000000000
74 1    12.33862054311742     7.12370581620963    10.00000000000000
75 1    13.57248246710000     6.41133524100000    10.00000000000000
76 1    14.80634462801742     7.12370581620963    10.00000000000000
77 1    16.04020655200000     6.41133524100000    10.00000000000000
78 1    17.27406871291742     7.12370581620963    10.00000000000000
79 1    18.50793063690000     6.41133524100000    10.00000000000000
80 1    19.74179279781742     7.12370581620963    10.00000000000000
81 1    -4.93544816960000     8.54844698800000    10.00000000000000
82 1    -3.70158600868258     9.26081756320963    10.00000000000000
83 1    -2.46772408470000     8.54844698800000    10.00000000000000
84 1    -1.23386192378258     9.26081756320963    10.00000000000000
85 1     0.00000000020000     8.54844698800000    10.00000000000000
86 1     1.23386216111742     9.26081756320963    10.00000000000000
87 1     2.46772408510000     8.54844698800000    10.00000000000000
88 1     3.70158624601742     9.26081756320963    10.00000000000000
89 1     4.93544817000000     8.54844698800000    10.00000000000000
90 1     6.16931033091742     9.26081756320963    10.00000000000000
91 1     7.40317225490000     8.54844698800000    10.00000000000000
92 1     8.63703441581742     9.26081756320963    10.00000000000000
93 1     9.87089633980000     8.54844698800000    10.00000000000000
94 1    11.10475850071742     9.26081756320963    10.00000000000000
95 1    12.33862042470000     8.54844698800000    10.00000000000000
96 1    13.57248258561742     9.26081756320963    10.00000000000000
97 1    14.80634450960000     8.54844698800000    10.00000000000000
98 1    16.04020667051742     9.26081756320963    10.00000000000000
99 1    17.27406859450000     8.54844698800000    10.00000000000000
100 1    18.50793075541742     9.26081756320963    10.00000000000000
101 1    -6.16931021200000    10.68555873500000    10.00000000000000
102 1    -4.93544805108258    11.39792931020963    10.00000000000000
103 1    -3.70158612710000    10.68555873500000    10.00000000000000
104 1    -2.46772396618258    11.39792931020963    10.00000000000000
105 1    -1.23386204220000    10.68555873500000    10.00000000000000
106 1     0.00000011871742    11.39792931020963    10.00000000000000
107 1     1.23386204270000    10.68555873500000    10.00000000000000
108 1     2.46772420361742    11.39792931020963    10.00000000000000
109 1     3.70158612760000    10.68555873500000    10.00000000000000
110 1     4.93544828851742    11.39792931020963    10.00000000000000
111 1     6.16931021250000    10.68555873500000    10.00000000000000
112 1     7.40317237341742    11.39792931020963    10.00000000000000
113 1     8.63703429740000    10.68555873500000    10.00000000000000
114 1     9.87089645831742    11.39792931020963    10.00000000000000
115 1    11.10475838230000    10.68555873500000    10.00000000000000
116 1    12.33862054321742    11.39792931020963    10.00000000000000
117 1    13.57248246720000    10.68555873500000    10.00000000000000
118 1    14.80634462811742    11.39792931020963    10.00000000000000
119 1    16.04020655210000    10.68555873500000    10.00000000000000
120 1    17.27406871301742    11.39792931020963    10.00000000000000
121 1    -7.40317225440000    12.82267048200000    10.00000000000000
122 1    -6.16931009348258    13.53504105720963    10.00000000000000
123 1    -4.93544816950000    12.82267048200000    10.00000000000000
124 1    -3.70158600858258    13.53504105720963    10.00000000000000
125 1    -2.46772408460000    12.82267048200000    10.00000000000000
126 1    -1.23386192368258    13.53504105720963    10.00000000000000
127 1     0.00000000030000    12.82267048200000    10.00000000000000
128 1     1.23386216121742    13.53504105720963    10.00000000000000
129 1     2.46772408520000    12.82267048200000    10.00000000000000
130 1     3.70158624611742    13.53504105720963    10.00000000000000
131 1     4.93544817010000    12.82267048200000    10.00000000000000
132 1     6.16931033101742    13.53504105720963    10.00000000000000
133 1     7.40317225500000    12.82267048200000    10.00000000000000
134 1     8.63703441591742    13.53504105720963    10.00000000000000
135 1     9.87089633990000    12.82267048200000    10.00000000000000
136 1    11.10475850081742    13.53504105720963    10.00000000000000
137 1    12.33862042480000    12.82267048200000    10.00000000000000
138 1    13.57248258571742    13.53504105720963    10.00000000000000
139 1    14.80634450970000    12.82267048200000    10.00000000000000
140 1    16.04020667061742    13.53504105720963    10.00000000000000
141 1    -8.63703429680000    14.95978222900000    10.00000000000000
142 1    -7.40317213588258    15.67215280420963    10.00000000000000
143 1    -6.16931021190000    14.95978222900000    10.00000000000000
144 1    -4.93544805098258    15.67215280420963    10.00000000000000
145 1    -3.70158612700000    14.95978222900000    10.00000000000000
146 1    -2.46772396608258    15.67215280420963    10.00000000000000
147 1    -1.23386204210000    14.95978222900000    10.00000000000000
148 1     0.00000011881742    15.67215280420963    10.00000000000000
149 1     1.23386204280000    14.95978222900000    10.00000000000000
150 1     2.46772420371742    15.67215280420963    10.00000000000000
151 1     3.70158612770000    14.95978222900000    10.00000000000000
152 1     4.93544828861742    15.67215280420963    10.00000000000000
153 1     6.16931021260000    14.95978222900000    10.00000000000000
154 1     7.40317237351742    15.67215280420963    10.00000000000000
155 1     8.63703429750000    14.95978222900000    10.00000000000000
156 1     9.87089645841742    15.67215280420963    10.00000000000000
157 1    11.10475838240000    14.95978222900000    10.00000000000000
158 1    12.33862054331742    15.67215280420963    10.00000000000000
159 1    13.57248246730000    14.95978222900000    10.00000000000000
160 1    14.80634462821742    15.67215280420963    10.00000000000000
161 1    -9.87089633920000    17.09689397600000    10.00000000000000
162 1    -8.63703417828258    17.80926455120963    10.00000000000000
163 1    -7.40317225430000    17.09689397600000    10.00000000000000
164 1    -6.16931009338258    17.80926455120963    10.00000000000000
165 1    -4.93544816940000    17.09689397600000    10.00000000000000
166 1    -3.70158600848258    17.80926455120963    10.00000000000000
167 1    -2.46772408450000    17.09689397600000    10.00000000000000
168 1    -1.23386192358258    17.80926455120963    10.00000000000000
169 1     0.00000000040000    17.09689397600000    10.00000000000000
170 1     1.23386216131742    17.80926455120963    10.00000000000000
171 1     2.46772408530000    17.09689397600000    10.00000000000000
172 1     3.70158624621742    17.80926455120963    10.00000000000000
173 1     4.93544817020000    17.09689397600000    10.00000000000000
174 1     6.16931033111742    17.80926455120963    10.00000000000000
175 1     7.40317225510000    17.09689397600000    10.00000000000000
176 1     8.63703441601742    17.80926455120963    10.00000000000000
177 1     9.87089634000000    17.09689397600000    10.00000000000000
178 1    11.10475850091742    17.80926455120963    10.00000000000000
179 1    12.33862042490000    17.09689397600000    10.00000000000000
180 1    13.57248258581742    17.80926455120963    10.00000000000000
181 1   -11.10475838160000    19.23400572300000    10.00000000000000
182 1    -9.87089622068258    19.94637629820963    10.00000000000000
183 1    -8.63703429670000    19.23400572300000    10.00000000000000
184 1    -7.40317213578258    19.94637629820963    10.00000000000000
185 1    -6.16931021180000    19.23400572300000    10.00000000000000
186 1    -4.93544805088258    19.94637629820963    10.00000000000000
187 1    -3.70158612690000    19.23400572300000    10.00000000000000
188 1    -2.46772396598258    19.94637629820963    10.00000000000000
189 1    -1.23386204200000    19.23400572300000    10.00000000000000
190 1     0.00000011891742    19.94637629820963    10.00000000000000
191 1     1.23386204290000    19.23400572300000    10.00000000000000
192 1     2.46772420381742    19.94637629820963    10.00000000000000
193 1     3.70158612780000    19.23400572300000    10.00000000000000
194 1     4.93544828871742    19.94637629820963    10.00000000000000
195 1     6.16931021270000    19.23400572300000    10.00000000000000
196 1     7.40317237361742    19.94637629820963    10.00000000000000
197 1     8.63703429760000    19.23400572300000    10.00000000000000
198 1     9.87089645851742    19.94637629820963    10.00000000000000
199 1    11.10475838250000    19.23400572300000    10.00000000000000
200 1    12.33862054341742    19.94637629820963    10.00000000000000
