LAMMPS (22 Dec 2022)
  using 1 OpenMP thread(s) per MPI task
Loaded 1 plugins from C:\Program Files\LAMMPS 64-bit 23Jun2022\plugins
Loaded 0 plugins from C:\Program Files\LAMMPS 64-bit 23Jun2022-MPI\plugins
Loaded 1 plugins from C:\Program Files\LAMMPS 64-bit 22Dec2022-MSMPI\plugins
Loaded 1 plugins from C:\Program Files\LAMMPS 64-bit 28Mar2023-MPI\plugins
#------------------------------------------------------------------------------------------
# LAMMPS 64-bit 22Dec2022-MSMPI
#------------------------------------------------------------------------------------------
clear
  using 1 OpenMP thread(s) per MPI task
Loaded 1 plugins from C:\Program Files\LAMMPS 64-bit 23Jun2022\plugins
Loaded 0 plugins from C:\Program Files\LAMMPS 64-bit 23Jun2022-MPI\plugins
Loaded 1 plugins from C:\Program Files\LAMMPS 64-bit 22Dec2022-MSMPI\plugins
Loaded 1 plugins from C:\Program Files\LAMMPS 64-bit 28Mar2023-MPI\plugins
#echo both
# ---------- Initializing Simulation ---------------------------------
units metal
dimension 3
boundary p p p
atom_style atomic
atom_modify map array

#read_data ./../../Si.data
read_data ./../../Au.data
Reading data file ...
  orthogonal box = (0 0 0) to (4.171288 4.171288 4.171288)
  2 by 2 by 2 MPI processor grid
  reading atoms ...
  4 atoms
  read_data CPU = 0.001 seconds

replicate 1 1 1
Replication is creating a 1x1x1 = 1 times larger system...
  orthogonal box = (0 0 0) to (4.171288 4.171288 4.171288)
  2 by 2 by 2 MPI processor grid
  4 atoms
  replicate CPU = 0.000 seconds

# ---------- Defining the Interatomic Potential ---------------------
pair_style meam
#pair_coeff * * ./../../library.meam Si Au ./../../SiAu.meam Si
pair_coeff * * ./../../library.meam Si Au ./../../SiAu.meam Au

# ---------- Running Minimization -------------------------------------
fix 1 all box/relax iso 0.0 vmax 0.001

thermo 10
thermo_style custom step pe etotal lx ly lz vol press pxx pyy pzz

min_style cg
minimize 1e-25 1e-25 5000 10000
Neighbor list info ...
  update: every = 1 steps, delay = 0 steps, check = yes
  max neighbors/atom: 2000, page size: 100000
  master list distance cutoff = 6.5
  ghost atom cutoff = 6.5
  binsize = 3.25, bins = 2 2 2
  2 neighbor lists, perpetual/occasional/extra = 2 0 0
  (1) pair meam, perpetual
      attributes: full, newton on
      pair build: full/bin/atomonly
      stencil: full/bin/3d
      bin: standard
  (2) pair meam, perpetual, half/full from (1)
      attributes: half, newton on
      pair build: halffull/newton
      stencil: none
      bin: none
Per MPI rank memory allocation (min/avg/max) = 9.653 | 9.653 | 9.653 Mbytes
   Step         PotEng         TotEng           Lx             Ly             Lz           Volume         Press           Pxx            Pyy            Pzz      
         0  -15.55462      -15.55462       4.171288       4.171288       4.171288       72.578924     -97710.603     -97710.603     -97710.603     -97710.603    
        10  -15.662599     -15.662599      4.1295751      4.1295751      4.1295751      70.423258     -61505.274     -61505.274     -61505.274     -61505.274    
        20  -15.715826     -15.715826      4.0878622      4.0878622      4.0878622      68.310703     -17726.124     -17726.124     -17726.124     -17726.124    
        30  -15.72         -15.72          4.0729351      4.0729351      4.0729351      67.565105      6.634693e-10   6.4805536e-10  6.6413947e-10  6.7821306e-10
Loop time of 0.00657175 on 8 procs for 30 steps with 4 atoms

0.0% CPU use with 8 MPI tasks x 1 OpenMP threads

Minimization stats:
  Stopping criterion = energy tolerance
  Energy initial, next-to-last, final = 
     -15.5546195531539  -15.7200000003069  -15.7200000003069
  Force two-norm initial, final = 13.278931 8.6948057e-14
  Force max component initial, final = 13.278931 8.5964051e-14
  Final line search alpha, max atom move = 1 8.5964051e-14
  Iterations, force evaluations = 30 37

MPI task timing breakdown:
Section |  min time  |  avg time  |  max time  |%varavg| %total
---------------------------------------------------------------
Pair    | 0.003659   | 0.0038389  | 0.004111   |   0.2 | 58.41
Neigh   | 0          | 0          | 0          |   0.0 |  0.00
Comm    | 0.000787   | 0.0010404  | 0.001247   |   0.5 | 15.83
Output  | 2.6e-05    | 2.675e-05  | 2.9e-05    |   0.0 |  0.41
Modify  | 0          | 0          | 0          |   0.0 |  0.00
Other   |            | 0.001666   |            |       | 25.35

Nlocal:            0.5 ave           1 max           0 min
Histogram: 4 0 0 0 0 0 0 0 0 4
Nghost:          255.5 ave         256 max         255 min
Histogram: 4 0 0 0 0 0 0 0 0 4
Neighs:           13.5 ave          27 max           0 min
Histogram: 4 0 0 0 0 0 0 0 0 4
FullNghs:           27 ave          54 max           0 min
Histogram: 4 0 0 0 0 0 0 0 0 4

Total # of neighbors = 216
Ave neighs/atom = 54
Neighbor list builds = 0
Dangerous builds = 0

variable  natoms equal "count(all)"
variable      x0 equal "lx"
variable      y0 equal "ly"
variable      z0 equal "lz"
variable      v0 equal "vol"
variable   etot0 equal "etotal"
variable   ecoh0 equal "pe/v_natoms"

unfix 1
write_data ./../step2_elastic/data.in
System init for write_data ...

# ---------- For Equation of States -------------------------------------
change_box all x scale 0.94 y scale 0.94 z scale 0.94 remap
Changing box ...
  orthogonal box = (0.17136453 0.049176475 0.049176475) to (3.9999235 4.1221115 4.1221115)
  orthogonal box = (0.17136453 0.17136453 0.049176475) to (3.9999235 3.9999235 4.1221115)
  orthogonal box = (0.17136453 0.17136453 0.17136453) to (3.9999235 3.9999235 3.9999235)
run 1
WARNING: No fixes with time integration, atoms won't move (src/verlet.cpp:60)
WARNING: Proc sub-domain size < neighbor skin, could lead to lost atoms (src/domain.cpp:966)
Per MPI rank memory allocation (min/avg/max) = 8.528 | 8.528 | 8.531 Mbytes
   Step         PotEng         TotEng           Lx             Ly             Lz           Volume         Press           Pxx            Pyy            Pzz      
        30  -14.217653     -14.217653      3.8285589      3.8285589      3.8285589      56.118495      511981.16      511981.16      511981.16      511981.16    
        31  -14.217653     -14.217653      3.8285589      3.8285589      3.8285589      56.118495      511981.16      511981.16      511981.16      511981.16    
Loop time of 0.000287875 on 8 procs for 1 steps with 4 atoms

Performance: 300.130 ns/day, 0.080 hours/ns, 3473.730 timesteps/s, 13.895 katom-step/s
0.0% CPU use with 8 MPI tasks x 1 OpenMP threads

MPI task timing breakdown:
Section |  min time  |  avg time  |  max time  |%varavg| %total
---------------------------------------------------------------
Pair    | 0.000104   | 0.00013587 | 0.000229   |   0.0 | 47.20
Neigh   | 0          | 0          | 0          |   0.0 |  0.00
Comm    | 1.5e-05    | 7.9875e-05 | 0.000144   |   0.0 | 27.75
Output  | 1.2e-05    | 4.5625e-05 | 0.000142   |   0.0 | 15.85
Modify  | 0          | 1.25e-07   | 1e-06      |   0.0 |  0.04
Other   |            | 2.637e-05  |            |       |  9.16

Nlocal:            0.5 ave           3 max           0 min
Histogram: 6 0 0 1 0 0 0 0 0 1
Nghost:          255.5 ave         256 max         253 min
Histogram: 1 0 0 0 0 0 1 0 0 6
Neighs:           19.5 ave         123 max           0 min
Histogram: 6 0 1 0 0 0 0 0 0 1
FullNghs:           39 ave         234 max           0 min
Histogram: 6 0 0 1 0 0 0 0 0 1

Total # of neighbors = 312
Ave neighs/atom = 78
Neighbor list builds = 0
Dangerous builds = 0
print "# Lattice constant (Angstroms), Volume (Angstrom), Total energy (eV), Cohesive energy (eV/atom)" file lattice_cohesive_energy.txt screen no


# Loop over lattice constants
variable i loop 49 # Number of steps
label loop

change_box all x scale 1.0025 y scale 1.0025 z scale 1.0025 remap
Changing box ...
  orthogonal box = (0.16657883 0.17136453 0.17136453) to (4.0047092 3.9999235 3.9999235)
  orthogonal box = (0.16657883 0.16657883 0.17136453) to (4.0047092 4.0047092 3.9999235)
  orthogonal box = (0.16657883 0.16657883 0.16657883) to (4.0047092 4.0047092 4.0047092)

run 1
WARNING: No fixes with time integration, atoms won't move (src/verlet.cpp:60)
WARNING: Proc sub-domain size < neighbor skin, could lead to lost atoms (src/domain.cpp:966)
Per MPI rank memory allocation (min/avg/max) = 8.528 | 8.528 | 8.531 Mbytes
   Step         PotEng         TotEng           Lx             Ly             Lz           Volume         Press           Pxx            Pyy            Pzz      
        31  -14.348451     -14.348451      3.8381303      3.8381303      3.8381303      56.540437      481546.19      481546.19      481546.19      481546.19    
        32  -14.348451     -14.348451      3.8381303      3.8381303      3.8381303      56.540437      481546.19      481546.19      481546.19      481546.19    
Loop time of 0.000134125 on 8 procs for 1 steps with 4 atoms

Performance: 644.175 ns/day, 0.037 hours/ns, 7455.732 timesteps/s, 29.823 katom-step/s
0.0% CPU use with 8 MPI tasks x 1 OpenMP threads

MPI task timing breakdown:
Section |  min time  |  avg time  |  max time  |%varavg| %total
---------------------------------------------------------------
Pair    | 9.6e-05    | 9.8e-05    | 0.000101   |   0.0 | 73.07
Neigh   | 0          | 0          | 0          |   0.0 |  0.00
Comm    | 1.7e-05    | 1.85e-05   | 2e-05      |   0.0 | 13.79
Output  | 1.1e-05    | 1.375e-05  | 1.8e-05    |   0.0 | 10.25
Modify  | 0          | 1.25e-07   | 1e-06      |   0.0 |  0.09
Other   |            | 3.75e-06   |            |       |  2.80

Nlocal:            0.5 ave           3 max           0 min
Histogram: 6 0 0 1 0 0 0 0 0 1
Nghost:          255.5 ave         256 max         253 min
Histogram: 1 0 0 0 0 0 1 0 0 6
Neighs:           19.5 ave         123 max           0 min
Histogram: 6 0 1 0 0 0 0 0 0 1
FullNghs:           39 ave         234 max           0 min
Histogram: 6 0 0 1 0 0 0 0 0 1

Total # of neighbors = 312
Ave neighs/atom = 78
Neighbor list builds = 0
Dangerous builds = 0
variable  natoms equal "count(all)"
variable xlength equal "lx"
variable  volume equal "vol"
variable  etotal equal "etotal"
variable    ecoh equal "pe/v_natoms"
print "${xlength}, ${volume}, ${etotal}, ${ecoh}" append lattice_cohesive_energy.txt screen no

next i
jump SELF loop

change_box all x scale 1.0025 y scale 1.0025 z scale 1.0025 remap
Changing box ...
  orthogonal box = (0.16178116 0.16657883 0.16657883) to (4.0095068 4.0047092 4.0047092)
  orthogonal box = (0.16178116 0.16178116 0.16657883) to (4.0095068 4.0095068 4.0047092)
  orthogonal box = (0.16178116 0.16178116 0.16178116) to (4.0095068 4.0095068 4.0095068)

run 1
WARNING: No fixes with time integration, atoms won't move (src/verlet.cpp:60)
WARNING: Proc sub-domain size < neighbor skin, could lead to lost atoms (src/domain.cpp:966)
Per MPI rank memory allocation (min/avg/max) = 8.528 | 8.528 | 8.531 Mbytes
   Step         PotEng         TotEng           Lx             Ly             Lz           Volume         Press           Pxx            Pyy            Pzz      
        32  -14.472291     -14.472291      3.8477257      3.8477257      3.8477257      56.965551      452109.21      452109.21      452109.21      452109.21    
        33  -14.472291     -14.472291      3.8477257      3.8477257      3.8477257      56.965551      452109.21      452109.21      452109.21      452109.21    
Loop time of 0.00013225 on 8 procs for 1 steps with 4 atoms

Performance: 653.308 ns/day, 0.037 hours/ns, 7561.437 timesteps/s, 30.246 katom-step/s
0.0% CPU use with 8 MPI tasks x 1 OpenMP threads

MPI task timing breakdown:
Section |  min time  |  avg time  |  max time  |%varavg| %total
---------------------------------------------------------------
Pair    | 9.5e-05    | 9.7125e-05 | 0.0001     |   0.0 | 73.44
Neigh   | 0          | 0          | 0          |   0.0 |  0.00
Comm    | 1.5e-05    | 1.75e-05   | 2.1e-05    |   0.0 | 13.23
Output  | 1.1e-05    | 1.3875e-05 | 1.9e-05    |   0.0 | 10.49
Modify  | 0          | 2.5e-07    | 1e-06      |   0.0 |  0.19
Other   |            | 3.5e-06    |            |       |  2.65

Nlocal:            0.5 ave           3 max           0 min
Histogram: 6 0 0 1 0 0 0 0 0 1
Nghost:          255.5 ave         256 max         253 min
Histogram: 1 0 0 0 0 0 1 0 0 6
Neighs:           19.5 ave         123 max           0 min
Histogram: 6 0 1 0 0 0 0 0 0 1
FullNghs:           39 ave         234 max           0 min
Histogram: 6 0 0 1 0 0 0 0 0 1

Total # of neighbors = 312
Ave neighs/atom = 78
Neighbor list builds = 0
Dangerous builds = 0
variable  natoms equal "count(all)"
variable xlength equal "lx"
variable  volume equal "vol"
variable  etotal equal "etotal"
variable    ecoh equal "pe/v_natoms"
print "${xlength}, ${volume}, ${etotal}, ${ecoh}" append lattice_cohesive_energy.txt screen no

next i
jump SELF loop

change_box all x scale 1.0025 y scale 1.0025 z scale 1.0025 remap
Changing box ...
  orthogonal box = (0.15697151 0.16178116 0.16178116) to (4.0143165 4.0095068 4.0095068)
  orthogonal box = (0.15697151 0.15697151 0.16178116) to (4.0143165 4.0143165 4.0095068)
  orthogonal box = (0.15697151 0.15697151 0.15697151) to (4.0143165 4.0143165 4.0143165)

run 1
WARNING: No fixes with time integration, atoms won't move (src/verlet.cpp:60)
WARNING: Proc sub-domain size < neighbor skin, could lead to lost atoms (src/domain.cpp:966)
Per MPI rank memory allocation (min/avg/max) = 8.528 | 8.529 | 8.531 Mbytes
   Step         PotEng         TotEng           Lx             Ly             Lz           Volume         Press           Pxx            Pyy            Pzz      
        33  -14.589322     -14.589322      3.857345       3.857345       3.857345       57.393862      423644.23      423644.23      423644.23      423644.23    
        34  -14.589322     -14.589322      3.857345       3.857345       3.857345       57.393862      423644.23      423644.23      423644.23      423644.23    
Loop time of 0.000137 on 8 procs for 1 steps with 4 atoms

Performance: 630.657 ns/day, 0.038 hours/ns, 7299.270 timesteps/s, 29.197 katom-step/s
0.0% CPU use with 8 MPI tasks x 1 OpenMP threads

MPI task timing breakdown:
Section |  min time  |  avg time  |  max time  |%varavg| %total
---------------------------------------------------------------
Pair    | 9.3e-05    | 9.6625e-05 | 0.0001     |   0.0 | 70.53
Neigh   | 0          | 0          | 0          |   0.0 |  0.00
Comm    | 1.9e-05    | 2.2125e-05 | 2.8e-05    |   0.0 | 16.15
Output  | 1.1e-05    | 1.3875e-05 | 1.7e-05    |   0.0 | 10.13
Modify  | 0          | 6.25e-07   | 2e-06      |   0.0 |  0.46
Other   |            | 3.75e-06   |            |       |  2.74

Nlocal:            0.5 ave           1 max           0 min
Histogram: 4 0 0 0 0 0 0 0 0 4
Nghost:          255.5 ave         256 max         255 min
Histogram: 4 0 0 0 0 0 0 0 0 4
Neighs:           19.5 ave          45 max           0 min
Histogram: 4 0 0 0 0 0 0 1 2 1
FullNghs:           39 ave          78 max           0 min
Histogram: 4 0 0 0 0 0 0 0 0 4

Total # of neighbors = 312
Ave neighs/atom = 78
Neighbor list builds = 0
Dangerous builds = 0
variable  natoms equal "count(all)"
variable xlength equal "lx"
variable  volume equal "vol"
variable  etotal equal "etotal"
variable    ecoh equal "pe/v_natoms"
print "${xlength}, ${volume}, ${etotal}, ${ecoh}" append lattice_cohesive_energy.txt screen no

next i
jump SELF loop

change_box all x scale 1.0025 y scale 1.0025 z scale 1.0025 remap
Changing box ...
  orthogonal box = (0.15214983 0.15697151 0.15697151) to (4.0191382 4.0143165 4.0143165)
  orthogonal box = (0.15214983 0.15214983 0.15697151) to (4.0191382 4.0191382 4.0143165)
  orthogonal box = (0.15214983 0.15214983 0.15214983) to (4.0191382 4.0191382 4.0191382)

run 1
WARNING: No fixes with time integration, atoms won't move (src/verlet.cpp:60)
WARNING: Proc sub-domain size < neighbor skin, could lead to lost atoms (src/domain.cpp:966)
Per MPI rank memory allocation (min/avg/max) = 8.528 | 8.529 | 8.531 Mbytes
   Step         PotEng         TotEng           Lx             Ly             Lz           Volume         Press           Pxx            Pyy            Pzz      
        34  -14.699695     -14.699695      3.8669883      3.8669883      3.8669883      57.825393      396125.62      396125.62      396125.62      396125.62    
        35  -14.699695     -14.699695      3.8669883      3.8669883      3.8669883      57.825393      396125.62      396125.62      396125.62      396125.62    
Loop time of 0.0001345 on 8 procs for 1 steps with 4 atoms

Performance: 642.379 ns/day, 0.037 hours/ns, 7434.944 timesteps/s, 29.740 katom-step/s
0.0% CPU use with 8 MPI tasks x 1 OpenMP threads

MPI task timing breakdown:
Section |  min time  |  avg time  |  max time  |%varavg| %total
---------------------------------------------------------------
Pair    | 9.3e-05    | 9.4625e-05 | 9.7e-05    |   0.0 | 70.35
Neigh   | 0          | 0          | 0          |   0.0 |  0.00
Comm    | 1.8e-05    | 2.2e-05    | 2.5e-05    |   0.0 | 16.36
Output  | 1.1e-05    | 1.3625e-05 | 1.9e-05    |   0.0 | 10.13
Modify  | 0          | 2.5e-07    | 1e-06      |   0.0 |  0.19
Other   |            | 4e-06      |            |       |  2.97

Nlocal:            0.5 ave           1 max           0 min
Histogram: 4 0 0 0 0 0 0 0 0 4
Nghost:          255.5 ave         256 max         255 min
Histogram: 4 0 0 0 0 0 0 0 0 4
Neighs:           19.5 ave          45 max           0 min
Histogram: 4 0 0 0 0 0 0 1 2 1
FullNghs:           39 ave          78 max           0 min
Histogram: 4 0 0 0 0 0 0 0 0 4

Total # of neighbors = 312
Ave neighs/atom = 78
Neighbor list builds = 0
Dangerous builds = 0
variable  natoms equal "count(all)"
variable xlength equal "lx"
variable  volume equal "vol"
variable  etotal equal "etotal"
variable    ecoh equal "pe/v_natoms"
print "${xlength}, ${volume}, ${etotal}, ${ecoh}" append lattice_cohesive_energy.txt screen no

next i
jump SELF loop

change_box all x scale 1.0025 y scale 1.0025 z scale 1.0025 remap
Changing box ...
  orthogonal box = (0.14731609 0.15214983 0.15214983) to (4.0239719 4.0191382 4.0191382)
  orthogonal box = (0.14731609 0.14731609 0.15214983) to (4.0239719 4.0239719 4.0191382)
  orthogonal box = (0.14731609 0.14731609 0.14731609) to (4.0239719 4.0239719 4.0239719)

run 1
WARNING: No fixes with time integration, atoms won't move (src/verlet.cpp:60)
WARNING: Proc sub-domain size < neighbor skin, could lead to lost atoms (src/domain.cpp:966)
Per MPI rank memory allocation (min/avg/max) = 8.528 | 8.529 | 8.531 Mbytes
   Step         PotEng         TotEng           Lx             Ly             Lz           Volume         Press           Pxx            Pyy            Pzz      
        35  -14.803557     -14.803557      3.8766558      3.8766558      3.8766558      58.260168      369528.33      369528.33      369528.33      369528.33    
        36  -14.803557     -14.803557      3.8766558      3.8766558      3.8766558      58.260168      369528.33      369528.33      369528.33      369528.33    
Loop time of 0.0001845 on 8 procs for 1 steps with 4 atoms

Performance: 468.293 ns/day, 0.051 hours/ns, 5420.054 timesteps/s, 21.680 katom-step/s
0.0% CPU use with 8 MPI tasks x 1 OpenMP threads

MPI task timing breakdown:
Section |  min time  |  avg time  |  max time  |%varavg| %total
---------------------------------------------------------------
Pair    | 0.000106   | 0.00011613 | 0.000138   |   0.0 | 62.94
Neigh   | 0          | 0          | 0          |   0.0 |  0.00
Comm    | 1.6e-05    | 3.375e-05  | 5.2e-05    |   0.0 | 18.29
Output  | 1.5e-05    | 2.425e-05  | 4.8e-05    |   0.0 | 13.14
Modify  | 0          | 3.75e-07   | 2e-06      |   0.0 |  0.20
Other   |            | 1e-05      |            |       |  5.42

Nlocal:            0.5 ave           3 max           0 min
Histogram: 6 0 0 1 0 0 0 0 0 1
Nghost:          255.5 ave         256 max         253 min
Histogram: 1 0 0 0 0 0 1 0 0 6
Neighs:           19.5 ave         123 max           0 min
Histogram: 6 0 1 0 0 0 0 0 0 1
FullNghs:           39 ave         234 max           0 min
Histogram: 6 0 0 1 0 0 0 0 0 1

Total # of neighbors = 312
Ave neighs/atom = 78
Neighbor list builds = 0
Dangerous builds = 0
variable  natoms equal "count(all)"
variable xlength equal "lx"
variable  volume equal "vol"
variable  etotal equal "etotal"
variable    ecoh equal "pe/v_natoms"
print "${xlength}, ${volume}, ${etotal}, ${ecoh}" append lattice_cohesive_energy.txt screen no

next i
jump SELF loop

change_box all x scale 1.0025 y scale 1.0025 z scale 1.0025 remap
Changing box ...
  orthogonal box = (0.14247027 0.14731609 0.14731609) to (4.0288177 4.0239719 4.0239719)
  orthogonal box = (0.14247027 0.14247027 0.14731609) to (4.0288177 4.0288177 4.0239719)
  orthogonal box = (0.14247027 0.14247027 0.14247027) to (4.0288177 4.0288177 4.0288177)

run 1
WARNING: No fixes with time integration, atoms won't move (src/verlet.cpp:60)
WARNING: Proc sub-domain size < neighbor skin, could lead to lost atoms (src/domain.cpp:966)
Per MPI rank memory allocation (min/avg/max) = 8.528 | 8.529 | 8.531 Mbytes
   Step         PotEng         TotEng           Lx             Ly             Lz           Volume         Press           Pxx            Pyy            Pzz      
        36  -14.90105      -14.90105       3.8863475      3.8863475      3.8863475      58.698213      343828.11      343828.11      343828.11      343828.11    
        37  -14.90105      -14.90105       3.8863475      3.8863475      3.8863475      58.698213      343828.11      343828.11      343828.11      343828.11    
Loop time of 0.000183125 on 8 procs for 1 steps with 4 atoms

Performance: 471.809 ns/day, 0.051 hours/ns, 5460.751 timesteps/s, 21.843 katom-step/s
0.0% CPU use with 8 MPI tasks x 1 OpenMP threads

MPI task timing breakdown:
Section |  min time  |  avg time  |  max time  |%varavg| %total
---------------------------------------------------------------
Pair    | 0.000107   | 0.00011538 | 0.000137   |   0.0 | 63.00
Neigh   | 0          | 0          | 0          |   0.0 |  0.00
Comm    | 1.5e-05    | 3.325e-05  | 5.1e-05    |   0.0 | 18.16
Output  | 1.5e-05    | 2.5125e-05 | 5.1e-05    |   0.0 | 13.72
Modify  | 0          | 1.25e-07   | 1e-06      |   0.0 |  0.07
Other   |            | 9.25e-06   |            |       |  5.05

Nlocal:            0.5 ave           3 max           0 min
Histogram: 6 0 0 1 0 0 0 0 0 1
Nghost:          255.5 ave         256 max         253 min
Histogram: 1 0 0 0 0 0 1 0 0 6
Neighs:           19.5 ave         123 max           0 min
Histogram: 6 0 1 0 0 0 0 0 0 1
FullNghs:           39 ave         234 max           0 min
Histogram: 6 0 0 1 0 0 0 0 0 1

Total # of neighbors = 312
Ave neighs/atom = 78
Neighbor list builds = 0
Dangerous builds = 0
variable  natoms equal "count(all)"
variable xlength equal "lx"
variable  volume equal "vol"
variable  etotal equal "etotal"
variable    ecoh equal "pe/v_natoms"
print "${xlength}, ${volume}, ${etotal}, ${ecoh}" append lattice_cohesive_energy.txt screen no

next i
jump SELF loop

change_box all x scale 1.0025 y scale 1.0025 z scale 1.0025 remap
Changing box ...
  orthogonal box = (0.13761234 0.14247027 0.14247027) to (4.0336757 4.0288177 4.0288177)
  orthogonal box = (0.13761234 0.13761234 0.14247027) to (4.0336757 4.0336757 4.0288177)
  orthogonal box = (0.13761234 0.13761234 0.13761234) to (4.0336757 4.0336757 4.0336757)

run 1
WARNING: No fixes with time integration, atoms won't move (src/verlet.cpp:60)
WARNING: Proc sub-domain size < neighbor skin, could lead to lost atoms (src/domain.cpp:966)
Per MPI rank memory allocation (min/avg/max) = 8.528 | 8.529 | 8.531 Mbytes
   Step         PotEng         TotEng           Lx             Ly             Lz           Volume         Press           Pxx            Pyy            Pzz      
        37  -14.992318     -14.992318      3.8960633      3.8960633      3.8960633      59.139551      319000.92      319000.92      319000.92      319000.92    
        38  -14.992318     -14.992318      3.8960633      3.8960633      3.8960633      59.139551      319000.92      319000.92      319000.92      319000.92    
Loop time of 0.000180625 on 8 procs for 1 steps with 4 atoms

Performance: 478.339 ns/day, 0.050 hours/ns, 5536.332 timesteps/s, 22.145 katom-step/s
0.0% CPU use with 8 MPI tasks x 1 OpenMP threads

MPI task timing breakdown:
Section |  min time  |  avg time  |  max time  |%varavg| %total
---------------------------------------------------------------
Pair    | 0.000106   | 0.00011387 | 0.000135   |   0.0 | 63.04
Neigh   | 0          | 0          | 0          |   0.0 |  0.00
Comm    | 1.5e-05    | 3.3e-05    | 5.1e-05    |   0.0 | 18.27
Output  | 1.5e-05    | 2.5125e-05 | 5.1e-05    |   0.0 | 13.91
Modify  | 0          | 0          | 0          |   0.0 |  0.00
Other   |            | 8.625e-06  |            |       |  4.78

Nlocal:            0.5 ave           3 max           0 min
Histogram: 6 0 0 1 0 0 0 0 0 1
Nghost:          255.5 ave         256 max         253 min
Histogram: 1 0 0 0 0 0 1 0 0 6
Neighs:           19.5 ave         123 max           0 min
Histogram: 6 0 1 0 0 0 0 0 0 1
FullNghs:           39 ave         234 max           0 min
Histogram: 6 0 0 1 0 0 0 0 0 1

Total # of neighbors = 312
Ave neighs/atom = 78
Neighbor list builds = 0
Dangerous builds = 0
variable  natoms equal "count(all)"
variable xlength equal "lx"
variable  volume equal "vol"
variable  etotal equal "etotal"
variable    ecoh equal "pe/v_natoms"
print "${xlength}, ${volume}, ${etotal}, ${ecoh}" append lattice_cohesive_energy.txt screen no

next i
jump SELF loop

change_box all x scale 1.0025 y scale 1.0025 z scale 1.0025 remap
Changing box ...
  orthogonal box = (0.13274226 0.13761234 0.13761234) to (4.0385457 4.0336757 4.0336757)
  orthogonal box = (0.13274226 0.13274226 0.13761234) to (4.0385457 4.0385457 4.0336757)
  orthogonal box = (0.13274226 0.13274226 0.13274226) to (4.0385457 4.0385457 4.0385457)

run 1
WARNING: No fixes with time integration, atoms won't move (src/verlet.cpp:60)
WARNING: Proc sub-domain size < neighbor skin, could lead to lost atoms (src/domain.cpp:966)
Per MPI rank memory allocation (min/avg/max) = 8.528 | 8.529 | 8.531 Mbytes
   Step         PotEng         TotEng           Lx             Ly             Lz           Volume         Press           Pxx            Pyy            Pzz      
        38  -15.0775       -15.0775        3.9058035      3.9058035      3.9058035      59.584207      295023.57      295023.57      295023.57      295023.57    
        39  -15.0775       -15.0775        3.9058035      3.9058035      3.9058035      59.584207      295023.57      295023.57      295023.57      295023.57    
Loop time of 0.0001805 on 8 procs for 1 steps with 4 atoms

Performance: 478.670 ns/day, 0.050 hours/ns, 5540.166 timesteps/s, 22.161 katom-step/s
0.0% CPU use with 8 MPI tasks x 1 OpenMP threads

MPI task timing breakdown:
Section |  min time  |  avg time  |  max time  |%varavg| %total
---------------------------------------------------------------
Pair    | 0.000106   | 0.000114   | 0.000135   |   0.0 | 63.16
Neigh   | 0          | 0          | 0          |   0.0 |  0.00
Comm    | 1.4e-05    | 3.2875e-05 | 5.1e-05    |   0.0 | 18.21
Output  | 1.4e-05    | 2.5125e-05 | 5.1e-05    |   0.0 | 13.92
Modify  | 0          | 1.25e-07   | 1e-06      |   0.0 |  0.07
Other   |            | 8.375e-06  |            |       |  4.64

Nlocal:            0.5 ave           3 max           0 min
Histogram: 6 0 0 1 0 0 0 0 0 1
Nghost:          255.5 ave         256 max         253 min
Histogram: 1 0 0 0 0 0 1 0 0 6
Neighs:           19.5 ave         123 max           0 min
Histogram: 6 0 1 0 0 0 0 0 0 1
FullNghs:           39 ave         234 max           0 min
Histogram: 6 0 0 1 0 0 0 0 0 1

Total # of neighbors = 312
Ave neighs/atom = 78
Neighbor list builds = 0
Dangerous builds = 0
variable  natoms equal "count(all)"
variable xlength equal "lx"
variable  volume equal "vol"
variable  etotal equal "etotal"
variable    ecoh equal "pe/v_natoms"
print "${xlength}, ${volume}, ${etotal}, ${ecoh}" append lattice_cohesive_energy.txt screen no

next i
jump SELF loop

change_box all x scale 1.0025 y scale 1.0025 z scale 1.0025 remap
Changing box ...
  orthogonal box = (0.12786 0.13274226 0.13274226) to (4.043428 4.0385457 4.0385457)
  orthogonal box = (0.12786 0.12786 0.13274226) to (4.043428 4.043428 4.0385457)
  orthogonal box = (0.12786 0.12786 0.12786) to (4.043428 4.043428 4.043428)

run 1
WARNING: No fixes with time integration, atoms won't move (src/verlet.cpp:60)
WARNING: Proc sub-domain size < neighbor skin, could lead to lost atoms (src/domain.cpp:966)
Per MPI rank memory allocation (min/avg/max) = 8.528 | 8.529 | 8.531 Mbytes
   Step         PotEng         TotEng           Lx             Ly             Lz           Volume         Press           Pxx            Pyy            Pzz      
        39  -15.156735     -15.156735      3.915568       3.915568       3.915568       60.032207      271873.3       271873.3       271873.3       271873.3     
        40  -15.156735     -15.156735      3.915568       3.915568       3.915568       60.032207      271873.3       271873.3       271873.3       271873.3     
Loop time of 0.00018125 on 8 procs for 1 steps with 4 atoms

Performance: 476.690 ns/day, 0.050 hours/ns, 5517.241 timesteps/s, 22.069 katom-step/s
0.0% CPU use with 8 MPI tasks x 1 OpenMP threads

MPI task timing breakdown:
Section |  min time  |  avg time  |  max time  |%varavg| %total
---------------------------------------------------------------
Pair    | 0.000107   | 0.00011463 | 0.000137   |   0.0 | 63.24
Neigh   | 0          | 0          | 0          |   0.0 |  0.00
Comm    | 1.4e-05    | 3.3125e-05 | 5e-05      |   0.0 | 18.28
Output  | 1.5e-05    | 2.4875e-05 | 5.1e-05    |   0.0 | 13.72
Modify  | 0          | 0          | 0          |   0.0 |  0.00
Other   |            | 8.625e-06  |            |       |  4.76

Nlocal:            0.5 ave           3 max           0 min
Histogram: 6 0 0 1 0 0 0 0 0 1
Nghost:          255.5 ave         256 max         253 min
Histogram: 1 0 0 0 0 0 1 0 0 6
Neighs:           19.5 ave         123 max           0 min
Histogram: 6 0 1 0 0 0 0 0 0 1
FullNghs:           39 ave         234 max           0 min
Histogram: 6 0 0 1 0 0 0 0 0 1

Total # of neighbors = 312
Ave neighs/atom = 78
Neighbor list builds = 0
Dangerous builds = 0
variable  natoms equal "count(all)"
variable xlength equal "lx"
variable  volume equal "vol"
variable  etotal equal "etotal"
variable    ecoh equal "pe/v_natoms"
print "${xlength}, ${volume}, ${etotal}, ${ecoh}" append lattice_cohesive_energy.txt screen no

next i
jump SELF loop

change_box all x scale 1.0025 y scale 1.0025 z scale 1.0025 remap
Changing box ...
  orthogonal box = (0.12296554 0.12786 0.12786) to (4.0483225 4.043428 4.043428)
  orthogonal box = (0.12296554 0.12296554 0.12786) to (4.0483225 4.0483225 4.043428)
  orthogonal box = (0.12296554 0.12296554 0.12296554) to (4.0483225 4.0483225 4.0483225)

run 1
WARNING: No fixes with time integration, atoms won't move (src/verlet.cpp:60)
WARNING: Proc sub-domain size < neighbor skin, could lead to lost atoms (src/domain.cpp:966)
Per MPI rank memory allocation (min/avg/max) = 8.528 | 8.529 | 8.531 Mbytes
   Step         PotEng         TotEng           Lx             Ly             Lz           Volume         Press           Pxx            Pyy            Pzz      
        40  -15.230157     -15.230157      3.9253569      3.9253569      3.9253569      60.483575      249527.75      249527.75      249527.75      249527.75    
        41  -15.230157     -15.230157      3.9253569      3.9253569      3.9253569      60.483575      249527.75      249527.75      249527.75      249527.75    
Loop time of 0.0001775 on 8 procs for 1 steps with 4 atoms

Performance: 486.761 ns/day, 0.049 hours/ns, 5633.803 timesteps/s, 22.535 katom-step/s
0.0% CPU use with 8 MPI tasks x 1 OpenMP threads

MPI task timing breakdown:
Section |  min time  |  avg time  |  max time  |%varavg| %total
---------------------------------------------------------------
Pair    | 0.000105   | 0.00011237 | 0.000133   |   0.0 | 63.31
Neigh   | 0          | 0          | 0          |   0.0 |  0.00
Comm    | 1.5e-05    | 3.25e-05   | 4.8e-05    |   0.0 | 18.31
Output  | 1.4e-05    | 2.3875e-05 | 4.8e-05    |   0.0 | 13.45
Modify  | 0          | 3.75e-07   | 2e-06      |   0.0 |  0.21
Other   |            | 8.375e-06  |            |       |  4.72

Nlocal:            0.5 ave           3 max           0 min
Histogram: 6 0 0 1 0 0 0 0 0 1
Nghost:          255.5 ave         256 max         253 min
Histogram: 1 0 0 0 0 0 1 0 0 6
Neighs:           19.5 ave         123 max           0 min
Histogram: 6 0 1 0 0 0 0 0 0 1
FullNghs:           39 ave         234 max           0 min
Histogram: 6 0 0 1 0 0 0 0 0 1

Total # of neighbors = 312
Ave neighs/atom = 78
Neighbor list builds = 0
Dangerous builds = 0
variable  natoms equal "count(all)"
variable xlength equal "lx"
variable  volume equal "vol"
variable  etotal equal "etotal"
variable    ecoh equal "pe/v_natoms"
print "${xlength}, ${volume}, ${etotal}, ${ecoh}" append lattice_cohesive_energy.txt screen no

next i
jump SELF loop

change_box all x scale 1.0025 y scale 1.0025 z scale 1.0025 remap
Changing box ...
  orthogonal box = (0.11805885 0.12296554 0.12296554) to (4.0532292 4.0483225 4.0483225)
  orthogonal box = (0.11805885 0.11805885 0.12296554) to (4.0532292 4.0532292 4.0483225)
  orthogonal box = (0.11805885 0.11805885 0.11805885) to (4.0532292 4.0532292 4.0532292)

run 1
WARNING: No fixes with time integration, atoms won't move (src/verlet.cpp:60)
WARNING: Proc sub-domain size < neighbor skin, could lead to lost atoms (src/domain.cpp:966)
Per MPI rank memory allocation (min/avg/max) = 8.528 | 8.529 | 8.531 Mbytes
   Step         PotEng         TotEng           Lx             Ly             Lz           Volume         Press           Pxx            Pyy            Pzz      
        41  -15.297901     -15.297901      3.9351703      3.9351703      3.9351703      60.938337      227965.35      227965.35      227965.35      227965.35    
        42  -15.297901     -15.297901      3.9351703      3.9351703      3.9351703      60.938337      227965.35      227965.35      227965.35      227965.35    
Loop time of 0.00024075 on 8 procs for 1 steps with 4 atoms

Performance: 358.879 ns/day, 0.067 hours/ns, 4153.686 timesteps/s, 16.615 katom-step/s
0.0% CPU use with 8 MPI tasks x 1 OpenMP threads

MPI task timing breakdown:
Section |  min time  |  avg time  |  max time  |%varavg| %total
---------------------------------------------------------------
Pair    | 0.000129   | 0.0001555  | 0.000182   |   0.0 | 64.59
Neigh   | 0          | 0          | 0          |   0.0 |  0.00
Comm    | 2.5e-05    | 5.225e-05  | 7.9e-05    |   0.0 | 21.70
Output  | 1.9e-05    | 2.2625e-05 | 2.7e-05    |   0.0 |  9.40
Modify  | 0          | 2.5e-07    | 1e-06      |   0.0 |  0.10
Other   |            | 1.012e-05  |            |       |  4.21

Nlocal:            0.5 ave           1 max           0 min
Histogram: 4 0 0 0 0 0 0 0 0 4
Nghost:          255.5 ave         256 max         255 min
Histogram: 4 0 0 0 0 0 0 0 0 4
Neighs:           19.5 ave          45 max           0 min
Histogram: 4 0 0 0 0 0 0 1 2 1
FullNghs:           39 ave          78 max           0 min
Histogram: 4 0 0 0 0 0 0 0 0 4

Total # of neighbors = 312
Ave neighs/atom = 78
Neighbor list builds = 0
Dangerous builds = 0
variable  natoms equal "count(all)"
variable xlength equal "lx"
variable  volume equal "vol"
variable  etotal equal "etotal"
variable    ecoh equal "pe/v_natoms"
print "${xlength}, ${volume}, ${etotal}, ${ecoh}" append lattice_cohesive_energy.txt screen no

next i
jump SELF loop

change_box all x scale 1.0025 y scale 1.0025 z scale 1.0025 remap
Changing box ...
  orthogonal box = (0.11313988 0.11805885 0.11805885) to (4.0581481 4.0532292 4.0532292)
  orthogonal box = (0.11313988 0.11313988 0.11805885) to (4.0581481 4.0581481 4.0532292)
  orthogonal box = (0.11313988 0.11313988 0.11313988) to (4.0581481 4.0581481 4.0581481)

run 1
WARNING: No fixes with time integration, atoms won't move (src/verlet.cpp:60)
WARNING: Proc sub-domain size < neighbor skin, could lead to lost atoms (src/domain.cpp:966)
Per MPI rank memory allocation (min/avg/max) = 8.528 | 8.529 | 8.531 Mbytes
   Step         PotEng         TotEng           Lx             Ly             Lz           Volume         Press           Pxx            Pyy            Pzz      
        42  -15.360097     -15.360097      3.9450082      3.9450082      3.9450082      61.396518      207164.73      207164.73      207164.73      207164.73    
        43  -15.360097     -15.360097      3.9450082      3.9450082      3.9450082      61.396518      207164.73      207164.73      207164.73      207164.73    
Loop time of 0.000222875 on 8 procs for 1 steps with 4 atoms

Performance: 387.661 ns/day, 0.062 hours/ns, 4486.820 timesteps/s, 17.947 katom-step/s
0.0% CPU use with 8 MPI tasks x 1 OpenMP threads

MPI task timing breakdown:
Section |  min time  |  avg time  |  max time  |%varavg| %total
---------------------------------------------------------------
Pair    | 0.000123   | 0.0001415  | 0.000157   |   0.0 | 63.49
Neigh   | 0          | 0          | 0          |   0.0 |  0.00
Comm    | 2.6e-05    | 4.2375e-05 | 6.1e-05    |   0.0 | 19.01
Output  | 1.7e-05    | 1.9875e-05 | 2.5e-05    |   0.0 |  8.92
Modify  | 0          | 5e-07      | 1e-06      |   0.0 |  0.22
Other   |            | 1.863e-05  |            |       |  8.36

Nlocal:            0.5 ave           1 max           0 min
Histogram: 4 0 0 0 0 0 0 0 0 4
Nghost:          255.5 ave         256 max         255 min
Histogram: 4 0 0 0 0 0 0 0 0 4
Neighs:           19.5 ave          45 max           0 min
Histogram: 4 0 0 0 0 0 0 1 2 1
FullNghs:           39 ave          78 max           0 min
Histogram: 4 0 0 0 0 0 0 0 0 4

Total # of neighbors = 312
Ave neighs/atom = 78
Neighbor list builds = 0
Dangerous builds = 0
variable  natoms equal "count(all)"
variable xlength equal "lx"
variable  volume equal "vol"
variable  etotal equal "etotal"
variable    ecoh equal "pe/v_natoms"
print "${xlength}, ${volume}, ${etotal}, ${ecoh}" append lattice_cohesive_energy.txt screen no

next i
jump SELF loop

change_box all x scale 1.0025 y scale 1.0025 z scale 1.0025 remap
Changing box ...
  orthogonal box = (0.10820862 0.11313988 0.11313988) to (4.0630794 4.0581481 4.0581481)
  orthogonal box = (0.10820862 0.10820862 0.11313988) to (4.0630794 4.0630794 4.0581481)
  orthogonal box = (0.10820862 0.10820862 0.10820862) to (4.0630794 4.0630794 4.0630794)

run 1
WARNING: No fixes with time integration, atoms won't move (src/verlet.cpp:60)
WARNING: Proc sub-domain size < neighbor skin, could lead to lost atoms (src/domain.cpp:966)
Per MPI rank memory allocation (min/avg/max) = 8.528 | 8.529 | 8.531 Mbytes
   Step         PotEng         TotEng           Lx             Ly             Lz           Volume         Press           Pxx            Pyy            Pzz      
        43  -15.416876     -15.416876      3.9548708      3.9548708      3.9548708      61.858144      187105.24      187105.24      187105.24      187105.24    
        44  -15.416876     -15.416876      3.9548708      3.9548708      3.9548708      61.858144      187105.24      187105.24      187105.24      187105.24    
Loop time of 0.000203625 on 8 procs for 1 steps with 4 atoms

Performance: 424.309 ns/day, 0.057 hours/ns, 4910.988 timesteps/s, 19.644 katom-step/s
0.0% CPU use with 8 MPI tasks x 1 OpenMP threads

MPI task timing breakdown:
Section |  min time  |  avg time  |  max time  |%varavg| %total
---------------------------------------------------------------
Pair    | 0.000117   | 0.00013513 | 0.000151   |   0.0 | 66.36
Neigh   | 0          | 0          | 0          |   0.0 |  0.00
Comm    | 2.5e-05    | 4.175e-05  | 6e-05      |   0.0 | 20.50
Output  | 1.5e-05    | 1.775e-05  | 2e-05      |   0.0 |  8.72
Modify  | 0          | 0          | 0          |   0.0 |  0.00
Other   |            | 9e-06      |            |       |  4.42

Nlocal:            0.5 ave           1 max           0 min
Histogram: 4 0 0 0 0 0 0 0 0 4
Nghost:          255.5 ave         256 max         255 min
Histogram: 4 0 0 0 0 0 0 0 0 4
Neighs:           19.5 ave          45 max           0 min
Histogram: 4 0 0 0 0 0 0 1 2 1
FullNghs:           39 ave          78 max           0 min
Histogram: 4 0 0 0 0 0 0 0 0 4

Total # of neighbors = 312
Ave neighs/atom = 78
Neighbor list builds = 0
Dangerous builds = 0
variable  natoms equal "count(all)"
variable xlength equal "lx"
variable  volume equal "vol"
variable  etotal equal "etotal"
variable    ecoh equal "pe/v_natoms"
print "${xlength}, ${volume}, ${etotal}, ${ecoh}" append lattice_cohesive_energy.txt screen no

next i
jump SELF loop

change_box all x scale 1.0025 y scale 1.0025 z scale 1.0025 remap
Changing box ...
  orthogonal box = (0.10326504 0.10820862 0.10820862) to (4.068023 4.0630794 4.0630794)
  orthogonal box = (0.10326504 0.10326504 0.10820862) to (4.068023 4.068023 4.0630794)
  orthogonal box = (0.10326504 0.10326504 0.10326504) to (4.068023 4.068023 4.068023)

run 1
WARNING: No fixes with time integration, atoms won't move (src/verlet.cpp:60)
WARNING: Proc sub-domain size < neighbor skin, could lead to lost atoms (src/domain.cpp:966)
Per MPI rank memory allocation (min/avg/max) = 8.528 | 8.529 | 8.531 Mbytes
   Step         PotEng         TotEng           Lx             Ly             Lz           Volume         Press           Pxx            Pyy            Pzz      
        44  -15.468363     -15.468363      3.9647579      3.9647579      3.9647579      62.323241      167766.63      167766.63      167766.63      167766.63    
        45  -15.468363     -15.468363      3.9647579      3.9647579      3.9647579      62.323241      167766.63      167766.63      167766.63      167766.63    
Loop time of 0.000203875 on 8 procs for 1 steps with 4 atoms

Performance: 423.789 ns/day, 0.057 hours/ns, 4904.966 timesteps/s, 19.620 katom-step/s
0.0% CPU use with 8 MPI tasks x 1 OpenMP threads

MPI task timing breakdown:
Section |  min time  |  avg time  |  max time  |%varavg| %total
---------------------------------------------------------------
Pair    | 0.000121   | 0.00013737 | 0.000152   |   0.0 | 67.38
Neigh   | 0          | 0          | 0          |   0.0 |  0.00
Comm    | 2.6e-05    | 4.0875e-05 | 5.8e-05    |   0.0 | 20.05
Output  | 1.5e-05    | 1.7125e-05 | 1.9e-05    |   0.0 |  8.40
Modify  | 0          | 6.25e-07   | 2e-06      |   0.0 |  0.31
Other   |            | 7.875e-06  |            |       |  3.86

Nlocal:            0.5 ave           1 max           0 min
Histogram: 4 0 0 0 0 0 0 0 0 4
Nghost:          255.5 ave         256 max         255 min
Histogram: 4 0 0 0 0 0 0 0 0 4
Neighs:           19.5 ave          45 max           0 min
Histogram: 4 0 0 0 0 0 0 1 2 1
FullNghs:           39 ave          78 max           0 min
Histogram: 4 0 0 0 0 0 0 0 0 4

Total # of neighbors = 312
Ave neighs/atom = 78
Neighbor list builds = 0
Dangerous builds = 0
variable  natoms equal "count(all)"
variable xlength equal "lx"
variable  volume equal "vol"
variable  etotal equal "etotal"
variable    ecoh equal "pe/v_natoms"
print "${xlength}, ${volume}, ${etotal}, ${ecoh}" append lattice_cohesive_energy.txt screen no

next i
jump SELF loop

change_box all x scale 1.0025 y scale 1.0025 z scale 1.0025 remap
Changing box ...
  orthogonal box = (0.098309088 0.10326504 0.10326504) to (4.0729789 4.068023 4.068023)
  orthogonal box = (0.098309088 0.098309088 0.10326504) to (4.0729789 4.0729789 4.068023)
  orthogonal box = (0.098309088 0.098309088 0.098309088) to (4.0729789 4.0729789 4.0729789)

run 1
WARNING: No fixes with time integration, atoms won't move (src/verlet.cpp:60)
WARNING: Proc sub-domain size < neighbor skin, could lead to lost atoms (src/domain.cpp:966)
Per MPI rank memory allocation (min/avg/max) = 8.528 | 8.529 | 8.531 Mbytes
   Step         PotEng         TotEng           Lx             Ly             Lz           Volume         Press           Pxx            Pyy            Pzz      
        45  -15.514684     -15.514684      3.9746698      3.9746698      3.9746698      62.791835      149129.06      149129.06      149129.06      149129.06    
        46  -15.514684     -15.514684      3.9746698      3.9746698      3.9746698      62.791835      149129.06      149129.06      149129.06      149129.06    
Loop time of 0.000204125 on 8 procs for 1 steps with 4 atoms

Performance: 423.270 ns/day, 0.057 hours/ns, 4898.959 timesteps/s, 19.596 katom-step/s
0.0% CPU use with 8 MPI tasks x 1 OpenMP threads

MPI task timing breakdown:
Section |  min time  |  avg time  |  max time  |%varavg| %total
---------------------------------------------------------------
Pair    | 0.000118   | 0.00013513 | 0.000149   |   0.0 | 66.20
Neigh   | 0          | 0          | 0          |   0.0 |  0.00
Comm    | 2.6e-05    | 4.075e-05  | 5.9e-05    |   0.0 | 19.96
Output  | 1.5e-05    | 1.6875e-05 | 1.9e-05    |   0.0 |  8.27
Modify  | 0          | 5e-07      | 2e-06      |   0.0 |  0.24
Other   |            | 1.088e-05  |            |       |  5.33

Nlocal:            0.5 ave           1 max           0 min
Histogram: 4 0 0 0 0 0 0 0 0 4
Nghost:          255.5 ave         256 max         255 min
Histogram: 4 0 0 0 0 0 0 0 0 4
Neighs:           19.5 ave          45 max           0 min
Histogram: 4 0 0 0 0 0 0 1 2 1
FullNghs:           39 ave          78 max           0 min
Histogram: 4 0 0 0 0 0 0 0 0 4

Total # of neighbors = 312
Ave neighs/atom = 78
Neighbor list builds = 0
Dangerous builds = 0
variable  natoms equal "count(all)"
variable xlength equal "lx"
variable  volume equal "vol"
variable  etotal equal "etotal"
variable    ecoh equal "pe/v_natoms"
print "${xlength}, ${volume}, ${etotal}, ${ecoh}" append lattice_cohesive_energy.txt screen no

next i
jump SELF loop

change_box all x scale 1.0025 y scale 1.0025 z scale 1.0025 remap
Changing box ...
  orthogonal box = (0.093340751 0.098309088 0.098309088) to (4.0779472 4.0729789 4.0729789)
  orthogonal box = (0.093340751 0.093340751 0.098309088) to (4.0779472 4.0779472 4.0729789)
  orthogonal box = (0.093340751 0.093340751 0.093340751) to (4.0779472 4.0779472 4.0779472)

run 1
WARNING: No fixes with time integration, atoms won't move (src/verlet.cpp:60)
WARNING: Proc sub-domain size < neighbor skin, could lead to lost atoms (src/domain.cpp:966)
Per MPI rank memory allocation (min/avg/max) = 8.528 | 8.529 | 8.531 Mbytes
   Step         PotEng         TotEng           Lx             Ly             Lz           Volume         Press           Pxx            Pyy            Pzz      
        46  -15.555963     -15.555963      3.9846065      3.9846065      3.9846065      63.263952      131173.33      131173.33      131173.33      131173.33    
        47  -15.555963     -15.555963      3.9846065      3.9846065      3.9846065      63.263952      131173.33      131173.33      131173.33      131173.33    
Loop time of 0.00020525 on 8 procs for 1 steps with 4 atoms

Performance: 420.950 ns/day, 0.057 hours/ns, 4872.107 timesteps/s, 19.488 katom-step/s
0.0% CPU use with 8 MPI tasks x 1 OpenMP threads

MPI task timing breakdown:
Section |  min time  |  avg time  |  max time  |%varavg| %total
---------------------------------------------------------------
Pair    | 0.000119   | 0.00013537 | 0.000151   |   0.0 | 65.96
Neigh   | 0          | 0          | 0          |   0.0 |  0.00
Comm    | 2.6e-05    | 4.15e-05   | 5.9e-05    |   0.0 | 20.22
Output  | 1.6e-05    | 1.75e-05   | 1.9e-05    |   0.0 |  8.53
Modify  | 0          | 1.25e-07   | 1e-06      |   0.0 |  0.06
Other   |            | 1.075e-05  |            |       |  5.24

Nlocal:            0.5 ave           1 max           0 min
Histogram: 4 0 0 0 0 0 0 0 0 4
Nghost:          255.5 ave         256 max         255 min
Histogram: 4 0 0 0 0 0 0 0 0 4
Neighs:           19.5 ave          45 max           0 min
Histogram: 4 0 0 0 0 0 0 1 2 1
FullNghs:           39 ave          78 max           0 min
Histogram: 4 0 0 0 0 0 0 0 0 4

Total # of neighbors = 312
Ave neighs/atom = 78
Neighbor list builds = 0
Dangerous builds = 0
variable  natoms equal "count(all)"
variable xlength equal "lx"
variable  volume equal "vol"
variable  etotal equal "etotal"
variable    ecoh equal "pe/v_natoms"
print "${xlength}, ${volume}, ${etotal}, ${ecoh}" append lattice_cohesive_energy.txt screen no

next i
jump SELF loop

change_box all x scale 1.0025 y scale 1.0025 z scale 1.0025 remap
Changing box ...
  orthogonal box = (0.088359993 0.093340751 0.093340751) to (4.082928 4.0779472 4.0779472)
  orthogonal box = (0.088359993 0.088359993 0.093340751) to (4.082928 4.082928 4.0779472)
  orthogonal box = (0.088359993 0.088359993 0.088359993) to (4.082928 4.082928 4.082928)

run 1
WARNING: No fixes with time integration, atoms won't move (src/verlet.cpp:60)
WARNING: Proc sub-domain size < neighbor skin, could lead to lost atoms (src/domain.cpp:966)
Per MPI rank memory allocation (min/avg/max) = 8.528 | 8.529 | 8.531 Mbytes
   Step         PotEng         TotEng           Lx             Ly             Lz           Volume         Press           Pxx            Pyy            Pzz      
        47  -15.592321     -15.592321      3.994568       3.994568       3.994568       63.739619      113880.45      113880.45      113880.45      113880.45    
        48  -15.592321     -15.592321      3.994568       3.994568       3.994568       63.739619      113880.45      113880.45      113880.45      113880.45    
Loop time of 0.00020125 on 8 procs for 1 steps with 4 atoms

Performance: 429.317 ns/day, 0.056 hours/ns, 4968.944 timesteps/s, 19.876 katom-step/s
0.0% CPU use with 8 MPI tasks x 1 OpenMP threads

MPI task timing breakdown:
Section |  min time  |  avg time  |  max time  |%varavg| %total
---------------------------------------------------------------
Pair    | 0.000117   | 0.00013475 | 0.000151   |   0.0 | 66.96
Neigh   | 0          | 0          | 0          |   0.0 |  0.00
Comm    | 2.5e-05    | 4.125e-05  | 5.9e-05    |   0.0 | 20.50
Output  | 1.5e-05    | 1.725e-05  | 1.9e-05    |   0.0 |  8.57
Modify  | 0          | 2.5e-07    | 1e-06      |   0.0 |  0.12
Other   |            | 7.75e-06   |            |       |  3.85

Nlocal:            0.5 ave           1 max           0 min
Histogram: 4 0 0 0 0 0 0 0 0 4
Nghost:          255.5 ave         256 max         255 min
Histogram: 4 0 0 0 0 0 0 0 0 4
Neighs:           19.5 ave          45 max           0 min
Histogram: 4 0 0 0 0 0 0 1 2 1
FullNghs:           39 ave          78 max           0 min
Histogram: 4 0 0 0 0 0 0 0 0 4

Total # of neighbors = 312
Ave neighs/atom = 78
Neighbor list builds = 0
Dangerous builds = 0
variable  natoms equal "count(all)"
variable xlength equal "lx"
variable  volume equal "vol"
variable  etotal equal "etotal"
variable    ecoh equal "pe/v_natoms"
print "${xlength}, ${volume}, ${etotal}, ${ecoh}" append lattice_cohesive_energy.txt screen no

next i
jump SELF loop

change_box all x scale 1.0025 y scale 1.0025 z scale 1.0025 remap
Changing box ...
  orthogonal box = (0.083366783 0.088359993 0.088359993) to (4.0879212 4.082928 4.082928)
  orthogonal box = (0.083366783 0.083366783 0.088359993) to (4.0879212 4.0879212 4.082928)
  orthogonal box = (0.083366783 0.083366783 0.083366783) to (4.0879212 4.0879212 4.0879212)

run 1
WARNING: No fixes with time integration, atoms won't move (src/verlet.cpp:60)
Per MPI rank memory allocation (min/avg/max) = 8.556 | 8.557 | 8.559 Mbytes
   Step         PotEng         TotEng           Lx             Ly             Lz           Volume         Press           Pxx            Pyy            Pzz      
        48  -15.623876     -15.623876      4.0045544      4.0045544      4.0045544      64.218862      97232.12       97232.12       97232.12       97232.12     
        49  -15.623876     -15.623876      4.0045544      4.0045544      4.0045544      64.218862      97232.12       97232.12       97232.12       97232.12     
Loop time of 0.000219875 on 8 procs for 1 steps with 4 atoms

Performance: 392.951 ns/day, 0.061 hours/ns, 4548.039 timesteps/s, 18.192 katom-step/s
0.0% CPU use with 8 MPI tasks x 1 OpenMP threads

MPI task timing breakdown:
Section |  min time  |  avg time  |  max time  |%varavg| %total
---------------------------------------------------------------
Pair    | 0.000141   | 0.0001555  | 0.000169   |   0.0 | 70.72
Neigh   | 0          | 0          | 0          |   0.0 |  0.00
Comm    | 1.5e-05    | 2.2875e-05 | 5e-05      |   0.0 | 10.40
Output  | 1.5e-05    | 3.275e-05  | 5.3e-05    |   0.0 | 14.89
Modify  | 0          | 5e-07      | 1e-06      |   0.0 |  0.23
Other   |            | 8.25e-06   |            |       |  3.75

Nlocal:            0.5 ave           4 max           0 min
Histogram: 7 0 0 0 0 0 0 0 0 1
Nghost:          255.5 ave         256 max         252 min
Histogram: 1 0 0 0 0 0 0 0 0 7
Neighs:           19.5 ave         156 max           0 min
Histogram: 7 0 0 0 0 0 0 0 0 1
FullNghs:           39 ave         312 max           0 min
Histogram: 7 0 0 0 0 0 0 0 0 1

Total # of neighbors = 312
Ave neighs/atom = 78
Neighbor list builds = 0
Dangerous builds = 0
variable  natoms equal "count(all)"
variable xlength equal "lx"
variable  volume equal "vol"
variable  etotal equal "etotal"
variable    ecoh equal "pe/v_natoms"
print "${xlength}, ${volume}, ${etotal}, ${ecoh}" append lattice_cohesive_energy.txt screen no

next i
jump SELF loop

change_box all x scale 1.0025 y scale 1.0025 z scale 1.0025 remap
Changing box ...
  orthogonal box = (0.07836109 0.083366783 0.083366783) to (4.0929269 4.0879212 4.0879212)
  orthogonal box = (0.07836109 0.07836109 0.083366783) to (4.0929269 4.0929269 4.0879212)
  orthogonal box = (0.07836109 0.07836109 0.07836109) to (4.0929269 4.0929269 4.0929269)

run 1
WARNING: No fixes with time integration, atoms won't move (src/verlet.cpp:60)
Per MPI rank memory allocation (min/avg/max) = 8.556 | 8.557 | 8.559 Mbytes
   Step         PotEng         TotEng           Lx             Ly             Lz           Volume         Press           Pxx            Pyy            Pzz      
        49  -15.650746     -15.650746      4.0145658      4.0145658      4.0145658      64.701708      81210.297      81210.297      81210.297      81210.297    
        50  -15.650746     -15.650746      4.0145658      4.0145658      4.0145658      64.701708      81210.297      81210.297      81210.297      81210.297    
Loop time of 0.000218125 on 8 procs for 1 steps with 4 atoms

Performance: 396.103 ns/day, 0.061 hours/ns, 4584.527 timesteps/s, 18.338 katom-step/s
0.0% CPU use with 8 MPI tasks x 1 OpenMP threads

MPI task timing breakdown:
Section |  min time  |  avg time  |  max time  |%varavg| %total
---------------------------------------------------------------
Pair    | 0.00014    | 0.00015537 | 0.000169   |   0.0 | 71.23
Neigh   | 0          | 0          | 0          |   0.0 |  0.00
Comm    | 1.6e-05    | 2.2625e-05 | 4.8e-05    |   0.0 | 10.37
Output  | 1.5e-05    | 3.15e-05   | 5e-05      |   0.0 | 14.44
Modify  | 0          | 2.5e-07    | 1e-06      |   0.0 |  0.11
Other   |            | 8.375e-06  |            |       |  3.84

Nlocal:            0.5 ave           4 max           0 min
Histogram: 7 0 0 0 0 0 0 0 0 1
Nghost:          255.5 ave         256 max         252 min
Histogram: 1 0 0 0 0 0 0 0 0 7
Neighs:           19.5 ave         156 max           0 min
Histogram: 7 0 0 0 0 0 0 0 0 1
FullNghs:           39 ave         312 max           0 min
Histogram: 7 0 0 0 0 0 0 0 0 1

Total # of neighbors = 312
Ave neighs/atom = 78
Neighbor list builds = 0
Dangerous builds = 0
variable  natoms equal "count(all)"
variable xlength equal "lx"
variable  volume equal "vol"
variable  etotal equal "etotal"
variable    ecoh equal "pe/v_natoms"
print "${xlength}, ${volume}, ${etotal}, ${ecoh}" append lattice_cohesive_energy.txt screen no

next i
jump SELF loop

change_box all x scale 1.0025 y scale 1.0025 z scale 1.0025 remap
Changing box ...
  orthogonal box = (0.073342882 0.07836109 0.07836109) to (4.0979451 4.0929269 4.0929269)
  orthogonal box = (0.073342882 0.073342882 0.07836109) to (4.0979451 4.0979451 4.0929269)
  orthogonal box = (0.073342882 0.073342882 0.073342882) to (4.0979451 4.0979451 4.0979451)

run 1
WARNING: No fixes with time integration, atoms won't move (src/verlet.cpp:60)
Per MPI rank memory allocation (min/avg/max) = 8.556 | 8.557 | 8.559 Mbytes
   Step         PotEng         TotEng           Lx             Ly             Lz           Volume         Press           Pxx            Pyy            Pzz      
        50  -15.673046     -15.673046      4.0246022      4.0246022      4.0246022      65.188185      65797.44       65797.44       65797.44       65797.44     
        51  -15.673046     -15.673046      4.0246022      4.0246022      4.0246022      65.188185      65797.44       65797.44       65797.44       65797.44     
Loop time of 0.00021575 on 8 procs for 1 steps with 4 atoms

Performance: 400.463 ns/day, 0.060 hours/ns, 4634.994 timesteps/s, 18.540 katom-step/s
0.0% CPU use with 8 MPI tasks x 1 OpenMP threads

MPI task timing breakdown:
Section |  min time  |  avg time  |  max time  |%varavg| %total
---------------------------------------------------------------
Pair    | 0.000139   | 0.00015363 | 0.000167   |   0.0 | 71.21
Neigh   | 0          | 0          | 0          |   0.0 |  0.00
Comm    | 1.4e-05    | 2.175e-05  | 4.7e-05    |   0.0 | 10.08
Output  | 1.7e-05    | 3.2625e-05 | 5.1e-05    |   0.0 | 15.12
Modify  | 0          | 2.5e-07    | 1e-06      |   0.0 |  0.12
Other   |            | 7.5e-06    |            |       |  3.48

Nlocal:            0.5 ave           4 max           0 min
Histogram: 7 0 0 0 0 0 0 0 0 1
Nghost:          255.5 ave         256 max         252 min
Histogram: 1 0 0 0 0 0 0 0 0 7
Neighs:           19.5 ave         156 max           0 min
Histogram: 7 0 0 0 0 0 0 0 0 1
FullNghs:           39 ave         312 max           0 min
Histogram: 7 0 0 0 0 0 0 0 0 1

Total # of neighbors = 312
Ave neighs/atom = 78
Neighbor list builds = 0
Dangerous builds = 0
variable  natoms equal "count(all)"
variable xlength equal "lx"
variable  volume equal "vol"
variable  etotal equal "etotal"
variable    ecoh equal "pe/v_natoms"
print "${xlength}, ${volume}, ${etotal}, ${ecoh}" append lattice_cohesive_energy.txt screen no

next i
jump SELF loop

change_box all x scale 1.0025 y scale 1.0025 z scale 1.0025 remap
Changing box ...
  orthogonal box = (0.06831213 0.073342882 0.073342882) to (4.1029759 4.0979451 4.0979451)
  orthogonal box = (0.06831213 0.06831213 0.073342882) to (4.1029759 4.1029759 4.0979451)
  orthogonal box = (0.06831213 0.06831213 0.06831213) to (4.1029759 4.1029759 4.1029759)

run 1
WARNING: No fixes with time integration, atoms won't move (src/verlet.cpp:60)
Per MPI rank memory allocation (min/avg/max) = 8.556 | 8.557 | 8.559 Mbytes
   Step         PotEng         TotEng           Lx             Ly             Lz           Volume         Press           Pxx            Pyy            Pzz      
        51  -15.69089      -15.69089       4.0346637      4.0346637      4.0346637      65.67832       50976.457      50976.457      50976.457      50976.457    
        52  -15.69089      -15.69089       4.0346637      4.0346637      4.0346637      65.67832       50976.457      50976.457      50976.457      50976.457    
Loop time of 0.000216 on 8 procs for 1 steps with 4 atoms

Performance: 400.000 ns/day, 0.060 hours/ns, 4629.630 timesteps/s, 18.519 katom-step/s
0.0% CPU use with 8 MPI tasks x 1 OpenMP threads

MPI task timing breakdown:
Section |  min time  |  avg time  |  max time  |%varavg| %total
---------------------------------------------------------------
Pair    | 0.000139   | 0.0001535  | 0.000168   |   0.0 | 71.06
Neigh   | 0          | 0          | 0          |   0.0 |  0.00
Comm    | 1.5e-05    | 2.2125e-05 | 5e-05      |   0.0 | 10.24
Output  | 1.6e-05    | 3.275e-05  | 5.2e-05    |   0.0 | 15.16
Modify  | 0          | 1.25e-07   | 1e-06      |   0.0 |  0.06
Other   |            | 7.5e-06    |            |       |  3.47

Nlocal:            0.5 ave           4 max           0 min
Histogram: 7 0 0 0 0 0 0 0 0 1
Nghost:          255.5 ave         256 max         252 min
Histogram: 1 0 0 0 0 0 0 0 0 7
Neighs:           19.5 ave         156 max           0 min
Histogram: 7 0 0 0 0 0 0 0 0 1
FullNghs:           39 ave         312 max           0 min
Histogram: 7 0 0 0 0 0 0 0 0 1

Total # of neighbors = 312
Ave neighs/atom = 78
Neighbor list builds = 0
Dangerous builds = 0
variable  natoms equal "count(all)"
variable xlength equal "lx"
variable  volume equal "vol"
variable  etotal equal "etotal"
variable    ecoh equal "pe/v_natoms"
print "${xlength}, ${volume}, ${etotal}, ${ecoh}" append lattice_cohesive_energy.txt screen no

next i
jump SELF loop

change_box all x scale 1.0025 y scale 1.0025 z scale 1.0025 remap
Changing box ...
  orthogonal box = (0.0632688 0.06831213 0.06831213) to (4.1080192 4.1029759 4.1029759)
  orthogonal box = (0.0632688 0.0632688 0.06831213) to (4.1080192 4.1080192 4.1029759)
  orthogonal box = (0.0632688 0.0632688 0.0632688) to (4.1080192 4.1080192 4.1080192)

run 1
WARNING: No fixes with time integration, atoms won't move (src/verlet.cpp:60)
Per MPI rank memory allocation (min/avg/max) = 8.556 | 8.557 | 8.559 Mbytes
   Step         PotEng         TotEng           Lx             Ly             Lz           Volume         Press           Pxx            Pyy            Pzz      
        52  -15.704389     -15.704389      4.0447504      4.0447504      4.0447504      66.17214       36730.548      36730.548      36730.548      36730.548    
        53  -15.704389     -15.704389      4.0447504      4.0447504      4.0447504      66.17214       36730.548      36730.548      36730.548      36730.548    
Loop time of 0.000217875 on 8 procs for 1 steps with 4 atoms

Performance: 396.558 ns/day, 0.061 hours/ns, 4589.788 timesteps/s, 18.359 katom-step/s
0.0% CPU use with 8 MPI tasks x 1 OpenMP threads

MPI task timing breakdown:
Section |  min time  |  avg time  |  max time  |%varavg| %total
---------------------------------------------------------------
Pair    | 0.000139   | 0.00015425 | 0.000168   |   0.0 | 70.80
Neigh   | 0          | 0          | 0          |   0.0 |  0.00
Comm    | 1.4e-05    | 2.1625e-05 | 4.9e-05    |   0.0 |  9.93
Output  | 1.6e-05    | 3.2e-05    | 5.1e-05    |   0.0 | 14.69
Modify  | 0          | 2.5e-07    | 1e-06      |   0.0 |  0.11
Other   |            | 9.75e-06   |            |       |  4.48

Nlocal:            0.5 ave           4 max           0 min
Histogram: 7 0 0 0 0 0 0 0 0 1
Nghost:          255.5 ave         256 max         252 min
Histogram: 1 0 0 0 0 0 0 0 0 7
Neighs:           19.5 ave         156 max           0 min
Histogram: 7 0 0 0 0 0 0 0 0 1
FullNghs:           39 ave         312 max           0 min
Histogram: 7 0 0 0 0 0 0 0 0 1

Total # of neighbors = 312
Ave neighs/atom = 78
Neighbor list builds = 0
Dangerous builds = 0
variable  natoms equal "count(all)"
variable xlength equal "lx"
variable  volume equal "vol"
variable  etotal equal "etotal"
variable    ecoh equal "pe/v_natoms"
print "${xlength}, ${volume}, ${etotal}, ${ecoh}" append lattice_cohesive_energy.txt screen no

next i
jump SELF loop

change_box all x scale 1.0025 y scale 1.0025 z scale 1.0025 remap
Changing box ...
  orthogonal box = (0.058212862 0.0632688 0.0632688) to (4.1130751 4.1080192 4.1080192)
  orthogonal box = (0.058212862 0.058212862 0.0632688) to (4.1130751 4.1130751 4.1080192)
  orthogonal box = (0.058212862 0.058212862 0.058212862) to (4.1130751 4.1130751 4.1130751)

run 1
WARNING: No fixes with time integration, atoms won't move (src/verlet.cpp:60)
Per MPI rank memory allocation (min/avg/max) = 8.556 | 8.557 | 8.559 Mbytes
   Step         PotEng         TotEng           Lx             Ly             Lz           Volume         Press           Pxx            Pyy            Pzz      
        53  -15.713653     -15.713653      4.0548623      4.0548623      4.0548623      66.669673      23043.478      23043.478      23043.478      23043.478    
        54  -15.713653     -15.713653      4.0548623      4.0548623      4.0548623      66.669673      23043.478      23043.478      23043.478      23043.478    
Loop time of 0.000216 on 8 procs for 1 steps with 4 atoms

Performance: 400.000 ns/day, 0.060 hours/ns, 4629.630 timesteps/s, 18.519 katom-step/s
0.0% CPU use with 8 MPI tasks x 1 OpenMP threads

MPI task timing breakdown:
Section |  min time  |  avg time  |  max time  |%varavg| %total
---------------------------------------------------------------
Pair    | 0.000138   | 0.00015338 | 0.000167   |   0.0 | 71.01
Neigh   | 0          | 0          | 0          |   0.0 |  0.00
Comm    | 1.5e-05    | 2.2125e-05 | 4.9e-05    |   0.0 | 10.24
Output  | 1.7e-05    | 3.25e-05   | 5.1e-05    |   0.0 | 15.05
Modify  | 0          | 1.25e-07   | 1e-06      |   0.0 |  0.06
Other   |            | 7.875e-06  |            |       |  3.65

Nlocal:            0.5 ave           4 max           0 min
Histogram: 7 0 0 0 0 0 0 0 0 1
Nghost:          255.5 ave         256 max         252 min
Histogram: 1 0 0 0 0 0 0 0 0 7
Neighs:           19.5 ave         156 max           0 min
Histogram: 7 0 0 0 0 0 0 0 0 1
FullNghs:           39 ave         312 max           0 min
Histogram: 7 0 0 0 0 0 0 0 0 1

Total # of neighbors = 312
Ave neighs/atom = 78
Neighbor list builds = 0
Dangerous builds = 0
variable  natoms equal "count(all)"
variable xlength equal "lx"
variable  volume equal "vol"
variable  etotal equal "etotal"
variable    ecoh equal "pe/v_natoms"
print "${xlength}, ${volume}, ${etotal}, ${ecoh}" append lattice_cohesive_energy.txt screen no

next i
jump SELF loop

change_box all x scale 1.0025 y scale 1.0025 z scale 1.0025 remap
Changing box ...
  orthogonal box = (0.053144284 0.058212862 0.058212862) to (4.1181437 4.1130751 4.1130751)
  orthogonal box = (0.053144284 0.053144284 0.058212862) to (4.1181437 4.1181437 4.1130751)
  orthogonal box = (0.053144284 0.053144284 0.053144284) to (4.1181437 4.1181437 4.1181437)

run 1
WARNING: No fixes with time integration, atoms won't move (src/verlet.cpp:60)
Per MPI rank memory allocation (min/avg/max) = 8.556 | 8.557 | 8.559 Mbytes
   Step         PotEng         TotEng           Lx             Ly             Lz           Volume         Press           Pxx            Pyy            Pzz      
        54  -15.71879      -15.71879       4.0649994      4.0649994      4.0649994      67.170946      9899.2198      9899.2198      9899.2198      9899.2198    
        55  -15.71879      -15.71879       4.0649994      4.0649994      4.0649994      67.170946      9899.2198      9899.2198      9899.2198      9899.2198    
Loop time of 0.000214 on 8 procs for 1 steps with 4 atoms

Performance: 403.738 ns/day, 0.059 hours/ns, 4672.897 timesteps/s, 18.692 katom-step/s
0.0% CPU use with 8 MPI tasks x 1 OpenMP threads

MPI task timing breakdown:
Section |  min time  |  avg time  |  max time  |%varavg| %total
---------------------------------------------------------------
Pair    | 0.000138   | 0.00015313 | 0.000167   |   0.0 | 71.55
Neigh   | 0          | 0          | 0          |   0.0 |  0.00
Comm    | 1.5e-05    | 2.175e-05  | 4.9e-05    |   0.0 | 10.16
Output  | 1.6e-05    | 3.1875e-05 | 5e-05      |   0.0 | 14.89
Modify  | 0          | 1.25e-07   | 1e-06      |   0.0 |  0.06
Other   |            | 7.125e-06  |            |       |  3.33

Nlocal:            0.5 ave           4 max           0 min
Histogram: 7 0 0 0 0 0 0 0 0 1
Nghost:          255.5 ave         256 max         252 min
Histogram: 1 0 0 0 0 0 0 0 0 7
Neighs:           19.5 ave         156 max           0 min
Histogram: 7 0 0 0 0 0 0 0 0 1
FullNghs:           39 ave         312 max           0 min
Histogram: 7 0 0 0 0 0 0 0 0 1

Total # of neighbors = 312
Ave neighs/atom = 78
Neighbor list builds = 0
Dangerous builds = 0
variable  natoms equal "count(all)"
variable xlength equal "lx"
variable  volume equal "vol"
variable  etotal equal "etotal"
variable    ecoh equal "pe/v_natoms"
print "${xlength}, ${volume}, ${etotal}, ${ecoh}" append lattice_cohesive_energy.txt screen no

next i
jump SELF loop

change_box all x scale 1.0025 y scale 1.0025 z scale 1.0025 remap
Changing box ...
  orthogonal box = (0.048063035 0.053144284 0.053144284) to (4.123225 4.1181437 4.1181437)
  orthogonal box = (0.048063035 0.048063035 0.053144284) to (4.123225 4.123225 4.1181437)
  orthogonal box = (0.048063035 0.048063035 0.048063035) to (4.123225 4.123225 4.123225)

run 1
WARNING: No fixes with time integration, atoms won't move (src/verlet.cpp:60)
Per MPI rank memory allocation (min/avg/max) = 8.556 | 8.557 | 8.559 Mbytes
   Step         PotEng         TotEng           Lx             Ly             Lz           Volume         Press           Pxx            Pyy            Pzz      
        55  -15.719906     -15.719906      4.0751619      4.0751619      4.0751619      67.675989     -2717.6919     -2717.6919     -2717.6919     -2717.6919    
        56  -15.719906     -15.719906      4.0751619      4.0751619      4.0751619      67.675989     -2717.6919     -2717.6919     -2717.6919     -2717.6919    
Loop time of 0.000216875 on 8 procs for 1 steps with 4 atoms

Performance: 398.386 ns/day, 0.060 hours/ns, 4610.951 timesteps/s, 18.444 katom-step/s
0.0% CPU use with 8 MPI tasks x 1 OpenMP threads

MPI task timing breakdown:
Section |  min time  |  avg time  |  max time  |%varavg| %total
---------------------------------------------------------------
Pair    | 0.000139   | 0.00015425 | 0.000169   |   0.0 | 71.12
Neigh   | 0          | 0          | 0          |   0.0 |  0.00
Comm    | 1.5e-05    | 2.2125e-05 | 5e-05      |   0.0 | 10.20
Output  | 1.7e-05    | 3.3e-05    | 5.3e-05    |   0.0 | 15.22
Modify  | 0          | 2.5e-07    | 1e-06      |   0.0 |  0.12
Other   |            | 7.25e-06   |            |       |  3.34

Nlocal:            0.5 ave           4 max           0 min
Histogram: 7 0 0 0 0 0 0 0 0 1
Nghost:          255.5 ave         256 max         252 min
Histogram: 1 0 0 0 0 0 0 0 0 7
Neighs:           19.5 ave         156 max           0 min
Histogram: 7 0 0 0 0 0 0 0 0 1
FullNghs:           39 ave         312 max           0 min
Histogram: 7 0 0 0 0 0 0 0 0 1

Total # of neighbors = 312
Ave neighs/atom = 78
Neighbor list builds = 0
Dangerous builds = 0
variable  natoms equal "count(all)"
variable xlength equal "lx"
variable  volume equal "vol"
variable  etotal equal "etotal"
variable    ecoh equal "pe/v_natoms"
print "${xlength}, ${volume}, ${etotal}, ${ecoh}" append lattice_cohesive_energy.txt screen no

next i
jump SELF loop

change_box all x scale 1.0025 y scale 1.0025 z scale 1.0025 remap
Changing box ...
  orthogonal box = (0.042969082 0.048063035 0.048063035) to (4.1283189 4.123225 4.123225)
  orthogonal box = (0.042969082 0.042969082 0.048063035) to (4.1283189 4.1283189 4.123225)
  orthogonal box = (0.042969082 0.042969082 0.042969082) to (4.1283189 4.1283189 4.1283189)

run 1
WARNING: No fixes with time integration, atoms won't move (src/verlet.cpp:60)
Per MPI rank memory allocation (min/avg/max) = 8.556 | 8.557 | 8.559 Mbytes
   Step         PotEng         TotEng           Lx             Ly             Lz           Volume         Press           Pxx            Pyy            Pzz      
        56  -15.717105     -15.717105      4.0853498      4.0853498      4.0853498      68.184829     -14822.504     -14822.504     -14822.504     -14822.504    
        57  -15.717105     -15.717105      4.0853498      4.0853498      4.0853498      68.184829     -14822.504     -14822.504     -14822.504     -14822.504    
Loop time of 0.00021525 on 8 procs for 1 steps with 4 atoms

Performance: 401.394 ns/day, 0.060 hours/ns, 4645.761 timesteps/s, 18.583 katom-step/s
0.0% CPU use with 8 MPI tasks x 1 OpenMP threads

MPI task timing breakdown:
Section |  min time  |  avg time  |  max time  |%varavg| %total
---------------------------------------------------------------
Pair    | 0.00014    | 0.00015387 | 0.000167   |   0.0 | 71.49
Neigh   | 0          | 0          | 0          |   0.0 |  0.00
Comm    | 1.4e-05    | 2.125e-05  | 4.7e-05    |   0.0 |  9.87
Output  | 1.6e-05    | 3.225e-05  | 5e-05      |   0.0 | 14.98
Modify  | 0          | 2.5e-07    | 1e-06      |   0.0 |  0.12
Other   |            | 7.625e-06  |            |       |  3.54

Nlocal:            0.5 ave           4 max           0 min
Histogram: 7 0 0 0 0 0 0 0 0 1
Nghost:          255.5 ave         256 max         252 min
Histogram: 1 0 0 0 0 0 0 0 0 7
Neighs:           19.5 ave         156 max           0 min
Histogram: 7 0 0 0 0 0 0 0 0 1
FullNghs:           39 ave         312 max           0 min
Histogram: 7 0 0 0 0 0 0 0 0 1

Total # of neighbors = 312
Ave neighs/atom = 78
Neighbor list builds = 0
Dangerous builds = 0
variable  natoms equal "count(all)"
variable xlength equal "lx"
variable  volume equal "vol"
variable  etotal equal "etotal"
variable    ecoh equal "pe/v_natoms"
print "${xlength}, ${volume}, ${etotal}, ${ecoh}" append lattice_cohesive_energy.txt screen no

next i
jump SELF loop

change_box all x scale 1.0025 y scale 1.0025 z scale 1.0025 remap
Changing box ...
  orthogonal box = (0.037862395 0.042969082 0.042969082) to (4.1334256 4.1283189 4.1283189)
  orthogonal box = (0.037862395 0.037862395 0.042969082) to (4.1334256 4.1334256 4.1283189)
  orthogonal box = (0.037862395 0.037862395 0.037862395) to (4.1334256 4.1334256 4.1334256)

run 1
WARNING: No fixes with time integration, atoms won't move (src/verlet.cpp:60)
Per MPI rank memory allocation (min/avg/max) = 8.556 | 8.557 | 8.559 Mbytes
   Step         PotEng         TotEng           Lx             Ly             Lz           Volume         Press           Pxx            Pyy            Pzz      
        57  -15.710489     -15.710489      4.0955632      4.0955632      4.0955632      68.697495     -26429.972     -26429.972     -26429.972     -26429.972    
        58  -15.710489     -15.710489      4.0955632      4.0955632      4.0955632      68.697495     -26429.972     -26429.972     -26429.972     -26429.972    
Loop time of 0.000216 on 8 procs for 1 steps with 4 atoms

Performance: 400.000 ns/day, 0.060 hours/ns, 4629.630 timesteps/s, 18.519 katom-step/s
0.0% CPU use with 8 MPI tasks x 1 OpenMP threads

MPI task timing breakdown:
Section |  min time  |  avg time  |  max time  |%varavg| %total
---------------------------------------------------------------
Pair    | 0.000138   | 0.0001535  | 0.000168   |   0.0 | 71.06
Neigh   | 0          | 0          | 0          |   0.0 |  0.00
Comm    | 1.5e-05    | 2.2125e-05 | 5e-05      |   0.0 | 10.24
Output  | 1.5e-05    | 3.2375e-05 | 5.2e-05    |   0.0 | 14.99
Modify  | 0          | 1.25e-07   | 1e-06      |   0.0 |  0.06
Other   |            | 7.875e-06  |            |       |  3.65

Nlocal:            0.5 ave           4 max           0 min
Histogram: 7 0 0 0 0 0 0 0 0 1
Nghost:          255.5 ave         256 max         252 min
Histogram: 1 0 0 0 0 0 0 0 0 7
Neighs:           19.5 ave         156 max           0 min
Histogram: 7 0 0 0 0 0 0 0 0 1
FullNghs:           39 ave         312 max           0 min
Histogram: 7 0 0 0 0 0 0 0 0 1

Total # of neighbors = 312
Ave neighs/atom = 78
Neighbor list builds = 0
Dangerous builds = 0
variable  natoms equal "count(all)"
variable xlength equal "lx"
variable  volume equal "vol"
variable  etotal equal "etotal"
variable    ecoh equal "pe/v_natoms"
print "${xlength}, ${volume}, ${etotal}, ${ecoh}" append lattice_cohesive_energy.txt screen no

next i
jump SELF loop

change_box all x scale 1.0025 y scale 1.0025 z scale 1.0025 remap
Changing box ...
  orthogonal box = (0.032742941 0.037862395 0.037862395) to (4.1385451 4.1334256 4.1334256)
  orthogonal box = (0.032742941 0.032742941 0.037862395) to (4.1385451 4.1385451 4.1334256)
  orthogonal box = (0.032742941 0.032742941 0.032742941) to (4.1385451 4.1385451 4.1385451)

run 1
WARNING: No fixes with time integration, atoms won't move (src/verlet.cpp:60)
Per MPI rank memory allocation (min/avg/max) = 8.556 | 8.557 | 8.559 Mbytes
   Step         PotEng         TotEng           Lx             Ly             Lz           Volume         Press           Pxx            Pyy            Pzz      
        58  -15.70016      -15.70016       4.1058021      4.1058021      4.1058021      69.214015     -37554.577     -37554.577     -37554.577     -37554.577    
        59  -15.70016      -15.70016       4.1058021      4.1058021      4.1058021      69.214015     -37554.577     -37554.577     -37554.577     -37554.577    
Loop time of 0.000227625 on 8 procs for 1 steps with 4 atoms

Performance: 379.572 ns/day, 0.063 hours/ns, 4393.191 timesteps/s, 17.573 katom-step/s
858.0% CPU use with 8 MPI tasks x 1 OpenMP threads

MPI task timing breakdown:
Section |  min time  |  avg time  |  max time  |%varavg| %total
---------------------------------------------------------------
Pair    | 0.000139   | 0.00016125 | 0.000182   |   0.0 | 70.84
Neigh   | 0          | 0          | 0          |   0.0 |  0.00
Comm    | 1.6e-05    | 2.65e-05   | 5e-05      |   0.0 | 11.64
Output  | 1.4e-05    | 3.275e-05  | 6.5e-05    |   0.0 | 14.39
Modify  | 0          | 3.75e-07   | 1e-06      |   0.0 |  0.16
Other   |            | 6.75e-06   |            |       |  2.97

Nlocal:            0.5 ave           4 max           0 min
Histogram: 7 0 0 0 0 0 0 0 0 1
Nghost:          255.5 ave         256 max         252 min
Histogram: 1 0 0 0 0 0 0 0 0 7
Neighs:           19.5 ave         156 max           0 min
Histogram: 7 0 0 0 0 0 0 0 0 1
FullNghs:           39 ave         312 max           0 min
Histogram: 7 0 0 0 0 0 0 0 0 1

Total # of neighbors = 312
Ave neighs/atom = 78
Neighbor list builds = 0
Dangerous builds = 0
variable  natoms equal "count(all)"
variable xlength equal "lx"
variable  volume equal "vol"
variable  etotal equal "etotal"
variable    ecoh equal "pe/v_natoms"
print "${xlength}, ${volume}, ${etotal}, ${ecoh}" append lattice_cohesive_energy.txt screen no

next i
jump SELF loop

[...]
Pair    | 0.000119   | 0.00012125 | 0.000125   |   0.0 | 74.39
Neigh   | 0          | 0          | 0          |   0.0 |  0.00
Comm    | 1.3e-05    | 1.7375e-05 | 2.5e-05    |   0.0 | 10.66
Output  | 1.3e-05    | 1.875e-05  | 2.5e-05    |   0.0 | 11.50
Modify  | 0          | 1.25e-07   | 1e-06      |   0.0 |  0.08
Other   |            | 5.5e-06    |            |       |  3.37

Nlocal:            0.5 ave           4 max           0 min
Histogram: 7 0 0 0 0 0 0 0 0 1
Nghost:          255.5 ave         256 max         252 min
Histogram: 1 0 0 0 0 0 0 0 0 7
Neighs:           13.5 ave         108 max           0 min
Histogram: 7 0 0 0 0 0 0 0 0 1
FullNghs:           27 ave         216 max           0 min
Histogram: 7 0 0 0 0 0 0 0 0 1

Total # of neighbors = 216
Ave neighs/atom = 54
Neighbor list builds = 0
Dangerous builds = 0
variable  natoms equal "count(all)"
variable xlength equal "lx"
variable  volume equal "vol"
variable  etotal equal "etotal"
variable    ecoh equal "pe/v_natoms"
print "${xlength}, ${volume}, ${etotal}, ${ecoh}" append lattice_cohesive_energy.txt screen no

next i
jump SELF loop

change_box all x scale 1.0025 y scale 1.0025 z scale 1.0025 remap
Changing box ...
  orthogonal box = (-0.04560277 -0.04028794 -0.04028794) to (4.2168908 4.2115759 4.2115759)
  orthogonal box = (-0.04560277 -0.04560277 -0.04028794) to (4.2168908 4.2168908 4.2115759)
  orthogonal box = (-0.04560277 -0.04560277 -0.04560277) to (4.2168908 4.2168908 4.2168908)

run 1
WARNING: No fixes with time integration, atoms won't move (src/verlet.cpp:60)
Per MPI rank memory allocation (min/avg/max) = 8.556 | 8.557 | 8.559 Mbytes
   Step         PotEng         TotEng           Lx             Ly             Lz           Volume         Press           Pxx            Pyy            Pzz      
        73  -15.16307      -15.16307       4.2624935      4.2624935      4.2624935      77.444611     -155289.91     -155289.91     -155289.91     -155289.91    
        74  -15.16307      -15.16307       4.2624935      4.2624935      4.2624935      77.444611     -155289.91     -155289.91     -155289.91     -155289.91    
Loop time of 0.0001675 on 8 procs for 1 steps with 4 atoms

Performance: 515.821 ns/day, 0.047 hours/ns, 5970.149 timesteps/s, 23.881 katom-step/s
0.0% CPU use with 8 MPI tasks x 1 OpenMP threads

MPI task timing breakdown:
Section |  min time  |  avg time  |  max time  |%varavg| %total
---------------------------------------------------------------
Pair    | 0.00012    | 0.00012525 | 0.00013    |   0.0 | 74.78
Neigh   | 0          | 0          | 0          |   0.0 |  0.00
Comm    | 1.2e-05    | 1.775e-05  | 2.9e-05    |   0.0 | 10.60
Output  | 1.2e-05    | 1.85e-05   | 2.8e-05    |   0.0 | 11.04
Modify  | 0          | 0          | 0          |   0.0 |  0.00
Other   |            | 6e-06      |            |       |  3.58

Nlocal:            0.5 ave           4 max           0 min
Histogram: 7 0 0 0 0 0 0 0 0 1
Nghost:          255.5 ave         256 max         252 min
Histogram: 1 0 0 0 0 0 0 0 0 7
Neighs:           13.5 ave         108 max           0 min
Histogram: 7 0 0 0 0 0 0 0 0 1
FullNghs:           27 ave         216 max           0 min
Histogram: 7 0 0 0 0 0 0 0 0 1

Total # of neighbors = 216
Ave neighs/atom = 54
Neighbor list builds = 0
Dangerous builds = 0
variable  natoms equal "count(all)"
variable xlength equal "lx"
variable  volume equal "vol"
variable  etotal equal "etotal"
variable    ecoh equal "pe/v_natoms"
print "${xlength}, ${volume}, ${etotal}, ${ecoh}" append lattice_cohesive_energy.txt screen no

next i
jump SELF loop

change_box all x scale 1.0025 y scale 1.0025 z scale 1.0025 remap
Changing box ...
  orthogonal box = (-0.050930887 -0.04560277 -0.04560277) to (4.2222189 4.2168908 4.2168908)
  orthogonal box = (-0.050930887 -0.050930887 -0.04560277) to (4.2222189 4.2222189 4.2168908)
  orthogonal box = (-0.050930887 -0.050930887 -0.050930887) to (4.2222189 4.2222189 4.2222189)

run 1
WARNING: No fixes with time integration, atoms won't move (src/verlet.cpp:60)
Per MPI rank memory allocation (min/avg/max) = 8.556 | 8.557 | 8.559 Mbytes
   Step         PotEng         TotEng           Lx             Ly             Lz           Volume         Press           Pxx            Pyy            Pzz      
        74  -15.105695     -15.105695      4.2731498      4.2731498      4.2731498      78.026899     -160388.5      -160388.5      -160388.5      -160388.5     
        75  -15.105695     -15.105695      4.2731498      4.2731498      4.2731498      78.026899     -160388.5      -160388.5      -160388.5      -160388.5     
Loop time of 0.000168 on 8 procs for 1 steps with 4 atoms

Performance: 514.286 ns/day, 0.047 hours/ns, 5952.381 timesteps/s, 23.810 katom-step/s
0.0% CPU use with 8 MPI tasks x 1 OpenMP threads

MPI task timing breakdown:
Section |  min time  |  avg time  |  max time  |%varavg| %total
---------------------------------------------------------------
Pair    | 0.000119   | 0.00012475 | 0.00013    |   0.0 | 74.26
Neigh   | 0          | 0          | 0          |   0.0 |  0.00
Comm    | 1.2e-05    | 1.8375e-05 | 2.9e-05    |   0.0 | 10.94
Output  | 1.2e-05    | 1.8875e-05 | 3e-05      |   0.0 | 11.24
Modify  | 0          | 2.5e-07    | 1e-06      |   0.0 |  0.15
Other   |            | 5.75e-06   |            |       |  3.42

Nlocal:            0.5 ave           4 max           0 min
Histogram: 7 0 0 0 0 0 0 0 0 1
Nghost:          255.5 ave         256 max         252 min
Histogram: 1 0 0 0 0 0 0 0 0 7
Neighs:           13.5 ave         108 max           0 min
Histogram: 7 0 0 0 0 0 0 0 0 1
FullNghs:           27 ave         216 max           0 min
Histogram: 7 0 0 0 0 0 0 0 0 1

Total # of neighbors = 216
Ave neighs/atom = 54
Neighbor list builds = 0
Dangerous builds = 0
variable  natoms equal "count(all)"
variable xlength equal "lx"
variable  volume equal "vol"
variable  etotal equal "etotal"
variable    ecoh equal "pe/v_natoms"
print "${xlength}, ${volume}, ${etotal}, ${ecoh}" append lattice_cohesive_energy.txt screen no

next i
jump SELF loop

change_box all x scale 1.0025 y scale 1.0025 z scale 1.0025 remap
Changing box ...
  orthogonal box = (-0.056272324 -0.050930887 -0.050930887) to (4.2275603 4.2222189 4.2222189)
  orthogonal box = (-0.056272324 -0.056272324 -0.050930887) to (4.2275603 4.2275603 4.2222189)
  orthogonal box = (-0.056272324 -0.056272324 -0.056272324) to (4.2275603 4.2275603 4.2275603)

run 1
WARNING: No fixes with time integration, atoms won't move (src/verlet.cpp:60)
Per MPI rank memory allocation (min/avg/max) = 8.556 | 8.557 | 8.559 Mbytes
   Step         PotEng         TotEng           Lx             Ly             Lz           Volume         Press           Pxx            Pyy            Pzz      
        75  -15.046075     -15.046075      4.2838326      4.2838326      4.2838326      78.613565     -165201.77     -165201.77     -165201.77     -165201.77    
        76  -15.046075     -15.046075      4.2838326      4.2838326      4.2838326      78.613565     -165201.77     -165201.77     -165201.77     -165201.77    
Loop time of 0.000167625 on 8 procs for 1 steps with 4 atoms

Performance: 515.436 ns/day, 0.047 hours/ns, 5965.697 timesteps/s, 23.863 katom-step/s
0.0% CPU use with 8 MPI tasks x 1 OpenMP threads

MPI task timing breakdown:
Section |  min time  |  avg time  |  max time  |%varavg| %total
---------------------------------------------------------------
Pair    | 0.000125   | 0.00012638 | 0.000129   |   0.0 | 75.39
Neigh   | 0          | 0          | 0          |   0.0 |  0.00
Comm    | 1.2e-05    | 1.675e-05  | 2.3e-05    |   0.0 |  9.99
Output  | 1.2e-05    | 1.85e-05   | 2.4e-05    |   0.0 | 11.04
Modify  | 0          | 1.25e-07   | 1e-06      |   0.0 |  0.07
Other   |            | 5.875e-06  |            |       |  3.50

Nlocal:            0.5 ave           4 max           0 min
Histogram: 7 0 0 0 0 0 0 0 0 1
Nghost:          255.5 ave         256 max         252 min
Histogram: 1 0 0 0 0 0 0 0 0 7
Neighs:           13.5 ave         108 max           0 min
Histogram: 7 0 0 0 0 0 0 0 0 1
FullNghs:           27 ave         216 max           0 min
Histogram: 7 0 0 0 0 0 0 0 0 1

Total # of neighbors = 216
Ave neighs/atom = 54
Neighbor list builds = 0
Dangerous builds = 0
variable  natoms equal "count(all)"
variable xlength equal "lx"
variable  volume equal "vol"
variable  etotal equal "etotal"
variable    ecoh equal "pe/v_natoms"
print "${xlength}, ${volume}, ${etotal}, ${ecoh}" append lattice_cohesive_energy.txt screen no

next i
jump SELF loop

change_box all x scale 1.0025 y scale 1.0025 z scale 1.0025 remap
Changing box ...
  orthogonal box = (-0.061627115 -0.056272324 -0.056272324) to (4.2329151 4.2275603 4.2275603)
  orthogonal box = (-0.061627115 -0.061627115 -0.056272324) to (4.2329151 4.2329151 4.2275603)
  orthogonal box = (-0.061627115 -0.061627115 -0.061627115) to (4.2329151 4.2329151 4.2329151)

run 1
WARNING: No fixes with time integration, atoms won't move (src/verlet.cpp:60)
Per MPI rank memory allocation (min/avg/max) = 8.556 | 8.557 | 8.559 Mbytes
   Step         PotEng         TotEng           Lx             Ly             Lz           Volume         Press           Pxx            Pyy            Pzz      
        76  -14.984282     -14.984282      4.2945422      4.2945422      4.2945422      79.204642     -169738.88     -169738.88     -169738.88     -169738.88    
        77  -14.984282     -14.984282      4.2945422      4.2945422      4.2945422      79.204642     -169738.88     -169738.88     -169738.88     -169738.88    
Loop time of 0.000164625 on 8 procs for 1 steps with 4 atoms

Performance: 524.829 ns/day, 0.046 hours/ns, 6074.412 timesteps/s, 24.298 katom-step/s
0.0% CPU use with 8 MPI tasks x 1 OpenMP threads

MPI task timing breakdown:
Section |  min time  |  avg time  |  max time  |%varavg| %total
---------------------------------------------------------------
Pair    | 0.000122   | 0.00012438 | 0.000127   |   0.0 | 75.55
Neigh   | 0          | 0          | 0          |   0.0 |  0.00
Comm    | 1.3e-05    | 1.6375e-05 | 2.3e-05    |   0.0 |  9.95
Output  | 1.2e-05    | 1.75e-05   | 2.3e-05    |   0.0 | 10.63
Modify  | 0          | 0          | 0          |   0.0 |  0.00
Other   |            | 6.375e-06  |            |       |  3.87

Nlocal:            0.5 ave           4 max           0 min
Histogram: 7 0 0 0 0 0 0 0 0 1
Nghost:          255.5 ave         256 max         252 min
Histogram: 1 0 0 0 0 0 0 0 0 7
Neighs:           13.5 ave         108 max           0 min
Histogram: 7 0 0 0 0 0 0 0 0 1
FullNghs:           27 ave         216 max           0 min
Histogram: 7 0 0 0 0 0 0 0 0 1

Total # of neighbors = 216
Ave neighs/atom = 54
Neighbor list builds = 0
Dangerous builds = 0
variable  natoms equal "count(all)"
variable xlength equal "lx"
variable  volume equal "vol"
variable  etotal equal "etotal"
variable    ecoh equal "pe/v_natoms"
print "${xlength}, ${volume}, ${etotal}, ${ecoh}" append lattice_cohesive_energy.txt screen no

next i
jump SELF loop

change_box all x scale 1.0025 y scale 1.0025 z scale 1.0025 remap
Changing box ...
  orthogonal box = (-0.066995293 -0.061627115 -0.061627115) to (4.2382833 4.2329151 4.2329151)
  orthogonal box = (-0.066995293 -0.066995293 -0.061627115) to (4.2382833 4.2382833 4.2329151)
  orthogonal box = (-0.066995293 -0.066995293 -0.066995293) to (4.2382833 4.2382833 4.2382833)

run 1
WARNING: No fixes with time integration, atoms won't move (src/verlet.cpp:60)
Per MPI rank memory allocation (min/avg/max) = 8.556 | 8.557 | 8.559 Mbytes
   Step         PotEng         TotEng           Lx             Ly             Lz           Volume         Press           Pxx            Pyy            Pzz      
        77  -14.920389     -14.920389      4.3052786      4.3052786      4.3052786      79.800163     -174008.76     -174008.76     -174008.76     -174008.76    
        78  -14.920389     -14.920389      4.3052786      4.3052786      4.3052786      79.800163     -174008.76     -174008.76     -174008.76     -174008.76    
Loop time of 0.0001955 on 8 procs for 1 steps with 4 atoms

Performance: 441.944 ns/day, 0.054 hours/ns, 5115.090 timesteps/s, 20.460 katom-step/s
0.0% CPU use with 8 MPI tasks x 1 OpenMP threads

MPI task timing breakdown:
Section |  min time  |  avg time  |  max time  |%varavg| %total
---------------------------------------------------------------
Pair    | 0.000122   | 0.00013188 | 0.000153   |   0.0 | 67.46
Neigh   | 0          | 0          | 0          |   0.0 |  0.00
Comm    | 1.2e-05    | 2.375e-05  | 5.1e-05    |   0.0 | 12.15
Output  | 1.4e-05    | 3.275e-05  | 5.3e-05    |   0.0 | 16.75
Modify  | 0          | 0          | 0          |   0.0 |  0.00
Other   |            | 7.125e-06  |            |       |  3.64

Nlocal:            0.5 ave           4 max           0 min
Histogram: 7 0 0 0 0 0 0 0 0 1
Nghost:          255.5 ave         256 max         252 min
Histogram: 1 0 0 0 0 0 0 0 0 7
Neighs:           13.5 ave         108 max           0 min
Histogram: 7 0 0 0 0 0 0 0 0 1
FullNghs:           27 ave         216 max           0 min
Histogram: 7 0 0 0 0 0 0 0 0 1

Total # of neighbors = 216
Ave neighs/atom = 54
Neighbor list builds = 0
Dangerous builds = 0
variable  natoms equal "count(all)"
variable xlength equal "lx"
variable  volume equal "vol"
variable  etotal equal "etotal"
variable    ecoh equal "pe/v_natoms"
print "${xlength}, ${volume}, ${etotal}, ${ecoh}" append lattice_cohesive_energy.txt screen no

next i
jump SELF loop

change_box all x scale 1.0025 y scale 1.0025 z scale 1.0025 remap
Changing box ...
  orthogonal box = (-0.072376891 -0.066995293 -0.066995293) to (4.2436649 4.2382833 4.2382833)
  orthogonal box = (-0.072376891 -0.072376891 -0.066995293) to (4.2436649 4.2436649 4.2382833)
  orthogonal box = (-0.072376891 -0.072376891 -0.072376891) to (4.2436649 4.2436649 4.2436649)

run 1
WARNING: No fixes with time integration, atoms won't move (src/verlet.cpp:60)
Per MPI rank memory allocation (min/avg/max) = 8.556 | 8.557 | 8.559 Mbytes
   Step         PotEng         TotEng           Lx             Ly             Lz           Volume         Press           Pxx            Pyy            Pzz      
        78  -14.854464     -14.854464      4.3160418      4.3160418      4.3160418      80.400161     -178020.1      -178020.1      -178020.1      -178020.1     
        79  -14.854464     -14.854464      4.3160418      4.3160418      4.3160418      80.400161     -178020.1      -178020.1      -178020.1      -178020.1     
Loop time of 0.0001625 on 8 procs for 1 steps with 4 atoms

Performance: 531.692 ns/day, 0.045 hours/ns, 6153.846 timesteps/s, 24.615 katom-step/s
0.0% CPU use with 8 MPI tasks x 1 OpenMP threads

MPI task timing breakdown:
Section |  min time  |  avg time  |  max time  |%varavg| %total
---------------------------------------------------------------
Pair    | 0.000121   | 0.00012275 | 0.000125   |   0.0 | 75.54
Neigh   | 0          | 0          | 0          |   0.0 |  0.00
Comm    | 1.3e-05    | 1.6e-05    | 2.1e-05    |   0.0 |  9.85
Output  | 1.2e-05    | 1.775e-05  | 2.2e-05    |   0.0 | 10.92
Modify  | 0          | 5e-07      | 1e-06      |   0.0 |  0.31
Other   |            | 5.5e-06    |            |       |  3.38

Nlocal:            0.5 ave           4 max           0 min
Histogram: 7 0 0 0 0 0 0 0 0 1
Nghost:          255.5 ave         256 max         252 min
Histogram: 1 0 0 0 0 0 0 0 0 7
Neighs:           13.5 ave         108 max           0 min
Histogram: 7 0 0 0 0 0 0 0 0 1
FullNghs:           27 ave         216 max           0 min
Histogram: 7 0 0 0 0 0 0 0 0 1

Total # of neighbors = 216
Ave neighs/atom = 54
Neighbor list builds = 0
Dangerous builds = 0
variable  natoms equal "count(all)"
variable xlength equal "lx"
variable  volume equal "vol"
variable  etotal equal "etotal"
variable    ecoh equal "pe/v_natoms"
print "${xlength}, ${volume}, ${etotal}, ${ecoh}" append lattice_cohesive_energy.txt screen no

next i
jump SELF loop

change_box all x scale 1.0025 y scale 1.0025 z scale 1.0025 remap
Changing box ...
  orthogonal box = (-0.077771943 -0.072376891 -0.072376891) to (4.2490599 4.2436649 4.2436649)
  orthogonal box = (-0.077771943 -0.077771943 -0.072376891) to (4.2490599 4.2490599 4.2436649)
  orthogonal box = (-0.077771943 -0.077771943 -0.077771943) to (4.2490599 4.2490599 4.2490599)

run 1
WARNING: No fixes with time integration, atoms won't move (src/verlet.cpp:60)
Per MPI rank memory allocation (min/avg/max) = 8.556 | 8.557 | 8.559 Mbytes
   Step         PotEng         TotEng           Lx             Ly             Lz           Volume         Press           Pxx            Pyy            Pzz      
        79  -14.786578     -14.786578      4.3268319      4.3268319      4.3268319      81.004671     -181781.37     -181781.37     -181781.37     -181781.37    
        80  -14.786578     -14.786578      4.3268319      4.3268319      4.3268319      81.004671     -181781.37     -181781.37     -181781.37     -181781.37    
Loop time of 0.00017125 on 8 procs for 1 steps with 4 atoms

Performance: 504.526 ns/day, 0.048 hours/ns, 5839.416 timesteps/s, 23.358 katom-step/s
0.0% CPU use with 8 MPI tasks x 1 OpenMP threads

MPI task timing breakdown:
Section |  min time  |  avg time  |  max time  |%varavg| %total
---------------------------------------------------------------
Pair    | 0.000124   | 0.0001285  | 0.000133   |   0.0 | 75.04
Neigh   | 0          | 0          | 0          |   0.0 |  0.00
Comm    | 1.2e-05    | 1.8e-05    | 2.8e-05    |   0.0 | 10.51
Output  | 1.3e-05    | 1.8375e-05 | 2.8e-05    |   0.0 | 10.73
Modify  | 0          | 0          | 0          |   0.0 |  0.00
Other   |            | 6.375e-06  |            |       |  3.72

Nlocal:            0.5 ave           4 max           0 min
Histogram: 7 0 0 0 0 0 0 0 0 1
Nghost:          255.5 ave         256 max         252 min
Histogram: 1 0 0 0 0 0 0 0 0 7
Neighs:           13.5 ave         108 max           0 min
Histogram: 7 0 0 0 0 0 0 0 0 1
FullNghs:           27 ave         216 max           0 min
Histogram: 7 0 0 0 0 0 0 0 0 1

Total # of neighbors = 216
Ave neighs/atom = 54
Neighbor list builds = 0
Dangerous builds = 0
variable  natoms equal "count(all)"
variable xlength equal "lx"
variable  volume equal "vol"
variable  etotal equal "etotal"
variable    ecoh equal "pe/v_natoms"
print "${xlength}, ${volume}, ${etotal}, ${ecoh}" append lattice_cohesive_energy.txt screen no

next i
jump SELF loop

print "-------------------------------------------------------------"
-------------------------------------------------------------
print "Show results of 1st step (Running Minimization)"
Show results of 1st step (Running Minimization)
print "The number of atoms = ${natoms};"
The number of atoms = 4;
print "The lattice constant, x (Angstoms) = ${x0};"
The lattice constant, x (Angstoms) = 4.32683188614974;
print "The lattice constant, y (Angstoms) = ${y0};"
The lattice constant, y (Angstoms) = 4.32683188614974;
print "The lattice constant, z (Angstoms) = ${z0};"
The lattice constant, z (Angstoms) = 4.32683188614974;
print "The volume (Angstoms^3) = ${v0};"
The volume (Angstoms^3) = 81.0046713988205;
print "The total energy (eV) = ${etot0};"
The total energy (eV) = -14.7865780265417;
print "The cohesive energy (eV/atom) = ${ecoh0};"
The cohesive energy (eV/atom) = -3.69664450663543;
print "-------------------------------------------------------------"
-------------------------------------------------------------
print "Simulations completed !"
Simulations completed !
Total wall time: 0:00:00
