ITEM: TIMESTEP
0
ITEM: NUMBER OF ATOMS
6000
ITEM: BOX BOUNDS pp pp pp
3.0296900512847458e-01 2.7038030994870997e+01
2.9712870273191783e-01 2.7043871297268101e+01
1.1636739254254636e+00 1.0820032607457355e+02
ITEM: ATOMS id type x y z c_peratom fx fy fz 
122 3 5.72061 5.60695 6.53929 -29.1856 0.773511 -0.641004 -0.999437 
601 3 5.58775 2.73681 3.76764 -29.1744 2.32711 2.42359 0.399643 
602 2 5.67759 2.92676 9.31528 -25.2359 1.74202 -2.92429 -1.80488 
1021 3 3.13758 5.5583 3.59679 -29.0257 0.197135 -0.641203 1.33474 
1022 2 3.01628 5.47279 9.17591 -24.8468 -0.106065 0.570796 0.208146 
1502 2 3.10039 2.70005 6.50835 -25.4686 -0.297271 4.23321 -2.34045 
2001 1 1.76169 1.74323 2.41564 -7.52997 -1.16049 0.0731686 0.758954 
2002 1 1.69959 1.66779 7.81511 -7.06083 -0.440531 -1.05621 0.618429 
2501 1 4.48156 4.23069 5.11395 -7.04445 -0.0621235 0.163056 1.02258 
3001 1 4.44194 4.22583 2.50128 -7.81559 -0.0511502 -0.0338797 -0.556795 
3002 1 4.42852 4.11117 7.93694 -7.30516 -0.883366 1.70801 -0.630044 
3501 1 1.89518 1.57406 5.0555 -7.50636 0.0474405 -2.01683 0.460705 
4001 1 4.58935 1.57999 5.0821 -8.42289 -0.199045 -2.24147 0.826988 
4501 1 1.81266 4.39773 2.19986 -7.80468 -0.424676 1.1236 -0.259007 
4502 1 1.77187 4.16139 7.7479 -7.28355 -0.197458 0.583924 -0.192012 
5001 1 1.88619 4.13318 4.74033 -7.05569 -0.85915 0.703423 1.26996 
5501 1 4.44477 1.582 2.48529 -7.84808 0.102039 -0.660355 0.241449 
5502 1 4.34974 1.62993 7.79118 -7.5447 2.44363 -2.47761 1.55678 
5521 1 4.4893 6.85896 2.29147 -7.76437 0.640818 -0.704497 1.40145 
5522 1 4.42185 6.78516 7.79763 -7.87498 -0.925393 -0.109215 0.680655 
3521 1 1.83621 6.71421 5.22347 -8.02459 0.994248 0.854935 -1.23676 
2022 1 1.56357 6.67719 7.75937 -7.3912 1.49212 1.69212 2.32425 
1002 3 3.12547 0.309028 9.32399 -29.558 -0.707752 -0.697277 0.120598 
4602 1 6.94687 4.44207 7.7232 -7.44696 1.38645 -0.668889 -0.0658905 
4021 1 4.67469 6.8876 5.12784 -8.14936 -0.33489 -0.185177 -1.27056 
501 3 0.343301 3.11005 3.59593 -29.1427 1.65565 -1.55118 1.1008 
1 2 0.454017 0.335603 1.20974 -25.4824 -0.905111 0.161173 -0.688925 
22 3 0.614682 5.58444 6.43946 -29.1784 -2.59994 -2.13355 -0.182281 
1501 2 3.11319 2.90744 1.20242 -25.2175 -0.329227 0.244247 -1.65276 
2101 1 7.05742 1.42997 2.38662 -8.02532 0.445098 0.539022 0.890247 
4601 1 6.99742 4.01934 2.46393 -7.59295 -0.509754 0.514671 -1.00908 
3621 1 7.40676 6.72109 4.94233 -7.20782 -1.03697 -0.0692813 -0.0249211 
1202 2 13.6346 0.433603 9.12768 -25.2134 0.401083 -1.6784 -0.674617 
5101 1 7.144 4.01962 4.97052 -7.07698 0.116841 0.244664 1.33459 
3601 1 7.30297 1.43295 5.13559 -6.93471 -3.03786 0.136658 -0.499592 
2102 1 7.25241 1.6842 7.83609 -8.03827 -1.73387 -0.251703 0.372621 
222 2 11.1047 5.5413 6.44931 -25.2437 0.398993 1.58641 0.0116971 
701 3 11.0963 2.87869 3.98755 -28.8939 -1.23658 0.074916 -2.09399 
702 2 10.9713 3.08377 9.13682 -24.8649 1.325 -1.53584 0.5321 
1121 3 8.28714 5.33116 3.70046 -29.4101 0.681886 -0.187347 0.0553229 
1122 2 8.4448 5.59891 9.1034 -25.2995 -1.7244 0.405375 0.467728 
1602 3 8.40136 2.79063 6.45568 -28.9745 -1.02101 0.994576 -0.680846 
2201 1 12.1724 1.54751 2.69118 -7.72037 2.89802 0.597261 -0.451166 
2202 1 12.4334 1.8872 7.92594 -7.59143 -0.434723 -0.739183 -0.218882 
2601 1 9.85792 4.43332 4.95188 -8.03523 0.571443 -0.0752628 0.308442 
3101 1 9.51583 3.94317 2.34601 -7.02054 1.58761 2.36046 1.2842 
3102 1 9.76303 4.20091 7.6964 -8.64742 -1.03235 -0.803803 -0.56002 
3701 1 12.3208 1.42422 5.30826 -8.20291 -0.0324147 1.10205 0.168717 
4101 1 9.58617 1.82813 5.16351 -7.39476 3.92808 0.0786173 0.211313 
4701 1 12.3486 4.25471 2.33473 -7.61888 -0.972092 0.442316 1.45547 
4702 1 12.5348 4.41878 7.83377 -7.80053 -0.964674 0.21134 -0.876432 
5201 1 12.6138 4.09448 5.03121 -8.43365 -1.02191 -0.583633 1.09433 
5601 1 9.79099 1.51617 2.52101 -6.88264 -2.05089 -0.947223 0.587982 
5602 1 9.76089 1.41323 7.79587 -7.76212 0.681998 0.221896 0.328278 
3721 1 12.5718 6.83142 5.2329 -7.49782 -0.63617 0.347372 -0.285694 
5622 1 9.77741 6.8565 7.99963 -7.55653 0.529139 1.08087 -0.153089 
2221 1 12.2955 6.90228 2.70782 -7.21185 0.89888 -0.21159 -0.284998 
5621 1 9.77791 6.57726 2.45794 -7.59334 -0.946589 0.500055 0.972535 
2121 1 7.16524 6.76081 2.2772 -8.14587 0.282745 0.137517 -0.0835536 
1701 2 13.5649 2.85086 1.24238 -25.213 0.154415 2.0751 0.341959 
1102 3 8.36555 0.334004 9.19912 -28.8647 -0.129865 -0.289024 -0.128441 
1601 3 8.44291 2.75538 1.30479 -29.6447 -0.319419 0.133028 -1.51782 
2021 1 1.97123 7.08795 2.64431 -7.66741 -1.41996 0.0866038 -0.237636 
142 2 5.92697 10.9082 6.50211 -24.6392 -1.71845 -0.773561 -0.523513 
621 2 5.95578 8.13847 3.61479 -24.716 -0.921737 -0.718878 0.62661 
622 2 5.73302 8.35741 9.21763 -25.208 -0.097386 -1.31716 -1.5021 
1041 3 2.98972 10.8427 3.94532 -28.6123 0.180856 1.12806 -1.67315 
1042 3 3.0865 10.8972 9.33897 -27.9442 -0.537612 0.185725 -1.17636 
1522 2 3.20323 8.09889 6.28683 -24.9879 -0.417113 0.995152 1.92616 
2041 1 1.89353 12.3774 2.52897 -7.18219 -1.15761 -0.304016 0.794792 
2042 1 1.86391 12.0525 7.84067 -7.93513 -2.15923 -0.114817 2.25715 
2521 1 4.39294 9.5594 5.06666 -7.85347 0.260773 0.478101 -2.07374 
3021 1 4.51585 9.43286 2.0487 -7.80445 -0.188261 -0.582337 2.1896 
3022 1 4.55617 9.46888 7.66433 -7.81231 -0.249487 1.23954 1.00257 
3541 1 1.72315 12.2011 5.29628 -7.5951 0.18222 -0.931248 -0.871866 
4041 1 4.42027 12.277 5.27877 -7.92206 0.314379 -0.741431 0.629491 
4521 1 1.68102 9.78453 2.19997 -7.00433 0.0637358 -0.910541 1.58969 
4522 1 1.75262 9.33706 7.69489 -8.12679 -0.925546 0.270436 1.19072 
5021 1 1.69476 9.48859 4.96517 -8.37499 0.0391092 -0.306011 0.169931 
5541 1 4.36128 12.0926 2.5557 -7.47399 2.00241 0.268014 0.574185 
5542 1 4.32202 12.3636 8.12601 -7.73659 0.383307 -0.983409 -1.14338 
642 3 5.60467 13.5068 9.17141 -29.004 1.20087 2.60405 1.42164 
1541 3 3.18723 13.6457 1.31965 -29.3767 -1.33912 -0.858958 -1.09927 
2142 1 6.92876 12.4306 7.94324 -8.30588 0.446352 -1.5609 -1.23451 
541 2 0.495239 13.531 3.90719 -25.1919 -0.514417 -0.0709449 -1.04638 
521 3 0.355479 8.26426 4.00276 -28.1314 -0.068605 -1.03156 -1.64398 
542 2 0.369599 13.5282 9.41355 -24.5554 -1.47675 0.213812 -0.413327 
1542 2 2.99275 13.5854 6.64439 -25.4596 0.401576 -0.63051 -0.758803 
641 2 5.79642 13.4393 3.92374 -25.0294 -0.995969 1.12023 -0.760982 
42 2 0.329934 10.7753 6.71089 -24.4844 0.460539 0.588812 -1.3299 
741 3 11.1551 13.4809 3.78684 -29.2658 0.202251 -0.637562 1.13774 
4121 1 9.9402 7.15904 5.3532 -7.56985 0.846099 0.449303 -1.00502 
2141 1 7.14868 12.0927 2.20842 -8.35172 -1.11079 0.0256038 2.08285 
5121 1 7.13218 9.33735 5.11797 -8.00591 -0.773798 0.976049 -1.0536 
2222 1 12.342 7.07038 7.69253 -6.88716 -0.731833 -0.912639 1.46377 
2122 1 7.10796 7.07364 7.7378 -7.09975 -0.0304546 -0.0332686 -0.148989 
4622 1 7.31342 9.70982 7.78506 -7.8287 -0.600649 0.781798 0.61234 
4621 1 7.28482 9.49435 2.15283 -8.513 -0.958355 -0.966528 2.00541 
3641 1 7.16297 12.1199 5.05061 -8.3202 0.176101 -0.355808 0.680079 
242 2 10.9337 11.0231 6.6586 -24.91 1.99467 1.74479 -2.22965 
721 3 11.1024 8.15223 3.73388 -29.2457 -0.096193 0.59066 -0.138691 
722 2 11.1538 8.34049 9.24007 -25.6012 -2.14901 -0.060497 -0.579639 
1141 2 8.4242 10.728 3.59829 -24.6532 -0.0743884 0.986673 1.02433 
1142 2 8.33339 11.1267 9.27913 -24.9292 2.76183 -3.01404 -1.68483 
1622 3 8.64767 8.39317 6.38619 -29.0507 -1.54409 -1.54663 1.48474 
2241 1 12.3388 12.258 2.48643 -7.51011 0.67116 -0.0190756 -0.306081 
2242 1 12.2221 12.3924 7.95412 -7.39817 -0.032962 0.0182234 -1.27518 
2621 1 9.61869 9.79061 5.02671 -7.85568 2.63984 -1.96996 2.4052 
3121 1 9.94042 9.29725 2.37259 -7.34018 -1.05632 -1.02389 0.869599 
3122 1 9.89654 9.69173 7.92824 -7.60256 -2.03068 -0.715939 -1.16471 
3741 1 12.5275 12.2482 5.25204 -7.31001 -1.55356 -1.10676 -0.0167402 
4141 1 9.84935 12.3304 5.09803 -7.08815 -0.0243477 0.793966 1.4565 
4721 1 12.4965 9.52345 2.33338 -7.18768 -0.404322 0.859794 -1.0243 
4722 1 12.3734 9.56078 7.86649 -7.52577 1.6833 2.05469 -2.43154 
5221 1 12.4348 9.52012 4.85313 -7.93456 -1.13104 -0.729856 2.517 
5641 1 9.83434 11.882 2.51547 -7.95024 0.287739 1.9615 -2.85052 
5642 1 9.6005 12.4449 7.91089 -8.24604 -0.437854 0.0865822 -0.630251 
1242 3 13.5949 11.001 9.27909 -29.0677 -0.234092 -0.152225 -0.375221 
1241 3 13.648 10.7465 3.90902 -29.1515 0.291038 2.44609 -1.61987 
4 3 0.340102 0.35348 17.4115 -29.0186 0.263183 -1.06336 -1.07189 
2024 1 1.46764 6.88508 18.5805 -7.44639 -0.221604 -1.16671 1.81279 
4504 1 1.87382 4.25274 18.8527 -7.97814 -1.35162 -0.112897 -0.329022 
3004 1 4.5035 4.18259 18.4684 -7.18367 -0.0710397 -1.07859 0.777368 
123 2 5.81684 5.51612 11.7948 -24.7083 -1.64542 -0.232383 1.85388 
124 3 5.61552 5.44564 17.3614 -29.3561 -0.567623 1.06774 -1.03284 
603 2 5.63031 3.07022 14.5084 -25.0544 0.611452 -1.20965 -0.146857 
1023 2 2.7727 5.67354 14.7112 -25.0424 2.41685 -2.21832 0.460791 
1503 2 2.96611 2.87302 12.0335 -25.7185 -0.841889 -0.658217 -0.727327 
1504 3 3.07799 2.92855 17.4761 -29.2402 -0.466582 0.943277 -0.820091 
2003 1 1.63098 1.54147 13.2587 -6.89491 0.565578 0.215598 0.0455841 
2502 1 4.46995 4.09136 10.6243 -8.15176 -0.677855 2.55626 0.0401922 
2503 1 4.3833 4.10659 15.9633 -7.59997 -1.13554 0.455172 -0.402628 
3003 1 4.31591 4.2424 13.1868 -7.58108 -1.01258 2.19119 0.65354 
3502 1 1.65309 1.41452 10.5342 -7.18512 -0.88305 1.08489 -0.0101884 
3503 1 1.45934 1.32208 15.8601 -7.43631 -0.839984 0.420535 0.00986752 
4002 1 4.20619 1.47694 10.5927 -7.21515 0.85574 1.64419 0.429536 
4003 1 4.01418 1.50962 16.1976 -7.67677 -0.645438 0.665278 -0.0216785 
4503 1 1.47672 4.03712 13.4799 -7.38168 0.181763 1.84961 0.0368314 
5002 1 1.69128 4.18852 10.6414 -8.08837 -0.558447 0.754856 -0.445898 
5003 1 1.49941 4.06314 16.1979 -7.78941 1.05006 0.886761 0.00728418 
5503 1 4.32063 1.64886 13.4132 -8.03212 0.138242 -1.68389 0.0107081 
2004 1 1.71039 1.72289 18.4273 -7.56916 0.534841 -1.39829 0.563915 
3523 1 1.4723 6.88612 16.0517 -8.0743 0.43131 0.431671 -0.691925 
2023 1 1.53211 6.79671 13.3948 -7.96375 -0.87635 1.07773 -1.48772 
3603 1 6.5996 1.54478 15.8082 -7.98341 2.21107 1.12101 -0.178268 
2104 1 6.72971 1.54012 18.5397 -7.42807 0.650841 -1.19071 -0.0672467 
3602 1 6.81108 1.24233 10.493 -6.98705 0.659117 2.03744 -0.677117 
3622 1 6.83476 6.85458 10.4567 -8.02219 1.10553 -0.304833 -0.387868 
4603 1 6.96554 3.9351 12.9163 -7.65729 0.580886 0.76997 0.870119 
4023 1 4.28561 6.71959 16.0292 -6.99352 -0.846232 -0.000146852 0.18064 
2124 1 6.79643 6.62297 18.6226 -7.36108 -0.903959 0.51063 -0.787564 
5524 1 4.09867 6.73522 18.5598 -7.10999 -0.0117624 0.263006 1.1132 
1003 3 2.95806 0.420568 14.7276 -28.9208 -0.684105 -0.580875 -1.20537 
5504 1 4.18455 1.56186 18.8799 -8.05594 0.847794 -0.0557032 0.160229 
1103 3 8.2492 0.301454 14.5165 -28.9974 0.765595 0.11814 -0.0305036 
5103 1 7.10486 4.32103 15.8213 -8.62737 -0.472171 0.376678 -0.539158 
2103 1 7.09539 1.40414 13.1318 -7.19907 0.603536 0.409991 0.624096 
1223 3 13.6109 5.55945 14.5011 -28.2619 1.1282 1.8116 0.46348 
4122 1 9.48954 6.9561 10.9161 -7.1763 0.748758 0.166339 -1.4606 
4604 1 7.08889 3.99359 18.6855 -7.35545 -1.55339 0.936736 -0.42127 
5102 1 7.39861 3.92263 10.3157 -7.89489 -0.771193 0.905478 0.246494 
4704 1 12.2138 4.26808 18.4466 -7.98089 0.442809 0.194799 0.919698 
223 2 11.0964 5.71344 11.9182 -24.9146 -0.652369 1.46815 0.0675637 
224 3 11.1685 5.60876 17.0659 -28.4897 -1.60835 -0.551983 0.681165 
703 3 11.0779 3.13995 14.3921 -28.0703 -0.577467 -2.72406 2.84181 
1123 3 8.5083 5.62125 14.6802 -28.7966 -1.59248 0.817969 -0.647348 
1603 3 8.58923 3.03072 11.9261 -28.3688 -1.24396 -0.956468 -0.339764 
1604 2 8.20196 2.92187 17.0853 -25.4066 1.2266 -1.90719 1.26144 
2203 1 12.5901 1.63492 13.2079 -7.60732 -1.56572 -0.0356848 0.230719 
2204 1 12.0801 1.58586 18.3408 -7.52937 1.46191 0.913332 0.365784 
2602 1 9.87584 4.50651 10.5093 -7.90542 0.0619686 -2.05406 -0.329081 
2603 1 9.80504 4.31846 15.861 -7.86415 1.14723 -1.02478 -1.82747 
3103 1 9.61446 4.45342 13.2061 -8.37203 0.0647896 -0.435899 0.0580681 
3104 1 9.54233 4.1228 18.3416 -7.06247 1.99769 1.07499 2.01757 
3702 1 12.2153 1.71967 10.6801 -7.98893 -0.413891 -1.14232 -2.20162 
3703 1 12.2266 1.57291 15.6978 -7.49835 -0.0180672 1.40038 1.0757 
4102 1 9.62128 1.67906 10.5644 -8.27755 -0.51847 0.668134 0.474028 
4103 1 9.59409 1.54724 16.0262 -7.02784 -1.70488 1.77742 -0.38265 
4703 1 12.1811 4.35294 13.331 -8.67706 0.137321 0.752838 -0.883193 
5202 1 12.4623 4.34038 10.5303 -7.77918 -0.404996 1.27402 -0.195764 
5203 1 12.6328 4.36891 15.9195 -8.28873 -1.0857 0.183103 -0.40019 
5603 1 9.77765 1.81558 13.4724 -7.95624 -0.00852716 0.0232361 -2.12759 
5604 1 9.41988 1.46197 18.5898 -7.27893 0.0192505 -0.279535 1.35628 
4123 1 9.6288 6.81707 15.9229 -7.65998 0.739421 1.4973 1.80267 
5624 1 9.41516 6.85378 18.5621 -7.43607 3.04993 0.0995836 -0.829816 
2123 1 7.03269 6.60759 13.2662 -7.40481 0.847867 0.647817 -0.365419 
2224 1 12.2734 6.8989 18.3963 -8.38999 -0.372416 0.226022 0.228644 
204 3 11.0206 0.389769 17.1383 -30.0294 -0.838392 -1.59897 -0.199358 
1703 2 13.5849 2.9802 11.8469 -24.9803 1.99201 0.455135 0.392256 
643 3 5.74675 13.5048 14.7956 -28.2602 -0.345009 1.55375 -0.998391 
4624 1 6.88619 9.26275 18.6964 -7.78022 0.326418 1.07786 -0.0425495 
3522 1 1.45712 6.9905 10.6581 -8.08589 0.265768 -0.906469 -0.272227 
4022 1 4.20047 7.1502 10.6087 -7.67832 -0.36809 -1.86433 0.205034 
3623 1 6.93358 7.08441 15.8919 -7.55383 0.490166 0.623029 0.624646 
5523 1 4.3343 7.04772 13.518 -7.12803 -1.09209 -0.680625 -1.6289 
4524 1 1.59268 9.39984 18.5373 -7.43053 -0.877903 2.06156 1.03017 
143 2 5.6595 10.7814 12.0254 -24.527 -0.823284 2.05125 -0.886895 
144 2 5.63168 10.6922 17.361 -24.62 0.17695 1.57965 1.83826 
623 3 5.50277 8.32144 14.7247 -28.7379 0.56748 -2.44869 -0.0903693 
1043 2 2.92907 11.0134 14.669 -24.4956 -2.24176 -1.49263 0.0355251 
1523 3 2.88019 8.27004 12.0099 -28.4319 0.324221 -0.410706 -0.21474 
1524 3 2.8947 8.17732 17.4629 -29.4022 -0.0922052 -1.14947 -0.605662 
2043 1 1.32939 12.2068 13.285 -7.72692 0.201225 -0.381123 0.467612 
2044 1 1.40129 12.2706 18.7533 -8.12648 1.47082 0.211048 -1.09959 
2522 1 4.33353 9.71347 10.4303 -8.24286 -0.30919 0.538307 0.644608 
2523 1 4.32542 9.29823 16.2347 -8.37834 -0.148001 1.57094 -1.74847 
3023 1 4.27974 9.56302 13.2708 -8.21848 -0.178207 1.05059 0.711802 
3024 1 4.20501 9.34722 18.84 -7.781 -0.48586 1.90495 -0.311724 
3542 1 1.74588 12.1438 10.6734 -8.45257 0.249972 0.471229 -1.36551 
3543 1 1.54159 12.3743 16.0658 -7.79392 0.594085 0.00363883 -1.14583 
4042 1 4.48618 12.3721 10.662 -7.88253 0.290269 -1.69307 0.823108 
4043 1 4.19759 12.2507 16.1036 -8.45027 2.02506 -1.49564 -1.74662 
4523 1 1.70163 9.514 13.2981 -7.98114 -1.36833 0.136453 0.0436505 
5022 1 1.56635 9.60263 10.5846 -7.79686 1.31756 -0.332881 -0.716882 
5023 1 1.56334 9.63407 16.0039 -7.84728 -0.188723 0.320912 -1.08287 
5543 1 4.121 12.2767 13.3938 -8.10102 0.890755 0.278748 -0.196554 
5544 1 4.44538 12.1437 18.6332 -7.61918 -1.89953 0.732902 -0.935558 
4623 1 6.89381 9.38609 13.3268 -8.4977 0.162956 0.606581 1.07396 
2143 1 6.80374 12.1413 13.3302 -8.04368 0.76351 -0.300783 0.484718 
1543 2 3.00185 13.5522 11.8384 -24.6986 -0.584479 -0.103844 0.992413 
3723 1 12.3019 7.08447 15.7466 -7.9876 -0.243606 -2.07797 0.533325 
1743 3 13.557 13.5591 11.8144 -28.8612 1.00047 1.29424 0.59109 
1644 2 8.36094 13.4973 17.2921 -25.6601 0.330422 1.69932 0.664089 
4143 1 9.70637 12.2897 15.7241 -6.61702 -0.0702995 0.237804 3.6166 
5623 1 9.71663 7.1044 13.5526 -7.48096 -0.314996 -0.0999852 -1.74946 
3742 1 12.515 12.5107 10.4172 -7.56882 0.697156 0.37864 0.709106 
244 2 11.1352 10.9553 17.2423 -25.1146 -1.16614 1.12205 0.333851 
3124 1 9.60977 9.55126 18.6009 -8.06807 0.922333 0.166627 1.04919 
243 3 10.9085 11.076 11.8536 -29.1933 0.932399 -1.79812 0.318204 
5643 1 9.65469 12.3358 13.4213 -7.15536 -2.11379 0.518212 -4.3139 
5122 1 7.00163 9.61593 10.6558 -8.18188 -0.60069 0.134494 -1.03956 
1724 3 13.6586 8.17297 17.1331 -28.6214 -0.254561 0.841739 0.423281 
5223 1 12.2687 9.57723 15.8317 -8.02368 0.0481136 -0.246329 0.817622 
4723 1 12.3605 9.64934 12.9972 -7.77014 -0.07907 0.87243 0.966244 
2223 1 12.3903 7.08893 13.1747 -7.78167 0.6455 -1.32913 0.17384 
5222 1 12.2623 9.85914 10.4052 -7.66754 1.17557 0.197794 1.16373 
2623 1 9.83789 9.73689 15.9842 -7.42676 -2.6973 -2.35732 -1.31754 
1623 2 8.24707 8.37175 11.9904 -25.0995 1.86505 -1.77438 0.0347999 
3722 1 12.3055 7.1057 10.5708 -8.2363 1.33112 -0.656151 -0.444008 
1143 3 8.2023 10.9536 14.6167 -28.7152 2.70628 1.16986 -0.31954 
3642 1 7.30037 12.2216 10.6801 -7.79583 -2.53332 0.986062 1.18511 
5123 1 7.00975 9.88467 15.8644 -8.35228 -0.180798 -2.2203 0.594728 
2144 1 7.02985 12.1 18.6926 -7.31569 0.322398 -0.30438 -1.17346 
3643 1 7.05498 12.3897 15.966 -7.88182 -1.70594 -0.67587 -0.28509 
3743 1 12.405 12.4046 15.8207 -8.13985 -0.435884 -0.895976 0.566914 
723 3 10.9706 8.29308 14.49 -28.8569 0.868121 1.1379 0.379635 
4142 1 9.94073 12.2122 10.561 -7.89949 -0.843782 1.92772 0.431287 
5644 1 9.67219 12.3093 18.5668 -7.53919 0.969831 -1.62969 -0.143019 
1624 2 8.32625 8.21564 17.2836 -25.0838 -0.835573 0.113202 -1.23277 
2622 1 9.65997 9.61561 10.4952 -6.98419 -0.48296 -0.107408 0.834194 
2243 1 12.1352 12.462 12.9642 -7.70477 0.715442 -1.77221 -0.0034183 
2244 1 12.263 12.3471 18.6756 -7.41668 0.508877 -1.87428 -1.2801 
4724 1 12.337 9.58424 18.7104 -8.43021 0.138862 0.0253932 -0.642784 
3123 1 9.69828 9.76834 13.137 -7.8041 -1.15728 -0.613716 0.971073 
1243 2 13.4891 10.7829 14.5943 -25.1431 2.57466 1.76792 -1.24335 
125 2 5.51348 5.51269 22.5394 -25.2384 -1.60159 -0.535787 0.905214 
604 3 5.7112 2.88727 20.0135 -29.4215 -1.40851 0.00915368 -0.339657 
605 2 5.50163 2.96788 25.3258 -25.7446 -1.56998 -2.00521 -0.676673 
1024 3 2.76095 5.51445 20.051 -29.0235 1.12204 1.23229 -0.222235 
1025 3 2.78132 5.65354 25.2329 -29.3074 -0.347058 -1.4351 -0.0150856 
1505 2 2.80547 2.99221 22.7966 -25.4528 -0.886043 -1.49809 -1.00782 
2005 1 1.18198 1.56378 23.8527 -7.7842 0.227637 0.533187 -1.25049 
2504 1 4.20245 4.27217 21.0728 -7.18032 -0.14207 0.593313 0.276502 
2505 1 3.89145 4.20551 26.4766 -7.439 0.349118 -0.410415 1.70962 
3005 1 4.06095 4.27815 23.9045 -7.64414 2.44227 0.661597 0.0268982 
3504 1 1.88986 1.56879 21.1161 -8.18674 -0.877636 0.217811 0.898524 
3505 1 1.53767 1.58931 26.5148 -7.13191 0.0990109 0.537837 0.7084 
4004 1 4.40601 1.95239 21.726 -6.9982 1.22615 -1.5625 0.175514 
4005 1 4.26221 1.35171 26.9007 -6.76618 0.717279 3.59482 0.668576 
4505 1 1.48858 4.28794 24.1295 -7.16978 0.176142 0.0119217 -0.162234 
5004 1 1.45764 4.38762 21.5046 -8.04375 1.42912 -1.01907 -0.520654 
5005 1 1.13399 4.21093 26.7558 -7.22257 0.551977 -0.0842779 0.149646 
5505 1 3.84163 1.57523 24.4717 -6.97549 1.14024 2.86847 -3.19872 
4024 1 3.99013 6.78334 21.2042 -7.79916 0.115357 1.15776 0.055979 
4605 1 6.90285 4.17078 24.0053 -7.68998 0.419918 2.4055 -1.61965 
3604 1 6.89177 1.4115 21.1892 -7.70162 0.63879 2.36759 -0.33599 
2025 1 1.35856 6.97451 24.0192 -8.05648 1.14783 0.912104 0.480032 
2105 1 6.77604 1.696 23.9378 -7.16301 -1.25191 -1.10429 -2.05009 
3624 1 6.82739 6.76568 21.2889 -7.86264 -0.0208711 1.10425 0.17374 
5105 1 6.64343 4.33702 26.4793 -7.70803 0.751918 1.27502 2.64634 
5104 1 6.9335 4.22175 21.2995 -8.10223 -0.664705 -0.926991 -0.248152 
2125 1 6.64794 6.96038 23.9697 -8.23084 1.13445 -0.147433 0.775582 
4025 1 4.1329 6.86113 26.5265 -8.42331 1.65364 0.92718 0.0440794 
5525 1 4.04277 6.82855 23.7118 -7.5831 -0.731578 1.62494 1.68525 
3525 1 1.66311 6.85267 26.6472 -7.90491 -1.44415 1.30397 0.0383088 
504 2 0.46391 2.85534 20.0285 -24.8255 -0.544761 2.05644 -1.20809 
3605 1 7.09974 1.62573 26.3922 -7.32488 -0.140626 1.46465 2.83104 
1224 3 13.4933 5.57856 19.9346 -28.6833 0.788769 -0.715446 -0.664594 
225 3 10.8712 5.59255 22.6164 -28.448 0.631955 0.104023 -0.684031 
704 2 10.923 2.93373 19.838 -25.428 -0.85249 -0.653136 -0.776022 
705 3 10.9411 2.94707 24.9885 -28.8778 -0.316475 -0.264964 2.00051 
1124 2 8.26076 5.52177 19.8519 -25.6215 -0.512056 -1.78772 -0.0309744 
1125 3 8.1952 5.58598 25.1738 -28.3769 -0.630837 -0.746422 1.15329 
1605 2 8.16308 2.90846 22.5512 -25.3802 0.961975 -1.07909 1.30986 
2205 1 12.2151 1.58684 23.7871 -8.40995 -0.133587 2.48106 0.884902 
2604 1 9.62599 4.22603 21.284 -7.85738 0.611007 0.261472 -1.04828 
2605 1 9.33321 4.31189 26.4939 -7.62592 0.143021 1.25878 -0.106739 
3105 1 9.6833 4.1356 23.8567 -7.90287 -0.606724 1.10225 0.00560665 
3704 1 12.3059 1.55214 21.0168 -8.18552 0.306262 -0.790081 0.149939 
3705 1 12.4158 1.4717 26.4189 -7.73625 0.218187 -1.01365 0.344377 
4104 1 9.53673 1.58678 21.4316 -7.29928 1.02857 -0.0367759 -1.67135 
4105 1 9.81092 1.75134 26.6861 -7.03299 0.0906061 -0.176413 -2.33329 
4705 1 12.2378 4.57362 23.8806 -7.75126 0.204414 -0.913398 -0.737994 
5204 1 12.4001 4.18883 21.1549 -7.5647 -1.89166 -1.03392 -0.0946005 
5205 1 12.0297 4.07616 26.3463 -7.57475 0.770657 1.28749 1.3682 
5605 1 9.41687 1.54156 23.9922 -7.43976 2.08771 1.07634 0.0959779 
226 3 10.8133 5.64694 27.8526 -28.2939 1.75427 -0.150297 -0.413734 
4124 1 9.44619 6.82692 21.0752 -7.73905 1.98086 1.22431 3.04246 
5625 1 9.3914 6.83978 23.9718 -8.51917 1.01121 -1.40763 -0.459079 
3724 1 12.2447 6.65906 21.1223 -7.80178 -1.52355 1.29926 0.338339 
3725 1 12.2118 6.92562 26.3228 -8.03917 1.48786 -3.09524 2.14465 
4125 1 9.62814 6.91924 26.6665 -8.34894 -0.457027 -0.163653 0.685719 
1705 2 13.6097 2.75592 22.4175 -24.955 0.349781 0.6888 1.48697 
1225 3 13.509 5.65267 25.2059 -28.249 0.0532119 -0.330504 -0.639807 
1105 3 8.3837 0.447946 25.1687 -29.4303 -2.03754 -0.602514 0.547788 
206 3 10.9797 0.429562 27.8669 -28.8921 -0.0929415 -0.615372 0.0301281 
525 3 0.320949 8.31658 25.2892 -27.9721 -1.24619 -0.435834 -0.513225 
3625 1 6.97969 7.00666 26.7752 -8.04342 -0.371933 -0.8212 -0.440191 
3524 1 1.30912 7.01512 21.3992 -7.85803 1.06008 0.94599 -0.826478 
145 2 5.41506 10.7769 22.5868 -25.2422 -0.914421 3.66802 2.69984 
624 2 5.4167 8.07262 20.0917 -25.1327 0.674617 -0.456539 -1.12501 
625 2 5.5683 8.34923 25.4526 -24.7603 0.155924 -0.334519 -1.91749 
1044 2 2.85281 11.0289 19.8659 -25.2175 0.32783 -2.11805 1.82355 
1045 3 2.9287 10.8763 25.4613 -29.4218 0.170362 1.94983 -1.20764 
1525 3 2.81571 8.23266 22.7225 -28.6909 -1.45242 0.470165 -0.536081 
2045 1 1.47435 12.4208 23.8462 -7.08778 -1.22564 -0.596421 0.0703485 
2524 1 3.86906 9.52062 21.5492 -7.66161 0.692275 -0.436611 -1.17558 
2525 1 4.22053 9.57895 26.7387 -7.94803 -0.0949242 -1.24446 1.48282 
3025 1 4.16308 9.74189 24.1585 -7.49162 0.743194 -3.00757 0.029958 
3544 1 1.58991 12.4425 21.3121 -7.63676 0.8094 0.245651 -0.040148 
3545 1 1.72269 12.5346 26.3839 -7.24423 -0.0746754 -1.24508 1.02718 
4044 1 4.42761 12.1659 21.0936 -7.66439 -1.05633 0.918958 2.22646 
4045 1 4.45163 12.0517 26.6523 -7.1298 -1.65795 1.24015 1.9689 
4525 1 1.62597 9.73894 23.9111 -7.30045 -0.463762 -1.59025 1.51695 
5024 1 1.25433 9.83265 21.1803 -7.16687 -0.428021 -0.913774 -0.669361 
5025 1 1.56014 9.7117 26.7934 -8.52633 -0.276742 -0.895782 -2.69619 
5545 1 4.08623 12.2639 24.15 -7.04705 0.451724 0.858761 -1.88019 
5124 1 6.62445 9.45784 21.5625 -7.84358 2.39548 -1.95818 -3.19325 
2145 1 6.79204 12.4247 24.1159 -7.416 -0.0446873 0.425761 -0.684515 
4625 1 6.91388 9.83477 24.0357 -7.05605 -0.953072 -1.80845 0.0827513 
3645 1 6.89985 12.4318 26.7364 -7.30124 1.6126 -2.54644 1.19341 
5125 1 6.93761 9.54689 26.6632 -7.83315 -0.190484 1.3089 2.58725 
644 3 5.66354 13.5162 19.9115 -29.3996 0.538993 0.571069 0.130636 
645 3 5.4647 13.5745 25.4493 -30.0005 0.839656 0.0325136 -0.00383203 
745 3 10.818 13.5519 25.2585 -29.0162 0.286841 0.44925 0.59478 
2225 1 12.1981 7.1745 23.7664 -7.69854 -0.905316 -0.735803 -0.343233 
3644 1 7.06925 12.2435 21.2401 -7.32072 -0.211877 -1.01605 1.25897 
245 3 10.7676 10.8911 22.867 -28.6392 1.26667 -1.50555 -1.61494 
724 2 11.0113 8.15478 19.9426 -24.9736 -0.886705 -0.095071 -0.115641 
725 2 10.8913 8.26272 25.4049 -24.8624 -0.199444 1.02159 -1.25471 
1144 2 8.51574 10.865 20.046 -24.7534 -2.61188 -0.251927 -1.19628 
1145 2 8.16249 10.9836 25.4565 -25.3743 0.00626555 0.321356 0.326615 
1625 2 8.17259 8.11788 22.6616 -24.9197 -0.150945 1.48247 0.0382017 
2245 1 12.0154 12.1663 23.7843 -7.85099 0.320714 2.12405 1.87697 
2624 1 9.75387 9.45664 21.5587 -7.89325 -2.77669 0.357308 -0.776218 
2625 1 9.5047 9.58697 26.9993 -8.14851 1.32747 1.01233 -0.648354 
3125 1 9.43361 9.42856 24.2437 -7.80351 1.4596 0.642342 -0.244984 
3744 1 12.3696 12.1316 21.2461 -7.41567 -1.09594 -0.165325 -0.36354 
3745 1 12.2367 11.9392 26.6996 -7.69083 -1.1923 0.801293 -0.513999 
4144 1 9.72559 12.1157 21.2253 -7.61469 1.22226 0.110412 1.98402 
4145 1 9.66527 12.4271 26.6387 -7.97772 -0.812131 -0.901187 0.0352099 
4725 1 12.3786 9.70464 24.3572 -7.33977 -2.82852 -0.503351 -1.23823 
5224 1 12.1653 9.34112 21.4136 -7.47985 2.06004 0.687461 0.334763 
5225 1 12.2107 9.40065 26.9384 -7.78239 -0.873306 -0.0438898 0.887749 
5645 1 9.50762 12.0625 24.0292 -8.08421 -0.648965 0.409295 -0.136098 
1725 3 13.6516 8.17383 22.68 -29.2455 -1.07779 1.32875 -0.232407 
1245 3 13.4733 10.9742 25.3902 -29.2965 0.816902 -0.874189 -0.657419 
1244 3 13.5074 10.8069 19.9744 -28.6989 1.00793 1.22604 0.788029 
1745 2 13.4603 13.5454 22.601 -25.4689 -0.0495439 -0.74717 -0.697674 
1645 2 8.14098 13.5204 22.7342 -25.306 -0.50263 -0.354168 -1.31257 
744 3 11.0394 13.5243 20.0063 -29.7496 -0.91675 0.094308 -0.54671 
1506 2 2.75072 2.90626 28.1074 -24.9021 2.37043 -1.64574 -4.6718 
126 2 5.503 5.73282 27.9549 -24.5188 0.525722 -0.819009 -0.0860253 
127 2 5.39441 5.60539 33.3437 -25.0094 0.930442 -0.725292 0.154343 
606 2 5.54128 3.10839 30.5718 -24.5828 -0.0101382 -1.19604 1.88098 
607 2 5.61376 2.91212 35.9888 -25.823 -1.00698 0.0921926 0.310814 
1026 3 2.78967 5.80994 30.5079 -28.5206 0.297798 -1.75601 1.6022 
1027 3 2.85052 5.64103 36.0783 -30.5502 0.259948 0.485192 -0.993928 
1507 2 2.64787 3.01146 33.07 -25.027 2.12208 1.10424 1.23556 
2006 1 1.42372 1.46116 29.212 -8.12605 0.205989 0.906967 -0.787874 
2007 1 1.54604 1.69456 34.3979 -8.10793 -0.0354489 -1.75852 0.991166 
2506 1 3.91759 4.4512 31.8217 -7.92131 0.603346 0.0363765 1.24558 
3006 1 4.25047 4.25275 29.2878 -8.04897 -0.426638 1.7963 -1.98574 
3007 1 3.90422 4.30817 34.7642 -7.18572 2.22019 -2.14154 -1.35044 
3506 1 1.54439 1.62789 31.729 -7.84578 -0.60528 0.296238 0.763675 
4006 1 4.21563 1.77207 31.9469 -7.36756 -0.672874 0.18919 0.0497052 
4506 1 1.5847 4.11756 29.2866 -8.10242 -1.64258 2.89942 1.17263 
4507 1 1.40833 4.32694 34.62 -7.3889 -0.288471 0.840478 -1.80529 
5006 1 1.19696 4.24054 31.8464 -7.0935 3.56505 -0.268909 -0.0348759 
5506 1 4.28595 1.66123 29.4248 -7.79138 -0.736518 1.27734 -0.542535 
5507 1 4.39352 1.39774 34.5475 -7.43968 -1.3076 0.647145 1.41294 
3606 1 6.83408 1.47759 32.1769 -7.35689 0.105637 0.977529 -2.36554 
4607 1 6.83049 4.2368 34.6618 -7.29185 -0.256482 1.56659 -1.00634 
2026 1 1.5253 6.83488 29.3606 -8.31867 0.108831 0.939134 -0.283207 
3526 1 1.5331 6.70852 32.1087 -7.62576 0.586962 1.45303 -0.340556 
5106 1 6.75937 4.26423 32.0022 -8.1486 0.81481 0.0689354 -0.755447 
5527 1 4.11143 6.78738 34.6507 -7.46767 1.95832 1.64264 -0.716361 
3626 1 6.96622 6.90573 32.1437 -7.76467 -1.49318 -0.0290735 -1.13618 
106 3 5.62859 0.512541 28.1133 -29.405 -0.974017 -2.4535 -1.09387 
1006 3 2.84642 0.510923 30.4864 -29.3596 0.602532 -3.06593 0.876997 
1207 3 13.6683 0.341153 35.7908 -28.5098 0.201176 -0.778948 0.932068 
1706 2 13.5617 2.99387 27.9518 -25.129 1.29026 -1.0177 -2.6433 
2107 1 7.03035 1.68455 34.7439 -6.45962 0.480667 -0.8564 -0.244862 
4606 1 6.99977 4.44757 29.2148 -8.49942 0.163027 -0.373601 0.153344 
1606 2 8.27206 3.03231 27.9463 -24.9616 0.89701 -0.402573 -2.33821 
2106 1 6.99752 1.75384 29.2973 -8.73508 -1.18152 0.804982 -0.0861536 
227 2 10.9796 5.6944 33.2471 -25.1786 0.454843 0.421882 1.0668 
706 2 11.0547 3.1041 30.5013 -25.1247 -0.236041 -0.971316 0.810307 
707 2 11.0751 2.92363 35.9321 -25.1271 -0.663961 -0.0663583 0.276992 
1126 2 8.33433 5.6743 30.6031 -24.6929 -0.18626 0.897568 1.01445 
1127 2 8.23109 5.74039 36.0322 -25.6179 1.55254 -1.25779 -1.97313 
1607 2 8.24343 2.91479 33.2431 -25.5302 -0.759587 1.08398 2.66685 
2206 1 12.2437 1.72862 29.1076 -7.63519 -0.751155 0.701093 0.609373 
2207 1 12.4056 1.75917 34.5347 -7.68907 -0.824679 -1.74709 1.02053 
2606 1 9.74221 4.42887 31.8866 -7.93514 -1.46836 -0.120062 -0.402218 
3106 1 9.8491 4.35371 29.153 -8.28383 -2.31988 0.599745 -0.0257258 
3107 1 9.69049 4.19647 34.5929 -7.60494 -0.366072 0.176157 -0.027454 
3706 1 12.0801 1.56797 31.819 -7.77739 0.619125 0.265693 0.54657 
4106 1 9.44885 1.80717 31.9059 -7.55265 1.35039 -1.02419 -1.49662 
4706 1 12.406 4.47414 29.0488 -8.08725 -0.390829 0.112751 0.217454 
4707 1 12.4216 4.20661 34.6115 -7.76275 0.13727 2.34143 0.106727 
5206 1 12.3849 4.46719 31.832 -7.89371 0.141831 -0.391034 0.299752 
5606 1 9.64901 1.6637 29.0729 -7.51313 -0.606999 -0.900224 2.86065 
5607 1 9.70601 1.29858 34.689 -7.51171 1.07365 1.02882 -0.867597 
5627 1 9.54234 6.98124 34.6554 -7.01075 1.49421 -2.44127 -0.863747 
1206 2 13.5168 0.324941 30.6368 -25.4305 1.78867 -0.155997 -1.05087 
1227 3 13.5758 5.6813 36.0806 -28.4694 0.764707 0.524224 -1.03024 
1106 2 8.21934 0.436626 30.5867 -25.4946 1.00933 -2.82185 0.988288 
1546 3 3.01454 13.6138 27.9822 -29.225 -1.27859 0.327863 -0.738665 
1547 3 3.0322 13.5617 33.3971 -28.7671 -0.901037 0.0509995 -1.08292 
1526 2 2.90873 8.23645 27.9688 -24.5815 -1.27976 0.440051 1.26544 
4026 1 4.14649 7.0395 31.9702 -7.96536 0.910946 -0.942131 0.218721 
2127 1 6.97791 6.9852 34.6485 -7.34803 -2.66436 -0.278087 0.151826 
3646 1 6.57752 12.3759 31.97 -7.57979 0.882131 -1.39475 0.272656 
2146 1 6.93507 12.4465 29.4574 -7.87405 0.745113 -2.13873 -0.959065 
146 2 5.63125 10.9055 28.2984 -24.7839 -0.877558 1.3995 -2.29062 
5526 1 4.24536 6.99495 29.354 -8.49393 0.0838558 -0.0137081 -0.734636 
2027 1 1.66072 7.04412 34.8466 -6.43917 -0.810711 0.233144 -2.44304 