molecular system: gamma-Li3PS4
16 atoms
8 bonds
12 angles
0 dihedrals
0 impropers
3 atom types
1 bond types
1 angle types
0 dihedral types
0 improper types

  0.000000   7.708290 xlo xhi
  0.000000   6.535200 ylo yhi
  0.000000   6.136500 zlo zhi

Masses

     1   6.941000 # Li   Li  
     2  30.973762 # P4   PS4 
     3  32.066000 # S4   PS4 

Atoms

     1      1      1   1.000000   1.928614   2.162498   0.109843 0 0 0  # Li Li
     2      2      1   1.000000   1.925531   4.372702   3.178093 0 0 0  # Li Li
     3      3      1   1.000000   5.782759   4.372702   3.178093 0 0 0  # Li Li
     4      4      1   1.000000   5.779676   2.162498   0.109843 0 0 0  # Li Li
     5      5      1   1.000000   0.000000   0.947604   2.982339 0 0 0  # Li Li
     6      6      1   1.000000   3.854145   5.587596   6.050589 0 0 0  # Li Li
     7      7      2   5.000000   0.000000   5.370627   6.100908 0 0 0  # P4 PS4
     8      8      2   5.000000   3.854145   1.164573   3.032658 0 0 0  # P4 PS4
     9      7      3  -2.000000   1.684261   4.389694   5.435098 0 0 0  # S4 PS4
    10      8      3  -2.000000   2.169884   2.145506   2.366848 0 0 0  # S4 PS4
    11      8      3  -2.000000   5.538406   2.145506   2.366848 0 0 0  # S4 PS4
    12      7      3  -2.000000   6.024029   4.389694   5.435098 -1 0 0  # S4 PS4
    13      7      3  -2.000000   0.000000   0.707762   5.449212 0 1 0  # S4 PS4
    14      8      3  -2.000000   3.854145   5.827438   2.380962 0 -1 0  # S4 PS4
    15      7      3  -2.000000   0.000000   5.260182   1.982090 0 0 1  # S4 PS4
    16      8      3  -2.000000   3.854145   1.275018   5.050339 0 0 0  # S4 PS4

Bonds

     1      1      7      9 # P4-S4
     2      1      7     12 # P4-S4
     3      1      7     13 # P4-S4
     4      1      7     15 # P4-S4
     5      1      8     10 # P4-S4
     6      1      8     11 # P4-S4
     7      1      8     14 # P4-S4
     8      1      8     16 # P4-S4

Angles

     1      1      9      7     12 # S4-P4-S4
     2      1      9      7     13 # S4-P4-S4
     3      1      9      7     15 # S4-P4-S4
     4      1     10      8     11 # S4-P4-S4
     5      1     10      8     14 # S4-P4-S4
     6      1     10      8     16 # S4-P4-S4
     7      1     11      8     14 # S4-P4-S4
     8      1     11      8     16 # S4-P4-S4
     9      1     12      7     13 # S4-P4-S4
    10      1     12      7     15 # S4-P4-S4
    11      1     13      7     15 # S4-P4-S4
    12      1     14      8     16 # S4-P4-S4
