 # File generated with Atomsk by inukai on 2024-10-18 11:12:05
  
          25  atoms
           3  atom types
 
      0.000000000000       7.555392000000  xlo xhi
      0.000000000000      11.626551784926  ylo yhi
      0.000000000000       4.032659000000  zlo zhi
     -3.777695674194       0.000000000000       0.000000000000  xy xz yz
 
Masses
 
            1   26.98153860             # Al
            2   58.69340000             # Ni
            3   58.93319500             # Co
 
Atoms # atomic
 
         1    1        3.777692546206      11.558617842847       0.780714717082
         2    1        0.000003959026       6.470862034867       1.551908326265
         3    1        0.000004026259       8.870094008101       0.086032747106
         4    1        3.777692302571       2.864375430493       0.107922020158
         5    1        1.425215208708       2.180106351743       2.088159222108
         6    1        6.130158024996       2.180094725192       2.088159222108
         7    1        3.777700033873       9.141806523314       2.173579005046
         8    1        1.416870515859      10.659524966767       2.201448711395
         9    1       -1.416854807662      10.659478460560       2.201448711395
        10    1        5.151356947308       0.606789737655       0.054622366155
        11    1        2.404023753611       0.606778111104       0.054622366155
        12    1        1.371840201538       4.307451411487       0.074035586581
        13    1       -1.371839960126       4.307451411487       0.074035586581
        14    1        5.125290984364       5.583349204364       2.176409931664
        15    1        2.430105106251       5.583337577813       2.176409931664
        16    1        2.352416837797       7.359956076412       0.086403751734
        17    1       -2.352420203003       7.359967702964       0.086403751734
        18    2       -2.292751426736       9.784696704262       0.092513230119
        19    2       -1.484328303585       8.244748293797       2.165098323169
        20    2        2.292740642031       9.784661824606       0.092513230119
        21    2        1.484321210271       8.244748293797       2.165098323169
        22    2       -0.000003712637       2.321671246277       0.080794323065
        23    2       -0.000003662798       4.100208125920       2.160630136997
        24    3        3.777688592126       5.264246864075       0.084593087843
        25    3        3.777696033275       1.187442986898       2.068310474510
