ITEM: TIMESTEP
0
ITEM: NUMBER OF ATOMS
6000
ITEM: BOX BOUNDS pp pp pp
-4.3364112842169256e-01 2.7774641128421734e+01
-4.4225990383051972e-01 2.7783259903830967e+01
-1.7937915590599829e+00 1.1115779155906182e+02
ITEM: ATOMS id type x y z c_peratom fx fy fz 
122 2 5.52928 4.85525 3.40771 -23.8629 -1.44984 1.6418 1.65558 
601 2 5.27106 2.08132 0.868553 -25.2498 2.2258 3.00766 0.353127 
602 2 5.14295 2.41992 6.42349 -25.6586 2.03568 -1.9684 0.309113 
1021 2 2.37544 5.32825 1.30523 -24.8955 0.0143496 0.511646 -4.36867 
1022 2 2.4647 5.08531 6.7523 -25.6422 0.647757 1.3345 0.556116 
1502 2 2.3933 2.71609 3.77083 -23.8903 2.15969 -3.371 1.72836 
2001 1 1.00075 1.07224 -0.526039 -6.89422 0.207626 -2.94765 0.0410698 
2501 1 3.82698 4.16511 2.25491 -7.5492 0.96772 -1.99517 2.36831 
3001 1 3.58091 3.90556 -0.248412 -5.82082 0.568996 -0.852922 -1.1081 
3002 1 3.92953 3.82112 4.91642 -6.89545 -0.340739 -0.199423 -1.01264 
3501 1 0.84847 0.660456 2.35617 -7.17735 2.37234 0.484537 -0.531605 
4001 1 3.90582 1.18228 2.28368 -8.00957 -1.37824 0.10439 2.3961 
4501 1 0.868158 3.43974 -0.0884498 -5.8093 -0.544311 2.62497 -0.933066 
4502 1 0.882026 1.07043 4.95907 -7.61422 -0.937257 0.146889 0.0660961 
5001 1 1.09155 3.73091 2.43897 -8.59706 -0.508648 0.0278348 -0.40174 
5501 1 3.88455 1.10587 -0.414571 -7.72632 -2.45403 -2.00328 -1.38765 
5502 1 3.42936 1.17447 5.61116 -7.13958 3.30466 2.19458 -5.21526 
3402 1 1.25655 4.10749 5.25484 -8.15011 -1.28373 -0.544727 -2.29917 
4601 1 6.52758 3.92372 -0.379619 -7.03939 0.97627 -2.0326 -0.398543 
2122 1 6.39625 3.85312 5.25351 -7.98171 3.13056 0.965035 -0.611106 
5521 1 3.85939 6.61138 -0.311694 -6.56806 -0.169292 0.740849 0.670853 
2101 1 6.41739 1.15818 -0.782504 -7.01884 0.816955 0.405846 -0.966271 
3601 1 6.51727 1.03121 4.84687 -8.03966 -1.36241 -0.0372997 1.27524 
2021 1 0.955574 6.32309 -0.323803 -8.05849 0.335804 2.19583 2.85394 
5522 1 3.80463 6.58932 5.03767 -7.0134 2.29557 -0.977011 2.18941 
22 2 -0.17978 4.72326 3.77041 -22.7576 -4.19648 3.05909 0.163156 
1001 2 2.41005 -0.173173 1.03856 -24.2949 0.662684 0.0677965 -1.66063 
2502 1 3.79223 3.47405 7.55884 -6.7111 -1.34147 2.71034 2.23729 
1002 2 2.45881 -0.34049 6.45544 -24.6166 -2.03392 -4.45741 3.18271 
1501 2 2.42784 2.32685 -1.7237 -26.3085 -1.00103 1.5691 0.281648 
5101 1 6.89494 0.823067 2.17148 -6.8439 -1.0646 0.384034 0.0267181 
4602 1 6.69625 3.41947 2.23614 -7.72741 -0.535948 0.754237 0.900583 
222 2 10.8189 5.00514 3.68007 -24.6408 -2.70041 -0.606707 5.13155 
701 2 11.0688 2.21131 0.94952 -23.3053 -2.5141 -0.702106 -1.31888 
702 2 10.8845 2.26108 6.84547 -25.4808 -0.0640925 1.17034 -0.161084 
1121 2 8.28392 5.08961 0.92063 -24.9316 -2.04768 0.481225 0.150968 
1122 2 7.86616 5.14317 6.63596 -25.4725 1.69487 -1.37934 1.41583 
1602 2 8.01404 2.12109 3.72887 -25.4217 2.44151 0.527956 -1.03895 
2201 1 12.3333 0.894555 -0.409534 -8.26119 -1.78738 0.459873 1.25633 
2601 1 9.53516 0.917518 2.38718 -7.61287 2.53298 -0.294669 -1.63516 
3101 1 9.3855 3.73503 -0.481165 -8.24467 0.949335 -0.390905 0.515264 
5201 1 9.41485 3.17819 5.24355 -6.96277 0.00819293 -0.714246 0.837731 
5601 1 9.29405 0.762559 -0.415521 -7.32271 1.25808 1.18143 1.02844 
5602 1 9.27714 0.000262996 4.68526 -6.71834 -0.351647 1.82832 0.692224 
3721 1 11.629 3.26117 2.71514 -8.0452 4.02221 -1.75656 -0.0954032 
2202 1 12.4213 3.53159 5.59673 -7.15086 -0.803587 -0.146687 -1.37507 
3701 1 12.3658 0.488749 2.30128 -9.07167 -1.33457 2.11235 1.09289 
5221 1 9.28913 3.82521 2.69713 -6.87137 -2.5833 0.280545 -2.59536 
4701 1 12.175 3.91369 -0.386646 -8.30842 -1.05997 -0.628831 0.358529 
4121 1 9.50718 6.49566 2.57448 -8.05569 0.236746 0.386217 -1.17643 
4782 1 12.3485 0.729097 5.65907 -7.62689 -1.77759 -0.072965 -2.06853 
5622 1 12.4163 5.96788 2.82416 -7.88263 0.754862 2.07734 -2.52169 
3102 1 12.3996 6.48665 5.54549 -7.73091 0.520597 -0.208445 -0.00225409 
3621 1 6.79182 6.4703 2.30725 -8.33891 0.164159 -1.0398 1.70577 
2121 1 6.83091 6.4608 -0.33773 -6.79253 -0.30386 2.12688 0.642762 
4122 1 9.73905 6.13931 5.35675 -6.70519 -0.752955 -1.31955 -0.44824 
1222 2 13.6095 5.17972 6.98736 -24.9486 -1.07004 -1.46186 -3.42799 
4102 1 9.3748 0.69348 7.59798 -8.02745 0.727114 0.753618 1.39639 
1702 2 13.1009 1.94983 3.96429 -23.6091 2.20845 1.61043 0.924272 
1601 2 8.06929 2.41277 -1.78013 -24.7854 -0.031379 -0.766377 -0.057064 
1701 2 13.5915 2.32983 -1.77986 -25.522 0.439938 -0.702685 -1.42819 
201 2 10.9339 -0.40777 -1.76739 -25.5556 -0.919113 -0.341754 0.0219094 
2022 1 1.14905 7.08906 5.57479 -6.90306 -1.47285 -2.37907 0.18819 
1521 2 2.27875 7.94983 -1.58301 -25.804 1.52037 -2.92583 -1.43721 
641 2 5.15908 13.2457 0.777274 -24.36 -1.94476 3.61236 2.73499 
4021 1 4.07126 6.99244 2.45478 -7.27321 -1.7882 -1.52022 0.329922 
3521 1 1.08798 6.7053 2.78894 -7.81247 2.15114 -1.55209 -1.29268 
2042 1 1.55812 12.4986 5.32072 -7.89644 -1.31518 1.45568 -0.0339666 
142 2 5.19641 11.0972 3.67256 -26.0121 1.89551 -3.4691 5.40596 
621 2 5.46342 7.85936 1.13702 -24.6528 -0.414512 0.913684 -2.72942 
622 2 5.41197 7.9113 6.38434 -24.0097 -2.63876 0.85023 1.58739 
1041 2 2.35803 10.9124 1.08971 -25.1291 -0.532926 -1.13742 1.33606 
1042 2 2.49151 11.2218 6.73195 -25.1188 1.3117 -4.81084 -0.252761 
1522 2 2.47936 7.87606 4.0534 -25.2066 0.788897 3.72239 -0.500827 
2041 1 0.942473 12.2503 -0.235922 -7.45789 -0.672389 -0.0348898 1.22051 
2521 1 3.76193 9.74122 2.8665 -6.12777 -2.64385 -2.80084 -2.94923 
3021 1 4.08112 9.34122 -0.296174 -6.97146 -0.439601 -1.50688 2.16662 
3022 1 4.13324 9.46918 5.30944 -6.42412 0.568811 -1.52704 2.15305 
3541 1 0.964106 12.105 2.74613 -7.37808 -0.00480184 -0.133514 -0.89449 
4041 1 3.83448 12.1216 2.48197 -7.6218 -1.86973 4.87102 -2.02128 
4522 1 1.07156 9.72588 5.58503 -5.95097 0.384608 1.40164 -2.70274 
5021 1 0.65835 9.42325 2.27003 -7.87458 2.71946 -0.444871 -0.283509 
5541 1 3.68753 11.9018 -0.266682 -7.2895 1.58094 0.620567 -1.70685 
5542 1 4.2365 12.179 5.46671 -7.15759 -1.3763 0.930937 -0.427684 
3421 1 1.18755 9.45998 -0.396543 -8.15452 -0.185052 -0.550675 1.61877 
42 2 -0.401078 10.5614 3.69577 -24.1216 -0.530295 0.837497 2.42674 
2141 1 6.58235 12.2256 -0.427994 -8.73301 0.43553 0.103816 -0.217963 
3641 1 6.6095 11.8118 2.27314 -7.72613 0.493654 3.95832 -1.41631 
41 2 -0.352025 10.6934 -1.44421 -24.5054 1.1692 -0.784031 -2.96638 
521 2 -0.424832 7.94358 1.05197 -24.1857 1.08035 -1.69052 1.66683 
542 2 -0.162879 13.3498 6.41394 -24.1405 -2.06533 1.56768 0.893214 
241 2 10.9224 10.4097 -1.33985 -24.5794 -0.897185 0.830255 -2.11487 
741 2 10.7915 13.4466 1.1767 -24.492 2.62697 -1.84844 -0.457405 
2221 1 12.4233 6.76224 -0.309148 -7.45977 -1.14404 -2.31548 1.79014 
3622 1 7.01387 6.87861 5.39167 -8.41154 -1.20232 -1.73842 -1.205 
2142 1 6.78277 12.3858 4.97809 -6.59171 -0.472767 0.782515 0.513215 
4622 1 7.06478 9.82285 5.06081 -7.07639 -1.38833 -2.87564 0.632047 
5121 1 6.6458 9.28567 2.58984 -7.16489 -1.64541 -1.25351 -3.16181 
5621 1 9.53844 6.63229 -0.360887 -7.38329 0.927209 -1.89189 0.421769 
4722 1 12.325 9.38692 5.15115 -7.67007 0.937122 -0.408672 3.68076 
4621 1 6.76869 9.55774 -0.68409 -7.62308 0.188798 -1.20465 3.20681 
4741 1 12.2922 12.0225 0.0992775 -7.18647 0.382388 -1.95655 -0.369574 
242 2 10.6846 10.3432 3.92237 -25.3639 2.41262 2.97993 -0.207625 
721 2 10.7701 7.83487 1.30814 -24.7278 -0.0539012 0.987624 -2.09657 
722 2 10.9012 7.69791 6.58015 -25.0552 -1.58887 0.309845 1.32737 
1141 2 7.89988 10.8912 0.900828 -24.1079 2.294 -4.10052 0.254752 
1142 2 8.01587 10.7339 6.66985 -25.2129 -0.135224 0.525852 3.24972 
1622 2 7.87778 7.99364 3.82676 -24.7862 3.14219 1.04479 -1.64728 
2241 1 12.1786 8.86319 2.75085 -6.98331 -2.75071 0.112181 -1.67951 
2242 1 12.0331 12.1363 5.46358 -6.77007 1.03878 0.488588 1.16851 
2621 1 9.33996 9.31755 2.54691 -7.46351 -0.112577 -0.239135 -1.78711 
3121 1 9.35686 9.23562 -0.245532 -7.15769 0.0511308 0.780114 0.685246 
3122 1 9.68361 8.7835 5.06529 -7.36944 -1.03504 0.504156 0.867014 
3741 1 12.1999 11.7759 2.94142 -6.46515 1.81965 0.0863267 -1.91467 
4141 1 9.69289 12.1158 2.5447 -7.69938 -2.59359 -1.25401 0.839997 
5641 1 9.46324 12.0127 -0.197644 -8.63021 -0.268429 1.08237 -1.03465 
5642 1 9.35588 12.0153 5.63967 -7.4886 1.92362 0.119388 -2.35841 
3221 1 12.1006 9.28586 0.0619037 -7.72569 1.37362 0.526989 0.21427 
1242 2 13.2713 10.7841 6.77849 -24.1789 0.400706 1.83462 -0.604318 
1642 2 8.48674 13.3069 4.05806 -23.9237 -1.22518 0.392935 -0.795232 
742 2 10.8789 13.6487 6.76225 -24.6959 0.754642 -2.27198 -0.461361 
1722 2 13.49 7.70347 4.11535 -25.8411 2.43024 -0.0931783 -2.42748 
1241 2 13.5773 10.5818 1.24082 -25.075 0.138748 -0.881773 1.79939 
1641 2 8.06115 13.4588 -1.45573 -24.4534 1.40641 0.943706 -3.685 
5504 1 3.6814 0.731436 16.4549 -7.56478 -0.0169825 -0.959466 -0.77222 
3004 1 4.14672 3.77739 16.5407 -8.20767 -1.3814 0.0381879 -0.628488 
4002 1 3.96369 0.963279 8.08323 -6.36534 0.851099 -2.33311 0.816262 
123 2 5.26955 5.53068 9.52536 -24.3797 1.3417 -2.23119 -1.92405 
124 2 4.77034 5.28167 14.978 -23.9473 2.174 -0.593104 -0.0341288 
603 2 5.23565 2.16078 12.4538 -24.0525 2.38858 1.78961 -1.97191 
1023 2 2.17784 5.06997 12.2019 -24.1831 0.253271 -1.57668 -0.24352 
1503 2 2.57543 2.37329 9.16629 -26.3565 -2.08254 -1.1468 -0.365579 
1504 2 2.38786 1.96199 15.3924 -23.5903 -0.181046 1.21133 -3.56661 
2003 1 1.02312 1.11365 10.5331 -6.39508 -0.294431 -0.1337 0.661213 
2503 1 3.27641 3.40866 13.6646 -7.83533 1.78166 1.17961 -0.187064 
3003 1 2.91619 4.44518 10.0006 -7.13202 2.73913 0.317786 1.65326 
3502 1 1.18165 0.915053 7.63267 -6.90913 -2.40004 -0.281585 1.27577 
3503 1 1.60687 0.857469 13.5768 -7.16647 -1.23974 0.440075 0.840131 
4003 1 4.34281 0.508336 13.2814 -7.7342 0.248514 -1.67848 3.01586 
4503 1 0.588143 3.87034 10.9533 -6.72482 -0.0658851 -1.64839 1.23165 
5003 1 0.562882 3.45618 13.5933 -7.61768 -0.0952687 0.576109 0.795291 
5503 1 3.72056 1.08471 10.776 -6.89304 0.251494 0.904083 0.695311 
5102 1 6.47204 3.82703 8.1722 -6.81963 -0.104491 0.278461 -0.795117 
3523 1 1.15858 6.46535 13.6373 -7.95729 0.330203 -1.17191 1.5183 
4022 1 4.07773 6.42195 7.87968 -7.68787 -1.19629 0.607581 -0.175906 
5103 1 6.23731 3.88136 13.7557 -7.42507 -1.45288 -0.715381 -0.236206 
5002 1 1.06697 3.58222 7.7893 -6.19552 -0.562935 0.274928 1.06365 
24 2 -0.308161 4.58965 15.1891 -24.3052 -2.02786 1.4054 -0.170694 
4603 1 6.42664 3.53693 10.912 -7.06476 -2.05457 0.46823 1.32267 
2103 1 6.43647 0.504033 10.6057 -7.53862 2.23386 2.09512 1.51796 
2004 1 0.882899 0.710833 16.5908 -8.60758 -0.355936 -0.934482 -0.0828091 
2024 1 1.03206 6.3656 16.3817 -8.19714 -1.05483 0.270731 -0.198716 
3522 1 0.826592 6.40393 8.13145 -7.97176 -0.0238505 0.045295 1.36663 
4023 1 3.86708 6.49424 13.3352 -7.84461 0.068203 -1.3249 1.18493 
2023 1 0.776248 6.3981 10.988 -8.43836 2.31813 1.92149 -1.59424 
4504 1 1.24454 3.34491 16.6008 -8.82594 -1.14471 1.58704 -1.524 
2104 1 6.16142 0.59723 16.5799 -6.9166 1.80132 -1.58663 -1.15225 
2124 1 6.22271 6.53552 16.4177 -7.50609 -1.27991 0.0590089 -1.26577 
1223 2 13.5487 5.13763 12.1265 -23.2689 1.645 1.85418 3.0789 
3223 1 9.33664 6.19416 8.00103 -6.95711 0.247115 2.04721 0.916708 
3723 1 11.8735 6.47361 16.3935 -7.96257 0.716708 -2.76753 1.66763 
5604 1 9.14079 0.597692 16.3209 -6.85723 0.214195 -0.312718 0.831798 
3603 1 7.2078 1.2066 13.4763 -6.91843 -3.65317 0.571097 -0.425332 
1704 2 13.5283 2.38084 14.9149 -24.2428 -0.0496737 -3.09922 0.0570979 
4704 1 13.1104 3.28097 16.8046 -7.73087 -2.2134 1.38549 1.38962 
3602 1 6.65961 0.848434 7.63927 -7.40256 0.341342 -0.956443 0.697281 
2223 1 11.6342 3.53708 14.1759 -7.60945 3.94671 -0.290418 -0.0216159 
4702 1 12.2072 3.44577 8.29838 -7.38311 0.156114 3.13145 0.74428 
2123 1 9.47304 0.626513 13.6815 -6.65813 2.79405 0.662993 -0.727438 
223 2 10.7696 5.233 9.60116 -24.8212 -1.97144 -3.61026 -0.359611 
224 2 10.6203 5.38824 15.0549 -25.1115 -2.08091 -3.17564 -1.56087 
703 2 10.6827 2.59352 12.5373 -24.9728 -0.396441 -3.33195 -3.79356 
1123 2 7.80646 5.0918 12.3671 -25.5215 0.965512 -1.15189 -2.91091 
1603 2 7.85831 1.9966 9.20223 -25.5783 -0.746702 3.648 0.0953195 
1604 2 8.16569 2.42123 15.1824 -25.4533 2.89675 -3.14025 -4.82402 
2203 1 9.26332 0.979156 10.4782 -7.67629 0.595484 -2.61093 1.3569 
2602 1 12.119 3.8325 11.1743 -8.19148 0.129375 2.72519 -0.281935 
3103 1 9.15984 3.84317 13.4324 -7.1898 -0.8018 -2.17899 1.45437 
3702 1 12.0578 0.935428 8.2431 -6.90578 2.02342 -0.942051 0.518528 
4103 1 12.1707 0.574355 13.5101 -7.17428 0.637047 1.63368 1.95606 
5202 1 9.19343 3.63833 10.7058 -6.01018 1.18269 1.4834 1.33131 
4703 1 12.0028 6.29432 13.6644 -7.24607 3.14086 0.502085 -1.4276 
4203 1 12.2722 1.42579 11.013 -5.89405 -0.918905 -1.81999 -0.556553 
5623 1 9.19459 3.5116 8.07176 -6.43832 0.847124 -0.929409 -1.49785 
3623 1 8.66527 5.59557 16.1317 -7.21404 1.46949 2.85057 0.746943 
3104 1 9.90765 3.28203 16.0971 -6.40125 2.50896 0.00475738 1.84363 
203 2 10.7357 -0.278419 9.40354 -24.6622 0.237499 -2.34192 -0.127014 
2623 1 6.89116 6.56247 10.7847 -7.4667 -1.25821 -2.91803 0.229307 
2523 1 6.74468 6.44948 13.5654 -7.3276 -3.19784 0.970631 1.12274 
2603 1 9.42953 6.36227 13.4972 -6.52469 -1.00257 1.97481 -0.557595 
4604 1 7.03704 3.20034 16.5649 -6.74043 -4.1885 2.68003 5.31203 
5222 1 11.9613 6.3201 8.14972 -8.34829 2.54614 0.910916 0.831925 
2204 1 12.1566 0.701913 16.5653 -8.29415 -0.0272358 0.709963 -1.97504 
523 2 -0.288636 7.53793 12.4416 -23.7403 -2.2627 2.71557 -1.02497 
2524 1 3.54345 9.45765 16.7759 -7.83222 -0.127222 -0.650821 -2.75907 
3024 1 4.03411 12.4863 16.5697 -7.18084 -2.43183 -2.69883 1.20606 
1544 2 2.54356 13.4032 14.9905 -25.2457 3.55267 3.44376 1.73143 
5524 1 3.46459 6.69231 16.3319 -8.19996 1.75784 -0.895644 0.252323 
3543 1 1.74978 12.4352 13.293 -8.00197 -2.2219 0.0128058 -1.46528 
4523 1 4.12246 6.92127 10.8111 -7.91752 -2.97304 -1.53426 -3.00206 
3542 1 0.768923 11.8935 7.90643 -7.46913 0.0304619 1.76506 0.564019 
5022 1 0.345676 9.12884 8.10348 -6.98441 0.886497 0.22889 4.36173 
4422 1 1.16077 9.24124 10.9646 -8.32333 -2.15941 -2.28651 -4.25077 
3643 1 4.38715 12.1818 14.0945 -6.8822 -0.362851 0.00256371 -1.40625 
143 2 5.04149 10.5874 9.3806 -25.1158 0.373589 0.866294 -0.325094 
144 2 5.33875 10.4035 15.2532 -24.3134 -0.912588 2.37187 -0.575241 
623 2 5.31168 7.90979 12.1993 -25.0193 1.91789 1.96359 1.35392 
1043 2 2.19503 10.5548 12.1065 -24.1714 3.27778 3.02076 2.46908 
1523 2 2.20919 7.91502 9.53287 -23.6155 0.814039 -0.973103 -1.8658 
1524 2 2.15498 8.10669 15.2298 -24.0545 0.487313 0.195058 -1.83555 
2043 1 0.964299 12.1147 10.5815 -7.68155 -0.740534 -1.90572 1.43979 
2522 1 3.41037 9.31887 8.20527 -7.72955 0.535918 0.7041 0.744894 
3023 1 4.09284 9.58055 11.0746 -7.50082 -1.89756 -0.122147 0.0900223 
4042 1 3.82206 12.2661 8.17307 -7.3732 -0.190062 -0.181822 -0.384491 
4043 1 3.75167 9.39502 13.8106 -7.64673 -0.0991028 -0.610659 1.15821 
5023 1 0.768916 9.16961 13.389 -7.7243 0.751856 1.402 3.28389 
5543 1 3.629 12.4154 10.8536 -7.2187 0.0302998 0.612629 1.48403 
4524 1 0.687809 9.47671 16.2942 -7.7066 3.50466 -1.67466 0.646247 
2143 1 6.30862 11.5513 10.8601 -7.33917 0.814347 3.03265 0.461296 
643 2 5.28779 13.2199 12.2624 -24.8395 -0.31594 0.305577 0.359137 
2044 1 1.0337 12.4744 16.1034 -7.06036 -2.90021 -3.21358 -0.509449 
5124 1 6.19077 9.36953 17.0171 -7.49164 0.166417 -0.243571 -1.17436 
743 2 10.742 13.1667 12.2566 -24.8628 -0.220445 -0.403781 2.62265 
1624 2 7.80788 7.72319 15.1066 -24.9736 3.34289 -1.14481 1.852 
1623 2 8.23138 7.88956 9.44137 -25.6586 -1.85687 -0.762313 -2.01625 
2244 1 12.261 11.8469 13.537 -6.99116 0.300627 0.558424 -0.333039 
1643 2 8.06189 13.4734 9.36962 -24.4989 -1.19712 0.44192 -0.826704 
4142 1 9.18517 11.7963 8.22364 -6.637 0.70618 1.96291 1.83593 
5523 1 6.75181 6.72772 7.92115 -7.41709 -0.883687 0.173702 1.11971 
5223 1 12.3262 9.08309 13.6135 -7.41071 1.90906 1.08889 0.520998 
2144 1 6.67035 12.1547 16.4482 -7.56424 -1.00999 -1.09222 0.194715 
2243 1 11.9548 12.0064 8.16849 -7.39221 0.58307 1.532 -0.226883 
244 2 11.0665 10.591 15.2327 -25.8089 -3.01824 -2.17112 -1.56181 
5644 1 9.37464 12.0437 16.752 -6.77881 0.294647 0.86437 -1.93376 
5743 1 11.949 9.12716 10.9894 -6.89818 2.67185 3.53002 -3.25271 
4123 1 9.61066 6.63628 10.7283 -7.40659 0.0284311 0.567717 0.942693 
723 2 10.9149 7.96143 12.2494 -25.2594 -3.13803 -3.43909 3.90437 
4623 1 6.82478 9.01034 10.7738 -6.09372 -1.81149 0.655982 2.15549 
5123 1 6.92744 11.936 13.474 -7.24475 -0.581026 0.994495 0.888065 
3642 1 6.68658 12.4471 7.88843 -7.20062 -0.803655 -0.528389 0.0260624 
5122 1 6.67262 9.54085 8.25437 -7.47067 -0.419943 -0.293957 -3.12795 
243 2 10.7243 10.687 9.64382 -25.3481 -0.556675 -0.948131 -3.84918 
5744 1 12.3254 11.8436 16.3244 -7.3373 1.53884 0.887795 0.816672 
2622 1 9.74307 9.33402 7.80665 -7.04636 -0.61053 -2.30052 0.0858805 
4723 1 12.5056 9.28251 8.20224 -7.8544 1.17397 -1.10025 -0.335985 
3124 1 8.89669 9.26424 16.5954 -5.94945 -0.613975 -1.48865 1.04302 
3123 1 9.24763 9.37805 10.5936 -7.72817 2.23238 1.22496 2.88993 
4624 1 6.85848 8.95173 13.6825 -8.26112 -2.05085 3.5016 -0.311028 
3743 1 12.0629 11.7961 10.8251 -7.75413 2.38416 1.60465 1.57046 
5643 1 9.83538 8.88921 14.3185 -5.8859 -0.349794 -1.36361 -2.01215 
3143 1 9.1834 12.2216 10.8861 -8.30961 0.206944 -0.647437 1.0728 
4143 1 9.60314 11.4695 13.7926 -6.45766 -0.0878135 1.08554 -2.18025 
1143 2 7.96739 10.5802 12.1622 -24.9409 0.0892558 -0.750974 -0.282078 
5723 1 12.3137 6.64993 10.9446 -8.08651 1.29484 -2.56315 -1.14401 
4724 1 12.1688 8.86418 16.7764 -7.21675 0.560461 3.18868 -1.40736 
1644 2 7.69632 13.5743 15.2489 -24.7945 0.974127 -0.662776 -1.25199 
125 2 5.17884 5.12127 20.4679 -24.8665 -0.202475 -1.05951 3.5909 
604 2 5.14513 2.1449 17.7756 -25.0344 -0.153958 -0.0387313 0.619238 
605 2 5.1118 2.38951 23.4354 -26.4464 -0.599582 1.24755 0.844329 
1024 2 2.14663 5.04077 17.7028 -23.6728 2.72729 -0.638873 2.33968 
1025 2 2.37488 5.00772 23.2884 -25.2415 4.10954 2.47342 1.20504 
1505 2 2.32928 2.4333 20.5565 -25.2092 1.24627 -1.4626 0.199571 
2005 1 0.788663 0.615549 22.3562 -6.84187 -0.919487 1.59052 -0.403601 
2504 1 3.83983 3.75198 19.3516 -7.14465 -0.481354 -2.00464 -2.09389 
2505 1 3.48036 3.44334 24.7129 -6.55696 -0.53184 -0.0880188 -1.75346 
3005 1 3.8598 3.83407 21.8791 -7.22836 -1.27637 -1.08362 1.04298 
3504 1 1.03453 0.938784 19.4452 -6.87956 -4.14734 0.202353 0.256706 
3505 1 1.04673 0.835777 25.0786 -7.38871 -1.4961 -0.507493 -1.53362 
4004 1 3.37128 0.924285 19.0808 -6.61708 4.02224 -0.193239 0.500421 
4005 1 4.02911 0.792733 24.6421 -6.26328 -1.22581 -0.631441 -0.0780304 
4505 1 0.922545 3.64425 22.4007 -8.27593 3.56417 3.26394 -5.09271 
5004 1 0.957228 3.60214 19.181 -8.00242 -1.08546 1.48527 1.09154 
5505 1 3.3914 0.972731 22.0437 -6.58713 0.664304 0.99745 -1.33364 
2905 1 0.898472 3.86278 25.0646 -8.16004 1.95249 -4.73361 -3.83498 
4025 1 4.18749 6.08723 24.5394 -5.99097 -1.39345 1.94653 -0.952516 
2105 1 6.16638 1.03641 22.05 -7.33167 1.45891 0.7963 0.146131 
3605 1 6.58715 1.1683 25.0301 -7.09559 0.399274 0.16766 -1.1846 
3524 1 0.786777 6.3893 19.1204 -8.55175 0.41255 -0.807788 -0.977219 
505 2 -0.201244 2.39512 23.399 -23.8658 -3.62248 -3.62915 4.63062 
5105 1 6.14242 4.10939 24.9323 -6.60548 3.00201 -0.346577 -0.197809 
106 2 5.06457 -0.186839 26.3936 -26.3571 2.86757 -2.4832 -1.74115 
3604 1 6.43425 0.9541 19.3332 -7.8299 -0.568564 0.198763 -0.496252 
5525 1 3.69484 6.54059 21.9752 -6.40327 0.550134 -0.242561 -1.84246 
4024 1 3.77865 6.26161 19.1565 -8.83841 -0.818838 1.41712 -0.694048 
2025 1 1.0588 6.61174 21.7047 -7.93938 -1.55331 0.0101382 2.21774 
105 2 5.09559 -0.329856 20.6333 -25.4005 -1.26968 -1.64017 0.265693 
1506 2 2.42061 2.62035 26.3561 -25.8362 -0.290772 -0.880044 2.41911 
126 2 5.47356 5.93842 26.1794 -25.0955 0.824702 -5.00163 1.44246 
26 2 -0.0131489 5.32402 25.9557 -23.3331 -4.41985 4.36414 7.07225 
5104 1 6.72672 3.87121 19.4845 -8.15811 0.144012 -0.470109 -0.964533 
4605 1 6.6308 3.76055 22.1501 -6.56111 0.665497 -1.90444 0.452266 
225 2 10.6594 4.87338 20.7823 -23.726 1.71503 -0.310077 -1.02001 
704 2 11.2527 2.21148 17.9046 -24.6051 -2.45927 -0.716271 -0.45021 
705 2 10.6112 1.92423 23.5485 -24.9771 1.06384 0.0104548 -0.913122 
1124 2 8.03751 5.0759 18.1891 -24.1495 0.241247 -1.28006 -2.85873 
1125 2 7.94997 5.31868 23.2952 -24.2453 0.596508 -3.10039 2.72286 
1605 2 7.9276 2.20825 20.6443 -25.5499 0.223654 -0.759667 0.285144 
2205 1 12.1459 0.853271 22.0714 -8.07093 -0.228433 2.38506 -0.955651 
2605 1 9.11346 3.12078 24.3402 -6.51925 -2.7413 3.01763 3.24517 
3105 1 9.54047 3.44925 21.9097 -7.30183 -0.601022 0.822299 -1.89163 
3704 1 12.0922 0.283621 19.1769 -7.31455 -1.00457 0.437271 0.503238 
3705 1 12.334 0.823097 24.8028 -7.15462 -0.682438 0.534923 -0.186639 
4104 1 9.48725 3.46407 18.8492 -7.77115 0.309422 1.27354 1.77853 
4105 1 9.33193 0.610009 24.9867 -7.34437 1.07713 -0.171591 -0.425736 
4705 1 12.2734 4.30579 22.2254 -7.42528 1.72983 -0.812126 -0.153305 
5204 1 12.2346 3.28043 19.4753 -8.111 1.42208 1.12416 1.4424 
5205 1 11.9787 3.69055 25.1217 -7.27565 1.70309 -0.0744648 -0.652625 
5605 1 9.22808 0.843269 21.8958 -6.6809 -0.246099 0.667188 3.23589 
5184 1 9.24074 0.593344 19.4587 -6.32127 -0.0513859 0.611489 -2.70056 
1606 2 7.61717 2.58302 26.3508 -24.8757 0.380572 -0.108662 -1.79365 
5625 1 9.48537 6.38904 24.861 -7.6678 -1.65345 -2.32098 1.28731 
3725 1 12.1736 6.51772 25.1845 -7.72964 1.73664 0.244063 1.04123 
5624 1 9.62633 6.42062 22.0649 -8.60248 -0.775314 -1.3462 -1.14989 
2125 1 6.77455 6.17232 21.7869 -8.04146 -0.877387 3.66203 -1.74756 
2604 1 9.52207 6.5489 19.2404 -8.33635 -0.110711 -1.86365 0.439789 
3724 1 12.1579 5.98106 19.455 -8.7207 -0.564928 1.49734 0.103609 
1224 2 13.592 5.01507 18.1596 -23.8106 3.72618 -1.05122 -0.819012 
3525 1 1.50234 6.64873 24.8927 -8.25985 -2.26729 -0.535449 -0.317114 
544 2 -0.294228 13.6314 17.7124 -24.7084 2.28476 -0.856609 1.34016 
644 2 5.3097 13.5772 17.7903 -24.5893 -0.478158 2.12004 2.31608 
145 2 5.2329 10.8282 20.5247 -24.3148 1.15163 -2.23357 2.71471 
624 2 5.08068 7.60366 18.0166 -24.0153 1.05974 2.16386 -2.68405 
625 2 5.36991 8.25586 23.5522 -23.9996 -6.33904 -4.20932 4.00565 
1044 2 2.68871 10.7021 18.2462 -23.5726 -2.87166 0.96242 -0.54261 
1045 2 2.69109 10.6665 23.498 -25.1465 2.40861 0.510081 1.74701 
1525 2 2.44507 7.69905 20.371 -24.1165 0.752195 0.0455049 2.15611 
2525 1 4.10897 9.17683 25.1464 -7.43445 -0.8166 -0.664952 -0.845764 
3025 1 3.75391 9.19728 22.1243 -7.18412 0.11921 1.20885 -0.0617912 
3544 1 0.857213 11.9238 18.8035 -7.09436 -0.499915 -0.920959 -0.576903 
3545 1 1.43531 12.3625 24.2474 -7.86627 -1.24749 1.06918 0.0940823 
4044 1 4.03884 9.08416 19.2772 -8.59142 -0.784785 0.756762 1.66909 
4525 1 1.1347 10.0302 22.2856 -7.19955 -3.47865 -2.55616 -3.25475 
5024 1 1.0784 9.05758 19.261 -7.89183 1.87312 0.918347 0.247412 
5025 1 1.21828 9.45286 24.7384 -7.5313 -0.279636 -0.859402 2.0561 
5545 1 3.50823 11.6673 25.4418 -6.25349 -0.927117 1.28046 -1.79409 
4545 1 4.09407 12.1739 22.3092 -6.86317 -4.33322 0.241092 2.47576 
1526 2 2.43014 8.13948 26.3739 -24.6103 -0.840608 2.17184 -1.24383 
2045 1 6.42561 9.13985 22.2029 -7.87894 3.8126 4.37735 -4.14401 
3644 1 3.6278 11.9666 19.8102 -8.30169 -1.05808 0.526925 -2.70502 
5045 1 0.765879 12.453 21.3521 -7.29656 -0.960784 1.11179 2.18721 
3645 1 6.11533 12.3336 24.798 -8.01755 2.46768 1.79678 -0.447957 
2145 1 6.27896 12.3657 21.6621 -7.06522 4.50543 0.823382 1.36345 
46 2 -0.178756 10.9194 25.9307 -24.4948 0.87032 -0.240554 1.45807 
525 2 -0.345875 8.0357 23.1 -23.5844 1.55134 2.06286 -0.56506 
545 2 -0.232874 13.3965 23.4616 -23.2695 -0.985638 2.18021 -1.67822 
524 2 -0.346118 7.68944 17.689 -25.0802 -2.05495 1.93537 -0.0256608 
1545 2 2.55095 13.628 21.0132 -24.542 -1.17318 -1.04461 -3.552 
146 2 5.25428 11.0347 26.4131 -25.6028 0.516778 -2.09633 1.16486 
45 2 -0.338694 10.7119 20.5609 -25.1335 -0.0584482 -1.2435 -1.34587 
3625 1 6.705 7.07968 24.7213 -7.87412 2.55545 -2.30871 0.969477 
4124 1 6.90159 6.74844 18.9689 -8.00497 -1.77729 -0.155753 2.44007 
4625 1 9.69852 9.08964 25.1566 -7.25788 0.814869 1.62983 0.874374 
3624 1 6.90403 9.51058 19.6939 -7.57943 -0.419694 -0.805663 1.23029 
5125 1 6.79452 9.63055 24.9849 -7.1874 -1.13596 -0.0558252 1.70778 
2225 1 12.5029 7.07352 22.6729 -7.89813 2.67746 -0.575423 -2.2644 
245 2 10.8537 10.5893 20.5768 -24.4392 2.93096 3.38366 0.385989 
724 2 11.0811 7.54777 18.0974 -23.5494 -0.598785 3.57561 1.31787 
725 2 10.7013 7.65038 23.5767 -24.6272 -0.0983896 2.11429 2.70805 
1144 2 7.94344 10.6204 18.1834 -25.8338 2.62196 -1.37184 -4.57149 
1145 2 7.891 10.6568 23.642 -23.4374 2.88863 1.6931 -2.12781 
1625 2 7.94242 7.9118 20.9504 -23.9675 0.711398 -0.342377 -2.39807 
2245 1 12.6174 12.458 22.3074 -5.77578 -1.17685 -0.999131 -0.0526082 
2624 1 9.73808 9.37766 19.2982 -7.27413 -1.22419 -3.00475 0.566028 
2625 1 9.24805 12.2017 25.0424 -7.90954 -0.946442 -0.564574 -3.93124 
3125 1 8.98752 8.81789 22.6857 -7.76708 0.455654 1.9076 -1.79137 
3744 1 12.2081 12.1667 19.1837 -5.48752 -2.78309 -0.744575 -0.373488 
3745 1 12.1236 12.6719 24.9314 -6.99262 -4.02989 -3.39815 1.20973 
4144 1 6.72203 12.1174 19.1297 -8.23689 -2.28027 1.97659 -0.0247557 
4145 1 9.23177 11.9496 22.1374 -7.93161 -0.438793 -0.965238 0.134979 
4725 1 12.1792 9.90229 22.3145 -6.8212 -2.37345 -2.44133 -1.76883 
5224 1 12.4358 9.16655 19.4581 -7.81774 -0.00608136 -1.30818 0.923503 
5225 1 12.5056 9.8546 25.1139 -6.67764 -2.12383 -1.32469 2.53798 
5645 1 9.42285 11.8982 19.2527 -7.43913 -0.246197 3.11322 2.64829 
246 2 10.8921 10.9833 26.3604 -24.9153 -0.0183711 -0.802843 -0.297401 
1645 2 7.96316 13.3855 20.5841 -24.4283 0.775274 1.84928 0.107137 
1746 2 13.571 13.5184 26.1112 -24.7007 1.93299 2.39877 2.39142 
745 2 10.7729 13.6472 23.5055 -24.6446 3.17096 -1.49049 -0.644422 
744 2 10.3807 13.6251 17.7872 -24.4111 2.64502 -0.347124 2.82514 
1006 2 2.10898 -0.126565 28.9739 -24.2754 2.04321 -0.532089 -0.742573 
2006 1 0.970362 1.05043 27.5855 -7.37737 -2.79139 0.784957 -0.52164 
5005 1 1.09518 4.06624 27.8045 -6.94508 -0.139171 -0.907754 -1.05579 
127 2 5.26576 5.40033 31.8151 -25.4812 -2.44978 -0.315608 0.173176 
606 2 4.99822 2.80644 29.2398 -24.4258 -0.890752 0.437772 -3.29723 
607 2 4.79571 1.9268 34.6596 -24.3014 1.75076 4.65946 -0.666452 
1026 2 2.25333 5.4246 29.3577 -25.3877 -1.79919 -0.682534 -2.06482 
1027 2 2.51635 5.25044 34.8218 -26.2478 -0.0735923 -0.584441 -1.68207 
1507 2 2.2585 2.34006 31.5923 -24.5995 -1.20859 2.01942 0.78426 
2007 1 0.94286 0.96376 33.2393 -7.14198 -1.53865 -0.210101 -0.982682 
2506 1 0.596201 4.1884 30.5072 -7.14524 0.170079 -1.65487 -1.09805 
3006 1 3.9147 4.36144 27.6268 -6.23502 -0.649884 -0.398095 0.851906 
3007 1 3.53636 4.18203 30.5904 -7.75944 1.61622 -1.94943 0.653545 
4006 1 2.85505 2.02079 29.2422 -6.60486 0.194231 0.890694 4.78512 
4507 1 1.25352 3.96842 33.0139 -6.47885 -0.884186 -1.67946 1.50092 
5506 1 3.80379 1.17125 27.3597 -6.57815 -0.182603 -0.681436 -0.659374 
5507 1 3.64512 1.13521 32.8352 -8.07123 1.33472 0.828913 1.14769 
3506 1 0.682397 1.02374 30.3321 -8.79872 0.896842 -0.595961 1.10801 
2507 1 4.05732 4.09932 33.2923 -5.7416 -1.2772 -1.84113 0.824108 
5107 1 6.21202 3.3766 35.7435 -6.09249 2.62741 -1.73128 0.922438 
5106 1 6.54771 3.99746 30.3681 -8.58318 0.24129 -0.346004 0.199075 
3606 1 6.22028 1.24023 30.8517 -8.7725 -0.4136 -0.28208 -1.40802 
2106 1 6.40894 1.35782 27.7667 -7.72145 0.45423 0.0157657 2.52896 
4606 1 6.59795 4.10555 27.609 -7.0568 1.03086 0.393628 1.03704 
4607 1 6.55601 3.89194 32.9915 -7.22289 1.63541 -0.0038983 0.312974 
2107 1 6.56186 0.916925 33.6719 -8.45921 -0.894468 -0.10316 -0.667857 
3627 1 6.15513 6.03993 35.6854 -7.5012 0.997766 1.29878 0.877226 
1707 2 13.3389 2.18846 31.9163 -24.6682 0.429516 0.581714 -0.527566 
4707 1 11.9281 3.75219 33.3703 -7.02857 2.12197 0.218742 0.0778018 
1106 2 7.73514 -0.0230724 29.2158 -24.9528 -1.28817 -3.85178 1.02812 
226 2 11.0055 5.06293 26.5881 -24.3639 0.572228 0.293288 -0.442388 
1107 2 8.15475 -0.241289 34.7549 -24.3138 0.9291 -1.02289 0.79927 
206 2 10.6357 -0.437843 26.469 -25.2189 1.2926 -1.17276 0.204062 
4207 1 11.8553 1.11248 33.0745 -7.21037 -0.462753 -0.454965 1.08674 
227 2 10.8478 5.18241 31.8217 -24.5308 2.64135 -1.00532 2.20547 
706 2 10.5591 2.48188 29.1494 -24.3172 2.82416 -2.20613 -0.389362 
707 2 10.8331 2.39838 34.8875 -24.4696 0.872616 0.601386 -3.31988 
1126 2 7.99252 5.25877 29.2569 -23.5506 -0.174467 0.889768 -0.749299 
1127 2 7.87384 5.14824 34.3957 -23.985 -6.87043 1.87852 5.62731 
1607 2 7.6952 2.36627 32.0839 -23.8136 1.53293 -0.778508 -0.81107 
2206 1 12.4562 0.965472 27.8482 -6.43039 -0.841368 -1.58207 -2.3437 
2606 1 9.60369 3.96638 30.5137 -8.69276 -2.55801 0.274334 -1.62746 
3106 1 9.30854 3.51806 27.53 -8.53137 0.55832 2.01728 0.558401 
3107 1 9.39036 4.49455 33.3974 -7.3894 3.24407 -2.44378 -3.96795 
4106 1 9.26081 1.07243 30.9526 -7.16029 -0.121234 1.59766 -3.82126 
4706 1 12.1837 3.40532 27.7798 -6.49334 -1.24129 1.78769 -0.461255 
5206 1 12.3701 0.346078 30.3365 -6.55179 -1.05042 0.206007 2.83963 
5606 1 9.26289 0.79255 28.0124 -7.84739 1.7129 2.05392 -0.596326 
5607 1 9.15732 1.34888 33.341 -7.31172 0.447788 -0.0703368 3.25075 
3726 1 12.2502 3.49634 30.5305 -7.6529 -0.110468 0.366279 -0.11122 
4627 1 6.75613 6.569 32.9749 -8.16381 1.13364 0.0787879 1.91691 
2226 1 12.5409 6.32716 30.7178 -8.36674 -1.62909 1.78436 0.9152 
5626 1 12.6019 6.09458 27.949 -7.1008 -1.39758 0.423598 -1.16492 
546 2 -0.288672 13.6261 28.9746 -25.2526 -1.67993 1.74292 -2.11738 
647 2 4.94187 13.5814 34.6149 -25.0127 -1.38982 3.41111 -0.40846 
2026 1 1.31073 7.0542 28.0144 -7.22836 2.62088 0.837318 -0.961658 
5526 1 4.13636 7.18086 27.254 -8.00591 -0.288333 0.366248 1.1396 
3646 1 6.04863 12.2754 30.6351 -6.92781 0.925862 2.63849 -1.54111 
4026 1 3.92581 6.72174 30.1792 -7.59885 -1.38436 -0.000216805 0.521032 
2027 1 1.02059 6.67051 33.8005 -6.73499 -0.660357 2.43619 -2.65662 
5527 1 3.74323 6.63426 33.3509 -7.3613 0.877768 1.60447 -0.355332 
2046 1 0.772577 12.8141 26.9916 -7.06068 -1.14399 -1.95566 -0.162645 