ITEM: TIMESTEP
0
ITEM: NUMBER OF ATOMS
6000
ITEM: BOX BOUNDS pp pp pp
-6.1971145901928359e-01 2.7960711459019596e+01
-5.8934523730288291e-01 2.7930345237303229e+01
-2.4135583405482208e+00 1.1177755834054580e+02
ITEM: ATOMS id type x y z c_peratom fx fy fz 
122 2 5.24914 5.09343 2.98633 -24.7444 0.758147 -0.374693 0.410139 
601 2 4.88653 2.14893 0.636882 -25.5345 2.91225 -0.969578 1.99924 
602 2 4.72872 2.63408 5.82551 -23.38 5.51235 -1.96094 2.58218 
1021 2 2.27412 4.99305 0.52597 -25.2718 1.80829 -1.44773 -1.36265 
1022 2 2.48176 5.45826 6.37488 -23.8389 -0.646215 1.04388 0.129592 
1502 2 2.4016 2.11838 3.51246 -23.7677 -1.40228 0.812616 -2.06322 
3601 1 1.31033 3.79326 1.98348 -7.55887 -4.44363 -0.383607 2.91713 
3501 1 3.50857 3.93196 4.81536 -8.10486 -2.3233 1.09261 -4.05034 
3519 1 3.69343 0.696438 -0.961954 -8.48149 -1.13463 -0.558508 -1.01062 
5502 1 3.75324 0.905323 4.8132 -8.68518 0.599192 -0.0347529 -0.687479 
5522 1 3.66951 3.49346 2.04844 -6.87305 2.34971 0.976911 1.286 
2901 1 1.00577 3.05123 -0.694815 -7.76575 0.810865 -0.70883 -0.720798 
5002 1 6.497 3.59754 1.82455 -6.70946 -1.2843 0.0531374 0.231864 
5019 1 5.92606 0.785535 1.93908 -7.00544 2.2885 -1.2884 0.878526 
5020 1 6.40236 1.20476 -0.837773 -7.53151 1.299 -1.20096 -1.512 
2402 1 1.21284 1.39626 5.90688 -7.81305 1.21591 0.882835 -1.08433 
4503 1 0.449039 4.35072 5.36541 -8.23799 1.15421 0.137333 0.0147753 
4020 1 4.0004 3.32208 -0.719186 -7.31829 -2.55215 3.58351 -3.87728 
3402 1 0.577449 0.944341 2.46312 -7.69746 -0.980887 -0.589905 -0.056179 
3540 1 3.09861 6.01928 -1.21681 -7.94489 -0.721957 1.81157 -1.58917 
3002 1 4.5408 6.08106 1.23668 -7.00058 -1.1722 0.434687 -0.796903 
502 2 -0.385568 2.49978 6.8258 -22.993 -0.532156 1.57556 -1.64826 
1501 2 2.38092 2.02682 -2.25724 -24.1385 0.662748 1.35133 -0.242664 
121 2 4.7843 5.13534 -2.24418 -23.5275 1.84356 -2.50597 1.86297 
3401 1 0.173398 6.03545 -0.383514 -7.127 2.87951 -2.78582 -2.78266 
2600 1 3.37044 0.928832 1.83549 -7.59123 -1.6338 -1.9724 0.264159 
1002 2 2.19065 -0.516018 6.61783 -23.6737 0.0108216 -0.487171 -0.923574 
5101 1 5.57714 5.8325 6.81028 -6.79587 0.697657 1.56819 -1.63329 
22 2 -0.0530411 5.24295 3.41588 -23.5935 -0.791128 0.99937 -1.22731 
501 2 -0.595051 2.38639 0.727811 -23.5996 2.28018 -2.33542 2.02764 
2184 1 6.57774 3.92873 4.54133 -7.80016 -1.37966 0.782485 1.05625 
4001 1 6.56503 6.23323 -1.26003 -7.43102 -1.38711 4.50511 -1.91571 
2101 1 6.91588 1.32109 4.64618 -7.74572 -0.945899 -1.98799 1.43619 
4602 1 6.85027 3.89292 -1.00218 -6.324 0.598381 -1.90755 -0.744527 
2201 1 9.00568 1.07954 2.01346 -6.42722 -1.04001 -1.50492 0.477997 
222 2 10.8462 4.97465 3.05844 -25.8333 -0.872716 0.780277 -0.970805 
701 2 10.8635 2.18603 0.474922 -25.3121 -3.88313 5.86473 0.577459 
702 2 11.0901 2.33228 6.00611 -25.2199 1.83198 0.147782 3.10845 
1121 2 8.17515 5.2244 0.197664 -26.3722 -0.546958 -1.38039 1.91239 
1122 2 8.10591 5.32118 5.73474 -24.8737 -0.995315 0.41998 0.624406 
1602 2 8.02743 2.63659 3.30859 -25.8864 0.33295 0.528423 -1.3904 
5602 1 9.13284 3.63955 1.69722 -6.0668 2.05509 0.560463 0.0668725 
221 2 11.0296 5.38885 -1.94199 -23.4268 0.00570052 -2.81271 -0.746107 
5281 1 11.9227 1.47896 -1.28001 -7.95368 4.11387 2.08654 -0.492714 
2782 1 11.6213 0.61506 1.35916 -6.28517 3.0714 -4.74913 2.16894 
2102 1 12.7051 0.972199 4.39265 -7.8239 -0.814968 -1.74509 0.839429 
2800 1 9.24166 0.813768 -0.631124 -7.95017 0.280687 3.23838 -0.987648 
5683 1 10.1457 2.49591 4.28659 -6.16494 -3.20256 1.78406 -5.70951 
3121 1 9.83631 3.79639 -0.723541 -7.51901 -1.03651 0.934277 -1.65068 
5301 1 12.0999 3.26046 2.01076 -7.21796 0.110446 1.58816 0.220927 
2720 1 12.8708 5.99143 2.20439 -7.32549 -1.19237 -1.15751 0.622251 
3101 1 12.5855 3.98445 -0.763186 -7.649 0.228635 0.863753 -0.433629 
1601 2 8.13236 2.44073 -2.12304 -24.9049 -0.513194 -0.127102 -0.754978 
4702 1 8.56722 5.44225 3.55136 -6.65964 0.127074 -1.44968 1.09526 
4121 1 9.83537 6.27073 1.23743 -5.84856 2.7226 -0.459217 1.34151 
3082 1 9.97459 -0.0466031 5.06345 -6.33062 -0.0786277 0.869251 0.753378 
4101 1 9.37715 3.7574 6.36609 -6.41621 -0.629477 -0.755991 0.496765 
201 2 10.7467 0.0288465 -1.99517 -24.2998 -1.17109 -7.82718 -2.14993 
2301 1 12.4291 3.87955 4.79346 -7.86914 1.13922 1.53019 1.04817 
1102 2 7.92277 -0.221615 5.98387 -25.0799 1.7943 -0.195492 2.25266 
1101 2 7.88838 -0.283199 0.644797 -24.8177 -1.99334 -0.578364 0.946697 
5122 1 3.35572 6.90285 4.60215 -7.2073 0.751084 -3.89614 2.10464 
3521 1 0.552695 7.35637 4.15894 -7.08122 -0.543655 -3.24241 1.94746 
4521 1 1.38525 9.79571 4.42115 -7.36472 0.597058 2.66663 4.43328 
2541 1 0.410511 11.459 -0.363501 -6.74318 -2.64369 -1.98597 1.03863 
641 2 4.8529 13.5135 0.850116 -24.0089 2.12782 -0.0419034 -2.77303 
4340 1 6.04273 7.03779 4.00983 -7.43593 0.318281 -1.53056 -2.50708 
5543 1 4.14705 9.5308 4.24771 -6.79547 0.443338 0.377872 3.99446 
4041 1 1.02189 9.12405 -1.23616 -7.25802 -0.473106 -2.61027 -2.27912 
142 2 5.40964 10.4888 2.95984 -23.9825 2.92733 2.5324 -1.40923 
621 2 5.57664 7.94544 0.375592 -24.0553 -1.2289 -1.2422 0.368715 
622 2 5.50368 7.82189 5.83154 -24.0198 -1.91705 1.59306 2.11315 
1041 2 2.08931 11.4563 0.81859 -24.3616 3.61566 -2.3907 1.00004 
1042 2 2.07464 10.7812 6.53545 -23.2282 2.30155 0.599698 -1.68008 
1522 2 2.39718 8.26466 3.36516 -26.1732 0.506487 0.518458 -4.14254 
4522 1 6.40592 12.2476 4.73491 -7.8834 0.0553844 0.585175 -0.813583 
2522 1 0.308063 12.7482 4.99234 -6.98611 -1.44188 -2.03922 2.25192 
3741 1 4.27839 9.00271 1.85965 -6.89072 -0.880547 -0.883711 -2.02025 
3621 1 4.48388 8.64817 -1.73082 -7.94279 0.418899 -1.1906 1.42516 
2142 1 4.00322 12.3474 2.3776 -8.12835 -0.629159 -0.983519 1.32725 
5042 1 1.16088 12.2647 2.77232 -8.03173 2.0576 2.06691 -4.4202 
42 2 -0.173703 10.8995 3.56923 -24.4082 -4.8239 -0.856517 -0.948151 
5121 1 4.08272 11.2344 -0.244045 -6.9319 1.33308 0.139974 -0.285919 
2462 1 2.48482 13.3055 -0.312885 -6.53082 1.94806 0.13419 1.33258 
5040 1 2.5971 12.8129 5.83838 -7.51304 2.49379 0.526587 -0.359934 
2121 1 1.63459 6.65408 1.59417 -6.25803 0.203022 0.875391 3.13344 
542 2 -0.606019 13.6256 6.81807 -24.1211 -2.72388 1.40764 -2.0582 
5022 1 3.19526 8.67815 6.77653 -7.51531 0.723929 1.25388 2.10986 
4421 1 1.31711 9.42153 1.69981 -6.23811 0.335034 2.02452 0.369911 
521 2 -0.498858 7.90786 0.0230261 -24.7659 -0.609836 4.2753 3.29102 
41 2 -0.576359 10.8593 -2.33647 -25.2568 0.0825215 2.721 1.37955 
522 2 -0.604791 7.7117 6.21484 -24.3412 -0.219427 4.46952 -3.47592 
2141 1 0.149026 13.5026 -1.44438 -5.71575 -0.167047 4.96234 -2.71906 
5661 1 12.4442 12.3084 1.75521 -7.14911 1.45601 -0.985876 -1.44943 
2202 1 10.6303 6.89743 4.27583 -5.73551 0.77811 -1.36233 0.835624 
2721 1 12.3854 9.83522 -0.525464 -8.27947 -6.46019 -3.39668 -2.45175 
3581 1 7.13682 6.74867 1.40631 -7.02007 -0.702174 0.66853 0.532815 
4142 1 8.21114 7.45262 5.33676 -6.23348 -1.34619 -0.0466843 3.22121 
4042 1 6.93196 12.1905 1.44941 -7.26412 -1.43788 0.766447 1.72963 
5622 1 6.86879 9.57058 1.47121 -7.51506 -1.49026 -0.660724 -1.47638 
4622 1 7.06545 11.6375 -1.63927 -8.04864 -1.32059 -2.07748 1.94561 
3021 1 9.22927 6.84554 -1.01928 -8.0209 -0.141524 -0.67278 -5.12167 
5201 1 13.0678 7.67512 5.35183 -7.25333 1.01695 -1.19287 0.378281 
5762 1 11.7685 12.5847 4.21835 -6.43035 -1.06411 2.88864 0.0637237 
2602 1 11.9425 8.56116 2.05163 -6.35568 2.22413 2.28369 -0.760763 
3622 1 9.74573 11.986 1.23859 -7.00382 1.53555 -0.153007 2.11103 
3102 1 7.6109 9.72375 4.36003 -6.93679 -2.32031 1.55315 -0.551481 
5641 1 9.3733 8.99618 1.74742 -6.40267 0.364089 1.94444 -0.357955 
242 2 11.5695 10.6554 2.90303 -25.2953 -1.72145 -0.818974 1.84013 
721 2 10.6664 8.26441 0.0273143 -25.1705 -0.23964 -1.4195 4.9149 
722 2 11.1171 8.3077 6.19647 -24.6939 -1.41708 -3.33622 -0.174124 
1141 2 8.27221 10.9078 0.252939 -24.5107 -0.961382 0.0492439 -0.0241436 
1142 2 7.73621 10.9868 6.18553 -24.2698 1.18674 -0.523297 0.93176 
1622 2 8.22542 7.7304 3.19851 -26.8225 1.5983 0.183972 -1.21143 
2621 1 10.002 12.3279 -1.45058 -6.86109 0.432714 1.1853 2.88295 
2122 1 10.6909 9.77354 4.96001 -5.68551 -2.70378 3.56955 -2.96626 
5660 1 9.42208 9.58359 -1.04766 -7.67808 -1.4244 0.90691 -0.854803 
5342 1 9.20782 12.5246 5.49458 -7.27345 -1.74375 -1.32143 -1.33009 
3142 1 12.9139 12.5664 -0.985802 -8.1227 -1.90107 -2.3993 -0.142571 
5501 1 12.0419 7.08471 -1.01329 -7.85478 2.43352 -1.9686 -1.05809 
1642 2 8.42506 13.3001 3.49149 -23.592 -0.420671 0.912747 -0.994134 
241 2 11.426 10.8248 -2.23282 -24.908 -2.35643 -0.76553 -3.46686 
2322 1 13.058 10.4057 4.40478 -5.91239 4.64383 -0.638584 0.809972 
1003 2 2.31227 -0.282058 12.2386 -22.9327 2.0518 -1.15958 1.07242 
4604 1 1.27172 3.04187 10.7962 -8.20533 0.761125 -1.45429 2.50034 
4124 1 4.35397 3.35661 15.782 -7.9223 -2.94714 0.249272 0.188577 
103 2 5.26685 -0.322257 9.32892 -26.0778 -0.163116 -1.87876 -2.93173 
4420 1 3.73739 3.91257 7.20788 -7.545 -1.82005 -1.07959 4.1336 
104 2 5.84689 -0.403025 14.9156 -23.7955 -0.955874 2.45926 0.514359 
2982 1 0.555126 1.2396 8.48641 -8.94183 -1.67324 -1.27131 0.387473 
3903 1 1.02021 1.37393 13.5903 -7.36866 3.16266 -0.457152 -4.75275 
4502 1 3.63693 0.807144 7.74797 -7.59895 -1.02403 1.98543 -0.240692 
2002 1 1.1813 4.07739 8.37377 -7.61384 -1.97358 0.529753 -2.24518 
123 2 5.26101 4.77329 8.94414 -26.1601 3.07593 1.42887 -2.48549 
124 2 5.04738 5.01568 14.5502 -23.9107 2.73273 3.04241 0.266898 
603 2 4.99066 2.20753 12.0982 -22.274 5.30981 -4.47465 -4.02323 
1023 2 2.82335 4.73501 11.7487 -23.3123 -2.34796 4.30036 -3.00687 
1503 2 2.31479 2.36861 9.01508 -23.4595 3.90833 -0.399164 -0.248338 
1504 2 2.34352 2.83819 14.7241 -23.9842 -1.63485 -2.39341 2.59564 
4023 1 2.17217 5.84911 15.5666 -7.19458 1.24424 -0.748891 -1.05688 
4583 1 -0.0324231 5.51077 11.1625 -6.52686 0.470424 1.46918 1.13179 
5584 1 4.048 0.715048 14.0274 -7.88077 -0.150083 0.986178 -2.52631 
2903 1 4.00218 3.54172 13.1552 -9.72309 -3.61991 2.06515 2.77379 
5623 1 4.19012 3.43468 10.2082 -8.65107 -2.76338 0.233206 2.16406 
2502 1 3.71459 0.808169 10.5226 -7.69725 -3.42124 0.917344 2.84993 
5102 1 6.32922 3.21735 7.69635 -6.41812 0.61066 -0.382877 -1.02171 
3523 1 6.16557 0.914327 10.7844 -6.90674 1.63462 -0.619904 2.68178 
2923 1 1.27324 4.28068 13.367 -8.41015 -0.0460489 -0.602165 -0.448841 
4002 1 3.73641 6.3636 9.05372 -6.42349 -0.406228 -0.171435 -1.69303 
2003 1 4.75063 6.00267 12.4194 -6.55593 -4.32116 -2.01849 -0.614904 
2104 1 6.44927 1.14813 16.5084 -6.84552 -0.206717 -1.40161 0.181962 
4 2 -0.226189 -0.516826 15.137 -24.476 -0.232772 2.15949 -0.546388 
5104 1 1.29455 0.935279 16.2034 -6.7116 0.750102 -2.57624 0.754233 
503 2 -0.456337 2.848 12.2598 -24.0786 -0.579761 0.0552882 1.55973 
5924 1 0.638576 3.55585 15.9988 -6.29112 1.98765 0.0114319 0.423473 
24 2 -0.262127 5.3257 14.8859 -26.1179 -0.242693 -1.12805 -0.489379 
1703 2 13.6272 2.23136 9.15977 -23.9704 0.338078 1.5124 -1.72542 
5603 1 12.2434 1.13621 7.4472 -8.02554 3.06615 0.56669 0.0734369 
3104 1 6.9169 3.73455 16.247 -6.51406 1.16003 1.68492 -0.263255 
1103 2 8.33391 -0.192068 12.3648 -23.2291 -0.251599 4.21861 -1.59742 
4723 1 13.4208 6.45085 9.86267 -7.3628 -1.04703 0.270431 0.515901 
2703 1 7.1135 1.31832 13.7281 -8.54163 -0.473997 -2.13559 -1.23139 
2205 1 12.9502 4.03866 16.1395 -5.94048 -1.71633 1.13932 -0.394195 
4102 1 7.13326 0.631119 7.94596 -6.30362 -0.561117 0.886609 -0.243615 
5181 1 12.1295 3.80516 7.99918 -6.94195 1.30009 0.713542 -0.914018 
2682 1 8.77405 1.58891 10.6334 -6.45716 2.63299 -2.07854 2.32916 
2604 1 7.00917 4.1605 13.3694 -7.43598 -4.377 -2.29359 4.11331 
4605 1 9.93102 3.82542 9.56808 -7.12987 -0.583658 -1.46834 2.40354 
4203 1 10.2094 1.01006 13.2268 -8.376 -2.61217 -0.628833 1.95071 
4703 1 7.01471 3.99654 10.3208 -5.98195 -0.165848 -0.900928 1.59152 
223 2 10.868 5.52069 8.94868 -23.6655 1.96404 0.915166 -1.15407 
224 2 10.7983 5.3934 14.6428 -24.8156 1.36679 -0.187591 0.688945 
703 2 11.1576 2.51253 11.9335 -24.5036 1.09549 0.486949 0.757989 
1123 2 7.97004 5.26166 11.9963 -24.307 -1.68876 3.95608 -5.83765 
1603 2 8.36572 2.36584 8.73871 -25.4701 -5.81508 4.37143 1.78291 
1604 2 8.28298 2.70558 14.9018 -23.807 -1.5948 2.46453 -0.399604 
3103 1 9.44035 4.1429 12.8297 -7.66284 5.2347 -3.33728 1.93052 
5704 1 9.66273 1.3917 7.56355 -7.58177 2.58404 -3.40395 -1.41483 
4223 1 11.7528 6.20898 12.7858 -7.90143 0.864636 -0.234282 -1.11716 
3202 1 12.1796 3.48469 13.7564 -6.22284 -3.07486 1.82524 -0.590952 
4022 1 6.93057 6.22328 9.21496 -6.02628 0.851213 3.21375 0.143898 
5722 1 13.2857 3.6597 10.7456 -7.18003 -1.91519 0.456842 0.820642 
4783 1 11.971 0.891987 10.5261 -8.75075 1.11215 1.22753 -0.732346 
5383 1 12.927 1.23805 13.0964 -6.08526 0.299916 0.148826 -0.183058 
203 2 11.0028 -0.00758846 8.84569 -23.7979 -2.72431 -3.03729 0.364596 
5284 1 9.27775 1.49177 16.3092 -8.41104 2.49235 -3.01737 -0.329416 
5202 1 9.68023 4.21236 16.2685 -7.99016 0.148716 -0.620236 -1.02933 
204 2 10.9234 -0.0664665 15.1536 -23.3794 0.427008 0.602959 -0.837913 
3701 1 9.53276 6.11101 7.37381 -6.85319 -0.836987 2.27295 0.837605 
5023 1 1.90714 10.0274 10.6553 -7.9699 -1.31099 -2.18635 -2.09851 
5523 1 0.22911 10.3508 12.9801 -6.72575 -0.853858 -1.04497 -0.165564 
2404 1 0.715725 7.65924 13.5492 -7.28725 1.56448 -1.36858 3.09257 
2922 1 0.667898 9.8671 7.81078 -8.33087 0.69676 -0.624882 0.968495 
3641 1 6.22318 12.2838 7.50855 -8.0726 2.56592 0.293061 -1.54614 
3544 1 4.26036 12.5509 16.0428 -6.37436 -1.04965 1.29924 1.97252 
43 2 -0.404044 10.8209 9.66468 -23.9249 2.77063 0.82296 -3.35513 
3502 1 2.23824 6.9622 11.021 -6.64822 -1.26761 1.61874 0.854077 
2023 1 1.00518 7.013 7.43691 -7.63004 3.16137 -0.327024 0.595205 
523 2 0.140906 8.07065 11.6489 -23.2121 1.06652 -1.06973 0.709558 
4003 1 6.45769 6.62538 15.951 -7.57446 0.895817 -1.58822 -1.09665 
2423 1 3.91025 12.951 10.248 -7.4847 0.594872 -0.733605 4.36333 
2124 1 3.43844 9.65982 13.2231 -7.74486 -0.354379 -1.02735 -0.159899 
3623 1 0.938316 12.6376 14.0538 -7.11959 0.0525834 2.03307 -0.506034 
2123 1 0.5161 12.3881 10.8915 -7.22379 1.9242 1.79333 2.54846 
4122 1 4.40246 7.51745 14.7822 -7.21829 0.14165 -0.0663672 0.368115 
643 2 5.1488 13.6191 12.1269 -22.946 -1.727 2.07775 1.30042 
3603 1 3.55594 12.4015 13.3677 -6.94746 4.39404 1.16992 0.138692 
2523 1 6.52452 9.15077 7.54736 -7.76299 0.121513 0.424694 -1.81309 
5143 1 4.61061 9.07809 10.101 -7.61476 -1.1996 2.06511 -1.43134 
143 2 5.41832 11.37 9.23555 -23.4273 -1.63961 -2.49272 0.331848 
144 2 5.42421 11.0356 15.1983 -24.4397 1.07165 1.79163 -2.37604 
623 2 4.9983 8.4562 12.0538 -24.1464 0.0104954 -2.20863 2.40603 
1043 2 2.12567 11.3394 12.3736 -24.8194 -3.16939 0.150032 -0.0760371 
1523 2 2.50553 8.38624 8.89996 -23.8376 1.20819 -2.11811 1.23723 
1524 2 2.39403 8.28725 14.9538 -24.5574 0.519195 0.155212 -3.08479 
4402 1 0.378051 12.6778 8.51763 -7.73578 1.30118 0.947348 -2.35408 
3524 1 1.43735 10.0727 15.7518 -7.29108 -1.68561 3.64911 -0.0441437 
4143 1 6.17085 13.1064 14.1805 -7.44423 0.958935 -0.291318 -3.13612 
2162 1 6.48209 12.9143 10.4323 -8.88495 -1.68819 -3.3224 5.27267 
4724 1 6.27646 9.82747 13.556 -7.61572 -0.471119 0.0585079 -1.98832 
3522 1 3.66118 11.8584 8.08563 -6.54426 -2.42119 -3.01266 -1.66202 
44 2 -0.290224 11.4947 15.2085 -23.4177 -0.122997 -3.49503 -1.05297 
2144 1 7.86645 12.4607 16.226 -6.80912 -1.36361 1.69924 -0.671309 
3744 1 9.52802 12.6572 14.0464 -7.47948 -0.00300737 -0.197124 -1.27802 
1723 2 13.608 8.41434 8.95111 -22.925 3.37771 -1.69831 0.966816 
3123 1 9.20142 9.34457 13.6604 -7.53859 0.817774 1.45035 0.136967 
4643 1 9.28166 12.995 10.82 -7.10191 -0.179067 -0.421583 0.755744 
1243 2 13.435 10.5335 11.7671 -25.025 0.410651 1.76886 -0.0493788 
2103 1 6.698 7.13916 12.749 -6.84519 1.11438 0.840336 -2.77138 
1643 2 7.84203 13.6405 9.1678 -24.6892 3.88962 4.14695 -4.86429 
4242 1 12.3863 12.2129 10.1459 -8.00922 -0.971828 -2.008 0.276012 
5744 1 12.5137 12.7996 16.1073 -8.19014 -1.78471 -2.51614 1.57421 
3724 1 9.02961 6.7188 13.482 -7.82153 2.53921 -1.7775 0.0821751 
2143 1 12.322 8.97239 13.2976 -7.82992 -0.595198 1.5465 1.25899 
4262 1 12.0516 12.7676 7.3047 -7.81457 4.59491 -4.14674 4.15472 
4623 1 7.30359 9.88774 10.2618 -7.53047 -0.232915 1.95695 0.504558 
3124 1 10.8666 11.5188 12.3353 -7.36344 0.845118 -1.51627 -0.200223 
3225 1 12.5808 9.6759 16.0233 -7.93199 -1.45385 -0.0873313 -0.791653 
2623 1 12.9764 12.4222 13.4991 -7.4114 -0.401356 0.0239624 -0.358678 
5624 1 7.10566 9.74974 16.0296 -7.99748 -0.0462039 -1.89513 1.56193 
244 2 11.061 10.8436 14.5114 -23.849 1.09639 0.99485 -2.79848 
243 2 10.8821 10.7341 9.24395 -23.2437 -1.03974 0.979876 -0.137547 
3742 1 12.7348 9.91874 7.75999 -9.23493 -3.33089 -0.00645432 0.805686 
1143 2 8.59911 11.3164 11.8814 -22.7379 0.966148 -3.40104 1.20896 
1624 2 7.49167 7.83548 14.5115 -24.0453 1.38661 4.31881 1.8838 
4123 1 9.43624 9.31096 7.59394 -8.16515 1.80396 0.29917 1.18732 
5222 1 12.1954 9.00997 10.6001 -7.87162 2.43794 0.845577 -2.16416 
4222 1 9.88444 9.46387 10.9424 -6.82963 -2.91697 5.14322 -2.44342 
5643 1 9.47685 7.13826 10.4631 -7.67153 0.407976 -3.89767 -0.892429 
723 2 10.5192 8.03562 12.3318 -24.7454 0.737731 -0.436154 -0.254208 
5723 1 12.084 6.96558 7.68381 -8.69601 1.13465 0.292872 0.226898 
1623 2 8.16417 8.18659 8.9585 -24.4138 -1.99702 -0.682471 0.761784 
2543 1 9.09034 12.084 8.30403 -7.05197 0.151293 -2.34142 0.266552 
4144 1 12.4929 6.832 15.696 -6.90436 -2.63239 -0.874976 -0.549159 
3703 1 9.8078 6.88015 16.1428 -7.55363 -1.37796 1.13504 1.4765 
5244 1 10.2285 10.3534 16.3404 -8.25326 -1.33446 -0.816755 2.76433 
125 2 4.88976 5.30092 20.0394 -24.061 2.23194 2.46764 1.41351 
604 2 5.20349 2.56474 17.7154 -24.9441 1.73385 0.271961 -1.96131 
605 2 4.98021 2.39094 23.8265 -23.2157 -0.593549 0.638696 0.517704 
1024 2 1.98478 5.81565 17.7556 -24.2723 1.83057 1.99036 -3.39161 
1025 2 2.29924 4.75041 23.0601 -22.4117 1.32727 2.13595 2.97751 
1505 2 2.03825 2.29414 19.7119 -23.3319 3.62259 2.33712 -0.42164 
505 2 -0.38799 2.19898 23.1511 -22.9661 -2.55696 3.59516 1.91832 
3525 1 3.74202 4.09961 24.9854 -7.31224 -0.866152 -1.48707 -2.49125 
3105 1 3.6386 6.01081 21.7042 -7.89753 -1.41816 -0.853078 -0.151555 
3004 1 1.40247 3.19102 21.6113 -9.4365 0.463204 2.02702 1.31295 
5926 1 0.359566 3.77792 24.8238 -8.9258 2.2715 -3.69094 -2.63291 
4925 1 0.867962 0.752741 24.9059 -8.15644 -3.18964 -0.0105193 -0.615343 
2684 1 3.54478 1.30052 18.1545 -7.30734 1.10966 1.13967 -1.56676 
5404 1 3.77205 3.92388 18.9419 -7.74182 -3.25318 -1.91337 -0.155822 
2024 1 1.06848 4.35693 18.8271 -7.68527 -0.261979 -4.19279 2.46464 
4606 1 4.06125 0.623107 23.0513 -6.90475 0.258392 -0.481879 -4.62824 
5504 1 0.495183 1.40729 18.8197 -7.21976 -4.61576 -2.2271 -0.354982 
2485 1 2.47664 0.120434 19.7904 -6.71848 -0.380805 1.25973 5.6221 
4705 1 4.88832 2.95318 21.5735 -7.23356 0.204131 0.908002 1.21041 
4683 1 -0.33063 6.26277 16.7939 -7.00142 0.459738 2.4228 1.63251 
3084 1 6.27239 4.23393 18.6491 -8.21562 3.68826 -0.604761 3.21971 
25 2 -0.00854229 5.04785 20.5637 -24.7521 -4.48361 1.39772 0.131334 
2005 1 6.24724 1.26746 19.5893 -7.98704 -1.92747 -1.11844 -0.279931 
4024 1 5.30664 6.51387 24.2637 -6.61092 -1.28572 -1.19708 -0.533013 
4525 1 0.549798 5.94825 22.6391 -7.75055 0.658609 0.33546 -1.29671 
2505 1 3.29715 1.12561 25.2035 -6.79476 2.21854 2.38618 4.05409 
5085 1 0.409033 0.605327 22.2958 -7.85377 1.14696 -3.47501 -3.17316 
2605 1 6.4983 3.81488 24.4321 -6.96292 0.0443593 -0.619834 -0.550908 
105 2 4.36805 -0.320487 20.7794 -23.2523 3.41096 1.67605 -1.21199 
26 2 -0.598516 5.19013 25.9712 -24.711 -3.80307 1.56584 1.98232 
4105 1 8.59033 3.89129 21.869 -6.64299 -1.55623 0.796768 -0.21249 
1104 2 8.46848 -0.491508 17.6752 -23.8383 -0.308117 2.59805 1.07621 
1224 2 13.5987 5.59861 17.5808 -25.053 -2.7471 -4.36662 0.705056 
3505 1 6.58874 0.842963 24.9988 -8.56244 -0.175249 3.15409 -0.994959 
4004 1 9.21264 1.4256 21.9524 -7.01549 -1.83075 -2.4241 -0.537785 
2283 1 9.96973 6.17784 22.2913 -6.42088 -0.17515 -1.38563 1.91377 
3205 1 11.7827 4.62832 24.9038 -7.31201 1.25449 -1.03926 -1.8643 
225 2 10.9481 5.34595 20.2673 -24.7146 -0.980409 1.63472 1.11763 
705 2 10.8121 2.81151 23.4939 -24.8279 -1.27374 -2.00857 0.502846 
1124 2 8.15294 5.35733 17.77 -24.3898 -1.38473 0.807531 -1.34903 
1125 2 8.1768 5.74349 23.3308 -24.7738 -1.71026 -3.68843 1.33729 
1605 2 7.68103 2.60193 20.1935 -22.7201 3.99545 1.55606 1.8627 
5204 1 11.9441 3.78658 21.4489 -8.40664 0.958199 0.741283 3.01792 
5205 1 12.3109 1.71939 25.0849 -5.35054 -4.62449 2.34864 -3.84602 
704 2 10.8209 2.61513 17.9559 -24.2525 1.47037 -0.186762 -1.18472 
3604 1 12.5112 4.1318 18.8364 -7.86298 -0.463349 -0.0142981 1.75942 
3125 1 9.1742 3.80164 25.0377 -7.04521 1.69978 1.23373 -1.86589 
3165 1 9.55135 1.02072 24.7045 -7.33622 1.01508 1.90047 0.174012 
3185 1 11.7604 0.887526 22.5017 -7.07257 -0.0252565 0.47727 -0.777104 
5283 1 9.24095 1.15907 18.9653 -8.10495 0.343139 0.583355 0.978477 
1205 2 13.4757 -0.238812 23.3144 -24.3067 -0.955444 1.37749 1.75713 
2025 1 9.60075 4.01065 18.983 -8.63834 -2.04268 -0.0800501 0.961806 
1105 2 8.25481 -0.075102 23.4904 -23.7349 -1.11633 -2.48422 1.16519 
2284 1 12.3619 1.45907 19.3902 -7.95688 -1.00533 -2.34027 0.888032 
5324 1 9.06945 6.48197 19.7479 -7.19735 1.91626 -0.80939 -3.30713 
5525 1 6.69051 6.53159 20.9772 -6.79952 -3.36145 -3.70181 2.141 
205 2 10.8327 -0.47913 20.8656 -22.9587 -0.790619 2.32536 0.687821 
1204 2 13.4649 -0.0268111 17.9317 -24.734 2.20289 -1.02572 -1.22476 
1225 2 13.2871 5.29925 23.309 -23.4341 1.43687 1.59115 0.0658535 
2603 1 12.1226 1.28564 16.8223 -7.34335 -4.67767 -1.55479 -2.22716 
4706 1 4.92693 8.78255 21.1642 -7.75733 -0.921238 -0.0305855 -1.51426 
45 2 -0.279 11.4741 20.5487 -23.3224 -0.287011 -1.87518 -0.332867 
3425 1 0.628174 10.0508 18.7769 -7.58036 2.01898 3.24164 1.16758 
525 2 -0.426665 8.08881 23.355 -23.645 -2.28921 -1.65526 1.45727 
2504 1 4.21417 6.60374 18.3936 -7.34223 -2.69285 -0.187193 -0.474397 
5526 1 1.76018 6.59292 24.8951 -7.00018 -0.337663 -4.50373 -3.85353 
4546 1 0.762713 9.19543 22.0883 -7.75503 0.319874 0.503714 -3.14262 
2503 1 1.35743 6.90411 19.4789 -7.5661 1.06902 1.79497 2.48134 
5005 1 3.38363 9.61948 19.0819 -6.85093 1.64945 1.04681 -1.06957 
5524 1 2.50786 10.8529 21.3172 -7.80496 2.19715 2.58453 -1.19384 
5145 1 0.851874 12.7568 22.1741 -7.81249 1.30781 -1.76128 -0.213643 
145 2 5.41433 10.7998 20.3346 -24.3508 -1.47136 2.48744 1.12693 
624 2 5.30626 8.16203 17.2471 -24.273 -0.371872 -1.96543 0.255423 
625 2 5.51952 8.25197 23.1255 -25.4116 2.3128 1.58947 1.5836 
1044 2 2.36959 11.2969 17.8463 -25.1872 1.38017 -1.11101 -1.03874 
1045 2 2.36931 10.8652 23.4227 -23.8779 -3.37844 0.680129 1.16721 
1525 2 2.61376 8.76187 20.7843 -23.7454 -1.06021 -3.21744 0.957229 
3045 1 3.91214 11.8913 24.5215 -8.02188 1.29028 1.40958 2.17138 
3025 1 0.836626 9.51191 24.6042 -7.30245 -0.943865 -2.63629 1.46083 
2045 1 5.20567 12.822 21.203 -6.82101 -1.78235 -0.433917 0.241749 
5946 1 3.50247 9.19099 23.4299 -7.19675 1.53288 -3.37564 -0.359588 
3325 1 1.16195 11.8717 24.8771 -7.49374 -1.25343 3.24507 0.430819 
5223 1 4.07222 12.3616 18.9136 -7.9019 -0.249947 -0.855614 0.729866 
4045 1 6.28757 9.11747 25.0313 -6.2536 -0.529074 2.05224 2.09516 
3625 1 4.39818 9.88141 16.6998 -7.44649 -1.84525 2.08496 -1.58138 
2044 1 1.91832 8.05788 16.9326 -6.89977 -0.408936 -2.46639 3.91832 
524 2 -0.0974933 8.31802 17.8918 -24.8684 -2.60177 -1.87372 0.632432 
5124 1 1.44658 12.6571 19.6177 -7.75999 -4.27535 -1.50846 -4.32828 
1545 2 2.80613 13.3919 20.8994 -24.5521 3.62689 2.95131 2.2222 
5645 1 1.50788 13.1884 16.8188 -7.67235 0.996365 -1.62836 -0.705153 
1244 2 13.5922 11.0719 17.2992 -24.7286 2.82125 -0.994471 1.64059 
2225 1 10.4006 7.00232 25.3832 -7.13816 -1.88301 0.40158 0.825835 
2784 1 11.9399 6.76205 18.6285 -8.0716 -0.730641 -0.337938 0.946648 
3126 1 7.8044 7.78529 22.9662 -6.92289 -0.291012 1.15809 -0.236531 
5305 1 12.0467 9.5504 25.6189 -6.29577 -1.25281 1.51866 -1.70793 
3147 1 7.69153 6.5761 25.4667 -6.85685 -0.0798248 -1.96847 0.177526 
4205 1 12.5246 7.44429 23.9394 -7.1779 2.58984 -0.854379 0.210802 
3005 1 6.65967 10.5307 22.3768 -6.87527 0.0137456 -0.90769 -1.16882 
3725 1 6.80855 9.8214 19.1978 -7.57721 1.99128 -1.42446 -1.45013 
5646 1 9.95886 12.6384 24.2353 -8.77989 -2.16893 -1.29754 3.73845 
3664 1 7.16267 12.4444 18.9394 -7.35597 -0.675211 0.851654 0.178104 
3944 1 12.5641 12.1178 18.8605 -7.43164 -1.37428 2.34769 0.835413 
5224 1 12.5365 9.47124 18.8936 -7.45032 -2.49982 -0.975437 -1.49164 
2725 1 11.8657 7.28901 21.5512 -6.48338 1.38071 -0.842383 -2.33458 
2624 1 9.83994 12.7332 18.7756 -7.4321 -1.17492 -3.84832 -0.721715 
5626 1 9.32752 9.96613 24.7297 -8.31389 0.59832 -0.228619 -0.054916 
1144 2 8.46099 10.9301 17.447 -23.7838 -2.00761 -0.183274 2.87541 
2145 1 9.56914 9.23174 21.8383 -7.84646 0.164267 3.2971 -2.5842 
2245 1 12.906 12.6805 22.3184 -7.90521 -1.41972 2.71002 -1.61905 
5625 1 9.51374 9.33957 18.8687 -9.27279 -0.0431762 0.947254 0.137258 
245 2 10.6171 10.8394 20.1266 -22.8339 4.40547 -1.94245 -3.0837 
725 2 10.5465 8.23691 23.4268 -24.6324 0.491676 -2.23937 0.0753417 
1145 2 8.56357 11.3809 23.1006 -24.4774 -3.328 -1.11199 -0.0731976 
1625 2 7.90157 8.0915 20.4213 -24.8635 0.385418 2.7362 0.0926013 
4245 1 10.0429 12.0374 21.5887 -7.83444 0.199127 2.69879 2.85944 
4726 1 12.8498 10.0006 21.5196 -7.35421 -1.85684 3.27012 3.90954 
3026 1 12.552 12.5516 25.1495 -7.62954 -0.622269 0.401899 -1.64045 
2046 1 6.93277 12.7359 24.7228 -7.19075 -1.01515 -3.221 -0.949494 
3624 1 6.7335 7.21649 18.3619 -6.48508 4.37312 -0.891957 2.0003 
724 2 10.9293 8.34119 17.5096 -23.5783 1.92451 -0.376011 -2.3062 
5225 1 7.76098 13.1968 21.9879 -6.6622 1.36474 0.285956 -0.637613 
1725 2 13.4126 8.31578 20.5816 -24.5481 4.2583 -2.2233 -2.57674 
1726 2 13.6479 8.06979 25.6837 -23.6947 -2.38087 -1.19778 -0.597911 
1007 2 2.46366 -0.402922 35.0795 -24.2924 -2.23712 2.82035 0.0955458 
126 2 5.44979 5.55147 26.1693 -25.6478 -0.955086 -1.68044 -0.501057 
3506 1 0.0680922 0.796706 30.2135 -7.69096 -0.968554 1.27583 2.77225 
1006 2 1.73909 -0.165743 29.1716 -25.6129 -0.334169 -0.327999 -1.17611 
4607 1 5.7905 1.11308 27.9735 -8.26521 0.359559 -0.841401 -0.997519 
106 2 5.06325 -0.150516 26.2478 -23.8484 -1.26465 -2.28537 -0.424992 
3186 1 6.15126 6.47998 28.0331 -7.80747 -0.23517 1.89781 0.906048 
2906 1 3.54382 0.889668 30.6944 -7.78776 -1.57816 -1.04365 1.27792 
1506 2 1.62231 2.26008 26.3377 -24.0434 1.68889 1.08695 1.55468 
2126 1 0.255352 1.18595 27.6529 -6.81279 -2.00287 0.940797 -1.46521 
2027 1 3.69275 5.62659 33.3059 -8.2287 1.09313 2.44823 -0.00517501 
4005 1 3.31549 2.75633 33.8851 -8.03046 -2.55373 0.0627581 -1.41169 
127 2 5.2622 5.24005 31.7111 -23.8771 -0.416152 -2.75957 1.94274 
606 2 5.0483 2.82375 29.0171 -24.1295 -1.94774 0.199852 0.827176 
607 2 4.9712 2.20871 35.0059 -23.1834 1.33352 4.21977 1.55471 
1026 2 2.14005 5.09431 29.2089 -25.1692 2.99231 -2.44918 -0.513441 
1027 2 2.11033 5.03353 34.5961 -24.0358 -0.68971 -0.608809 1.76895 
1507 2 2.06144 2.10809 32.0189 -24.0647 -0.340448 2.16868 -1.43858 
3007 1 0.845638 3.56553 30.6016 -6.43203 -1.03161 -1.05216 -2.67543 
5106 1 6.4156 0.83424 30.8721 -7.2418 -1.99181 0.978347 2.03239 
5586 1 2.50806 1.86769 28.458 -6.44855 2.16344 0.362363 -1.55147 
5087 1 0.346957 0.906132 33.2 -7.52861 1.44717 3.18371 -0.629723 
2125 1 6.46165 3.89628 27.2286 -7.63121 0.732807 -1.34179 1.64826 
4106 1 4.65637 0.245659 34.63 -7.70754 0.769715 -2.99712 -2.85596 
3545 1 3.74079 3.70029 30.7165 -7.59679 0.788252 1.26308 -0.0645984 
5026 1 0.992968 4.45068 27.5526 -7.25032 -1.45837 -1.82535 -1.9056 
4026 1 3.8699 4.50902 27.9335 -6.64545 1.33639 -1.41909 0.750273 
5547 1 6.46919 6.27459 33.4999 -8.61242 -1.28217 1.14579 -0.187827 
5608 1 6.30852 3.40666 33.1249 -6.8898 -0.178829 0.105334 1.04894 
4907 1 1.00014 4.53686 32.7588 -6.5714 -0.0360888 -1.48606 3.072 
2008 1 0.837365 3.39348 35.6306 -8.3328 -2.05956 3.61725 -1.21399 
1606 2 8.0707 2.40896 26.1979 -24.7611 -1.9708 -1.99802 -0.69938 
1106 2 7.53843 -0.15436 29.3924 -24.7085 0.67628 -2.97891 -2.5615 
207 2 11.2158 -0.5019 31.8825 -24.551 -1.88751 1.71025 2.48206 
2606 1 6.67847 3.7863 30.4389 -8.80354 -1.30659 0.855905 -0.733422 
3006 1 8.87343 0.239035 26.9716 -6.52266 -3.53692 1.27067 2.18099 
3606 1 11.1615 0.298555 28.8027 -6.14816 -2.11729 -0.466758 -0.868032 
226 2 10.6753 5.0573 27.0144 -23.9185 -0.403401 0.856543 -3.0695 
4006 1 10.2374 1.75562 31.5108 -7.01194 2.24895 -0.433026 -0.400632 
2128 1 8.44222 1.77595 29.5324 -6.58671 0.841592 -0.468968 -0.934899 
5186 1 9.44146 4.10752 33.0196 -7.07202 -2.96835 -1.69392 0.521202 
4126 1 12.3281 4.01539 30.6372 -7.69631 -0.670047 0.166168 0.000983149 
4787 1 12.6014 0.656406 33.1652 -6.84956 0.83548 1.02279 -0.722359 
2207 1 11.8697 3.81824 33.768 -6.70927 -2.51222 -0.727124 -4.5335 
5606 1 9.21486 3.31331 27.6829 -6.79345 2.19044 1.99744 -1.7212 
227 2 11.0178 5.11406 32.0076 -24.7828 0.183298 0.945455 0.519937 
706 2 10.804 2.63609 29.2946 -25.5509 0.255291 -4.50938 0.505119 
707 2 10.0985 2.61454 34.9261 -24.3333 3.83801 -1.08524 -2.94991 
1126 2 7.57471 5.32711 29.1908 -23.2069 3.125 -1.62397 -2.28799 
1127 2 7.44968 5.13668 34.9808 -22.832 3.47551 0.601067 -2.17239 
1607 2 8.15682 2.34516 31.5669 -25.2131 -1.53311 0.645912 2.81936 
5607 1 9.69986 4.3452 29.7496 -7.27836 -0.735464 4.24692 2.85673 
4186 1 13.0302 0.567383 26.9438 -6.84387 0.781859 -3.77633 1.83824 
2706 1 12.8205 1.56519 30.031 -6.97702 0.388725 -1.64099 -1.83859 
4786 1 12.0786 3.4625 27.6603 -7.79529 -0.567869 0.466528 0.910707 
1206 2 13.4674 -0.290137 28.773 -24.0411 -0.457592 -1.3927 3.51667 
206 2 10.7448 -0.381521 26.4143 -25.4372 1.78755 1.18415 -2.12245 
1107 2 7.58471 -0.108568 35.0563 -23.5436 1.2974 -2.43348 -0.121115 
3288 1 8.44789 1.2911 33.6155 -7.60638 -0.29268 0.715242 0.681756 
1227 2 13.0295 5.03361 34.9709 -24.1237 5.31667 0.210045 0.38673 
1707 2 13.6133 2.56256 31.6208 -24.2453 1.86338 1.51836 4.86549 
3547 1 0.0456916 12.5016 32.891 -5.76234 -0.946521 -0.321439 1.86185 