LAMMPS data file via write_data, version 11 Aug 2017, timestep = 3800000

8020 atoms
8 atom types
4857 bonds
5 bond types
7926 angles
6 angle types
3843 dihedrals
2 dihedral types

-8.3596742739699081e-01 5.5562582575904102e+01 xlo xhi
-8.3596742739699081e-01 5.5562582575904102e+01 ylo yhi
-8.3596742739699081e-01 5.5562582575904102e+01 zlo zhi

Masses

1 30.9738
2 32.066
3 30.9738
4 32.066
5 32.066
6 30.9738
7 32.066
8 6.941

Bond Coeffs # class2

1 2.058 181.497 58.1043 40.2771
2 2.06993 161.072 21.6278 556.095
3 2.28618 78.2615 18.8148 284.987
4 2.09744 121.563 6.356 644.743
5 2.31455 157.603 150.088 143.735

Angle Coeffs # class2

1 104.305 32.4491 48.6496 183.885
2 115.313 42.4781 63.8853 431.709
3 116.46 85.0402 10.9476 474.391
4 114.173 51.6291 11.6247 45.6632
5 105.522 35.6433 9.12177 99.6474
6 109.46 48.2328 17.9674 192.083

BondBond Coeffs

1 5.15375 2.26144 2.05203
2 10.4361 1.96742 2.07272
3 95.1087 2.09524 2.12546
4 21.473 2.06174 2.02696
5 11.4089 2.07712 2.13569
6 30.5069 2.17645 2.18138

BondAngle Coeffs

1 4.69868 26.746 2.26144 2.05203
2 43.8527 53.6314 1.96742 2.07272
3 50.5195 59.567 2.09524 2.12546
4 21.3283 20.088 2.06174 2.02696
5 17.8438 24.848 2.07712 2.13569
6 16.9159 23.001 2.17645 2.18138

Dihedral Coeffs # class2

1 0 0 0 0 0 0
2 0.638244 195.783 0.757404 103.391 0.458612 133.865

AngleAngleTorsion Coeffs

1 0 0 0
2 0 0 0

EndBondTorsion Coeffs

1 0 0 0 0 0 0 0 0
2 0 0 0 0 0 0 0 0

MiddleBondTorsion Coeffs

1 0 0 0 0
2 0 0 0 0

BondBond13 Coeffs

1 0 0 0
2 0 0 0

AngleTorsion Coeffs

1 0 0 0 0 0 0 0 0
2 0 0 0 0 0 0 0 0

Atoms # full

4060 2983 4 -5.3452554465310598e-01 2.0405685764086137e+00 3.5127756905032568e+00 2.6038060590343473e+00 1 1 1
4059 2983 3 5.5465100000000001e-01 1.5511320364003374e+00 2.3169113842941393e+00 1.1002998543965432e+00 1 1 1
1483 2696 4 -5.3452554465310598e-01 4.7709649590525123e+00 6.5865692089841010e+00 2.7202339702714120e+00 -1 1 0
2476 2807 4 -5.3452554465310598e-01 5.1695056050294657e+00 2.3886424969292244e+00 4.1972147531385087e+00 0 1 1
4062 2983 5 -3.4214873208136398e-01 1.1976406250492881e+00 5.1814866200820431e-01 2.0728301554010242e+00 1 1 1
7844 2345 8 6.0999999999999999e-01 4.4174150225335014e+00 1.8038445015105813e+00 6.5201803114043235e+00 1 1 -3
3388 2908 3 5.5465100000000001e-01 1.3422705858034032e+00 6.4013286953637838e+00 6.5924881851480892e+00 1 0 -1
3389 2908 4 -5.3452554465310598e-01 3.4104316593056465e+00 6.2106432140947403e+00 5.9836641357236831e+00 1 0 -1
3896 2964 4 -5.3452554465310598e-01 -5.6443668163470018e-02 7.4165609013856102e+00 1.7446482903159173e+00 1 2 0
3390 2908 4 -5.3452554465310598e-01 1.1737003235040577e-01 5.1678847991236925e+00 5.6229488870351183e+00 1 0 -1
4066 2983 4 -5.3452554465310598e-01 3.2289454448385380e+00 2.1450561419084702e+00 -1.0190358892184592e-01 1 1 1
7961 2462 8 6.0999999999999999e-01 2.3081263347670422e+00 6.1527209756331445e+00 2.0876990557976303e+00 2 0 -2
5590 91 8 6.0999999999999999e-01 4.8813127182465292e+00 4.7999225158549850e+00 4.7416373588003884e+00 -1 2 3
5772 273 8 6.0999999999999999e-01 2.4656884896999243e-01 3.0003527019731941e+00 4.5186770945585133e+00 1 -2 3
5576 77 8 6.0999999999999999e-01 4.9417053376729987e+00 9.5535798895293733e-01 1.4919821541401226e+00 -1 3 -1
2481 2807 4 -5.3452554465310598e-01 6.0522694609106633e+00 3.9945536744509589e+00 6.9852975414149485e+00 0 1 1
3202 2887 4 -5.3452554465310598e-01 9.3351973557149037e+00 8.0798198199885931e+00 8.5125076149141119e+00 0 0 1
3894 2964 4 -5.3452554465310598e-01 2.4408555339888265e+00 6.2198301338465480e+00 -1.1136139895086761e-01 1 2 0
7858 2359 8 6.0999999999999999e-01 3.2016271627031023e-01 1.8913299655355802e+00 7.9469622989916306e+00 2 4 1
3892 2964 3 5.5465100000000001e-01 7.1751256661002616e-01 7.3569479162305740e+00 -1.0452024583397390e-01 1 2 0
4848 3070 4 -5.3452554465310598e-01 2.5438802344561764e+00 2.8300642944073422e+00 7.8698209684733929e+00 1 0 0
3196 2887 4 -5.3452554465310598e-01 5.9960244916995613e+00 8.1029509797780914e+00 7.9480393511661269e+00 0 0 1
6695 1196 8 6.0999999999999999e-01 1.3022604236693022e+01 5.3229785653855082e+00 9.6558517531217758e-01 1 0 0
7941 2442 8 6.0999999999999999e-01 5.0264652587081757e+00 5.8530653845634921e+00 7.9418821666120838e+00 -3 1 1
3632 2935 4 -5.3452554465310598e-01 1.0980518052055531e+01 3.8005560679941652e-01 8.4525784793063217e+00 0 0 1
6960 1461 8 6.0999999999999999e-01 6.0328338041225029e+00 4.9273467390158290e+00 4.3705285084981527e-01 0 0 1
3392 2908 4 -5.3452554465310598e-01 7.9496448129650643e-01 6.9873399750236320e+00 8.4715918523905760e+00 1 0 -1
875 2629 4 -5.3452554465310598e-01 6.1841542669010074e-01 8.0765276775571126e-01 5.4570213871309914e+00 1 1 -1
1169 2661 4 -5.3452554465310598e-01 1.2778230654846805e+01 1.2454838085558726e+00 8.6890047859185304e-02 0 1 1
5785 286 8 6.0999999999999999e-01 9.3550083759184997e+00 7.5567361256674719e+00 -3.2166033963038154e-01 -1 1 0
5733 234 8 6.0999999999999999e-01 1.2346381954885302e+01 7.2767381843133112e+00 8.3819760358718653e+00 0 -1 1
3219 2889 4 -5.3452554465310598e-01 1.1020523127516778e+01 6.4644256469143340e+00 2.6389846742141381e+00 0 0 1
1478 2696 4 -5.3452554465310598e-01 7.6972994852508716e+00 6.5646216449693062e+00 1.0448442995254745e+00 -1 1 0
1476 2696 3 5.5465100000000001e-01 6.5548306638161620e+00 7.3386768847644621e+00 2.5957368990696730e+00 -1 1 0
1167 2661 4 -5.3452554465310598e-01 9.6066102817756462e+00 1.2953051141419545e+00 -6.4296253923809910e-01 0 1 1
1161 2661 3 5.5465100000000001e-01 1.2553141492160867e+01 2.5027903091016643e+00 3.6970915691181734e+00 0 1 1
2482 2807 4 -5.3452554465310598e-01 7.0822826795820060e+00 2.9922206661656356e+00 1.3858680603516054e+00 0 1 1
3277 2896 4 -5.3452554465310598e-01 6.3961000013733988e+00 -3.8034647807402366e-01 1.1965872425006241e-02 1 0 0
6934 1435 8 6.0999999999999999e-01 9.1399012961285546e+00 6.5304077734587205e+00 6.1632815003662520e+00 -3 1 -1
2479 2807 3 5.5465100000000001e-01 7.9121383349020142e+00 3.2545884263892866e+00 6.8813272951908768e+00 0 1 1
2483 2807 4 -5.3452554465310598e-01 9.3434377190347586e+00 4.3804300186642786e+00 7.8882402291454667e+00 0 1 1
2475 2807 3 5.5465100000000001e-01 7.0255881013556394e+00 2.3571992482795774e+00 3.3135928609632757e+00 0 1 1
6628 1129 8 6.0999999999999999e-01 1.1423943980352705e+01 3.0359118749994183e+00 7.8673515049165701e+00 1 -1 -1
2478 2807 5 -3.4214873208136398e-01 8.3052093586927569e+00 3.4305911131546729e+00 4.6258757587801504e+00 0 1 1
1168 2661 4 -5.3452554465310598e-01 1.1450633138855926e+01 2.4412969156165834e+00 5.4943256687527198e+00 0 1 1
2480 2807 4 -5.3452554465310598e-01 7.8297923970759769e+00 1.2232813885736324e+00 7.2324249200355215e+00 0 1 1
1165 2661 3 5.5465100000000001e-01 1.1024866121298009e+01 2.2560466833665087e+00 4.3171631393697041e-01 0 1 1
1166 2661 4 -5.3452554465310598e-01 1.0999271210758614e+01 4.2431658267371875e+00 -1.0472488792226986e-01 0 1 1
3218 2889 4 -5.3452554465310598e-01 1.1573690074713813e+01 6.4668375287175133e+00 6.0623651152280305e+00 0 0 1
1164 2661 5 -3.4214873208136398e-01 1.0774949905292203e+01 2.2237732796703598e+00 2.5843168610172014e+00 0 1 1
2477 2807 4 -5.3452554465310598e-01 7.8636191027611755e+00 4.4520400413826966e-01 3.5965668318098487e+00 0 1 1
1477 2696 4 -5.3452554465310598e-01 7.5716935934354357e+00 6.7656076144220298e+00 4.3366158109014679e+00 -1 1 0
6309 810 8 6.0999999999999999e-01 9.4497402620339734e+00 1.2586646410542968e+00 5.1553614721273098e+00 1 0 -1
7929 2430 8 6.0999999999999999e-01 8.5174007616187364e+00 -1.9837219644139559e-01 1.2797918322611688e+00 -4 2 2
3217 2889 3 5.5465100000000001e-01 1.1383682598168207e+01 7.5781574049163005e+00 4.2886760906968266e+00 0 0 1
6892 1393 8 6.0999999999999999e-01 9.6986328079577682e+00 4.5492638431062984e+00 2.7371710563639264e+00 -3 1 1
4061 2983 4 -5.3452554465310598e-01 -7.1892465720927445e-02 3.1013886120052856e+00 1.2584927230991372e-01 1 1 1
6525 1026 8 6.0999999999999999e-01 4.9484762182332336e+00 8.2798878752113154e+00 5.6407237135191934e+00 -1 -2 -2
3387 2908 5 -3.4214873208136398e-01 9.2435970755900199e-01 8.2675605316927516e+00 5.3322635628581603e+00 1 0 -1
4844 3070 4 -5.3452554465310598e-01 4.5610256959160838e+00 -4.7275003935811705e-01 7.6186988907214204e+00 1 0 0
1235 2669 4 -5.3452554465310598e-01 3.8709648669670305e+00 1.2552321523588867e+00 1.4218501421628440e+01 0 0 -1
4846 3070 3 5.5465100000000001e-01 3.4721262048557824e+00 3.0421733973436997e+00 9.8415478147445405e+00 1 0 0
4845 3070 5 -3.4214873208136398e-01 5.2082320877713260e+00 1.6914909632871851e+00 9.8885501819732458e+00 1 0 0
4847 3070 4 -5.3452554465310598e-01 2.3344935733408860e+00 2.5630383912288606e+00 1.1482962663610131e+01 1 0 0
4850 3070 4 -5.3452554465310598e-01 4.3534369572058962e+00 4.8520822069601186e+00 1.0190711514308177e+01 1 0 0
3079 2874 4 -5.3452554465310598e-01 1.3815626782659960e+00 6.5487412215367566e+00 1.2912053336195372e+01 0 0 0
6457 958 8 6.0999999999999999e-01 2.9927650146656983e+00 3.6711147837274138e+00 1.3514408819334554e+01 -1 1 1
3083 2874 4 -5.3452554465310598e-01 3.4785195376524527e+00 6.3740573365321405e+00 1.6672991402400978e+01 0 0 0
3081 2874 5 -3.4214873208136398e-01 2.1309326459645073e-01 7.0617680634355127e+00 1.5985041469421564e+01 0 0 0
3084 2874 4 -5.3452554465310598e-01 1.3851340759560986e+00 4.0204910788647439e+00 1.5394725437363888e+01 0 0 0
3082 2874 3 5.5465100000000001e-01 1.7032540283671662e+00 5.5030442570807141e+00 1.6683222574275320e+01 0 0 0
6100 601 8 6.0999999999999999e-01 9.0184590097169393e-01 1.7943219827161805e+00 1.5892580738914585e+01 1 3 0
3203 2887 4 -5.3452554465310598e-01 5.1662841514590596e+00 7.6460705048750608e+00 1.2833388124945971e+01 0 0 1
1240 2669 4 -5.3452554465310598e-01 5.8176429410575574e+00 3.7502538364263316e+00 1.2895156882088298e+01 0 0 -1
367 2567 2 -6.0722533333333295e-01 7.7098113265346546e-01 -2.9950613035925044e-01 1.4896921596990278e+01 0 0 0
6284 785 8 6.0999999999999999e-01 -7.3093559825764398e-01 5.0145196830348446e+00 1.1987414374522679e+01 1 -3 1
876 2629 5 -3.4214873208136398e-01 -8.3596873327139609e-02 -4.2125883782191798e-01 8.7601881932104249e+00 1 1 -1
6633 1134 8 6.0999999999999999e-01 1.2487686326144911e+00 3.3822935619558581e-01 1.2230192125165750e+01 -1 3 5
4849 3070 4 -5.3452554465310598e-01 3.0263885670686452e+00 -7.9327542981118837e-01 1.0697686605524531e+01 1 0 0
7434 1935 8 6.0999999999999999e-01 2.7964571854445857e+00 7.1433096388680379e+00 1.0891667341449189e+01 1 -4 0
364 2567 2 -6.0722533333333295e-01 -8.0539564886304371e-01 1.1316878065180944e+00 1.7596925906028279e+01 0 0 0
1233 2669 3 5.5465100000000001e-01 5.6163546656614596e+00 2.2556586197832744e+00 1.4403800141289008e+01 0 0 -1
1370 2684 4 -5.3452554465310598e-01 1.2259206470195515e+01 6.8184770164542430e+00 1.0992533848635960e+01 -1 1 1
362 2567 1 6.0167599999999999e-01 -4.7718546603825029e-01 -5.9050859167247904e-01 1.6606215798261644e+01 0 0 0
4842 3070 3 5.5465100000000001e-01 4.6447137094047921e+00 -3.3822212605528368e-01 9.6876864131644549e+00 1 0 0
6735 1236 8 6.0999999999999999e-01 1.2073252317062011e+01 3.1973242478581776e+00 1.4843946526573175e+01 -1 0 1
1373 2684 4 -5.3452554465310598e-01 1.1306438041067052e+01 5.6049072845069112e+00 1.5665075760751694e+01 -1 1 1
7878 2379 8 6.0999999999999999e-01 6.6352913730858081e+00 5.8964058399685104e+00 1.2983541544368817e+01 1 -2 3
1375 2684 4 -5.3452554465310598e-01 1.2039685107600105e+01 3.5361184844181803e+00 1.0183801518474242e+01 -1 1 1
5126 3101 4 -5.3452554465310598e-01 8.8920469762976939e+00 8.7174882461595882e-02 1.7589010079592665e+01 -1 1 0
7798 2299 8 6.0999999999999999e-01 6.6129548666718181e+00 3.0880732574795138e+00 1.0808777951551464e+01 -1 1 0
1237 2669 3 5.5465100000000001e-01 9.0097011401831750e+00 1.1207965573657424e+00 1.3031269450693708e+01 0 0 -1
3078 2874 3 5.5465100000000001e-01 6.9200589786318734e-01 8.1092093871899635e+00 1.4098694686191203e+01 0 0 0
6723 1224 8 6.0999999999999999e-01 8.1373380382331568e+00 8.4017726317269004e-02 9.3511618209094731e+00 0 -2 1
1238 2669 4 -5.3452554465310598e-01 8.9338536373972950e+00 2.0464463535251469e+00 1.1201646054644399e+01 0 0 -1
1374 2684 4 -5.3452554465310598e-01 8.0360461729841859e+00 6.0418740627758885e+00 1.5018231248809617e+01 -1 1 1
7664 2165 8 6.0999999999999999e-01 6.2631135391570263e+00 5.6736431874473530e+00 1.6797943458378551e+01 -2 4 6
1241 2669 4 -5.3452554465310598e-01 1.0018415662849783e+01 2.1540054707363088e+00 1.4453748594384034e+01 0 0 -1
3197 2887 4 -5.3452554465310598e-01 7.4310954017747459e+00 6.1420667999146037e+00 1.0351381775386391e+01 0 0 1
7875 2376 8 6.0999999999999999e-01 9.7096496109112422e+00 5.6767124961257638e+00 1.0020312356528686e+01 1 1 2
1234 2669 4 -5.3452554465310598e-01 5.9940358037676003e+00 2.8504639791591884e+00 1.6296526578670157e+01 0 0 -1
7430 1931 8 6.0999999999999999e-01 8.9498559886352673e+00 2.3574389339585067e+00 1.6742454524631039e+01 -3 -2 -1
1371 2684 5 -3.4214873208136398e-01 1.0157445729555103e+01 5.1499387682976261e+00 1.2666946847029559e+01 -1 1 1
1372 2684 3 5.5465100000000001e-01 1.0033828402531515e+01 6.3963663354327291e+00 1.4436175596533916e+01 -1 1 1
1368 2684 3 5.5465100000000001e-01 1.2220441369328324e+01 4.9969083958389682e+00 1.1651904406326841e+01 -1 1 1
3195 2887 3 5.5465100000000001e-01 7.4537491358804768e+00 7.8807835707050824e+00 9.2945386137937334e+00 0 0 1
1236 2669 5 -3.4214873208136398e-01 7.0873308892319224e+00 5.7883337756314290e-01 1.3654862820223435e+01 0 0 -1
1239 2669 4 -5.3452554465310598e-01 9.7645773687953792e+00 -7.6106751699654529e-01 1.2492106235003126e+01 0 0 -1
5799 300 8 6.0999999999999999e-01 1.1119466713537118e+01 1.4188379337672301e+00 1.0954178228474341e+01 1 0 2
1376 2684 4 -5.3452554465310598e-01 1.0387247066392037e+01 8.3378379583708089e+00 1.3925275818074649e+01 -1 1 1
203 2547 2 -6.0722533333333295e-01 2.9046903243594935e-01 4.9864954174193246e+00 2.3498341779031993e+01 -1 0 0
202 2547 1 6.0167599999999999e-01 1.3772767019341148e-01 2.9415893698118847e+00 2.3178998957168123e+01 -1 0 0
205 2547 2 -6.0722533333333295e-01 2.6077073357004887e+00 4.5119955586630778e-01 2.4202999721038996e+01 -1 0 0
201 2547 1 6.0167599999999999e-01 1.0557096583290855e+00 1.7385240939622864e+00 2.4942820913890866e+01 -1 0 0
3920 2967 4 -5.3452554465310598e-01 4.1854322578649281e+00 4.4922129275126563e+00 2.0562986762520836e+01 1 0 1
204 2547 2 -6.0722533333333295e-01 1.3060708646773014e+00 2.5183426944313205e+00 2.1452782225636078e+01 -1 0 0
208 2547 2 -6.0722533333333295e-01 2.0306623808582409e+00 3.0228515313544744e+00 2.6210594389933888e+01 -1 0 0
4223 3001 4 -5.3452554465310598e-01 2.4015218488396290e+00 6.9888900138525090e+00 2.5398288568142522e+01 1 -1 -1
6833 1334 8 6.0999999999999999e-01 2.1545064957917193e+00 5.1758354299924418e+00 2.1785192126169157e+01 -1 3 1
5980 481 8 6.0999999999999999e-01 2.0030873721604148e-01 7.1679588749948806e+00 2.4328982509384492e+01 0 0 -2
4222 3001 4 -5.3452554465310598e-01 2.4731636190007542e+00 7.4107481060580920e+00 2.2071561667460809e+01 1 -1 -1
3086 2874 4 -5.3452554465310598e-01 1.0997897221844390e+00 5.3801969925552786e+00 1.8662679309041515e+01 0 0 0
3923 2967 4 -5.3452554465310598e-01 3.8950457879513687e+00 1.3102735988865715e+00 1.9068641741357947e+01 1 0 1
3919 2967 3 5.5465100000000001e-01 4.9310329115736264e+00 2.7053911525692333e+00 2.0197656071942429e+01 1 0 1
206 2547 2 -6.0722533333333295e-01 -4.4858392161750371e-01 6.8888359581778991e-01 2.5921737045232298e+01 -1 0 0
4221 3001 3 5.5465100000000001e-01 3.4416903366398364e+00 7.5880730634941305e+00 2.3753523808643795e+01 1 -1 -1
4228 3001 4 -5.3452554465310598e-01 5.3597513449245140e+00 7.0385815601894324e+00 2.3789863860611653e+01 1 -1 -1
6694 1195 8 6.0999999999999999e-01 3.5005927283122613e+00 3.7217486933835642e-01 2.1400214595602989e+01 -1 1 -3
283 2557 2 -6.0722533333333295e-01 6.3178074453503639e+00 1.4290760959031545e+00 2.5964823053427192e+01 0 1 -1
6817 1318 8 6.0999999999999999e-01 3.1763546558650981e+00 5.1083052965380533e+00 2.6970278011767554e+01 -3 3 2
3921 2967 4 -5.3452554465310598e-01 5.5418772465151624e+00 1.6623683819977639e+00 2.1837390419054906e+01 1 0 1
6587 1088 8 6.0999999999999999e-01 2.7139126809954872e+00 7.2889807694989024e+00 1.8835114929967659e+01 1 -1 -1
5776 277 8 6.0999999999999999e-01 -3.2357000055773311e-01 3.2677050270614947e+00 1.8815881544126700e+01 0 -3 1
284 2557 2 -6.0722533333333295e-01 5.6600635401574415e+00 4.6844620574836364e+00 2.7075601878709485e+01 0 1 -1
7705 2206 8 6.0999999999999999e-01 3.9332465530790595e+00 1.3912244118240102e+00 2.6340471840987160e+01 1 0 0
3688 2941 4 -5.3452554465310598e-01 1.1319253332122583e+01 -3.5075245348987966e-01 2.6204013994757922e+01 0 1 -1
7377 1878 8 6.0999999999999999e-01 6.3813294303958541e+00 -2.0604370564148988e-02 2.4066082213286339e+01 1 2 2
4831 3068 4 -5.3452554465310598e-01 1.1571491365143382e+01 6.9346666613307084e+00 2.7186675886452822e+01 1 -1 0
6506 1007 8 6.0999999999999999e-01 -8.9429892942168632e-02 3.0305044963982719e-01 2.0909047087075308e+01 -1 -1 2
3685 2941 3 5.5465100000000001e-01 1.0008133326752333e+01 -2.3465957299040552e-01 2.2088562948404469e+01 0 1 -1
3922 2967 4 -5.3452554465310598e-01 9.6375623905827208e+00 3.5831021386411255e+00 1.9071333979017076e+01 1 0 1
3918 2967 5 -3.4214873208136398e-01 6.8662429974818266e+00 2.8147678121385113e+00 1.9176230378980062e+01 1 0 1
5509 10 8 6.0999999999999999e-01 6.0503784452860696e+00 6.5573342200480971e+00 2.1357436067450315e+01 0 -1 0
5285 3121 6 5.4641600000000001e-01 1.3242690505841891e+01 6.0611287711520223e+00 2.0564571833185219e+01 1 1 0
2357 2793 4 -5.3452554465310598e-01 1.2031963378352437e+01 3.6971061126644660e+00 2.4891505762812045e+01 0 2 0
6894 1395 8 6.0999999999999999e-01 8.4515871455495102e+00 1.0840914728852122e+00 2.0169009643360777e+01 4 -3 -1
6810 1311 8 6.0999999999999999e-01 1.1410580965904675e+01 1.2499169190502157e+00 2.4391082968356866e+01 0 1 2
7623 2124 8 6.0999999999999999e-01 1.1130200166745759e+01 4.6493461267390224e+00 2.2974417936010774e+01 1 -1 2
4825 3068 4 -5.3452554465310598e-01 1.0075856152496760e+01 6.8390077448811315e+00 2.4197595298825615e+01 1 -1 0
3917 2967 4 -5.3452554465310598e-01 7.7452726123676818e+00 6.2919661538431075e+00 1.8588445092692620e+01 1 0 1
5287 3121 7 -5.9410399999999997e-01 1.1274850009667079e+01 6.9592117449414754e+00 2.0431082964243913e+01 1 1 0
282 2557 1 6.0167599999999999e-01 7.1196886004067377e+00 3.2056939002262581e+00 2.6597600982767649e+01 0 1 -1
3916 2967 4 -5.3452554465310598e-01 7.8082894686703366e+00 4.8058576117923009e+00 2.1831444374883496e+01 1 0 1
6772 1273 8 6.0999999999999999e-01 1.0639650700052519e+01 4.7967248663582716e+00 2.6385769883071088e+01 3 1 2
6515 1016 8 6.0999999999999999e-01 7.3129082172930922e+00 6.4737216841309468e+00 2.5245152132080701e+01 5 3 0
3686 2941 4 -5.3452554465310598e-01 9.3223468120227295e+00 1.0830249119495157e+00 2.3537614109117165e+01 0 1 -1
4824 3068 3 5.5465100000000001e-01 1.0028549978316544e+01 7.5906096075559137e+00 2.6128175677803195e+01 1 -1 0
5525 26 8 6.0999999999999999e-01 7.1265122717139029e+00 2.8792357289718811e+00 2.3254006118717321e+01 0 5 3
3689 2941 4 -5.3452554465310598e-01 1.0874217390983921e+01 8.9252869503841170e-01 2.0752174520686911e+01 0 1 -1
6619 1120 8 6.0999999999999999e-01 1.2310229103288362e+01 2.4818637994412609e+00 1.9635286612398016e+01 1 2 2
4826 3068 4 -5.3452554465310598e-01 8.2368883778775750e+00 7.5046315360374898e+00 2.7018695824074872e+01 1 -1 0
287 2557 2 -6.0722533333333295e-01 8.3485687538676476e+00 4.0320873057790019e+00 2.5102334898214849e+01 0 1 -1
3915 2967 3 5.5465100000000001e-01 7.9450685632552052e+00 4.6171859645018172e+00 1.9698752849616586e+01 1 0 1
7250 1751 8 6.0999999999999999e-01 1.0435909442109137e+01 6.1672019792147026e+00 1.8463051053805479e+01 -2 0 0
6850 1351 8 6.0999999999999999e-01 9.9408311557791738e+00 7.9465973909279537e+00 2.2236505303317237e+01 0 2 -4
5289 3121 7 -5.9410399999999997e-01 1.3016391243740976e+01 4.1815080679185694e+00 2.1501762858668222e+01 1 1 0
5386 3141 7 -5.9410399999999997e-01 5.8942596947675172e+00 8.4357921648087224e+00 2.0078946648554968e+01 1 0 0
6066 567 8 6.0999999999999999e-01 5.9659419382156562e+00 7.9458866818302121e-01 1.8136047111421220e+01 0 1 -3
133 2538 2 -6.0722533333333295e-01 1.7713729269091640e+00 7.0869814104675051e+00 3.4146699183004955e+01 0 0 0
135 2538 2 -6.0722533333333295e-01 2.8644440072065227e+00 6.6210593890014344e+00 2.9019654732024684e+01 0 0 0
129 2538 1 6.0167599999999999e-01 1.9145112616293800e+00 5.8170268288089693e+00 3.2430788135762540e+01 0 0 0
132 2538 2 -6.0722533333333295e-01 5.3802326732170922e+00 6.5866027873068438e+00 3.1471181812571711e+01 0 0 0
134 2538 2 -6.0722533333333295e-01 2.7641572516755151e+00 4.0822718507719449e+00 3.3125346806260467e+01 0 0 0
130 2538 1 6.0167599999999999e-01 3.3358595315875608e+00 6.9266851645568632e+00 3.1039038379583690e+01 0 0 0
665 2605 1 6.0167599999999999e-01 9.8935340879128497e-01 1.6468685779955217e-01 2.9895666972577402e+01 0 0 -1
669 2605 2 -6.0722533333333295e-01 4.2411805027889149e-01 2.1369175698084630e+00 2.9417846343755034e+01 0 0 -1
667 2605 2 -6.0722533333333295e-01 4.5307541906178121e+00 1.1873369249808325e+00 2.8957228119125261e+01 0 0 -1
4335 3013 4 -5.3452554465310598e-01 2.3859984672912073e+00 1.3781454712175245e-01 3.5460911250167399e+01 1 1 0
136 2538 2 -6.0722533333333295e-01 2.6223581402444762e-01 5.4860764573147396e+00 3.1375832763847537e+01 0 0 0
4497 3031 4 -5.3452554465310598e-01 4.7084657665343821e+00 1.2419496876240532e+00 3.2740047125647592e+01 1 0 0
6397 898 8 6.0999999999999999e-01 4.3914562695256310e+00 2.9219711971801572e+00 3.1048587075836988e+01 -2 2 -1
4762 3061 4 -5.3452554465310598e-01 5.5940606237496064e+00 7.4308996514673353e+00 3.6176478059480075e+01 1 1 -1
670 2605 2 -6.0722533333333295e-01 1.0506746378649152e+00 1.8433833698876056e-01 3.1914628648223474e+01 0 0 -1
666 2605 1 6.0167599999999999e-01 3.1511035640699170e+00 -3.7774814355653785e-01 2.9115567415069851e+01 0 0 -1
7924 2425 8 6.0999999999999999e-01 3.6255373710417285e+00 2.1550247498962656e+00 3.4681762006853688e+01 0 1 -1
5581 82 8 6.0999999999999999e-01 6.1148959086250647e+00 6.8047622434424069e+00 2.8699407306932216e+01 -1 -1 2
288 2557 2 -6.0722533333333295e-01 1.0068439782233678e+01 4.0711378030361178e+00 2.8586681322217888e+01 0 1 -1
6773 1274 8 6.0999999999999999e-01 1.0018038297861983e+01 -2.3153973591676247e-01 3.0920398108694062e+01 2 -5 -1
2603 2821 4 -5.3452554465310598e-01 1.2603812579931290e+01 8.2263438081038860e+00 3.0794950691608221e+01 0 0 -2
7171 1672 8 6.0999999999999999e-01 6.6922737381054773e+00 3.4137585032113127e-01 2.9436071566940274e+01 2 3 0
6618 1119 8 6.0999999999999999e-01 -4.8592579688067983e-01 2.8628111031059320e+00 3.6749827622929573e+01 1 2 0
8014 2515 8 6.0999999999999999e-01 4.5415449715718976e+00 6.1199571975122566e+00 3.4144029091586646e+01 4 2 2
4034 2980 4 -5.3452554465310598e-01 1.3148718100809129e+01 8.3530413524572591e+00 3.4469480392001387e+01 0 -2 0
7216 1717 8 6.0999999999999999e-01 1.1839009507111868e+01 6.8181498578730499e+00 3.6036439676935743e+01 0 2 0
4494 3031 5 -3.4214873208136398e-01 7.7942846831270813e+00 1.4446194002136856e+00 3.4267846468158254e+01 1 0 0
4496 3031 4 -5.3452554465310598e-01 7.4751215710331138e+00 -5.2623029346142236e-01 3.1543260324587347e+01 1 0 0
5768 269 8 6.0999999999999999e-01 2.7839894034067587e+00 -6.8828828408966014e-01 3.3076840769994078e+01 3 -1 1
4491 3031 3 5.5465100000000001e-01 6.9635596060361618e+00 2.9910565684463837e+00 3.5534926294924134e+01 1 0 0
4248 3004 3 5.5465100000000001e-01 1.1452488585497687e+01 1.1679741663926713e+00 3.3073706236940211e+01 1 1 0
4254 3004 4 -5.3452554465310598e-01 1.0929828565564154e+01 5.0713784519402596e+00 3.1618812235435893e+01 1 1 0
4493 3031 4 -5.3452554465310598e-01 6.8330875891039495e+00 4.6705325150151715e+00 3.4271556313901584e+01 1 0 0
4495 3031 3 5.5465100000000001e-01 6.3858098188230867e+00 1.5675378216095182e-01 3.3100448954536361e+01 1 0 0
286 2557 2 -6.0722533333333295e-01 7.2391053203808760e+00 3.5164365044386923e+00 3.0254596127059546e+01 0 1 -1
4251 3004 5 -3.4214873208136398e-01 1.0298094747378014e+01 2.8449494129665722e+00 3.3728253014300762e+01 1 1 0
4253 3004 4 -5.3452554465310598e-01 1.0190871885503396e+01 6.1931440809184677e+00 3.4691063561860219e+01 1 1 0
6582 1083 8 6.0999999999999999e-01 1.1015871714657997e+01 1.8968306888406512e+00 2.8041421956654066e+01 -1 3 1
8010 2511 8 6.0999999999999999e-01 7.6510604398973614e-01 8.2602077412296584e+00 3.0726609482925873e+01 4 -1 0
4250 3004 4 -5.3452554465310598e-01 1.0508627839262298e+01 -5.2584890388691363e-01 3.3532340975383050e+01 1 1 0
7207 1708 8 6.0999999999999999e-01 1.0759113186282653e+01 6.5108479877076837e+00 2.9509912293617880e+01 -2 1 -3
5667 168 8 6.0999999999999999e-01 8.1244457857339416e+00 6.2694311140667507e+00 3.6117683473244995e+01 0 2 -2
6491 992 8 6.0999999999999999e-01 9.6841323714178920e+00 1.6139153293593846e+00 3.5795202446816916e+01 2 3 -2
281 2557 1 6.0167599999999999e-01 8.3983246524151127e+00 2.8614172334741577e+00 2.8617192340316873e+01 0 1 -1
5935 436 8 6.0999999999999999e-01 8.4713654682694255e+00 3.9831436189656895e+00 3.2349003982260243e+01 -1 -2 0
4252 3004 3 5.5465100000000001e-01 1.1229557962930024e+01 4.7754812162329889e+00 3.3614461493014915e+01 1 1 0
4249 3004 4 -5.3452554465310598e-01 1.1365872310445924e+01 1.7294825556701587e+00 3.1166587854304783e+01 1 1 0
285 2557 2 -6.0722533333333295e-01 8.9921367823714142e+00 8.3582363857568831e-01 2.8646249780180415e+01 0 1 -1
7963 2464 8 6.0999999999999999e-01 -4.3448852979740160e-01 6.2180201067212977e+00 3.4602034213993548e+01 0 1 -2
4498 3031 4 -5.3452554465310598e-01 5.3567146029936250e+00 2.1455755916979626e+00 3.6419882831557885e+01 1 0 0
4909 3077 3 5.5465100000000001e-01 1.3739155355395600e+00 5.1620779667595880e+00 3.9206813751489904e+01 0 -1 0
4908 3077 5 -3.4214873208136398e-01 8.6510221100951878e-01 7.2210206728881250e+00 3.9778550886037721e+01 0 -1 0
959 2638 4 -5.3452554465310598e-01 3.6056660293644560e+00 8.3762470607318491e+00 4.2755171626654359e+01 0 1 0
958 2638 3 5.5465100000000001e-01 5.1959275547725312e+00 7.9695606774045213e+00 4.4009827212711187e+01 0 1 0
4911 3077 4 -5.3452554465310598e-01 2.5873636470518937e+00 4.8021116892166829e+00 4.0753923855458581e+01 0 -1 0
2155 2771 3 5.5465100000000001e-01 5.5164509690752475e+00 8.5719371915948628e-01 4.2182549839342542e+01 0 -1 0
2157 2771 4 -5.3452554465310598e-01 3.5159206719825464e+00 1.0328079900259097e+00 4.2820400887997693e+01 0 -1 0
6608 1109 8 6.0999999999999999e-01 4.0488844554444565e+00 3.7072314066892407e+00 4.2706559902321800e+01 1 1 -2
4330 3013 4 -5.3452554465310598e-01 1.9403515176206434e+00 1.0182667359303235e+00 3.8993424546320512e+01 1 1 0
957 2638 5 -3.4214873208136398e-01 5.2992743177296129e+00 5.7360697617665171e+00 4.4236978473298564e+01 0 1 0
7751 2252 8 6.0999999999999999e-01 1.0977315528976062e+01 2.6898265684915508e+00 4.5752115192367427e+01 -2 -1 -4
4913 3077 4 -5.3452554465310598e-01 2.4289407402024845e+00 5.3955024641085867e+00 3.7506272979890667e+01 0 -1 0
2154 2771 5 -3.4214873208136398e-01 5.6498049892903133e+00 2.7550487553880654e-01 4.0007875200889913e+01 0 -1 0
7098 1599 8 6.0999999999999999e-01 1.4488237564720827e+00 2.3862035343188293e+00 4.1209994397851929e+01 4 2 3
6574 1075 8 6.0999999999999999e-01 1.9220040478581075e+00 8.4765092539400921e+00 4.4808483000117945e+01 0 -1 0
4329 3013 3 5.5465100000000001e-01 4.5740146552741079e-01 -2.2318603531854564e-01 3.8575255154380301e+01 1 1 0
7530 2031 8 6.0999999999999999e-01 1.4305369409214395e+00 -4.3869373193098221e-01 4.3035179984468243e+01 -2 1 3
7897 2398 8 6.0999999999999999e-01 3.7959251649964525e+00 3.0282038069307693e-01 3.7451620500978962e+01 0 1 -2
2159 2771 4 -5.3452554465310598e-01 6.1082215526191552e+00 2.8602695893325887e+00 4.2247651739071600e+01 0 -1 0
956 2638 4 -5.3452554465310598e-01 3.0880362586278380e+00 3.4308744721039348e+00 4.5179335749689486e+01 0 1 0
5940 441 8 6.0999999999999999e-01 4.9957167475768856e+00 6.1825046031162922e-01 4.4786792104560433e+01 2 2 0
2156 2771 4 -5.3452554465310598e-01 6.8439918760348526e+00 -3.5407880464993102e-01 4.3184368844026466e+01 0 -1 0
954 2638 3 5.5465100000000001e-01 3.9584189955143394e+00 5.0986855640770594e+00 4.5952155803320494e+01 0 1 0
4910 3077 4 -5.3452554465310598e-01 -3.5703836691337948e-01 4.0492919664460141e+00 3.8870617941752243e+01 0 -1 0
5582 83 8 6.0999999999999999e-01 1.3190112603208467e+01 6.2388339161825552e+00 4.2240187482364291e+01 2 -2 -1
6319 820 8 6.0999999999999999e-01 4.1464538778401057e+00 6.8775407052180721e+00 3.8081621411767841e+01 2 0 4
2834 2846 4 -5.3452554465310598e-01 -3.6214955924389325e-01 4.6629222080300554e+00 4.3999298466885065e+01 1 1 0
2832 2846 4 -5.3452554465310598e-01 -3.7676428355656938e-01 1.9211018330586520e+00 4.5945498141305180e+01 1 1 0
3802 2954 3 5.5465100000000001e-01 1.1162918381963422e+01 -8.0794531562252747e-01 3.7700863387602269e+01 0 0 0
4998 3087 5 -3.4214873208136398e-01 8.6015156843567748e+00 6.8846451747229951e+00 4.5547719450608625e+01 0 -1 -1
7414 1915 8 6.0999999999999999e-01 8.1952199641966921e+00 7.6338120301761658e-01 3.8803476548787557e+01 5 -2 0
3458 2916 4 -5.3452554465310598e-01 1.0887560573969417e+01 7.5238236619258672e+00 4.1511448142823838e+01 0 0 0
3457 2916 4 -5.3452554465310598e-01 1.0199115132595892e+01 6.9376338774856601e+00 3.8193382679500317e+01 0 0 0
3799 2954 4 -5.3452554465310598e-01 1.2775865504483633e+01 4.4213406094518737e-01 4.1683260453945707e+01 0 0 0
6342 843 8 6.0999999999999999e-01 1.2115311864367364e+01 2.0639141279461328e+00 3.9966221951040936e+01 0 2 -1
3806 2954 4 -5.3452554465310598e-01 9.2572757538230555e+00 -5.4693622027242605e-01 3.7100533050155335e+01 0 0 0
7637 2138 8 6.0999999999999999e-01 6.8976508634618856e+00 4.0311991240871565e+00 4.5029043385206251e+01 0 0 1