 # Voronoi polycrystal with 2 grains
  
       41916  atoms
           2  atom types
 
      0.000000000000     145.702000000000  xlo xhi
      0.000000000000     145.702000000000  ylo yhi
      0.000000000000      21.720000000000  zlo zhi
 
Masses
 
            1   28.08500000             # Si
            2   12.01100000             # C
 
Atoms # atomic
 
         1    1        3.085848884360       0.783697546540       2.020982143200
         2    1        0.315976642300       6.323453686820       2.020982143200
         3    1        1.700912034820       3.553575616680       2.020982143200
         4    1        4.470791561980       4.938511009200       2.020982143200
         5    2        1.008444338560       4.938513923240       0.926092147200
         6    2        2.393381188100       2.168635853100       0.926092147200
         7    1        5.855726954500       2.168632939060       2.020982143200
         8    1        8.625605024640       3.553569788600       2.020982143200
         9    2        5.163259258240       3.553572702640       0.926092147200
        10    2        6.548194650760       0.783694632500       0.926092147200
        11    1       10.010540417160       0.783691718460       2.020982143200
        12    1       12.780419944320       2.168627110980       2.020982143200
        13    2        9.318072720900       2.168630025020       0.926092147200
        14    1       16.935233406980       0.783684433360       2.020982143200
        15    2       13.472887640580       0.783687347400       0.926092147200
        16    1        1.700919319920      10.478267149480       2.020982143200
        17    1        3.085854712440       7.708389079340       2.020982143200
        18    1        5.855732782580       9.093325928880       2.020982143200
        19    2        2.393387016180       9.093328842920       0.926092147200
        20    2        3.778322408700       6.323450772780       0.926092147200
        21    1        7.240669632120       6.323447858740       2.020982143200
        22    1       10.010547702260       7.708383251260       2.020982143200
        23    2        6.548200478840       7.708386165300       0.926092147200
        24    2        7.933137328380       4.938508095160       0.926092147200
        25    1       11.395483094780       4.938505181120       2.020982143200
        26    1       14.165361164920       6.323442030660       2.020982143200
        27    2       10.703015398520       6.323444944700       0.926092147200
        28    2       12.087950791040       3.553566874560       0.926092147200
        29    1       15.550298014460       3.553562503500       2.020982143200
        30    1       18.320176084600       4.938499353040       2.020982143200
        31    2       14.857828861180       4.938502267080       0.926092147200
        32    2       16.242765710720       2.168624196940       0.926092147200
        33    1       19.705111477120       2.168621282900       2.020982143200
        34    1       22.474989547260       3.553556675420       2.020982143200
        35    2       19.012643780860       3.553559589460       0.926092147200
        36    2       20.397579173380       0.783681519320       0.926092147200
        37    1       23.859926396800       0.783678605280       2.020982143200
        38    1       26.629804466940       2.168615454820       2.020982143200
        39    2       23.167457243520       2.168618368860       0.926092147200
        40    1       30.784617929600       0.783672777200       2.020982143200
        41    2       27.322272163200       0.783675691240       0.926092147200
        42    1        0.315982470380      13.248146676640       2.020982143200
        43    1        3.085860540520      14.633082069160       2.020982143200
        44    2        1.008450166640      11.863206913060       0.926092147200
        45    1        4.470797390060      11.863203999020       2.020982143200
        46    1        7.240675460200      13.248139391540       2.020982143200
        47    2        3.778329693800      13.248142305580       0.926092147200
        48    2        5.163265086320      10.478264235440       0.926092147200
        49    1        8.625610852720      10.478261321400       2.020982143200
        50    1       11.395488922860      11.863198170940       2.020982143200
        51    2        7.933143156460      11.863201084980       0.926092147200
        52    2        9.318078548980       9.093323014840       0.926092147200
        53    1       12.780425772400       9.093320100800       2.020982143200
        54    1       15.550303842540      10.478255493320       2.020982143200
        55    2       12.087958076140      10.478258407360       0.926092147200
        56    2       13.472893468660       7.708380337220       0.926092147200
        57    1       16.935239235060       7.708377423180       2.020982143200
        58    1       19.705117305200       9.093312815700       2.020982143200
        59    2       16.242771538800       9.093315729740       0.926092147200
        60    2       17.627706931320       6.323437659600       0.926092147200
        61    1       21.090054154740       6.323434745560       2.020982143200
        62    1       23.859932224880       7.708371595100       2.020982143200
        63    2       20.397586458480       7.708374509140       0.926092147200
        64    2       21.782521851000       4.938496439000       0.926092147200
        65    1       25.244867617400       4.938493524960       2.020982143200
        66    1       28.014745687540       6.323428917480       2.020982143200
        67    2       24.552399921140       6.323431831520       0.926092147200
        68    2       25.937335313660       3.553553761380       0.926092147200
        69    1       29.399682537080       3.553550847340       2.020982143200
        70    1       32.169560607220       4.938486239860       2.020982143200
        71    2       28.707214840820       4.938489153900       0.926092147200
        72    2       30.092150233340       2.168611083760       0.926092147200
        73    1       33.554495999740       2.168608169720       2.020982143200
        74    1       36.324374069880       3.553545019260       2.020982143200
        75    2       32.862028303480       3.553547933300       0.926092147200
        76    2       34.246963696000       0.783669863160       0.926092147200
        77    1       37.709310919420       0.783666949120       2.020982143200
        78    1       40.479188989560       2.168602341640       2.020982143200
        79    2       37.016843223160       2.168605255680       0.926092147200
        80    1       44.634002452220       0.783659664020       2.020982143200
        81    2       41.171656685820       0.783662578060       0.926092147200
        82    1        0.315989755480      20.172838209440       2.020982143200
        83    1        1.700925148000      17.402960139300       2.020982143200
        84    1        4.470803218140      18.787895531820       2.020982143200
        85    2        1.008457451740      18.787899902880       0.926092147200
        86    2        2.393392844260      16.018021832740       0.926092147200
        87    1        5.855738610660      16.018017461680       2.020982143200
        88    1        8.625618137820      17.402954311220       2.020982143200
        89    2        5.163270914400      17.402957225260       0.926092147200
        90    2        6.548207763940      14.633079155120       0.926092147200
        91    1       10.010553530340      14.633076241080       2.020982143200
        92    1       12.780431600480      16.018011633600       2.020982143200
        93    2        9.318085834080      16.018014547640       0.926092147200
        94    2       10.703021226600      13.248136477500       0.926092147200
        95    1       14.165366993000      13.248133563460       2.020982143200
        96    1       16.935245063140      14.633068955980       2.020982143200
        97    2       13.472899296740      14.633073327040       0.926092147200
        98    2       14.857836146280      11.863195256900       0.926092147200
        99    1       18.320181912680      11.863190885840       2.020982143200
       100    1       21.090059982820      13.248127735380       2.020982143200
       101    2       17.627714216420      13.248130649420       0.926092147200
       102    2       19.012649608940      10.478252579280       0.926092147200
       103    1       22.474995375340      10.478249665240       2.020982143200
       104    1       25.244873445480      11.863185057760       2.020982143200
       105    2       21.782527679080      11.863187971800       0.926092147200
       106    2       23.167464528620       9.093309901660       0.926092147200
       107    1       26.629810295020       9.093306987620       2.020982143200
       108    1       29.399688365160      10.478243837160       2.020982143200
       109    2       25.937342598760      10.478246751200       0.926092147200
       110    2       27.322277991280       7.708368681060       0.926092147200
       111    1       30.784623757680       7.708364310000       2.020982143200
       112    1       33.554501827820       9.093301159540       2.020982143200
       113    2       30.092156061420       9.093304073580       0.926092147200
       114    2       31.477092910960       6.323426003440       0.926092147200
       115    1       34.939438677360       6.323423089400       2.020982143200
       116    1       37.709316747500       7.708358481920       2.020982143200
       117    2       34.246970981100       7.708361395960       0.926092147200
       118    2       35.631906373620       4.938483325820       0.926092147200
       119    1       39.094252140020       4.938480411780       2.020982143200
       120    1       41.864130210160       6.323417261320       2.020982143200
       121    2       38.401784443760       6.323420175360       0.926092147200
       122    2       39.786721293300       3.553542105220       0.926092147200
       123    1       43.249067059700       3.553537734160       2.020982143200
       124    1       46.018945129840       4.938474583700       2.020982143200
       125    2       42.556599363440       4.938477497740       0.926092147200
       126    2       43.941534755960       2.168599427600       0.926092147200
       127    1       47.403880522360       2.168596513560       2.020982143200
       128    1       50.173758592500       3.553531906080       2.020982143200
       129    2       46.711412826100       3.553534820120       0.926092147200
       130    2       48.096349675640       0.783656749980       0.926092147200
       131    1       51.558695442040       0.783653835940       2.020982143200
       132    1       54.328573512180       2.168590685480       2.020982143200
       133    2       50.866227745780       2.168593599520       0.926092147200
       134    1       58.483386974840       0.783648007860       2.020982143200
       135    2       55.021041208440       0.783650921900       0.926092147200
       136    1        1.700930976080      24.327653129120       2.020982143200
       137    1        3.085867825620      21.557775058980       2.020982143200
       138    1        5.855745895760      22.942710451500       2.020982143200
       139    2        2.393398672340      22.942713365540       0.926092147200
       140    2        3.778335521880      20.172835295400       0.926092147200
       141    1        7.240681288280      20.172832381360       2.020982143200
       142    1       10.010559358420      21.557767773880       2.020982143200
       143    2        6.548213592020      21.557770687920       0.926092147200
       144    2        7.933148984540      18.787892617780       0.926092147200
       145    1       11.395496207960      18.787889703740       2.020982143200
       146    1       14.165374278100      20.172826553280       2.020982143200
       147    2       10.703027054680      20.172829467320       0.926092147200
       148    2       12.087963904220      17.402951397180       0.926092147200
       149    1       15.550309670620      17.402948483140       2.020982143200
       150    1       18.320187740760      18.787883875660       2.020982143200
       151    2       14.857841974360      18.787886789700       0.926092147200
       152    2       16.242777366880      16.018008719560       0.926092147200
       153    1       19.705124590300      16.018005805520       2.020982143200
       154    1       22.475002660440      17.402941198040       2.020982143200
       155    2       19.012655437020      17.402944112080       0.926092147200
       156    2       20.397592286560      14.633066041940       0.926092147200
       157    1       23.859938052960      14.633063127900       2.020982143200
       158    1       26.629816123100      16.017999977440       2.020982143200
       159    2       23.167470356700      16.018002891480       0.926092147200
       160    2       24.552405749220      13.248124821340       0.926092147200
       161    1       28.014752972640      13.248121907300       2.020982143200
       162    1       30.784631042780      14.633057299820       2.020982143200
       163    2       27.322283819360      14.633060213860       0.926092147200
       164    2       28.707220668900      11.863182143720       0.926092147200
       165    1       32.169566435300      11.863179229680       2.020982143200
       166    1       34.939444505440      13.248114622200       2.020982143200
       167    2       31.477098739040      13.248117536240       0.926092147200
       168    2       32.862034131560      10.478239466100       0.926092147200
       169    1       36.324381354980      10.478236552060       2.020982143200
       170    1       39.094259425120      11.863173401600       2.020982143200
       171    2       35.631912201700      11.863176315640       0.926092147200
       172    2       37.016849051240       9.093298245500       0.926092147200
       173    1       40.479194817640       9.093295331460       2.020982143200
       174    1       43.249072887780      10.478230723980       2.020982143200
       175    2       39.786727121380      10.478233638020       0.926092147200
       176    2       41.171662513900       7.708355567880       0.926092147200
       177    1       44.634009737320       7.708352653840       2.020982143200
       178    1       47.403887807460       9.093288046360       2.020982143200
       179    2       43.941540584040       9.093290960400       0.926092147200
       180    2       45.326477433580       6.323412890260       0.926092147200
       181    1       48.788823199980       6.323409976220       2.020982143200
       182    1       51.558701270120       7.708346825760       2.020982143200
       183    2       48.096355503720       7.708349739800       0.926092147200
       184    2       49.481290896240       4.938471669660       0.926092147200
       185    1       52.943638119660       4.938468755620       2.020982143200
       186    1       55.713516189800       6.323404148140       2.020982143200
       187    2       52.251168966380       6.323407062180       0.926092147200
       188    2       53.636105815920       3.553528992040       0.926092147200
       189    1       57.098451582320       3.553526078000       2.020982143200
       190    1       59.868329652460       4.938461470520       2.020982143200
       191    2       56.405983886060       4.938464384560       0.926092147200
       192    2       57.790919278580       2.168586314420       0.926092147200
       193    1       61.253266502000       2.168583400380       2.020982143200
       194    1       64.023144572140       3.553520249920       2.020982143200
       195    2       60.560797348720       3.553523163960       0.926092147200
       196    2       61.945734198260       0.783645093820       0.926092147200
       197    1       65.408079964660       0.783642179780       2.020982143200
       198    1       68.177958034800       2.168577572300       2.020982143200
       199    2       64.715612268400       2.168580486340       0.926092147200
       200    1       72.332772954480       0.783634894680       2.020982143200
       201    2       68.870425731060       0.783639265740       0.926092147200
       202    1        0.315995583560      27.097531199260       2.020982143200
       203    1        3.085873653700      28.482466591780       2.020982143200
       204    2        1.008463279820      25.712591435680       0.926092147200
       205    1        4.470809046220      25.712588521640       2.020982143200
       206    1        7.240687116360      27.097523914160       2.020982143200
       207    2        3.778341349960      27.097528285220       0.926092147200
       208    2        5.163276742480      24.327650215080       0.926092147200
       209    1        8.625623965900      24.327645844020       2.020982143200
       210    1       11.395502036040      25.712582693560       2.020982143200
       211    2        7.933156269640      25.712585607600       0.926092147200
       212    2        9.318091662160      22.942707537460       0.926092147200
       213    1       12.780437428560      22.942704623420       2.020982143200
       214    1       15.550315498700      24.327640015940       2.020982143200
       215    2       12.087969732300      24.327642929980       0.926092147200
       216    2       13.472905124820      21.557764859840       0.926092147200
       217    1       16.935252348240      21.557761945800       2.020982143200
       218    1       19.705130418380      22.942697338320       2.020982143200
       219    2       16.242784651980      22.942701709380       0.926092147200
       220    2       17.627720044500      20.172823639240       0.926092147200
       221    1       21.090065810900      20.172819268180       2.020982143200
       222    1       23.859943881040      21.557756117720       2.020982143200
       223    2       20.397598114640      21.557759031760       0.926092147200
       224    2       21.782533507160      18.787880961620       0.926092147200
       225    1       25.244880730580      18.787878047580       2.020982143200
       226    1       28.014758800720      20.172813440100       2.020982143200
       227    2       24.552413034320      20.172816354140       0.926092147200
       228    2       25.937348426840      17.402938284000       0.926092147200
       229    1       29.399694193240      17.402935369960       2.020982143200
       230    1       32.169572263380      18.787872219500       2.020982143200
       231    2       28.707226496980      18.787875133540       0.926092147200
       232    2       30.092161889500      16.017997063400       0.926092147200
       233    1       33.554509112920      16.017992692340       2.020982143200
       234    1       36.324387183060      17.402929541880       2.020982143200
       235    2       32.862041416660      17.402932455920       0.926092147200
       236    2       34.246976809180      14.633054385780       0.926092147200
       237    1       37.709322575580      14.633051471740       2.020982143200
       238    1       40.479200645720      16.017986864260       2.020982143200
       239    2       37.016854879320      16.017989778300       0.926092147200
       240    2       38.401790271840      13.248111708160       0.926092147200
       241    1       41.864137495260      13.248108794120       2.020982143200
       242    1       44.634015565400      14.633045643660       2.020982143200
       243    2       41.171669799000      14.633048557700       0.926092147200
       244    2       42.556605191520      11.863170487560       0.926092147200
       245    1       46.018950957920      11.863166116500       2.020982143200
       246    1       48.788829028060      13.248102966040       2.020982143200
       247    2       45.326483261660      13.248105880080       0.926092147200
       248    2       46.711418654180      10.478227809940       0.926092147200
       249    1       50.173765877600      10.478224895900       2.020982143200
       250    1       52.943643947740      11.863160288420       2.020982143200
       251    2       49.481298181340      11.863163202460       0.926092147200
       252    2       50.866233573860       9.093285132320       0.926092147200
       253    1       54.328579340260       9.093282218280       2.020982143200
       254    1       57.098457410400      10.478219067820       2.020982143200
       255    2       53.636111644000      10.478221981860       0.926092147200
       256    2       55.021047036520       7.708343911720       0.926092147200
       257    1       58.483394259940       7.708339540660       2.020982143200
       258    1       61.253272330080       9.093276390200       2.020982143200
       259    2       57.790926563680       9.093279304240       0.926092147200
       260    2       59.175861956200       6.323401234100       0.926092147200
       261    1       62.638207722600       6.323398320060       2.020982143200
       262    1       65.408085792740       7.708333712580       2.020982143200
       263    2       61.945740026340       7.708336626620       0.926092147200
       264    2       63.330675418860       4.938458556480       0.926092147200
       265    1       66.793022642280       4.938455642440       2.020982143200
       266    1       69.562900712420       6.323392491980       2.020982143200
       267    2       66.100554946020       6.323395406020       0.926092147200
       268    2       67.485490338540       3.553517335880       0.926092147200
       269    1       70.947836104940       3.553512964820       2.020982143200
       270    2       70.255368408680       4.938452728400       0.926092147200
       271    2       71.640303801200       2.168574658260       0.926092147200
       272    1        0.316001411640      34.022222732060       2.020982143200
       273    1        1.700936804160      31.252344661920       2.020982143200
       274    1        4.470814874300      32.637281511460       2.020982143200
       275    2        1.008469107900      32.637284425500       0.926092147200
       276    2        2.393405957440      29.867406355360       0.926092147200
       277    1        5.855751723840      29.867403441320       2.020982143200
       278    1        8.625629793980      31.252338833840       2.020982143200
       279    2        5.163284027580      31.252341747880       0.926092147200
       280    2        6.548219420100      28.482463677740       0.926092147200
       281    1       10.010565186500      28.482460763700       2.020982143200
       282    1       12.780443256640      29.867396156220       2.020982143200
       283    2        9.318097490240      29.867399070260       0.926092147200
       284    2       10.703034339780      27.097521000120       0.926092147200
       285    1       14.165380106180      27.097518086080       2.020982143200
       286    1       16.935258176320      28.482454935620       2.020982143200
       287    2       13.472912409920      28.482457849660       0.926092147200
       288    2       14.857847802440      25.712579779520       0.926092147200
       289    1       18.320193568840      25.712576865480       2.020982143200
       290    1       21.090071638980      27.097512258000       2.020982143200
       291    2       17.627725872580      27.097515172040       0.926092147200
       292    2       19.012662722120      24.327637101900       0.926092147200
       293    1       22.475008488520      24.327634187860       2.020982143200
       294    1       25.244886558660      25.712569580380       2.020982143200
       295    2       21.782540792260      25.712572494420       0.926092147200
       296    2       23.167476184780      22.942694424280       0.926092147200
       297    1       26.629821951180      22.942691510240       2.020982143200
       298    1       29.399700021320      24.327628359780       2.020982143200
       299    2       25.937354254920      24.327631273820       0.926092147200
       300    2       27.322291104460      21.557753203680       0.926092147200
       301    1       30.784636870860      21.557750289640       2.020982143200
       302    1       33.554514941000      22.942685682160       2.020982143200
       303    2       30.092169174600      22.942688596200       0.926092147200
       304    2       31.477104567120      20.172810526060       0.926092147200
       305    1       34.939450333520      20.172807612020       2.020982143200
       306    1       37.709328403660      21.557743004540       2.020982143200
       307    2       34.246982637260      21.557745918580       0.926092147200
       308    2       35.631919486800      18.787867848440       0.926092147200
       309    1       39.094265253200      18.787864934400       2.020982143200
       310    1       41.864143323340      20.172801783940       2.020982143200
       311    2       38.401797556940      20.172804697980       0.926092147200
       312    2       39.786732949460      17.402926627840       0.926092147200
       313    1       43.249078715860      17.402923713800       2.020982143200
       314    1       46.018956786000      18.787859106320       2.020982143200
       315    2       42.556611019600      18.787862020360       0.926092147200
       316    2       43.941547869140      16.017983950220       0.926092147200
       317    1       47.403893635540      16.017981036180       2.020982143200
       318    1       50.173771705680      17.402916428700       2.020982143200
       319    2       46.711425939280      17.402919342740       0.926092147200
       320    2       48.096361331800      14.633041272600       0.926092147200
       321    1       51.558707098200      14.633038358560       2.020982143200
       322    1       54.328585168340      16.017975208100       2.020982143200
       323    2       50.866239401940      16.017978122140       0.926092147200
       324    2       52.251176251480      13.248100052000       0.926092147200
       325    1       55.713522017880      13.248097137960       2.020982143200
       326    1       58.483400088020      14.633032530480       2.020982143200
       327    2       55.021054321620      14.633035444520       0.926092147200
       328    2       56.405989714140      11.863157374380       0.926092147200
       329    1       59.868335480540      11.863154460340       2.020982143200
       330    1       62.638213550680      13.248089852860       2.020982143200
       331    2       59.175867784280      13.248092766900       0.926092147200
       332    2       60.560804633820      10.478214696760       0.926092147200
       333    1       64.023150400220      10.478211782720       2.020982143200
       334    1       66.793028470360      11.863148632260       2.020982143200
       335    2       63.330682703960      11.863151546300       0.926092147200
       336    2       64.715618096480       9.093273476160       0.926092147200
       337    1       68.177963862880       9.093270562120       2.020982143200
       338    1       70.947841933020      10.478205954640       2.020982143200
       339    2       67.485496166620      10.478208868680       0.926092147200
       340    2       68.870433016160       7.708330798540       0.926092147200
       341    1       72.332778782560       7.708327884500       2.020982143200
       342    2       71.640311086300       9.093267648080       0.926092147200
       343    1        1.700944089260      38.177037651740       2.020982143200
       344    1        3.085879481780      35.407159581600       2.020982143200
       345    1        5.855757551920      36.792094974120       2.020982143200
       346    2        2.393411785520      36.792097888160       0.926092147200
       347    2        3.778347178040      34.022219818020       0.926092147200
       348    1        7.240694401460      34.022216903980       2.020982143200
       349    1       10.010572471600      35.407152296500       2.020982143200
       350    2        6.548225248180      35.407156667560       0.926092147200
       351    2        7.933162097720      32.637278597420       0.926092147200
       352    1       11.395507864120      32.637274226360       2.020982143200
       353    1       14.165385934260      34.022211075900       2.020982143200
       354    2       10.703040167860      34.022213989940       0.926092147200
       355    2       12.087975560380      31.252335919800       0.926092147200
       356    1       15.550322783800      31.252333005760       2.020982143200
       357    1       18.320200853940      32.637268398280       2.020982143200
       358    2       14.857853630520      32.637271312320       0.926092147200
       359    2       16.242790480060      29.867393242180       0.926092147200
       360    1       19.705136246460      29.867390328140       2.020982143200
       361    1       22.475014316600      31.252325720660       2.020982143200
       362    2       19.012668550200      31.252330091720       0.926092147200
       363    2       20.397603942720      28.482452021580       0.926092147200
       364    1       23.859951166140      28.482447650520       2.020982143200
       365    1       26.629829236280      29.867384500060       2.020982143200
       366    2       23.167482012860      29.867387414100       0.926092147200
       367    2       24.552418862400      27.097509343960       0.926092147200
       368    1       28.014764628800      27.097506429920       2.020982143200
       369    1       30.784642698940      28.482441822440       2.020982143200
       370    2       27.322296932540      28.482444736480       0.926092147200