LAMMPS data file via write_data, version 22 Dec 2022, timestep = 16

2 atoms
2 atom types

-0.01766741007558771 3.0976674100755863 xlo xhi
-0.01766741007558771 3.0976674100755863 ylo yhi
-0.01766741007558771 3.0976674100755863 zlo zhi

Masses

1 47.88
2 50.942

Atoms # atomic

2 1 1.539999999999999 1.539999999999999 1.5399999999999991 0 0 0
1 2 3.097667410075586 3.097667410075586 3.097667410075586 -1 -1 -1

Velocities

2 0 0 0
1 0 0 0
