ITEM: TIMESTEP
3000000
ITEM: NUMBER OF ATOMS
18000
ITEM: BOX BOUNDS pp pp pp
-3.8344074100127301e-03 2.7344834407409564e+01
-2.4848983313781048e-03 2.7343484898330598e+01
-4.4102939493114945e-02 3.2813610293948739e+02
ITEM: ATOMS id type x y z c_peratom fx fy fz 
362 2 5.49545 5.45132 5.40345 -26.0862 0.588356 -0.815801 -0.572284 
1801 2 5.58525 2.70427 2.59418 -25.6816 -0.871499 1.00225 1.56885 
3061 2 2.76689 5.46041 2.66293 -25.9756 0.31664 -0.375885 0.120912 
4502 2 2.82782 2.67629 5.39513 -25.6621 -0.53466 1.25294 0.10095 
6001 1 1.38734 1.2985 1.34723 -7.45174 0.190328 0.536452 0.567113 
7501 1 4.18534 4.09732 4.01381 -7.06361 -0.516299 -0.265437 -0.209584 
9001 1 4.16824 4.05592 1.26351 -7.4755 0.21817 0.517984 0.320368 
10501 1 1.44639 1.36659 4.04098 -7.72459 -0.419748 0.0631309 0.201904 
12001 1 4.17451 1.44185 4.07162 -7.37751 0.084425 -0.749266 -0.644177 
13501 1 1.40448 4.10401 1.37826 -7.3001 0.411872 -1.06609 -0.283056 
15001 1 1.38745 4.1506 4.04366 -7.18313 0.210772 -1.12412 0.155913 
16501 1 4.19639 1.39278 1.2851 -7.5735 -0.375333 -0.255658 0.0959885 
13502 1 1.38682 4.07909 6.75034 -7.3119 1.09427 -0.318977 0.34236 
16502 1 4.12762 1.39156 6.75808 -7.4481 0.489537 -0.173044 0.433571 
13801 1 6.96994 4.17291 1.29486 -7.51583 -0.115 -1.57672 0.286903 
62 2 0.0518051 5.42913 5.45886 -25.863 0.446946 -0.0374382 0.331915 
1501 2 0.0602085 2.66865 2.70075 -25.6106 -0.263651 0.959389 -0.177283 
10561 1 1.44885 6.77407 4.12047 -7.27813 0.168203 0.635002 -0.257785 
16561 1 4.09002 6.87799 1.24785 -7.22398 0.49098 -1.01213 -0.0369204 
6062 1 1.51627 6.89921 6.88035 -7.21051 -0.153663 -0.892101 -0.28478 
4501 2 2.77354 2.7355 -0.0625424 -25.5882 0.558925 -1.07162 0.93894 
61 2 0.0719243 5.40701 -0.0297474 -25.7951 -0.49771 -0.212959 0.236327 
6301 1 6.95172 1.37564 1.4801 -7.59359 0.592919 0.0861501 -1.32894 
10801 1 6.88389 1.33349 4.09645 -7.59272 0.592216 0.0718448 0.572609 
15301 1 6.88595 4.07305 4.03959 -7.21966 0.558558 -0.350997 -0.612381 
662 2 10.97 5.46303 5.39573 -25.6159 -0.557708 0.00471387 0.49202 
2101 2 11.0247 2.71923 2.71105 -25.7613 0.194873 0.228403 -0.895516 
3361 2 8.27313 5.46828 2.7244 -25.7592 -0.0653694 0.122628 -0.48411 
4802 2 8.3017 2.70714 5.36123 -25.6233 -0.762096 0.659528 0.671085 
6601 1 12.3612 1.34268 1.30508 -7.1714 0.576465 0.0332851 0.606835 
7801 1 9.66221 4.09394 4.01827 -7.45974 -1.04863 -0.340962 0.820946 
9301 1 9.69806 4.19899 1.40913 -7.30899 0.110035 -0.838996 -0.818332 
11101 1 12.3264 1.31473 4.00446 -7.53796 0.671151 0.393712 0.760285 
12301 1 9.65677 1.31797 4.01553 -7.85663 -0.349607 0.462637 0.889836 
14101 1 12.4916 4.06463 1.32479 -7.1462 -0.978397 0.0273776 0.57939 
15601 1 12.231 4.09542 4.1056 -7.49624 1.4417 -0.439123 -0.0709425 
16801 1 9.714 1.32698 1.3549 -7.60303 -0.938247 0.527655 -0.51256 
11161 1 12.3523 6.83051 4.08707 -7.72432 0.512878 -0.0156447 -0.080838 
16802 1 9.7113 1.37256 6.72901 -7.89352 -0.331326 -0.257496 -0.00323176 
6661 1 12.2908 6.76024 1.34119 -7.5803 1.1101 1.10013 0.665983 
14102 1 12.3686 4.07631 6.85347 -7.41213 -0.882009 -0.368274 -0.598045 
661 2 11.0088 5.62002 0.00668045 -25.597 -0.482563 -2.67404 -0.69645 
16861 1 9.65411 6.90481 1.32198 -7.37078 -0.573948 0.281022 0.194055 
3301 2 8.32655 0.0289223 2.77008 -25.6031 -0.500466 -1.45868 -1.20037 
601 2 11.0217 -0.0691109 0.0506364 -25.8235 -0.669497 0.922294 -0.754121 
6362 1 6.90584 6.70377 6.71233 -7.22602 -0.0461897 1.25655 0.583457 
4801 2 8.33193 2.7344 -0.0444397 -25.3333 0.150269 0.0922918 0.715032 
6061 1 1.3686 6.72409 1.32709 -7.38984 -0.21132 1.03005 0.326488 
12061 1 4.16653 6.74475 3.98123 -7.44396 -0.350247 0.848114 0.255628 
422 2 5.45734 10.848 5.31931 -25.558 0.850373 0.454961 0.438973 
1861 2 5.46096 8.14833 2.65195 -25.4942 0.271706 -0.243698 -0.677234 
3121 2 2.74211 10.9205 2.62639 -25.6385 -0.120864 -0.920094 1.2472 
4562 2 2.81393 8.164 5.39007 -25.8002 -0.453512 0.245559 0.645853 
6121 1 1.38137 12.1491 1.24654 -7.75062 -0.200101 0.753417 0.508124 
7561 1 4.10699 9.49597 4.01601 -7.60665 0.498878 -0.314906 0.0325018 
9061 1 4.03812 9.47885 1.27658 -7.45728 1.40607 0.925868 -0.0618346 
10621 1 1.35015 12.2794 3.99608 -7.35524 0.23734 -0.317345 0.0608947 
12121 1 4.13457 12.1699 4.08459 -7.47301 -0.417279 1.00839 -0.289869 
13561 1 1.41456 9.4545 1.34301 -7.53659 -0.541756 0.309416 -0.31095 
15061 1 1.44556 9.49872 4.05931 -7.28187 -0.613426 0.528533 -0.0760096 
16621 1 4.14659 12.2012 1.39648 -7.79031 -0.0533639 0.53636 -0.652368 
9062 1 4.21023 9.64256 6.81869 -7.26911 -0.409691 -1.23125 -0.563615 
13562 1 1.51446 9.53526 6.80375 -6.79047 -0.663178 -0.0476064 -0.303069 
16622 1 4.24124 12.2969 6.77356 -7.64981 -0.964044 0.607349 -0.376807 
1561 2 0.0902205 8.16334 2.69723 -25.6061 -0.235309 -0.678235 0.113369 
122 2 -0.0308149 10.9571 5.4038 -25.7584 1.37707 -1.35505 0.183397 
4622 2 2.81647 13.6077 5.483 -25.3765 -0.813874 0.0204405 -1.07915 
4621 2 2.81323 13.5225 -0.0166806 -25.4376 0.0628382 0.586093 0.000184577 
10861 1 6.82782 6.75369 4.06227 -7.4512 0.866884 0.953574 -0.849017 
6361 1 6.89572 6.75235 1.2231 -7.4492 -0.177832 1.11914 0.974782 
6422 1 6.87664 12.3484 6.67255 -7.5155 0.0647952 -0.406532 0.0507977 
10921 1 6.86825 12.3219 3.94912 -7.58734 0.063137 -0.510493 0.0459744 
13862 1 6.82903 9.59238 6.70026 -7.54503 0.602255 -0.667606 -0.481756 
13861 1 6.98544 9.55324 1.23611 -7.35376 -1.29317 -0.883629 0.180205 
12361 1 9.64834 6.84111 3.99912 -7.62189 -0.50987 -0.0469517 0.654084 
6421 1 6.84584 12.1502 1.2033 -7.39492 0.0650874 1.07818 0.436409 
15361 1 6.85776 9.49924 3.88194 -7.66112 0.325219 0.281482 1.02179 
722 2 10.9317 10.8861 5.46702 -25.0277 0.251366 -0.147375 -0.530789 
2161 2 11.0473 8.24276 2.73947 -25.5184 -0.230011 -0.524667 -1.11513 
3421 2 8.29359 10.9165 2.58782 -25.7293 -0.530658 -0.0134924 0.47807 
4862 2 8.26321 8.1922 5.36134 -25.4242 -0.568283 -0.53072 0.307455 
6721 1 12.331 12.3058 1.25636 -7.54816 0.187793 0.169771 0.218971 
7861 1 9.66581 9.53289 3.99627 -7.74812 -0.513623 0.208221 0.903846 
9361 1 9.67073 9.61241 1.28528 -7.37586 0.512079 -0.22018 0.585151 
11221 1 12.3315 12.2703 3.94026 -7.88379 -0.031151 -0.3755 0.942828 
12421 1 9.60334 12.2048 4.03018 -7.42025 0.056933 0.0847165 0.664909 
14161 1 12.4532 9.52086 1.2842 -7.48156 -0.184226 0.0899997 0.734353 
15661 1 12.3951 9.56315 4.05878 -7.74676 -0.645101 0.200414 0.51361 
16921 1 9.57035 12.3561 1.33304 -7.39633 0.501969 -0.516393 -0.282598 
16922 1 9.59746 12.2939 6.8269 -7.68695 0.100727 -0.871025 -1.00179 
2221 2 11.0494 13.6546 2.69809 -25.8776 -1.61623 0.554012 -0.780452 
6722 1 12.3195 12.2234 6.75878 -7.9608 -0.163979 0.0605554 0.0300889 
721 2 10.9831 10.9432 -0.0397023 -25.785 0.0166095 -0.290336 -0.0818302 
6662 1 12.2071 6.73061 6.8237 -7.55809 1.22527 0.824024 0.091123 
16862 1 9.59252 6.87883 6.78115 -7.18482 -0.0818757 -0.665778 -0.283017 
14162 1 12.3357 9.49014 6.87368 -7.72507 -0.276774 0.0702804 -0.47938 
4861 2 8.27296 8.15761 -0.022144 -25.7811 -0.139673 0.143459 -0.782658 
1921 2 5.52178 13.6597 2.66673 -25.3986 -0.125809 -0.662447 0.00147312 
482 2 5.49097 16.3388 5.41082 -25.4843 -0.534222 0.939814 0.128572 
1981 2 5.51708 19.1341 2.72781 -25.6447 -1.04757 -0.195505 -1.11365 
3181 2 2.7901 16.2974 2.75613 -25.7455 -0.172642 0.299738 -0.79013 
4682 2 2.79169 19.1046 5.37465 -25.7121 -0.50882 -0.467712 0.25356 
6181 1 1.38331 17.6163 1.29287 -7.69279 -0.201569 0.509924 0.517604 
7621 1 4.11288 14.9578 4.06014 -7.79337 0.86429 -0.385004 0.169814 
9121 1 4.22182 14.9908 1.3155 -7.29652 -0.64601 -0.257118 0.713552 
10681 1 1.40461 17.6846 4.0442 -7.42737 0.376143 -0.138368 0.420166 
12181 1 4.13911 17.7121 4.02396 -7.46633 -0.249058 -0.00867732 0.725823 
13621 1 1.46525 14.8688 1.40187 -7.60297 0.194313 0.244823 -0.352995 
15121 1 1.43349 14.9412 4.09772 -7.16302 -0.126477 0.490017 0.492872 
16681 1 4.08315 17.7287 1.35951 -7.24306 0.643562 0.152563 -0.222565 
16682 1 4.02315 17.7564 6.8222 -7.27647 0.585321 0.369957 -0.22182 
9181 1 4.00267 20.5155 1.26783 -6.86485 0.774897 -0.772862 0.721698 
13681 1 1.37366 20.4857 1.39961 -7.50365 -0.481541 -0.801887 -1.14148 
9182 1 4.14654 20.4236 6.67599 -7.33892 0.222053 0.738334 0.902584 
4681 2 2.70873 18.9938 -0.0368888 -25.5605 0.766504 0.758269 0.659447 
1621 2 0.00696416 13.6618 2.66605 -25.5559 0.701995 -1.62696 0.118359 
182 2 0.0365499 16.3607 5.54733 -25.6257 0.656965 -0.0078733 -1.77133 
7681 1 4.10313 20.4763 4.04856 -7.60682 0.264167 0.262461 -0.781362 
13682 1 1.46778 20.4647 6.80766 -7.5664 -0.595656 -0.260835 -0.174184 
15181 1 1.39521 20.3923 4.00991 -7.4333 0.0294434 0.456544 0.949753 
6182 1 1.36221 17.7306 6.86141 -7.45964 0.749697 -0.00304479 -0.123435 
4922 2 8.20818 13.604 5.36926 -25.6215 0.910635 0.520194 -0.043474 
6481 1 6.92885 17.6738 1.33168 -7.22628 -0.796988 0.170015 -0.426685 
10981 1 6.76789 17.79 3.98998 -7.50366 0.730235 -0.108272 1.17742 
13921 1 6.87944 14.9319 1.3456 -7.349 0.336804 -0.0269324 0.226016 
15421 1 6.90657 15.0519 4.11937 -7.85454 -0.621213 -0.336776 -0.311614 
13922 1 6.84178 15.0855 6.81888 -7.57306 -0.495398 -1.14148 -0.0203953 
15481 1 6.84934 20.5892 4.03919 -7.72082 0.456391 -0.582282 0.15626 
782 2 10.8614 16.4312 5.46902 -26.2937 0.220801 -1.47063 -0.188679 
2281 2 10.8958 19.0862 2.63322 -25.8493 0.804682 0.104429 0.768852 
3481 2 8.18383 16.3454 2.76103 -25.9235 1.01157 -0.0160996 -1.25145 
4982 2 8.16671 19.1178 5.46765 -25.5378 0.381393 -0.278108 -0.631817 
6781 1 12.3705 17.742 1.38317 -7.12022 -0.46313 0.819451 -0.504418 
7921 1 9.6515 14.9397 4.06951 -7.12523 -0.755598 0.182345 -0.400492 
9421 1 9.62467 15.0086 1.32928 -6.80095 -0.227703 0.155491 0.127831 
11281 1 12.1823 17.6507 4.11515 -7.27858 0.923706 1.23013 -0.5566 
12481 1 9.48044 17.6919 4.091 -7.27521 -0.294926 0.0980588 0.438087 
14221 1 12.3248 15.1116 1.35811 -7.2525 0.47094 -1.15951 -0.171166 
15721 1 12.3006 14.9978 4.08314 -7.2286 0.391966 -0.473601 -0.100444 
16981 1 9.60482 17.7329 1.39933 -7.34137 0.0741348 0.251854 -0.92117 
14281 1 12.3031 20.5367 1.41485 -7.26132 -0.175159 -0.44919 -0.314826 
15781 1 12.3874 20.4555 4.11248 -7.26768 -0.235235 -0.403973 -0.133448 
7981 1 9.65353 20.3618 4.00915 -7.22932 -0.738464 0.893289 0.258706 
6482 1 6.7395 17.7057 6.77319 -7.47577 0.706171 0.389465 0.247091 
6782 1 12.1988 17.6837 6.79776 -7.30768 1.27991 1.11667 0.747847 
14222 1 12.2258 15.0625 6.79335 -6.74272 0.536031 -1.16041 0.153316 
13981 1 6.7785 20.3958 1.31696 -7.5277 0.0456253 0.521316 -0.193791 
2 2 0.0592133 27.2614 5.39556 -25.2639 -0.276886 0.225624 0.438308 
302 2 5.56875 27.3823 5.43944 -25.6546 -0.14015 -0.13833 0.136648 
3001 2 2.78143 27.3578 2.76157 -25.6328 0.912494 -0.0643918 -1.30876 
542 2 5.46234 21.8755 5.29446 -25.3985 0.289049 -0.0318619 1.34418 
2041 2 5.44771 24.5776 2.62668 -25.4932 0.626216 0.668804 0.18476 
3241 2 2.66984 21.8715 2.69957 -25.6434 0.529973 -0.797426 -0.938137 
4742 2 2.78784 24.5743 5.42169 -25.1233 -0.0473058 0.384994 0.168485 
6241 1 1.30789 23.2331 1.18743 -7.21466 1.08599 -0.22142 0.951001 
7741 1 4.2893 26.0629 4.04533 -7.50958 -0.872196 -0.767732 -0.00691222 
9241 1 4.17086 26.0019 1.33665 -7.37013 -0.0503372 -0.578052 0.0792338 
10741 1 1.29294 23.1496 4.01345 -7.82668 0.71152 0.419074 0.14677 
12241 1 3.99429 23.2416 4.0442 -7.99178 0.610899 0.26779 -0.156358 
13741 1 1.49665 25.933 1.36571 -7.10163 -0.288797 -0.222746 -0.461923 
15241 1 1.44241 25.9923 3.96531 -7.77678 0.166747 -0.866973 1.54175 
16741 1 4.05998 23.1462 1.30344 -7.53486 0.16908 1.15953 0.232467 
9242 1 4.14344 25.9893 6.72835 -7.54729 0.168266 -0.429069 0.334696 
16742 1 4.20511 23.2007 6.81091 -7.7425 0.0121815 0.0766098 -0.285407 
541 2 5.47458 21.8307 -0.100215 -25.7576 -0.0311584 -0.639487 0.721369 
13742 1 1.4324 25.8768 6.79829 -7.71378 -0.0162956 0.200921 -0.25609 
1741 2 0.0649431 24.4878 2.71147 -25.5466 -0.391442 0.807281 -0.908816 
242 2 0.0612536 21.8061 5.46098 -25.6395 -0.157464 -1.37535 -0.711734 
6542 1 6.96003 23.1781 6.65516 -7.51609 -0.0397828 0.19374 0.503632 
301 2 5.53352 27.3642 0.00244743 -25.5352 -0.590417 -0.36849 0.177256 
1 2 0.0861832 27.2481 0.0330069 -25.7314 -0.0451541 -0.120961 -0.132879 
4741 2 2.81345 24.5534 -0.0904094 -25.8082 -0.697449 0.169824 0.629341 
602 2 10.9911 27.3627 5.43572 -25.3608 0.870195 -1.13379 -0.959105 
9482 1 9.64249 20.4218 6.72657 -7.53907 -1.02568 -0.0484535 0.789051 
6541 1 6.78276 23.1675 1.23928 -7.60132 0.10993 0.765945 0.166369 
15541 1 7.01546 25.9351 4.00586 -7.1949 -0.00489067 0.20522 0.740803 
14041 1 6.87805 25.9985 1.33172 -7.32511 0.207327 -0.346793 -0.493844 
9481 1 9.50147 20.5472 1.28959 -7.47241 0.409273 -0.45239 -0.205948 
11041 1 6.79482 23.2628 3.95575 -7.58859 0.071747 -0.0664304 -0.157668 
842 2 10.9651 21.7425 5.45832 -25.7541 0.721646 0.357347 -0.748889 
2341 2 10.9686 24.4625 2.68346 -25.7016 0.0351145 1.05128 0.0249654 
3541 2 8.17648 21.9247 2.57938 -25.417 0.295037 -0.800937 0.372625 
5042 2 8.36381 24.5508 5.30809 -25.4608 -1.28594 0.256026 1.02444 
6841 1 12.2407 23.2214 1.31918 -7.4741 0.265538 -0.207673 -0.0354034 
8041 1 9.75081 25.8914 3.98731 -7.54653 -0.342797 0.53379 0.771322 
9541 1 9.61624 25.8945 1.31315 -7.22279 -0.48135 0.669166 -0.151456 
11341 1 12.3462 23.1683 4.08823 -7.5041 0.0779823 0.222049 -0.0749862 
12541 1 9.58497 23.1742 4.06267 -7.85204 0.0881703 -0.857826 -1.09575 
14341 1 12.2724 25.9741 1.37349 -7.47919 0.559239 -0.659251 0.0280609 
15841 1 12.4578 25.9364 4.00279 -7.05138 -0.565833 -0.639429 0.926769 
17041 1 9.5418 23.2538 1.18943 -7.25515 -0.194261 -0.428671 1.3981 
6842 1 12.438 23.2027 6.80054 -7.48602 -0.300942 -0.198382 0.444549 
6002 1 1.38829 1.27436 6.71535 -7.68764 -0.103268 -0.012749 0.504887 
9002 1 4.16638 4.15484 6.74923 -7.65377 -0.489411 -0.642797 0.826581 
363 2 5.55768 5.5036 10.9791 -25.5236 -0.9401 -1.46934 -0.894112 
1802 2 5.51324 2.79851 8.14893 -25.8291 0.415613 -1.35579 -0.423289 
3062 2 2.8381 5.46865 8.16434 -25.4372 -0.752135 -0.338757 0.053407 
4503 2 2.79849 2.73848 10.8462 -25.605 0.0997683 -0.406333 0.856035 
6003 1 1.37654 1.38835 12.2652 -7.48127 0.149678 -0.580641 -0.49769 
7502 1 4.25343 4.09078 9.59276 -7.63307 -1.15342 0.361463 -0.413939 
9003 1 4.10386 4.04688 12.3488 -7.30787 0.287366 0.0602587 -0.401498 
10502 1 1.44456 1.25239 9.49378 -7.80486 0.0118726 0.261079 -0.0629856 
12002 1 4.17238 1.32621 9.46405 -7.48145 -0.141662 0.0202179 0.519504 
13503 1 1.40508 4.0751 12.2785 -7.37349 -0.0404058 0.584538 -0.0977655 
15002 1 1.4625 4.02155 9.50993 -7.32911 0.0976015 -0.179471 -0.116098 
16503 1 4.11786 1.27428 12.2554 -7.30647 -0.0762869 0.634404 -0.279366 
13803 1 6.85584 4.07502 12.2634 -7.33406 -0.356237 -0.447747 -0.16687 
12062 1 4.13049 6.8528 9.62035 -7.79379 0.013688 -0.31028 -0.746943 
63 2 -0.0191323 5.47547 10.9427 -25.6988 0.646908 -0.484422 -0.567028 
1502 2 0.0618974 2.58356 8.09028 -25.7259 -0.19727 1.27201 0.30982 
1503 2 -0.0179708 2.67377 13.5811 -25.7047 0.814544 0.506157 0.715392 
10562 1 1.42179 6.73183 9.56034 -7.59631 0.0191425 0.568131 0.674294 
6063 1 1.29628 6.88681 12.3665 -7.32321 1.12515 -0.701911 -1.12903 
16563 1 4.10292 6.79638 12.329 -7.67506 0.0556075 -0.0296093 -0.19534 
3063 2 2.72177 5.45472 13.6603 -25.8318 -0.302635 -0.0452829 0.366587 
6302 1 6.98885 1.45973 6.89405 -7.09336 -0.442654 -1.00741 -1.65243 
13802 1 6.90604 4.0213 6.7026 -6.94273 -0.628685 0.768605 0.58909 
6602 1 12.3899 1.35102 6.78148 -7.78501 0.113219 -0.0673002 0.0543589 
9302 1 9.53743 4.11075 6.78024 -7.53366 1.32193 -0.0730486 -0.181464 
6303 1 6.82565 1.34896 12.2733 -7.33875 0.270715 0.059319 -0.600341 
10802 1 6.91503 1.1851 9.42594 -6.95743 -0.675733 1.18797 1.75224 
15302 1 6.84216 4.00522 9.50516 -7.32887 0.57335 0.371058 0.19193 
663 2 10.8932 5.5053 10.9174 -25.3345 -0.370687 -0.775189 0.204988 
2102 2 10.9721 2.69699 8.10874 -25.4315 0.0818977 0.75386 0.912611 
3362 2 8.22823 5.44683 8.12116 -25.9409 -0.388337 -0.246175 0.0787439 
4803 2 8.18305 2.6472 10.8605 -25.7186 -0.0257269 0.316435 0.087021 
6603 1 12.2934 1.37409 12.3443 -7.48714 0.331121 -0.385444 -0.798756 
7802 1 9.51726 4.05826 9.54131 -7.38543 0.999599 0.372895 -0.068464 
9303 1 9.50022 4.14228 12.2921 -7.64072 0.816562 -0.416524 0.112864 
11102 1 12.3593 1.34575 9.53388 -7.66112 -0.432927 -0.0129795 0.15267 
12302 1 9.58822 1.35677 9.4911 -7.57483 0.853293 0.240833 0.282089 
14103 1 12.2424 4.04459 12.2862 -7.58247 0.450649 0.847128 -0.593049 
15602 1 12.3533 4.03184 9.54211 -7.32858 -0.852879 0.330416 0.369256 
16803 1 9.5752 1.34684 12.3107 -7.67973 0.057735 -0.0832474 -0.756428 
3363 2 8.18765 5.40877 13.6506 -25.4782 0.259328 0.582705 0.215145 
2103 2 10.9099 2.75774 13.5929 -25.5786 -0.240866 -0.307487 1.15879 
3302 2 8.33149 0.00154784 8.10005 -25.8607 -1.03417 -0.251471 0.29039 
6663 1 12.3679 6.82991 12.2298 -7.55521 -0.643725 0.0830882 -0.226006 
16863 1 9.52881 6.8744 12.3421 -7.46964 0.68734 -0.370797 -0.214454 
3303 2 8.29978 -0.0304584 13.636 -25.6588 -0.665611 0.201773 0.106177 
16562 1 4.21954 6.80903 6.75305 -7.72232 -0.409774 0.804026 0.565903 
6122 1 1.47156 12.1724 6.74983 -7.58292 -0.0382114 1.44102 -0.180883 
423 2 5.50999 10.9164 10.8144 -25.7149 -0.413957 -0.182746 0.775783 
1862 2 5.46472 8.15564 8.1855 -25.5295 0.478159 0.477987 -0.742133 
3122 2 2.81654 10.9771 8.12459 -25.967 -0.321662 -1.18546 0.357665 
4563 2 2.79204 8.12477 10.928 -25.5721 -0.940774 1.23415 0.118681 
6123 1 1.41313 12.2918 12.3144 -7.25946 0.0474998 -0.359532 -0.773851 
7562 1 4.12932 9.60268 9.49727 -7.36433 0.0472514 -0.454708 0.184876 
9063 1 4.12945 9.52885 12.2012 -7.24554 0.0399676 -0.586321 0.488907 
10622 1 1.45177 12.3377 9.49126 -7.34551 0.270761 -0.279431 0.368106 
12122 1 4.132 12.3489 9.45511 -7.60521 0.0289803 0.225889 0.801418 
13563 1 1.36849 9.57725 12.1808 -7.15044 0.501394 0.0280445 0.695788 
15062 1 1.39752 9.58941 9.49417 -7.31301 -0.0914831 -0.432435 0.300501 
16623 1 4.13483 12.1601 12.2985 -7.30301 0.230946 1.01343 -0.245487 
1922 2 5.46483 13.6257 8.09023 -25.3369 0.979 0.793556 0.828211 
10862 1 6.7973 6.76998 9.47176 -7.39707 -0.00204414 -0.0795964 0.260007 
13863 1 6.86192 9.54733 12.2128 -7.58968 -0.23105 -0.252063 0.154273 
3123 2 2.75036 10.9226 13.6597 -25.6906 0.19845 -0.157842 -0.452597 
1863 2 5.49551 8.19242 13.6493 -25.5049 -0.0160693 0.398919 -0.422154 
123 2 0.0324449 10.9617 10.851 -25.9705 0.677719 -0.787027 -0.24736 
1562 2 0.0909295 8.18412 8.2492 -25.9891 -0.322045 0.39221 -1.01677 
4623 2 2.80692 13.6816 10.9103 -25.7122 -0.446516 -0.67583 0.236674 
1622 2 0.114072 13.6608 8.15094 -25.5162 -0.601594 -0.688717 0.174875 
9362 1 9.54388 9.49881 6.81452 -7.72332 0.522094 0.936842 -0.457815 
6363 1 6.86685 6.73871 12.2353 -7.72856 -0.0512653 1.39017 0.602477 
6423 1 6.86295 12.2442 12.2895 -7.46193 0.193931 0.113587 -0.41919 
10922 1 6.81627 12.1567 9.40381 -7.53425 0.319564 0.521328 0.527447 
11162 1 12.2502 6.74317 9.58154 -7.83699 0.36915 0.53865 -0.345593 
12362 1 9.46239 6.83794 9.51079 -7.56777 0.917155 -0.215111 0.624324 
15362 1 6.86482 9.45877 9.45419 -7.46868 0.0300203 0.404616 0.14887 
723 2 10.9485 10.9479 10.9248 -25.5502 0.0845713 -0.41935 -0.0847178 
2162 2 10.9766 8.13724 8.23796 -25.5885 -1.04838 0.493871 -0.395226 
3422 2 8.19963 10.9374 8.01457 -25.5105 -0.257002 -0.675173 1.381 
4863 2 8.15587 8.23336 10.9223 -25.6345 0.957011 -0.725016 -0.737353 
6723 1 12.2352 12.298 12.32 -7.34559 0.906319 -0.076917 -0.577405 
7862 1 9.61739 9.57113 9.60533 -7.19256 -0.2337 0.112738 -0.590014 
9363 1 9.59249 9.5299 12.2774 -7.51073 -0.14306 0.579328 -0.0216513 
11222 1 12.3501 12.3254 9.54278 -7.85774 -0.322314 -0.733459 -0.118477 
12422 1 9.5611 12.3 9.46129 -7.63459 0.117618 -0.333333 0.696988 
14163 1 12.3118 9.61066 12.3708 -7.40924 0.885803 -0.151543 -1.14518 
15662 1 12.2988 9.50016 9.61681 -7.65329 0.346995 0.419207 -0.135868 
16923 1 9.59961 12.2967 12.238 -7.58477 -0.35768 -0.531332 0.29833 
4923 2 8.27025 13.5776 10.9021 -25.6343 -0.5471 0.58192 -0.157223 
2163 2 10.966 8.26212 13.6365 -25.8168 0.0198538 -0.55512 0.0481637 
2223 2 11.0215 13.6978 13.6322 -25.792 -0.563371 -0.475604 -0.705303 
13622 1 1.38989 14.9953 6.84386 -7.72344 0.294502 -0.240203 -0.0915122 
483 2 5.52433 16.2668 11.0234 -25.7507 0.0885974 0.708901 -0.983144 
1982 2 5.49404 19.1287 8.17971 -25.8772 -0.432283 -0.907376 -0.00629081 
3182 2 2.79837 16.42 8.17476 -25.4653 -0.255021 -0.186138 0.698232 
4683 2 2.7923 19.0705 10.9304 -25.2687 0.033632 0.173664 0.0500145 
6183 1 1.43542 17.7226 12.3806 -7.56698 -0.76077 0.260501 -0.796582 
7622 1 4.1564 15.0957 9.5946 -7.45061 -0.169699 -1.01926 -0.723571 
9122 1 4.06668 15.1196 6.78326 -7.76873 0.608427 -1.44291 0.187357 
9123 1 4.15323 14.9257 12.2905 -7.54434 0.17422 -0.0835359 0.719905 
10682 1 1.35148 17.8039 9.62086 -8.03565 0.75964 -0.795705 0.0311921 
12182 1 4.19355 17.7074 9.59918 -7.16686 -1.25248 0.762168 -0.400021 
13623 1 1.4388 14.9535 12.312 -7.29808 -0.276466 0.902899 -0.490176 
15122 1 1.39353 14.987 9.54723 -7.54079 0.336804 1.11223 0.148579 
16683 1 4.10237 17.6481 12.2807 -7.64722 0.522143 0.714807 0.282702 
15182 1 1.4155 20.5062 9.52145 -7.73706 0.36618 -0.127197 0.227386 
1983 2 5.46401 19.1554 13.5737 -25.1789 0.695233 -0.83625 1.08758 
3183 2 2.70171 16.4226 13.6487 -25.6508 0.555223 -1.48692 1.14328 
183 2 0.0220946 16.4082 10.9062 -25.434 0.0304243 -0.598239 0.452133 
1682 2 0.135432 19.0931 8.23869 -25.525 -1.69595 0.312414 -1.0142 
7682 1 4.13947 20.4612 9.52466 -7.54967 -0.443791 -0.446042 0.116203 
13683 1 1.34408 20.4088 12.2552 -7.61326 0.501303 0.382493 0.311192 
13982 1 6.8376 20.3935 6.84776 -7.41127 0.734309 0.853187 -0.692351 
16982 1 9.52163 17.6958 6.85023 -7.46231 -0.765353 0.235656 0.309284 
2222 2 10.9295 13.599 8.18822 -25.6573 0.495154 1.45029 -0.694918 
13923 1 6.89473 14.9472 12.3519 -7.51584 0.349131 0.230477 -0.121281 
6483 1 6.89703 17.7061 12.3021 -7.84339 0.0264684 0.0558515 0.616851 
10982 1 6.78536 17.7078 9.63452 -7.28587 1.00294 -0.45867 -0.811484 
15422 1 6.90745 14.8909 9.57606 -7.54921 -0.469969 0.133763 -0.134171 
9422 1 9.56317 14.9344 6.71048 -7.15206 -0.610924 0.429192 1.07915 
783 2 10.9939 16.3821 10.8316 -25.8779 -0.375925 -0.250047 0.824744 
2282 2 10.9486 19.0716 8.25737 -25.499 -0.735514 0.526675 -1.30064 
3482 2 8.16513 16.2949 8.16484 -25.5583 0.470179 0.745212 0.524393 
4983 2 8.18383 19.024 10.9379 -25.5419 0.887017 0.732202 -0.358797 
6783 1 12.4294 17.7928 12.1876 -7.45061 -0.0677546 -0.932046 0.719597 
7922 1 9.60277 15.055 9.54247 -7.24962 -0.0967375 -0.500318 -1.48578 
9423 1 9.6665 14.9776 12.0865 -7.10036 -0.193158 0.0838561 1.72722 
11282 1 12.2501 17.7682 9.52836 -7.90804 1.27086 0.328813 -0.0591728 
12482 1 9.54652 17.7554 9.5975 -7.4945 -0.322796 0.00309264 -0.399085 
14223 1 12.4115 15.0302 12.231 -7.46842 -0.456878 0.0491401 -0.541646 
15722 1 12.3237 15.0491 9.48698 -7.35141 -0.152544 -0.288146 0.32838 
16983 1 9.76347 17.6677 12.32 -7.27029 -1.03067 0.25509 0.15521 
2283 2 11.116 19.1359 13.632 -25.6946 -1.48605 -0.505076 0.274029 
3483 2 8.28956 16.3953 13.6756 -25.346 -0.289552 -0.108445 -0.546559 
5283 2 13.7024 19.1095 10.9121 -25.3056 0.692299 0.4435 0.439322 
15482 1 6.79554 20.4413 9.50422 -7.30651 0.885003 0.487673 0.635663 
7982 1 9.57671 20.491 9.49015 -7.52759 -0.0562446 -0.230753 0.117936 
9483 1 9.71003 20.3988 12.2281 -7.27438 -0.136566 -0.301313 0.0792872 
15782 1 12.3032 20.5354 9.60647 -7.84329 0.646874 -0.690056 -0.367839 
6242 1 1.46116 23.1537 6.69006 -7.37461 0.232091 0.285975 0.134363 
14042 1 6.88051 26.0218 6.80323 -7.5091 -0.03644 -0.391649 -0.237785 
303 2 5.51337 27.2611 10.8905 -25.6365 0.390302 1.00262 -0.526859 
3002 2 2.80009 27.233 8.19327 -25.4095 -0.063161 0.567036 -0.864718 
3 2 0.107656 27.3123 10.8649 -25.4885 -0.825048 -0.162257 0.150264 
3003 2 2.78424 27.3235 13.6464 -25.7497 -0.233617 0.381117 0.0533704 
243 2 0.0814866 21.8388 10.8266 -25.3508 -0.64363 0.165199 -0.0636233 
1742 2 0.042596 24.5175 8.12684 -25.6582 0.546948 0.518729 0.0896291 
9183 1 4.16941 20.4534 12.2921 -8.13027 -0.379062 0.280955 -0.446254 
13983 1 6.96281 20.4796 12.2271 -7.81885 -0.694663 0.144605 0.298331 
543 2 5.52542 21.8809 10.9182 -25.3477 0.423068 -0.538326 -0.538557 
2042 2 5.57145 24.5489 8.08579 -25.3118 0.0217222 0.293439 0.269019 
3242 2 2.8285 21.7797 8.15217 -25.6404 0.0588764 0.710486 -0.417137 
4743 2 2.79028 24.5926 10.9059 -25.2854 -0.0306615 -0.595077 -0.583993 
6243 1 1.39194 23.1559 12.1132 -7.92241 0.837178 0.403801 0.827538 
7742 1 4.10222 25.8782 9.47863 -7.85264 0.908109 -0.0838978 0.269738 
9243 1 4.19543 25.9743 12.2503 -7.73066 -0.402117 -0.669822 -0.641014 
10742 1 1.43788 23.2282 9.36405 -7.38714 -0.057989 -0.660703 0.781013 
12242 1 4.16878 23.1131 9.56907 -7.43873 0.0855851 0.867711 -0.194411 
13743 1 1.43225 25.9444 12.3024 -7.79082 0.387481 0.0543179 -0.100057 
15242 1 1.39392 25.8655 9.60167 -7.50199 0.188828 0.616499 -0.43074 
16743 1 4.15119 23.2187 12.2817 -7.8936 0.00336766 0.22386 -0.126398 
3243 2 2.77837 21.8703 13.5575 -25.2393 -0.265377 -0.575268 0.946449 
1743 2 0.0758519 24.5836 13.5543 -25.4728 0.0518095 -0.122037 0.822062 
14282 1 12.2951 20.4095 6.81583 -7.41922 0.797573 0.116189 0.839976 
17042 1 9.71344 23.1542 6.74656 -7.56472 -0.231787 0.408518 0.993066 
9542 1 9.58565 25.9276 6.73449 -7.7081 0.526367 0.144243 -0.0629728 
603 2 10.9961 27.3002 10.8117 -25.3698 -0.605815 0.499725 1.22467 
14283 1 12.4934 20.4277 12.3849 -7.56852 -0.61569 0.763824 -0.409679 
6543 1 6.90294 23.2876 12.2164 -7.73285 -0.26455 -0.346381 0.366174 
15542 1 6.95668 25.9334 9.58763 -7.25832 -1.34756 -0.521155 -0.886902 
14342 1 12.3326 25.9791 6.74721 -7.50763 -0.563165 -0.111167 0.219667 
11042 1 6.92353 23.2221 9.47633 -7.65783 -0.456974 -0.241222 -0.373884 
843 2 11.0035 21.8263 10.9195 -25.7741 -0.20169 0.248627 -0.0721859 
2342 2 11.0852 24.6138 8.11836 -25.2951 -0.902106 -0.557231 0.304215 
3542 2 8.2914 21.8258 8.17302 -25.4816 -0.481427 0.20504 -0.37389 
5043 2 8.20894 24.6144 10.8586 -25.7582 1.43414 -0.463788 0.339631 
6843 1 12.3252 23.1811 12.3029 -7.46434 0.3931 0.39874 0.131699 
8042 1 9.62093 26.0438 9.47488 -7.48453 0.838811 -0.942817 -0.180706 
9543 1 9.62908 25.8559 12.2291 -7.37305 0.103411 0.329799 0.0602292 
11342 1 12.3942 23.2534 9.5486 -7.4153 -0.706534 0.236745 -0.112065 
12542 1 9.62039 23.2339 9.62077 -7.27792 0.361095 0.288735 -1.52405 
14043 1 6.94788 26.0196 12.2633 -7.56732 -0.532391 -0.491484 0.546319 
14343 1 12.3113 26.025 12.2552 -7.61825 0.168311 -0.499782 0.0363295 
15842 1 12.3849 26.0281 9.48503 -7.81489 -0.311719 -0.700159 0.0426901 
17043 1 9.69075 23.0791 12.2238 -7.18688 -1.11128 0.818035 1.57643 
3543 2 8.2653 21.828 13.6379 -25.5226 0.555512 0.32435 -0.722058 
2343 2 10.9994 24.5368 13.6582 -25.5364 -0.565794 0.724982 -0.949946 
364 2 5.4664 5.5111 16.3994 -25.8309 -0.709955 -0.482145 -0.2553 
1804 2 5.45899 2.77802 19.1393 -25.5581 -0.84007 -0.294303 -0.478506 
3064 2 2.59631 5.57203 19.2368 -25.4681 1.07564 -0.742271 -1.66113 
4504 2 2.63677 2.72669 16.3982 -25.8962 0.756369 0.732234 -0.265992 
6004 1 1.35112 1.30504 17.6352 -7.46027 0.0782773 0.536666 1.49625 
7503 1 4.03773 4.17311 15.0454 -7.31418 0.403443 -0.814932 0.192729 
9004 1 4.0441 4.18521 17.7894 -6.98641 -0.240389 -0.319026 0.457194 
10503 1 1.35669 1.35866 14.9904 -7.0769 0.751693 -0.288974 -0.618796 
12003 1 4.10947 1.29849 15.0272 -7.49744 -0.00153471 0.796871 -0.159186 
13504 1 1.28122 4.14744 17.8157 -7.50762 0.0453519 -0.123613 0.294986 
15003 1 1.30173 4.0448 15.1023 -7.19998 0.26569 0.444073 -0.663091 
16504 1 3.98632 1.45314 17.7345 -7.3456 0.934509 0.100578 0.381753 
6064 1 1.29191 6.95737 17.7378 -7.58871 0.423243 -1.02376 0.135886 
6304 1 6.7465 1.3959 17.6674 -7.57251 0.208677 -0.0914453 0.988071 
10563 1 1.34031 6.80894 14.9958 -7.09292 0.896122 -0.228646 0.733343 
1803 2 5.5138 2.70928 13.6809 -25.7667 -0.888627 0.165454 -0.655832 
15303 1 6.83662 4.12566 14.9589 -7.43627 -0.678791 0.215671 0.475149 
3004 2 2.80055 0.012443 19.0847 -25.6773 -0.911721 0.157151 0.265189 
10504 1 1.38778 1.45828 20.4536 -7.81564 0.0613585 -0.46494 0.373776 
10804 1 6.88632 1.32602 20.4538 -7.52078 -0.886773 1.07723 0.480243 
10564 1 1.17201 6.80882 20.5106 -7.41902 0.846999 0.827535 -0.284584 
12063 1 4.15139 6.88805 15.0179 -7.32394 -0.646215 -0.178318 0.193549 
16564 1 4.12682 6.84934 17.7479 -7.35655 -0.632594 0.0322743 0.302342 
12064 1 3.96581 6.91008 20.4789 -7.78061 0.560696 -0.281266 0.0449704 
12004 1 4.13388 1.31878 20.4914 -7.53985 -0.102815 0.529008 0.175169 
10803 1 6.85271 1.43636 14.9649 -7.33871 0.126787 -0.768977 0.308231 
13804 1 6.74815 4.09846 17.6857 -7.56787 0.431621 0.218833 0.744283 
664 2 10.8864 5.49287 16.3727 -25.7357 0.406892 -0.427422 0.352885 
2104 2 10.9385 2.73073 19.1384 -25.9363 -0.330178 0.0975354 -0.179772 
3364 2 8.22243 5.42297 19.1568 -25.2351 -0.259792 0.363207 -0.401229 
4804 2 8.13751 2.73742 16.4181 -25.9046 0.418876 -0.473806 -0.00800661 
6604 1 12.317 1.51502 17.7486 -7.45216 -0.0921156 -1.85535 -0.0814508 
7803 1 9.48128 3.99138 15.1702 -7.44726 1.02273 1.26619 -1.60471 
9304 1 9.48483 4.0722 17.8354 -7.21477 -0.314222 0.627946 0.243806 
11103 1 12.3473 1.4647 15.0085 -7.50488 -0.52491 -0.483307 0.279664 
12303 1 9.57706 1.32136 15.0556 -7.40667 0.107785 -0.103583 -0.322271 
14104 1 12.1409 4.12931 17.6896 -7.35745 0.806629 0.609338 0.334761 
15603 1 12.2747 4.19175 14.9488 -7.4609 0.141183 -0.2454 0.31913 
16804 1 9.55134 1.43053 17.8168 -7.20164 -0.199906 -0.641844 -0.49838 
3664 2 13.6233 5.47819 19.129 -25.497 0.0538937 0.385422 -0.354557 
12304 1 9.52526 1.39355 20.4928 -7.07165 0.519729 -0.0513205 -0.032286 
6364 1 6.81964 6.83868 17.7535 -7.70881 0.812037 0.326586 0.180341 
6664 1 12.2843 6.8896 17.762 -7.4625 0.0991926 -0.143758 -0.101247 
11163 1 12.2395 6.86958 14.8856 -7.26086 0.600316 0.0215592 1.21881 
3304 2 8.17555 0.0397895 19.1611 -25.7847 -0.122905 -0.314221 -1.09153 
15304 1 6.80921 4.09169 20.478 -7.87063 0.65054 -0.275294 -0.187437 
10864 1 6.82527 6.75325 20.525 -7.78208 -0.196978 0.219675 -0.415717 