LAMMPS data file via write_data, version 22 Dec 2022, timestep = 100000

6250 atoms
3 atom types

0 100 xlo xhi
0 100 ylo yhi
0 10 zlo zhi

Masses

1 26.982
2 24.32
3 65.39

Atoms # atomic

3 1 2.575512773991175 0.9333200150272709 2.3940337723074263 0 0 0
2 1 2.5448201739833403 2.3001260846379665 0.04468575012515041 0 0 0
4 1 0.440633243798152 2.691875292488631 2.2994079438002024 0 0 0
252 1 2.420255935761162 3.063481067504962 4.0771419153850825 0 0 0
501 1 0.2611453355790227 1.0610675609108977 4.555424032838683 0 0 0
3422 1 0.3486071588085427 0.3516019630968116 0.5792362364154147 1 0 0
5 1 4.54135242117454 0.3645949691682249 0.5164307095687103 0 0 0
255 1 4.405942914726645 1.089676484067434 4.439610163527495 0 0 0
8 1 4.573742276549826 2.8395054238376427 2.2227626602605652 0 0 0
6 1 6.522599557272448 2.2565962398101367 0.16825747479409225 0 0 0
7 1 6.684998797600508 0.8049638820639266 2.4093994018632015 0 0 0
258 1 6.594340665233613 3.0173329088564342 4.180573266444603 0 0 0
12 1 8.50861703879849 2.7409443413536336 2.1195082103605563 0 0 0
9 1 8.54442070777408 0.3798950098051526 0.4016661543820113 0 0 0
259 1 8.558317226666162 1.0803652102808419 4.264510225204721 0 0 0
11 1 10.52834219635108 0.8397031730675898 2.2146842886569837 0 0 0
263 2 10.48840710665074 3.1108732536263477 3.922397665144337 0 0 0
16 1 12.563249486934192 2.819337075203007 1.8350820774952825 0 0 0
10 1 10.627970080177297 2.2570921982295884 9.9116917894463 0 0 -1
13 1 12.491143345549197 0.33761937517134744 0.38309040406413863 0 0 0
2964 1 12.509341955216103 1.3073372984563902 4.153645213343195 0 1 0
15 1 14.625763261872795 0.9167482768531904 2.2826507748069105 0 0 0
65 1 14.456899282415456 3.269287742402276 3.859935658378992 0 0 0
17 1 16.529011511735067 0.44996692884865874 0.33690937431933504 0 0 0
267 1 16.519326428012416 1.3206166764539533 4.082562681702181 0 0 0
20 1 16.437821490378766 3.0180699236235324 1.7744232554710542 0 0 0
19 1 18.742376573181463 0.711703917613722 2.1225836909904032 0 0 0
24 1 20.51447020265543 3.087333751360169 1.822059002605601 0 0 0
69 1 18.396274845850982 3.3713852032908975 3.7493620726890637 0 0 0
21 2 20.40507606790237 0.5208992937118917 0.19466623447811843 0 0 0
271 1 20.588930404059006 1.5145905632255252 4.095964813697903 0 0 0
18 1 18.408044174478746 2.4162638013785918 9.90554536518462 0 0 -1
23 1 22.53780104799461 0.9870877072139029 2.0722325361560454 0 0 0
28 1 22.614935029352 3.3742747423151456 3.56310555879981 0 0 0
26 1 24.502597767391105 2.883214884973483 1.613932363522977 0 0 0
25 1 24.420804355295147 0.48675862080521926 0.052921639703679225 0 0 0
27 1 26.586903108770017 0.7222603660924222 1.8488725261596335 0 0 0
32 1 28.40818674655017 2.809190729856056 1.3276784967367252 0 0 0
279 1 28.94660909382688 1.3800506975041058 3.6152740856683336 0 0 0
77 1 26.412296579947462 3.0964922501978447 3.234849619492782 0 0 0
31 1 30.736895018834886 0.7512108001833889 1.7621902545754309 0 0 0
36 1 32.664200855848605 3.0275901876992997 1.2583405661003844 0 0 0
283 1 32.62726116923582 1.2179759243045927 3.6810262223013654 0 0 0
35 1 34.4000548665925 0.8878673418637958 1.5372605644777098 0 0 0
40 1 34.585856575737004 3.2049857204131236 3.0568744744603404 0 0 0
287 1 36.53053582115846 1.2299786992541102 3.437114896215147 0 0 0
38 1 36.49403498490304 2.769774318330193 1.185433747807793 0 0 0
337 1 36.688347269709176 3.5895402255535442 4.747743747691326 0 0 0
39 1 38.305716646027456 0.7539941462937942 1.4867511563143705 0 0 0
44 2 38.63838284185163 3.1360379724024434 2.8916912694919583 0 0 0
42 1 40.304859217341516 2.928007904312275 1.0241987509230863 0 0 0
43 1 40.55210600620431 1.3361886263337925 3.1281980887516374 0 0 0
292 1 40.63295210219592 3.782827695104066 4.5917724992275435 0 0 0
48 1 42.59410573659825 3.2870265620578896 2.7445093482389398 0 0 0
45 1 42.55532382543727 0.972353083296231 1.4419424063392268 0 0 0
47 1 44.46924608745591 1.3515297163952256 3.375062028697648 0 0 0
345 2 44.61987367277535 3.5601354812971038 4.79844799162558 0 0 0
548 1 44.43241911809735 3.0097896272679647 0.8788538597459169 0 0 1
299 1 48.34304117965409 1.3021589800998665 3.1935988761723384 0 0 0
46 1 46.48501825038609 3.283486012959392 2.797120816290293 0 0 0
49 1 48.42031131772544 2.876221827589889 0.9834415029457777 0 0 0
2746 2 46.3579072060872 0.8167538498009864 1.5866876106451941 0 1 0
50 1 48.45400063524685 3.5161614565284602 4.631047487707462 0 0 0
53 1 2.4079793986000126 4.637372424810989 1.8526778521219436 0 0 0
302 1 2.3556917009703167 6.829474544917631 3.533615232834469 0 0 0
301 1 0.29551769552571955 4.912711314531183 3.7816924961848875 0 0 0
54 1 0.3194748121435461 6.717508701902008 1.31873846093702 0 0 0
305 2 4.504633874264516 5.18233977788548 3.7235392536902108 0 0 0
58 2 4.469256289793494 6.488778409813839 1.5968228763446457 0 0 0
256 1 6.553249114874035 4.693778156652743 1.6283297938570014 0 0 0
306 1 6.523973021883756 6.995872716952262 3.2422237103664986 0 0 0
312 1 8.727715366736984 6.615536823592363 1.0723219721883528 0 0 0
260 1 8.449351017632646 4.962863527512206 3.4764216538578285 0 0 0
61 1 10.503980295193344 4.676432866216165 1.4766077116175231 0 0 0
62 1 10.337891855155188 7.054351257751776 3.155652878987022 0 0 0
63 1 12.25244355504782 5.116569630423623 3.497183344834777 0 0 0
64 1 12.525138855797122 6.913160709542458 1.1718587639559737 0 0 0
70 1 14.453549979483114 7.187202720343452 2.9010751945016753 0 0 0
534 1 14.389043089599292 4.892207241746265 1.4776720770804845 0 0 1
318 1 16.57280891662987 7.792321248688359 4.736473398752625 0 0 0
67 1 16.60014188874615 5.260566875708158 3.2607377247283558 0 0 0
559 1 16.280298940551393 6.707885294624599 1.0528691977761624 0 0 1
68 1 18.404244093042323 7.280976781000125 2.602678685791059 0 0 0
561 2 20.4299993322788 7.057716709105217 0.7968951456059472 0 0 1
535 1 18.566723391933873 4.834722459099391 1.3649052735344496 0 0 1
71 1 20.522376874173798 5.376525626214774 3.29854923733729 0 0 0
74 2 20.511881167971268 7.902972910165202 4.411726589187831 0 0 0
22 1 22.48738577057216 5.127395953948105 1.2035285025298585 0 0 0
72 2 22.556085676338668 7.430564283738204 2.669926444285785 0 0 0
75 1 24.610112270749593 5.389044576004855 3.1160640777698734 0 0 0
563 1 24.625668846886658 6.917657627254434 0.8606625143831199 0 0 1
78 1 24.399944035378837 7.798903930688839 4.472775024824377 0 0 0
73 1 22.241832237185278 5.705788845117419 5.136833516461718 0 0 0
76 1 26.53956068476288 7.235991219543132 2.5620151959562856 0 0 0
79 1 28.53458593287011 5.2816888127422885 2.8831383775768886 0 0 0
565 1 28.572996824604065 6.687359434126336 0.491697215830345 0 0 1
539 1 26.511385116562494 4.897275030687281 1.0544729926437657 0 0 1
82 1 28.640691900435872 7.652009460397183 4.31924619643583 0 0 0
326 1 26.76563102890757 5.534946020676466 4.9230911849030985 0 0 0
80 1 30.404415830319348 7.2743908306426475 2.2707484895651286 0 0 0
81 1 30.61064274777474 5.5056272875982195 4.789943998342988 0 0 0
86 1 32.43404116665783 7.63890751237061 4.145955866262944 0 0 0
83 2 30.404025502047737 4.67989584627368 1.121772754389132 0 0 0
567 1 32.68677464948435 6.912540317890933 0.4160565460828179 0 0 1
85 1 32.38701639548642 5.363554530082623 2.726522609932618 0 0 0
34 1 34.64087164027863 4.788303400885982 0.7876564982884913 0 0 0
84 1 34.62238308902918 7.223398096976374 2.5029226092881816 0 0 0
87 1 36.63099481102817 5.268341341561124 2.5864073496749955 0 0 0
334 1 34.46615590248611 5.4351094497220895 4.698662002549327 0 0 0
569 1 36.40560769643307 6.708005748195211 0.08015198846176946 0 0 1
90 1 36.56300416436039 7.689518027054015 4.188826698342867 0 0 0
89 1 38.438878599603115 5.721886606752867 4.369905135077015 0 0 0
94 1 40.4104393087577 7.728555240778048 4.026398691266152 0 0 0
88 1 38.420890875372486 7.3973497718038335 2.0099193240026247 0 0 0
91 1 40.3494628480971 5.419634027039143 2.502922544976961 0 0 0
545 1 38.37523654788931 4.944101203410643 0.7803496318006855 0 0 1
571 1 40.66495987934753 6.8925133468269575 0.03914124246133198 0 0 1
93 1 42.59397450254151 5.7446447950790525 4.169945939623206 0 0 0
98 1 44.496610378766356 7.695013244727241 3.668702262179457 0 0 0
92 1 42.50351134373775 7.3764094728031155 1.916511395705981 0 0 0
95 1 44.48173902536319 5.198652610712276 2.5156358138594666 0 0 0
547 1 42.48751438343157 5.021177302647013 0.4943731873399599 0 0 1
97 1 46.40253168746159 5.7568268209330355 4.08542774170532 0 0 0
145 1 46.48259747765649 7.2104085415436066 1.776477257054913 0 0 0
96 1 48.35718814370422 5.28727585170039 2.193930635990881 0 0 0
100 1 48.459021940733216 7.915063175084252 3.6853812632739413 0 0 0
549 1 46.54857395221797 4.867213034713239 0.4061939400598231 0 0 1
550 1 48.48268039831371 6.824014701087391 9.911210854945635 0 0 0
103 1 2.2049450590501776 8.453853562647206 1.230688763527236 0 0 0
352 1 2.382022703476534 10.859543942575074 2.897614826515923 0 0 0
104 2 0.3897455849969798 10.645042284950726 0.8513553476915062 0 0 0
351 1 0.2667794169180547 8.899988842279415 3.075497097278345 0 0 0
3523 1 0.6545006861879961 11.271733668019694 4.6940937923357335 1 0 0
355 1 4.217362962388982 8.91150258130968 2.9911174579010185 0 0 0
108 1 4.266283068734459 10.566154552708097 0.8956305002554373 0 0 0
107 1 6.194663429796976 8.424886013340616 1.2561312997853487 0 0 0
356 1 6.4447939702040165 10.730065102872494 2.6823917352246114 0 0 0
358 1 4.530064095856223 11.096242211333573 4.61093172098302 0 0 0
357 1 6.430872409579106 9.260118214305646 4.948354261510892 0 0 0
359 1 8.441517979318126 8.81708770742639 2.97979812400965 0 0 0
112 2 8.341912596141256 10.346308110829886 0.7122099641558689 0 0 0
360 1 8.48378770781616 11.412370826080416 4.422872019222053 0 0 0
363 1 10.397991172791373 10.960833164157481 2.5155153156836847 0 0 0
111 1 10.491114705009045 8.674858874352411 0.9880770602871679 0 0 0
361 1 10.51048332042624 9.406920415300325 4.890899232998027 0 0 0
113 1 12.583628305657232 9.38836789417771 2.5049091195600237 0 0 0
114 1 12.536415160829847 12.051326627779254 3.620221685247747 0 0 0
115 2 14.450378688254382 9.793899257897483 4.30603477052244 0 0 0
584 1 14.295617308104081 11.55138208236704 1.7406031775547974 0 0 1
558 1 14.32616040283029 8.920908970916464 0.5387963807786282 0 0 1
556 1 12.36448143795091 10.895950817020456 0.01854443264818786 0 0 1
117 1 16.406238124627222 9.347859961950839 2.148728487466418 0 0 0
120 1 16.520401855316447 11.868692256579267 3.6537103617594564 0 0 0
370 1 16.57445145168996 10.967239387017198 9.841103961043759 0 0 0
118 1 18.532698189168602 11.2896138832716 1.7902219411124587 0 0 0
119 1 18.25384948086689 9.721375088625408 4.235259966931382 0 0 0
560 1 18.418007317403074 8.871860589381036 0.39634095004939524 0 0 1
121 1 20.476330255488197 9.451511972394714 2.2785372810736546 0 0 0
171 1 20.71669808426433 11.699057884472182 3.584552778108957 0 0 0
122 1 22.405695529776438 9.704621614452932 3.990502825284262 0 0 0
125 1 24.526590099117605 9.464259487734191 2.1529444249511784 0 0 0
562 1 22.601667398947505 11.457052192357969 1.8037535561376248 0 0 1
175 1 24.558849573065586 11.676681860011469 3.7166707206876497 0 0 0
373 1 22.550773401044125 8.940718945008964 0.5015638381488916 0 0 1
126 1 26.469181235344713 9.620612589117146 4.032039284985296 0 0 0
129 1 28.565162682917244 9.309869087977917 2.1932646108925904 0 0 0
564 1 26.585450789247055 11.413248232811949 1.748778273981647 0 0 1
377 1 26.565284217048386 8.888638067035103 0.31895270409206 0 0 1
179 1 28.59562716085784 11.555377096507767 3.6570692574367394 0 0 0
130 1 30.44307232752833 11.317628458192857 1.4694287226310756 0 0 0
131 1 30.62621253400624 9.696795768993914 3.7530715222124282 0 0 0
133 1 32.574448929036215 9.20131082129468 1.9296142684276942 0 0 0
134 1 32.63835780797003 11.72926408351674 3.334269449146363 0 0 0
566 1 30.479436251933926 8.95668634803987 9.998356260719913 0 0 0
135 1 34.579109769237334 9.768583563217113 3.910935824540363 0 0 0
137 1 36.52827406587316 9.384335129620291 1.7775315737498265 0 0 0
594 1 34.421180591415514 11.271148204485565 1.4245540227435194 0 0 1
187 1 36.461242232996305 11.608295553248805 3.317386074665293 0 0 0
568 1 34.436513692057986 8.959318399074533 9.88824070138835 0 0 0
139 1 38.46256058146665 9.686931076312725 3.6766834663861943 0 0 0
141 1 40.50696431783493 9.196824165795713 1.4468099650759472 0 0 0
570 1 38.47065068241013 11.268936370020851 1.1254577153475687 0 0 1
138 1 40.395938978773174 11.672563886611796 3.110917019647261 0 0 0
191 1 42.60766001953866 9.54225321997469 3.4761099894483944 0 0 0
142 1 44.59665282638776 9.363054075563307 1.3988929475352339 0 0 0
598 1 42.3104570994296 11.350708557904472 1.1616426856818913 0 0 1
146 1 44.50494034324212 11.808226801577781 2.983886594392504 0 0 0
193 1 42.47324272710774 12.32165028359405 4.724159660209827 0 0 0
147 1 46.36686950039249 9.831270361077879 3.2664428222365625 0 0 0
149 1 48.674273017936684 9.412022789136753 1.0467331624777283 0 0 0
574 1 46.34500504228833 11.557049266316822 0.6607478880471798 0 0 1
199 1 48.31941591791171 11.829476410913836 2.685049471214485 0 0 0
197 1 46.59826080748107 12.21178946671451 4.654994870857329 0 0 0
153 1 2.537060080555646 12.49727147900257 0.5126065944970517 0 0 0
401 1 0.5561460308700831 12.821986335693182 2.2895748181018902 0 0 0
402 1 2.566174649268607 14.647746388432822 2.0662749406427827 0 0 0
403 1 2.5314411424681196 13.097757518004519 4.438947733089941 0 0 0
3573 1 0.5501746426249685 15.075632512864246 4.04015332791037 1 0 0
154 2 0.5935854394705169 14.504755367382392 0.21472428509354563 0 0 0
405 1 4.516962509678222 12.698612527516586 2.40985023356073 0 0 0
157 1 6.346623211425561 12.225431106317549 0.45603556510527654 0 0 0
406 1 6.4167111630652265 14.722349625101415 2.088147140603429 0 0 0
408 1 4.594946586887408 15.184632566316594 4.181900991881375 0 0 0
409 1 6.39135160059625 13.168857219325886 4.270615030633225 0 0 0
579 1 8.421224888821587 14.3728788284631 0.37730319105524035 0 0 1
161 1 8.519504272699931 15.116444739658295 4.225975260614495 0 0 0
159 1 8.34659617016483 12.714501900783608 2.480551357583088 0 0 0
116 1 10.23573632712682 12.409549975857658 0.6314437220965409 0 0 0
166 1 10.54403801573695 14.074213608436814 2.6342447344109448 0 0 0
160 1 10.781673552730048 15.79138218372477 0.7138395211786493 0 0 0
163 1 12.587567654293034 13.56017838849324 0.8699591030149858 0 0 0
164 1 14.911352476534383 13.703973589668667 2.9942686466637403 0 0 0
583 1 14.672016777210029 15.46325759137585 0.7451361909383648 0 0 1
167 1 16.760411713131255 13.527640552295447 1.2274212960486215 0 0 0
217 1 16.728728412750293 15.929031719237546 2.624056537859657 0 0 0
168 1 18.614279168783188 13.91077259981573 3.2533266904765803 0 0 0
585 1 18.790351601069467 15.53710677607394 0.670433213727879 0 0 1
586 1 20.799497321532794 13.47659012374853 1.2028151425887494 0 0 1
221 1 20.560774138995846 15.710973518694097 2.6709386800596615 0 0 0
172 1 22.670911528131374 13.690190925355195 3.302478557232676 0 0 0
587 1 22.59219657590826 15.270802121951588 0.8394006549364879 0 0 1
588 1 24.774012411867087 13.359483584170952 1.410335343239654 0 0 1
225 1 24.72429506007486 15.630582690691387 2.915085567034389 0 0 0
176 1 26.68861255446797 13.726793895119927 3.349696957156159 0 0 0
589 1 26.65983123789772 15.375472407904635 0.6555263895174627 0 0 1
590 1 28.65333991607918 13.32124633527162 1.2175550854842303 0 0 1
229 1 28.597226690597548 15.604562173325016 2.571958095869433 0 0 0
182 1 28.446502286483565 13.976746680944162 5.237364427875532 0 0 0
592 1 32.585624381988985 13.3531087345339 0.9892944147164633 0 0 1
180 1 30.600267525488373 13.522788950734553 3.0647735341934155 0 0 0
591 1 30.62372672791408 15.415856737160738 0.6950860879980753 0 0 1
233 1 32.72577145795109 15.61809478154013 2.6635458631891837 0 0 0
186 1 32.474265710628934 14.221965097325613 5.052094815707688 0 0 0
183 1 34.53384610919509 13.654312006412791 2.936342909858444 0 0 0
190 1 36.679254494742025 14.269165856638624 4.566407076279075 0 0 0
593 1 36.20782350762307 13.545460580734273 1.1105720286077547 0 0 1
237 1 36.72629880438558 15.87281850792999 2.378581146210301 0 0 0
184 1 34.47759559921625 15.438629427903505 0.5152204268334046 0 0 0
596 1 40.303279587862356 13.327999097498564 0.8332028602444961 0 0 1
194 1 40.48274180837295 14.305056322102583 4.61271810345586 0 0 0
595 1 38.55708582936088 13.616856084440098 2.775493175365492 0 0 1
241 1 38.32869041689584 15.127324276354551 0.5458375150527429 0 0 0
192 2 40.391901107856604 15.778636843868679 2.1222681619984005 0 0 0
239 1 38.479109136431894 16.1164260006239 4.3218525588002485 0 0 0
188 1 42.39741364269835 14.014091956846336 2.6286115806780073 0 0 0
198 1 44.293904670490946 14.254148341733965 4.400772814465358 0 0 0
195 1 44.36017020989841 13.34980208884783 0.5410462434357612 0 0 0
245 1 44.45522990791832 15.737821786319985 2.0393996598320228 0 0 0
243 2 42.358833036741025 16.351799563814204 4.000303488789833 0 0 0
597 1 42.453862397196055 15.278634569177955 0.24709364512072302 0 0 1
200 1 48.485886093419296 14.190812230335489 4.291803817680758 0 0 0
599 1 46.27984874850743 13.741678478524962 2.472970539196743 0 0 1
249 1 48.56913674334033 15.667828305629241 1.8711038321725681 0 0 0
600 1 48.48676860604824 13.27320261260838 0.3521269955435867 0 0 1
247 1 46.359826801223136 16.100840719762555 3.791241144817726 0 0 0
203 1 2.4884870721589536 18.751999128281685 1.4504709749175804 0 0 0
451 1 2.45606777258208 17.171886708967502 3.507375431684851 0 0 0
3374 1 0.4870973794672384 16.713150421156705 1.6913688081734246 1 0 0
204 1 0.6242530584163305 19.227113500216007 3.0833223888661188 0 0 0
158 1 4.453005807176395 16.56636940610941 1.7782377856588316 0 0 0
208 1 4.482304026323476 19.090177121272593 3.101728275213277 0 0 0
207 1 6.599377447500698 18.52991541024614 1.420017893309825 0 0 0
455 1 6.291409881162722 17.294431407287334 3.741244278501221 0 0 0
162 1 8.640727000904182 16.395754902644303 1.9341716494388912 0 0 0
212 1 8.7360404611369 18.722676630586573 3.7654678778906394 0 0 0
211 1 10.62357614345656 16.5497333403081 4.118951479965627 0 0 0
210 1 10.57338150442577 18.24080900314706 1.9344020569864684 0 0 0
213 1 12.697065695637544 15.811349378274134 2.571260885650063 0 0 0
215 2 14.741775125383421 16.28721072394056 4.567671389639318 0 0 0
216 1 12.621810626720634 18.47233619937924 3.9094891651367645 0 0 0
214 1 14.45172912035967 17.699029887715835 2.055450184784977 0 0 0
607 1 12.686288406318669 17.66829054628818 0.24511368347090928 0 0 1
609 1 16.575517173378078 17.35811814559056 0.38192797337586903 0 0 1
220 1 16.64498126712541 18.25636411327547 3.9457656691822454 0 0 0
218 1 18.65725577363662 17.937793173661635 2.0446798357720035 0 0 0
611 1 20.603981412247048 17.362545873515 0.20099803744481431 0 0 1
224 1 20.81394255841557 18.07576014820354 3.8875003391653404 0 0 0
646 1 20.772566235128203 19.618652435634154 1.8511505349323687 0 0 0
219 1 18.60489499985022 16.146258694354113 4.505709935470688 0 0 0
293 1 42.57573054964143 0.2026989200173343 7.428822680887669 0 0 0
223 1 22.787814132257758 16.029907982254667 4.5737861990669355 0 0 0
222 2 22.667224522492152 17.62771615677025 2.2139606926886306 0 0 0
228 1 24.50525725330168 18.19021966558576 4.005079211474193 0 0 0
613 1 24.556723163591407 17.387110711570525 0.35856734931021844 0 0 1
650 1 24.68190802718089 19.741105386736187 1.7773292583152391 0 0 0
227 1 26.739978550236057 16.213261914100215 4.6712211573069755 0 0 0
226 1 26.461115273179942 17.67937011220949 2.442713273706208 0 0 0
232 1 28.628795065294433 18.092451162989768 4.0690327400005595 0 0 0
615 1 28.46980011568092 17.47740192628503 0.3299908772653351 0 0 1
654 1 28.581876975190507 19.738366999563787 1.9125393217663353 0 0 0
231 1 30.617560277577144 15.941822940165855 4.33249669981196 0 0 0
230 1 30.613290860269853 17.828230808655285 2.28426674075009 0 0 0
236 1 32.48209737694443 18.181286770313847 4.152274166586265 0 0 0
658 1 32.39744256692888 19.88379939825318 1.7239574331249536 0 0 0
617 1 32.39789895824223 17.313952682960366 0.2936867141090843 0 0 1
235 1 34.57810905474523 16.25835488934573 4.369535077452586 0 0 0
234 1 34.53421087738425 17.771815308747545 1.8662552643070616 0 0 0
240 1 36.43019523724565 18.191223188915675 3.9968261393186517 0 0 0
662 1 36.46058914672564 19.50712098624923 1.566266459890579 0 0 0
619 1 36.67428074565479 17.180549282062824 0.20324890435772636 0 0 1
666 1 40.33443356747562 19.489490042999176 1.5349814657180751 0 0 0
238 1 38.53236230369259 17.73497213110275 2.033259436131823 0 0 0
244 1 40.40760670763027 18.149807855167705 3.8708256393693503 0 0 0
242 1 42.64822780909549 17.70106706424283 1.6458575258174073 0 0 0
248 1 44.5752204303916 18.164353560606656 3.523141317484824 0 0 0
670 2 44.35822406374464 19.702416791334123 1.21323583679427 0 0 0
246 1 46.567731910563175 18.033714220984862 1.679812619360818 0 0 0
250 1 48.40538525283108 18.13288325002862 3.4631493344183726 0 0 0
674 1 48.58092253786565 19.648667116795867 1.070684059338391 0 0 0
3174 1 0.4190467789875837 1.6490900340731303 8.260700056770903 1 0 -1
254 1 0.4407193014759807 3.3603727323787855 6.130876111413452 0 0 0
1 1 2.4902178667458768 1.4368941598837621 6.440362933972475 0 0 -1
55 1 2.454186235063844 3.7778660323916666 7.907964265599993 0 0 -1
504 1 4.5815677926146 1.8723536002581622 8.297386748238035 0 0 0
502 1 4.708227408524773 3.3939109665623115 5.970278279156375 0 0 0
257 1 6.646093136463888 1.458259438213309 6.158100028405052 0 0 0
530 1 6.458973162407195 3.675250227762006 7.960175742504589 0 0 0
262 1 8.559490066731096 3.384558557587073 5.877170907821247 0 0 0
506 2 8.558850451277477 1.9110552888208328 8.176060684203337 0 0 0
2966 1 10.710220980086609 1.5390902494677545 6.084152307166491 0 1 0
266 1 10.38402765966188 4.074061078466254 7.720906902835346 0 0 0
265 1 12.588442810056167 2.050028185125104 8.15469153161828 0 0 0
313 1 12.389780779037194 3.5912831965785927 5.849203506605028 0 0 0
625 1 48.560341713339895 17.341438612303527 9.592977814892228 0 0 0
14 1 14.507018536375677 2.5799161588939485 9.939418252305915 0 0 -1
264 1 14.40976137573796 1.7683485577257194 6.171140723387735 0 0 0
317 1 16.541707866032 3.92171070113221 5.540409272444065 0 0 0
270 1 16.35797122005738 2.0658609995579 7.9020202607280225 0 0 0
268 1 18.416377131540074 1.5079263201198132 5.883612330467013 0 0 0
274 1 20.30768726646913 1.9609918399991852 7.887763475805096 0 0 0
321 1 20.500262954580997 3.671520372555159 5.617059891151234 0 0 0
496 1 46.47746641822457 18.597672820920913 5.323120200547928 0 0 0
319 1 18.309202522301973 3.916489414633399 7.638585667861761 0 0 0
512 2 22.43069595392119 2.5995478335872004 9.771077235787885 0 0 0
272 1 22.48514524605058 1.8071189501926215 5.888987303057813 0 0 0
278 2 24.443810139555417 1.9199256364127164 7.6621138045426065 0 0 0
325 1 24.547283084551967 3.413609673550585 5.25994269819607 0 0 0
273 1 22.504338424527468 0.22619766137898506 8.251736188526726 0 0 0
29 1 28.463072291639467 0.3137848357056195 9.887244478891747 0 0 -1
329 1 28.717874260183727 3.485066299355421 5.207813567377404 0 0 0
276 1 26.73592480501287 1.5854201679078208 5.690634211051392 0 0 0
282 1 28.405300330017145 1.9995843345540585 7.668323306166244 0 0 0
514 1 26.119093976652202 2.3150997679046434 9.6433016311332 0 0 0
623 1 44.447130979555666 17.433740409383237 9.843990358130533 0 0 0
333 1 32.468043463871744 3.5003665318633783 5.152201440425351 0 0 0
33 1 32.59177875338576 0.39478010762125837 9.798925060167377 0 0 -1
280 1 30.741777043684753 1.6198665608632625 5.689720538085211 0 0 0
30 1 30.50513943005754 2.447668248008175 9.43258553729133 0 0 -1
286 1 32.55996124227429 1.8852104714202993 7.495828180881162 0 0 0
297 1 46.404012786592894 0.05171249759975258 7.612248181051938 0 0 0
331 1 30.49307375322142 4.097093887726488 7.224398818767029 0 0 0
37 1 36.406777567430446 0.5336402117238838 9.78152620599629 0 0 -1
495 1 44.54359951285404 16.6652963930569 5.74851770699263 0 0 0
284 1 34.629687422106194 1.577172152294252 5.488137888189608 0 0 0
290 1 36.58948350469036 2.0375918238344077 7.292364923303894 0 0 0
518 1 34.441166826913786 2.46988199607659 9.174972381985734 0 0 0
41 1 40.584941396834296 0.37324739369720855 9.633368705282377 0 0 -1
288 1 38.68046536714402 1.8127354028999765 5.187224110162626 0 0 0
294 1 40.54565676083876 2.00706256303064 7.371225490174039 0 0 0
520 1 38.44166033560136 2.4877281635021173 9.133671419989755 0 0 0
497 2 46.43967201263375 17.150560694866023 7.749187559447464 0 0 0
624 1 46.45643632167011 19.27445784100434 9.170476337450603 0 0 0
523 1 44.339753846054194 0.5171756411740991 9.542109103100351 0 0 0
295 1 42.560048238155346 1.7745544731359404 5.2258759894713505 0 0 0
298 1 44.49908095322857 2.145287114089456 7.307534330127787 0 0 0
522 1 42.52334081714327 2.58416504774692 8.992533994050795 0 0 0
343 1 42.13956397979432 4.088586732336007 6.63569035358675 0 0 0
296 1 46.521197333294005 1.6117054679599787 5.359359794796443 0 0 0
300 1 48.51012514288551 1.9483789868845598 7.007907288098994 0 0 0
524 1 46.37028973760268 2.4194062458887213 9.13157852317384 0 0 0
525 1 48.41236709123753 0.3223138903010079 9.522237680882473 0 0 0
347 1 46.29443175816072 4.166334127980768 6.663986250774565 0 0 0
500 1 48.45479507096096 19.09961771800872 7.240084499168935 0 0 0
51 1 0.3851747270597221 4.1767769826324 9.911004963627775 0 0 -1
526 1 0.3113917192507233 5.759312077729459 7.542650942267705 0 0 0
52 1 2.386602360093596 6.147080890424096 9.550008991772396 0 0 -1
304 1 0.3206461027187743 7.314326601688486 5.30467679801555 0 0 0
303 1 2.3527607864359594 5.406555897598942 5.711397248116848 0 0 0
527 1 2.2866300882256034 7.825750175374421 7.4019585647938 0 0 0
56 1 4.598624902524341 4.238042714547316 9.843574510042544 0 0 -1
308 1 4.4633196044992305 7.474865902055315 5.173360163215819 0 0 0
528 1 4.3008935227606475 5.64667025557046 7.608233411115621 0 0 0
57 1 6.476716182334133 6.20416728218611 9.349879604659032 0 0 -1
307 1 6.426739764832021 5.4046918164310425 5.735369677257175 0 0 0
553 1 6.431632767011047 7.83101049287555 7.1553471908513 0 0 0
529 1 8.340443532869887 7.31494280024912 5.187221506008707 0 0 0
309 1 8.548837663409396 4.340694871768733 9.782920597424438 0 0 -1
311 1 8.400471184325543 5.794858228944476 7.523893050394784 0 0 0
59 1 10.595510374085077 6.464470545694338 9.207434509573032 0 0 -1
310 1 10.475974651420334 5.613487685980522 5.438272584461185 0 0 0
508 1 12.47882007087466 4.52648605118008 9.63491816597716 0 0 0
532 1 12.57908844657254 5.9758792108001035 7.21945309158088 0 0 0
66 1 12.467435682417557 7.511219346983863 4.760433394971448 0 0 0
315 1 14.556699742232723 3.97155244382941 7.665750623250662 0 0 0
314 1 14.482723592633057 5.717121644428814 5.2315049763810135 0 0 0
533 1 14.345001819461885 6.5143790236348496 9.102092396374305 0 0 0
510 1 16.490468364122165 4.4886957323818 9.488044638456625 0 0 0
320 1 16.352856141923375 6.180139021898217 7.058236935273223 0 0 0
316 1 14.348190609245192 7.922930618325567 6.437697088879231 0 0 0
369 1 18.4173274334323 5.949137206599356 5.059142723846161 0 0 0
536 1 20.33016347699428 4.6783453780774815 9.432710374599148 0 0 0
324 1 18.216712030184894 6.421131376112018 9.06848468274267 0 0 0
322 3 20.275376799463668 6.0737837753497255 6.964446291685033 0 0 0
323 1 22.503489836614577 3.9609836964698713 7.459505831930179 0 0 0
538 1 24.391403348976894 4.255789561538016 9.336110086708837 0 0 0
537 1 22.5592316579383 6.510635000436174 9.022468697008977 0 0 0
328 1 24.532665652244717 6.091803111126863 6.697358381694834 0 0 0
327 1 26.380946070394028 3.982388510015863 7.184318482823951 0 0 0
540 1 28.449025829945636 4.222295187001167 9.136171722612437 0 0 0
332 1 28.477020543414255 6.036731097850283 6.7827509254046 0 0 0
379 1 26.524773299718074 6.192506399206486 8.803226146435781 0 0 0
542 1 32.62590805136318 4.8481622681552485 9.020626134719096 0 0 0
336 1 32.44753474089196 6.034186226306404 6.600130027779032 0 0 0
541 1 30.484029606073978 6.606059513087023 8.593232142400517 0 0 0
335 1 34.56000482396391 3.9103024971952673 6.926371752408836 0 0 0
544 1 36.60963788319694 4.307128201446981 8.655680608205955 0 0 0
340 1 36.54997830168194 6.069136729591751 6.300844277742972 0 0 0
543 1 34.71194350799919 6.521499882115413 8.207964658656744 0 0 0
339 1 38.69866338148527 4.079158829897393 6.572881622676886 0 0 0
546 1 40.58540326292841 4.3691472380198295 8.761557117701413 0 0 0
341 1 40.37333267228015 6.139584146250031 6.133531128073524 0 0 0
344 1 38.62820483834798 6.326795994480155 8.15791352668223 0 0 0
338 1 38.62278540964472 8.005816644658141 5.765572355514727 0 0 0
573 1 44.47185778200591 6.861474170190194 9.839652976342805 0 0 0
342 2 44.414535579225216 5.951805836298797 6.116265205696214 0 0 0
348 1 44.5913292865192 4.484898998236984 8.596340621550196 0 0 0
393 1 42.47862819474646 6.700979841978078 7.99088493250531 0 0 0
143 1 42.51412907353741 8.067719488648281 5.767519210192101 0 0 0
99 1 48.44470193413311 4.421068883111136 8.477428893652142 0 0 -1
349 1 48.45379906337753 6.2237735210371685 5.954492822976867 0 0 0
350 1 46.53664303102946 6.513510422037874 7.9337473877152975 0 0 0
346 1 46.332599655890434 8.325431555211912 5.506117842485831 0 0 0
353 1 2.3996665569354554 9.1592600730777 4.948043919708876 0 0 0
101 1 0.29305173190687955 8.33560284583918 9.232424243693105 0 0 -1
551 1 0.5447403689370663 9.852467744461173 6.880556018011414 0 0 0
102 1 2.4755103093043775 10.144876445205266 8.939911068129733 0 0 -1
354 2 2.5634644309429335 11.55805141471094 6.508158740421101 0 0 0