Output produced by LAMMPSStructureWriter


18000 atoms
3 atom types
0.00000000 25.72500000 xlo xhi
0.00000000 25.72500000 ylo yhi
0.00000000 308.70000000 zlo zhi
0.00000000 0.00000000 0.00000000 xy xz yz



Masses

1 15.99939999999999962199 #O
2 91.22400000000000375167 #Zr
3 238.02890999999999621650 #U

Atoms

1 0 1 0.0 1.28625000000000033751 1.28625000000000033751 3.85875000000000012434
2 0 1 0.0 1.28625000000000055955 1.28625000000000055955 9.00385290000000004795
3 0 1 0.0 1.28625000000000100364 1.28625000000000100364 14.14864709999999980994
4 0 1 0.0 1.28625000000000122569 1.28625000000000122569 19.29374999999999928946
5 0 1 0.0 1.28625000000000166978 1.28625000000000166978 24.43885290000000054533
6 0 1 0.0 1.28625000000000189182 1.28625000000000189182 29.58364710000000030732
7 0 1 0.0 1.28625000000000233591 1.28625000000000233591 34.72874999999999801048
8 0 1 0.0 1.28625000000000255795 1.28625000000000255795 39.87385290000000281907
9 0 1 0.0 1.28625000000000278000 1.28625000000000278000 45.01864709999999547563
10 0 1 0.0 1.28625000000000322409 1.28625000000000322409 50.16375000000000028422
11 0 1 0.0 1.28625000000000344613 1.28625000000000344613 55.30885289999999798738
12 0 1 0.0 1.28625000000000389022 1.28625000000000389022 60.45364709999999774936
13 0 1 0.0 1.28625000000000411227 1.28625000000000411227 65.59874999999999545253
14 0 1 0.0 1.28625000000000455636 1.28625000000000455636 70.74385290000000736654
15 0 1 0.0 1.28625000000000477840 1.28625000000000477840 75.88864710000000002310
16 0 1 0.0 1.28625000000000500044 1.28625000000000500044 81.03374999999999772626
17 0 1 0.0 1.28625000000000544453 1.28625000000000544453 86.17885289999999542943
18 0 1 0.0 1.28625000000000566658 1.28625000000000566658 91.32364710000000229684
19 0 1 0.0 1.28625000000000611067 1.28625000000000611067 96.46875000000000000000
20 0 1 0.0 1.28625000000000633271 1.28625000000000633271 101.61385289999999770316
21 0 1 0.0 1.28625000000000655476 1.28625000000000655476 106.75864709999999035972
22 0 1 0.0 1.28625000000000699885 1.28625000000000699885 111.90374999999998806288
23 0 1 0.0 1.28625000000000722089 1.28625000000000722089 117.04885289999998576604
24 0 1 0.0 1.28625000000000766498 1.28625000000000766498 122.19364709999999263346
25 0 1 0.0 1.28625000000000788702 1.28625000000000788702 127.33874999999999033662
26 0 1 0.0 1.28625000000000833111 1.28625000000000833111 132.48385289999998803978
27 0 1 0.0 1.28625000000000855316 1.28625000000000855316 137.62864709999999490719
28 0 1 0.0 1.28625000000000877520 1.28625000000000877520 142.77375000000000682121
29 0 1 0.0 1.28625000000000921929 1.28625000000000921929 147.91885289999999031352
30 0 1 0.0 1.28625000000000944134 1.28625000000000944134 153.06364709999999718093
31 0 1 0.0 1.28625000000000988543 1.28625000000000988543 158.20874999999998067324
32 0 1 0.0 1.28625000000001010747 1.28625000000001010747 163.35385290000002100896
33 0 1 0.0 1.28625000000001032952 1.28625000000001032952 168.49864709999999945467
34 0 1 0.0 1.28625000000001077360 1.28625000000001077360 173.64374999999998294697
35 0 1 0.0 1.28625000000001099565 1.28625000000001099565 178.78885289999999486099
36 0 1 0.0 1.28625000000001143974 1.28625000000001143974 183.93364709999997330669
37 0 1 0.0 1.28625000000001166178 1.28625000000001166178 189.07875000000001364242
38 0 1 0.0 1.28625000000001210587 1.28625000000001210587 194.22385289999999713473
39 0 1 0.0 1.28625000000001232792 1.28625000000001232792 199.36864709999997558043
40 0 1 0.0 1.28625000000001254996 1.28625000000001254996 204.51374999999998749445
41 0 1 0.0 1.28625000000001299405 1.28625000000001299405 209.65885289999997098676
42 0 1 0.0 1.28625000000001321609 1.28625000000001321609 214.80364710000000627588
43 0 1 0.0 1.28625000000001366018 1.28625000000001366018 219.94874999999998976818
44 0 1 0.0 1.28625000000001388223 1.28625000000001388223 225.09385290000000168220
45 0 1 0.0 1.28625000000001410427 1.28625000000001410427 230.23864709999998012790
46 0 1 0.0 1.28625000000001454836 1.28625000000001454836 235.38374999999996362021
47 0 1 0.0 1.28625000000001477041 1.28625000000001477041 240.52885290000000395594
48 0 1 0.0 1.28625000000001521450 1.28625000000001521450 245.67364709999998240164
49 0 1 0.0 1.28625000000001543654 1.28625000000001543654 250.81874999999999431566
50 0 1 0.0 1.28625000000001588063 1.28625000000001588063 255.96385289999997780797
51 0 1 0.0 1.28625000000001610267 1.28625000000001610267 261.10864709999998467538
52 0 1 0.0 1.28625000000001632472 1.28625000000001632472 266.25375000000002501110
53 0 1 0.0 1.28625000000001676881 1.28625000000001676881 271.39885290000000850341
54 0 1 0.0 1.28625000000001699085 1.28625000000001699085 276.54364709999998694911
55 0 1 0.0 1.28625000000001743494 1.28625000000001743494 281.68874999999997044142
56 0 1 0.0 1.28625000000001765699 1.28625000000001765699 286.83385289999995393373
57 0 1 0.0 1.28625000000001810108 1.28625000000001810108 291.97864709999998922285
58 0 1 0.0 1.28625000000001832312 1.28625000000001832312 297.12374999999997271516
59 0 1 0.0 1.28625000000001854517 1.28625000000001854517 302.26885290000001305089
60 0 1 0.0 1.28625000000001898925 1.28625000000001898925 307.41364709999999149659
61 0 1 0.0 1.28625000000000078160 6.43125000000000035527 3.85875000000000012434
62 0 1 0.0 1.28625000000000100364 6.43125000000000124345 9.00385290000000004795
63 0 1 0.0 1.28625000000000144773 6.43125000000000124345 14.14864709999999980994
64 0 1 0.0 1.28625000000000166978 6.43125000000000124345 19.29374999999999928946
65 0 1 0.0 1.28625000000000211386 6.43125000000000213163 24.43885290000000054533
66 0 1 0.0 1.28625000000000233591 6.43125000000000213163 29.58364710000000030732
67 0 1 0.0 1.28625000000000278000 6.43125000000000213163 34.72874999999999801048
68 0 1 0.0 1.28625000000000300204 6.43125000000000301981 39.87385290000000281907
69 0 1 0.0 1.28625000000000322409 6.43125000000000301981 45.01864709999999547563
70 0 1 0.0 1.28625000000000366818 6.43125000000000301981 50.16375000000000028422
71 0 1 0.0 1.28625000000000389022 6.43125000000000390799 55.30885289999999798738
72 0 1 0.0 1.28625000000000433431 6.43125000000000390799 60.45364709999999774936
73 0 1 0.0 1.28625000000000455636 6.43125000000000479616 65.59874999999999545253
74 0 1 0.0 1.28625000000000500044 6.43125000000000479616 70.74385290000000736654
75 0 1 0.0 1.28625000000000522249 6.43125000000000479616 75.88864710000000002310
76 0 1 0.0 1.28625000000000544453 6.43125000000000568434 81.03374999999999772626
77 0 1 0.0 1.28625000000000588862 6.43125000000000568434 86.17885289999999542943
78 0 1 0.0 1.28625000000000611067 6.43125000000000568434 91.32364710000000229684
79 0 1 0.0 1.28625000000000655476 6.43125000000000657252 96.46875000000000000000
80 0 1 0.0 1.28625000000000677680 6.43125000000000657252 101.61385289999999770316
81 0 1 0.0 1.28625000000000699885 6.43125000000000657252 106.75864709999999035972
82 0 1 0.0 1.28625000000000744294 6.43125000000000746070 111.90374999999998806288
83 0 1 0.0 1.28625000000000766498 6.43125000000000746070 117.04885289999998576604
84 0 1 0.0 1.28625000000000810907 6.43125000000000746070 122.19364709999999263346
85 0 1 0.0 1.28625000000000833111 6.43125000000000834888 127.33874999999999033662
86 0 1 0.0 1.28625000000000877520 6.43125000000000834888 132.48385289999998803978
87 0 1 0.0 1.28625000000000899725 6.43125000000000834888 137.62864709999999490719
88 0 1 0.0 1.28625000000000921929 6.43125000000000923706 142.77375000000000682121
89 0 1 0.0 1.28625000000000966338 6.43125000000000923706 147.91885289999999031352
90 0 1 0.0 1.28625000000000988543 6.43125000000001012523 153.06364709999999718093
91 0 1 0.0 1.28625000000001032952 6.43125000000001012523 158.20874999999998067324
92 0 1 0.0 1.28625000000001055156 6.43125000000001012523 163.35385290000002100896
93 0 1 0.0 1.28625000000001077360 6.43125000000001101341 168.49864709999999945467
94 0 1 0.0 1.28625000000001121769 6.43125000000001101341 173.64374999999998294697
95 0 1 0.0 1.28625000000001143974 6.43125000000001101341 178.78885289999999486099
96 0 1 0.0 1.28625000000001188383 6.43125000000001190159 183.93364709999997330669
97 0 1 0.0 1.28625000000001210587 6.43125000000001190159 189.07875000000001364242
98 0 1 0.0 1.28625000000001254996 6.43125000000001190159 194.22385289999999713473
99 0 1 0.0 1.28625000000001277201 6.43125000000001278977 199.36864709999997558043
100 0 1 0.0 1.28625000000001299405 6.43125000000001278977 204.51374999999998749445
101 0 1 0.0 1.28625000000001343814 6.43125000000001278977 209.65885289999997098676
102 0 1 0.0 1.28625000000001366018 6.43125000000001367795 214.80364710000000627588
103 0 1 0.0 1.28625000000001410427 6.43125000000001367795 219.94874999999998976818
104 0 1 0.0 1.28625000000001432632 6.43125000000001456613 225.09385290000000168220
105 0 1 0.0 1.28625000000001454836 6.43125000000001456613 230.23864709999998012790
106 0 1 0.0 1.28625000000001499245 6.43125000000001456613 235.38374999999996362021
107 0 1 0.0 1.28625000000001521450 6.43125000000001545430 240.52885290000000395594
108 0 1 0.0 1.28625000000001565859 6.43125000000001545430 245.67364709999998240164
109 0 1 0.0 1.28625000000001588063 6.43125000000001545430 250.81874999999999431566
110 0 1 0.0 1.28625000000001632472 6.43125000000001634248 255.96385289999997780797
111 0 1 0.0 1.28625000000001654676 6.43125000000001634248 261.10864709999998467538
112 0 1 0.0 1.28625000000001676881 6.43125000000001634248 266.25375000000002501110
113 0 1 0.0 1.28625000000001721290 6.43125000000001723066 271.39885290000000850341
114 0 1 0.0 1.28625000000001743494 6.43125000000001723066 276.54364709999998694911
115 0 1 0.0 1.28625000000001787903 6.43125000000001723066 281.68874999999997044142
116 0 1 0.0 1.28625000000001810108 6.43125000000001811884 286.83385289999995393373
117 0 1 0.0 1.28625000000001854517 6.43125000000001811884 291.97864709999998922285
118 0 1 0.0 1.28625000000001876721 6.43125000000001811884 297.12374999999997271516
119 0 1 0.0 1.28625000000001898925 6.43125000000001900702 302.26885290000001305089
120 0 1 0.0 1.28625000000001943334 6.43125000000001900702 307.41364709999999149659
121 0 1 0.0 1.28625000000000100364 11.57625000000000170530 3.85875000000000012434
122 0 1 0.0 1.28625000000000122569 11.57625000000000170530 9.00385290000000004795
123 0 1 0.0 1.28625000000000166978 11.57625000000000170530 14.14864709999999980994
124 0 1 0.0 1.28625000000000189182 11.57625000000000348166 19.29374999999999928946
125 0 1 0.0 1.28625000000000233591 11.57625000000000348166 24.43885290000000054533
126 0 1 0.0 1.28625000000000255795 11.57625000000000348166 29.58364710000000030732
127 0 1 0.0 1.28625000000000300204 11.57625000000000348166 34.72874999999999801048
128 0 1 0.0 1.28625000000000322409 11.57625000000000348166 39.87385290000000281907
129 0 1 0.0 1.28625000000000344613 11.57625000000000525802 45.01864709999999547563
130 0 1 0.0 1.28625000000000389022 11.57625000000000525802 50.16375000000000028422
131 0 1 0.0 1.28625000000000411227 11.57625000000000525802 55.30885289999999798738
132 0 1 0.0 1.28625000000000455636 11.57625000000000525802 60.45364709999999774936
133 0 1 0.0 1.28625000000000477840 11.57625000000000525802 65.59874999999999545253
134 0 1 0.0 1.28625000000000522249 11.57625000000000525802 70.74385290000000736654
135 0 1 0.0 1.28625000000000544453 11.57625000000000703437 75.88864710000000002310
136 0 1 0.0 1.28625000000000566658 11.57625000000000703437 81.03374999999999772626
137 0 1 0.0 1.28625000000000611067 11.57625000000000703437 86.17885289999999542943
138 0 1 0.0 1.28625000000000633271 11.57625000000000703437 91.32364710000000229684
139 0 1 0.0 1.28625000000000677680 11.57625000000000703437 96.46875000000000000000
140 0 1 0.0 1.28625000000000699885 11.57625000000000881073 101.61385289999999770316
141 0 1 0.0 1.28625000000000722089 11.57625000000000881073 106.75864709999999035972
142 0 1 0.0 1.28625000000000766498 11.57625000000000881073 111.90374999999998806288
143 0 1 0.0 1.28625000000000788702 11.57625000000000881073 117.04885289999998576604
144 0 1 0.0 1.28625000000000833111 11.57625000000000881073 122.19364709999999263346
145 0 1 0.0 1.28625000000000855316 11.57625000000000881073 127.33874999999999033662
146 0 1 0.0 1.28625000000000899725 11.57625000000001058709 132.48385289999998803978
147 0 1 0.0 1.28625000000000921929 11.57625000000001058709 137.62864709999999490719
148 0 1 0.0 1.28625000000000944134 11.57625000000001058709 142.77375000000000682121
149 0 1 0.0 1.28625000000000988543 11.57625000000001058709 147.91885289999999031352
150 0 1 0.0 1.28625000000001010747 11.57625000000001058709 153.06364709999999718093
151 0 1 0.0 1.28625000000001055156 11.57625000000001058709 158.20874999999998067324
152 0 1 0.0 1.28625000000001077360 11.57625000000001236344 163.35385290000002100896
153 0 1 0.0 1.28625000000001099565 11.57625000000001236344 168.49864709999999945467
154 0 1 0.0 1.28625000000001143974 11.57625000000001236344 173.64374999999998294697
155 0 1 0.0 1.28625000000001166178 11.57625000000001236344 178.78885289999999486099
156 0 1 0.0 1.28625000000001210587 11.57625000000001236344 183.93364709999997330669
157 0 1 0.0 1.28625000000001232792 11.57625000000001413980 189.07875000000001364242
158 0 1 0.0 1.28625000000001277201 11.57625000000001413980 194.22385289999999713473
159 0 1 0.0 1.28625000000001299405 11.57625000000001413980 199.36864709999997558043
160 0 1 0.0 1.28625000000001321609 11.57625000000001413980 204.51374999999998749445
161 0 1 0.0 1.28625000000001366018 11.57625000000001413980 209.65885289999997098676
162 0 1 0.0 1.28625000000001388223 11.57625000000001413980 214.80364710000000627588
163 0 1 0.0 1.28625000000001432632 11.57625000000001591616 219.94874999999998976818
164 0 1 0.0 1.28625000000001454836 11.57625000000001591616 225.09385290000000168220
165 0 1 0.0 1.28625000000001477041 11.57625000000001591616 230.23864709999998012790
166 0 1 0.0 1.28625000000001521450 11.57625000000001591616 235.38374999999996362021
167 0 1 0.0 1.28625000000001543654 11.57625000000001591616 240.52885290000000395594
168 0 1 0.0 1.28625000000001588063 11.57625000000001591616 245.67364709999998240164
169 0 1 0.0 1.28625000000001610267 11.57625000000001769251 250.81874999999999431566
170 0 1 0.0 1.28625000000001654676 11.57625000000001769251 255.96385289999997780797
171 0 1 0.0 1.28625000000001676881 11.57625000000001769251 261.10864709999998467538
172 0 1 0.0 1.28625000000001699085 11.57625000000001769251 266.25375000000002501110
173 0 1 0.0 1.28625000000001743494 11.57625000000001769251 271.39885290000000850341
174 0 1 0.0 1.28625000000001765699 11.57625000000001946887 276.54364709999998694911
175 0 1 0.0 1.28625000000001810108 11.57625000000001946887 281.68874999999997044142
176 0 1 0.0 1.28625000000001832312 11.57625000000001946887 286.83385289999995393373
177 0 1 0.0 1.28625000000001876721 11.57625000000001946887 291.97864709999998922285
178 0 1 0.0 1.28625000000001898925 11.57625000000001946887 297.12374999999997271516
179 0 1 0.0 1.28625000000001921130 11.57625000000001946887 302.26885290000001305089
180 0 1 0.0 1.28625000000001965539 11.57625000000002124523 307.41364709999999149659
181 0 1 0.0 1.28625000000000144773 16.72125000000000127898 3.85875000000000012434
182 0 1 0.0 1.28625000000000166978 16.72125000000000127898 9.00385290000000004795
183 0 1 0.0 1.28625000000000211386 16.72125000000000127898 14.14864709999999980994
184 0 1 0.0 1.28625000000000233591 16.72125000000000127898 19.29374999999999928946
185 0 1 0.0 1.28625000000000278000 16.72125000000000127898 24.43885290000000054533
186 0 1 0.0 1.28625000000000300204 16.72125000000000483169 29.58364710000000030732
187 0 1 0.0 1.28625000000000344613 16.72125000000000483169 34.72874999999999801048
188 0 1 0.0 1.28625000000000366818 16.72125000000000483169 39.87385290000000281907
189 0 1 0.0 1.28625000000000389022 16.72125000000000483169 45.01864709999999547563
190 0 1 0.0 1.28625000000000433431 16.72125000000000483169 50.16375000000000028422
191 0 1 0.0 1.28625000000000455636 16.72125000000000483169 55.30885289999999798738
192 0 1 0.0 1.28625000000000500044 16.72125000000000483169 60.45364709999999774936
193 0 1 0.0 1.28625000000000522249 16.72125000000000483169 65.59874999999999545253
194 0 1 0.0 1.28625000000000566658 16.72125000000000483169 70.74385290000000736654
195 0 1 0.0 1.28625000000000588862 16.72125000000000483169 75.88864710000000002310
196 0 1 0.0 1.28625000000000611067 16.72125000000000483169 81.03374999999999772626
197 0 1 0.0 1.28625000000000655476 16.72125000000000483169 86.17885289999999542943
198 0 1 0.0 1.28625000000000677680 16.72125000000000838440 91.32364710000000229684
199 0 1 0.0 1.28625000000000722089 16.72125000000000838440 96.46875000000000000000
200 0 1 0.0 1.28625000000000744294 16.72125000000000838440 101.61385289999999770316
201 0 1 0.0 1.28625000000000766498 16.72125000000000838440 106.75864709999999035972
202 0 1 0.0 1.28625000000000810907 16.72125000000000838440 111.90374999999998806288
203 0 1 0.0 1.28625000000000833111 16.72125000000000838440 117.04885289999998576604
204 0 1 0.0 1.28625000000000877520 16.72125000000000838440 122.19364709999999263346
205 0 1 0.0 1.28625000000000899725 16.72125000000000838440 127.33874999999999033662
206 0 1 0.0 1.28625000000000944134 16.72125000000000838440 132.48385289999998803978
207 0 1 0.0 1.28625000000000966338 16.72125000000000838440 137.62864709999999490719
208 0 1 0.0 1.28625000000000988543 16.72125000000000838440 142.77375000000000682121
209 0 1 0.0 1.28625000000001032952 16.72125000000001193712 147.91885289999999031352
210 0 1 0.0 1.28625000000001055156 16.72125000000001193712 153.06364709999999718093
211 0 1 0.0 1.28625000000001099565 16.72125000000001193712 158.20874999999998067324
212 0 1 0.0 1.28625000000001121769 16.72125000000001193712 163.35385290000002100896
213 0 1 0.0 1.28625000000001143974 16.72125000000001193712 168.49864709999999945467
214 0 1 0.0 1.28625000000001188383 16.72125000000001193712 173.64374999999998294697
215 0 1 0.0 1.28625000000001210587 16.72125000000001193712 178.78885289999999486099
216 0 1 0.0 1.28625000000001254996 16.72125000000001193712 183.93364709999997330669
217 0 1 0.0 1.28625000000001277201 16.72125000000001193712 189.07875000000001364242
218 0 1 0.0 1.28625000000001321609 16.72125000000001193712 194.22385289999999713473
219 0 1 0.0 1.28625000000001343814 16.72125000000001193712 199.36864709999997558043
220 0 1 0.0 1.28625000000001366018 16.72125000000001548983 204.51374999999998749445
221 0 1 0.0 1.28625000000001410427 16.72125000000001548983 209.65885289999997098676
222 0 1 0.0 1.28625000000001432632 16.72125000000001548983 214.80364710000000627588
223 0 1 0.0 1.28625000000001477041 16.72125000000001548983 219.94874999999998976818
224 0 1 0.0 1.28625000000001499245 16.72125000000001548983 225.09385290000000168220
225 0 1 0.0 1.28625000000001521450 16.72125000000001548983 230.23864709999998012790
226 0 1 0.0 1.28625000000001565859 16.72125000000001548983 235.38374999999996362021
227 0 1 0.0 1.28625000000001588063 16.72125000000001548983 240.52885290000000395594
228 0 1 0.0 1.28625000000001632472 16.72125000000001548983 245.67364709999998240164
229 0 1 0.0 1.28625000000001654676 16.72125000000001548983 250.81874999999999431566
230 0 1 0.0 1.28625000000001699085 16.72125000000001548983 255.96385289999997780797
231 0 1 0.0 1.28625000000001721290 16.72125000000001904255 261.10864709999998467538
232 0 1 0.0 1.28625000000001743494 16.72125000000001904255 266.25375000000002501110
233 0 1 0.0 1.28625000000001787903 16.72125000000001904255 271.39885290000000850341
234 0 1 0.0 1.28625000000001810108 16.72125000000001904255 276.54364709999998694911
235 0 1 0.0 1.28625000000001854517 16.72125000000001904255 281.68874999999997044142
236 0 1 0.0 1.28625000000001876721 16.72125000000001904255 286.83385289999995393373
237 0 1 0.0 1.28625000000001921130 16.72125000000001904255 291.97864709999998922285
238 0 1 0.0 1.28625000000001943334 16.72125000000001904255 297.12374999999997271516
239 0 1 0.0 1.28625000000001965539 16.72125000000001904255 302.26885290000001305089
240 0 1 0.0 1.28625000000002009948 16.72125000000001904255 307.41364709999999149659
241 0 1 0.0 1.28625000000000166978 21.86625000000000085265 3.85875000000000012434
242 0 1 0.0 1.28625000000000189182 21.86625000000000085265 9.00385290000000004795
243 0 1 0.0 1.28625000000000233591 21.86625000000000085265 14.14864709999999980994
244 0 1 0.0 1.28625000000000255795 21.86625000000000085265 19.29374999999999928946
245 0 1 0.0 1.28625000000000300204 21.86625000000000085265 24.43885290000000054533
246 0 1 0.0 1.28625000000000322409 21.86625000000000440536 29.58364710000000030732
247 0 1 0.0 1.28625000000000366818 21.86625000000000440536 34.72874999999999801048
248 0 1 0.0 1.28625000000000389022 21.86625000000000440536 39.87385290000000281907
249 0 1 0.0 1.28625000000000411227 21.86625000000000440536 45.01864709999999547563
250 0 1 0.0 1.28625000000000455636 21.86625000000000440536 50.16375000000000028422
251 0 1 0.0 1.28625000000000477840 21.86625000000000440536 55.30885289999999798738
252 0 1 0.0 1.28625000000000522249 21.86625000000000440536 60.45364709999999774936
253 0 1 0.0 1.28625000000000544453 21.86625000000000440536 65.59874999999999545253
254 0 1 0.0 1.28625000000000588862 21.86625000000000440536 70.74385290000000736654
255 0 1 0.0 1.28625000000000611067 21.86625000000000440536 75.88864710000000002310
256 0 1 0.0 1.28625000000000633271 21.86625000000000440536 81.03374999999999772626
257 0 1 0.0 1.28625000000000677680 21.86625000000000440536 86.17885289999999542943
258 0 1 0.0 1.28625000000000699885 21.86625000000000795808 91.32364710000000229684
259 0 1 0.0 1.28625000000000744294 21.86625000000000795808 96.46875000000000000000
260 0 1 0.0 1.28625000000000766498 21.86625000000000795808 101.61385289999999770316
261 0 1 0.0 1.28625000000000788702 21.86625000000000795808 106.75864709999999035972
262 0 1 0.0 1.28625000000000833111 21.86625000000000795808 111.90374999999998806288
263 0 1 0.0 1.28625000000000855316 21.86625000000000795808 117.04885289999998576604
264 0 1 0.0 1.28625000000000899725 21.86625000000000795808 122.19364709999999263346
265 0 1 0.0 1.28625000000000921929 21.86625000000000795808 127.33874999999999033662
266 0 1 0.0 1.28625000000000966338 21.86625000000000795808 132.48385289999998803978
267 0 1 0.0 1.28625000000000988543 21.86625000000000795808 137.62864709999999490719
268 0 1 0.0 1.28625000000001010747 21.86625000000000795808 142.77375000000000682121
269 0 1 0.0 1.28625000000001055156 21.86625000000001151079 147.91885289999999031352
270 0 1 0.0 1.28625000000001077360 21.86625000000001151079 153.06364709999999718093
271 0 1 0.0 1.28625000000001121769 21.86625000000001151079 158.20874999999998067324
272 0 1 0.0 1.28625000000001143974 21.86625000000001151079 163.35385290000002100896
273 0 1 0.0 1.28625000000001166178 21.86625000000001151079 168.49864709999999945467
274 0 1 0.0 1.28625000000001210587 21.86625000000001151079 173.64374999999998294697
275 0 1 0.0 1.28625000000001232792 21.86625000000001151079 178.78885289999999486099
276 0 1 0.0 1.28625000000001277201 21.86625000000001151079 183.93364709999997330669
277 0 1 0.0 1.28625000000001299405 21.86625000000001151079 189.07875000000001364242
278 0 1 0.0 1.28625000000001343814 21.86625000000001151079 194.22385289999999713473
279 0 1 0.0 1.28625000000001366018 21.86625000000001151079 199.36864709999997558043
280 0 1 0.0 1.28625000000001388223 21.86625000000001506351 204.51374999999998749445
281 0 1 0.0 1.28625000000001432632 21.86625000000001506351 209.65885289999997098676
282 0 1 0.0 1.28625000000001454836 21.86625000000001506351 214.80364710000000627588
283 0 1 0.0 1.28625000000001499245 21.86625000000001506351 219.94874999999998976818
284 0 1 0.0 1.28625000000001521450 21.86625000000001506351 225.09385290000000168220
285 0 1 0.0 1.28625000000001543654 21.86625000000001506351 230.23864709999998012790
286 0 1 0.0 1.28625000000001588063 21.86625000000001506351 235.38374999999996362021
287 0 1 0.0 1.28625000000001610267 21.86625000000001506351 240.52885290000000395594
288 0 1 0.0 1.28625000000001654676 21.86625000000001506351 245.67364709999998240164
289 0 1 0.0 1.28625000000001676881 21.86625000000001506351 250.81874999999999431566
290 0 1 0.0 1.28625000000001721290 21.86625000000001506351 255.96385289999997780797
291 0 1 0.0 1.28625000000001743494 21.86625000000001861622 261.10864709999998467538
292 0 1 0.0 1.28625000000001765699 21.86625000000001861622 266.25375000000002501110
293 0 1 0.0 1.28625000000001810108 21.86625000000001861622 271.39885290000000850341
294 0 1 0.0 1.28625000000001832312 21.86625000000001861622 276.54364709999998694911
295 0 1 0.0 1.28625000000001876721 21.86625000000001861622 281.68874999999997044142
296 0 1 0.0 1.28625000000001898925 21.86625000000001861622 286.83385289999995393373
297 0 1 0.0 1.28625000000001943334 21.86625000000001861622 291.97864709999998922285
298 0 1 0.0 1.28625000000001965539 21.86625000000001861622 297.12374999999997271516
299 0 1 0.0 1.28625000000001987743 21.86625000000001861622 302.26885290000001305089
300 0 1 0.0 1.28625000000002032152 21.86625000000001861622 307.41364709999999149659
301 0 1 0.0 6.43125000000000035527 1.28625000000000033751 3.85875000000000012434
302 0 1 0.0 6.43125000000000124345 1.28625000000000055955 9.00385290000000004795
303 0 1 0.0 6.43125000000000124345 1.28625000000000100364 14.14864709999999980994
304 0 1 0.0 6.43125000000000124345 1.28625000000000122569 19.29374999999999928946
305 0 1 0.0 6.43125000000000213163 1.28625000000000166978 24.43885290000000054533
306 0 1 0.0 6.43125000000000213163 1.28625000000000189182 29.58364710000000030732
307 0 1 0.0 6.43125000000000213163 1.28625000000000233591 34.72874999999999801048
308 0 1 0.0 6.43125000000000301981 1.28625000000000255795 39.87385290000000281907
309 0 1 0.0 6.43125000000000301981 1.28625000000000278000 45.01864709999999547563
310 0 1 0.0 6.43125000000000301981 1.28625000000000322409 50.16375000000000028422
311 0 1 0.0 6.43125000000000390799 1.28625000000000344613 55.30885289999999798738
312 0 1 0.0 6.43125000000000390799 1.28625000000000389022 60.45364709999999774936
313 0 1 0.0 6.43125000000000479616 1.28625000000000411227 65.59874999999999545253
314 0 1 0.0 6.43125000000000479616 1.28625000000000455636 70.74385290000000736654
315 0 1 0.0 6.43125000000000479616 1.28625000000000477840 75.88864710000000002310
316 0 1 0.0 6.43125000000000568434 1.28625000000000500044 81.03374999999999772626
317 0 1 0.0 6.43125000000000568434 1.28625000000000544453 86.17885289999999542943
318 0 1 0.0 6.43125000000000568434 1.28625000000000566658 91.32364710000000229684
319 0 1 0.0 6.43125000000000657252 1.28625000000000611067 96.46875000000000000000
320 0 1 0.0 6.43125000000000657252 1.28625000000000633271 101.61385289999999770316
321 0 1 0.0 6.43125000000000657252 1.28625000000000655476 106.75864709999999035972
322 0 1 0.0 6.43125000000000746070 1.28625000000000699885 111.90374999999998806288
323 0 1 0.0 6.43125000000000746070 1.28625000000000722089 117.04885289999998576604
324 0 1 0.0 6.43125000000000746070 1.28625000000000766498 122.19364709999999263346
325 0 1 0.0 6.43125000000000834888 1.28625000000000788702 127.33874999999999033662
326 0 1 0.0 6.43125000000000834888 1.28625000000000833111 132.48385289999998803978
327 0 1 0.0 6.43125000000000834888 1.28625000000000855316 137.62864709999999490719
328 0 1 0.0 6.43125000000000923706 1.28625000000000877520 142.77375000000000682121
329 0 1 0.0 6.43125000000000923706 1.28625000000000921929 147.91885289999999031352
330 0 1 0.0 6.43125000000001012523 1.28625000000000944134 153.06364709999999718093
331 0 1 0.0 6.43125000000001012523 1.28625000000000988543 158.20874999999998067324
332 0 1 0.0 6.43125000000001012523 1.28625000000001010747 163.35385290000002100896
333 0 1 0.0 6.43125000000001101341 1.28625000000001032952 168.49864709999999945467
334 0 1 0.0 6.43125000000001101341 1.28625000000001077360 173.64374999999998294697
335 0 1 0.0 6.43125000000001101341 1.28625000000001099565 178.78885289999999486099
336 0 1 0.0 6.43125000000001190159 1.28625000000001143974 183.93364709999997330669
337 0 1 0.0 6.43125000000001190159 1.28625000000001166178 189.07875000000001364242
338 0 1 0.0 6.43125000000001190159 1.28625000000001210587 194.22385289999999713473
339 0 1 0.0 6.43125000000001278977 1.28625000000001232792 199.36864709999997558043
340 0 1 0.0 6.43125000000001278977 1.28625000000001254996 204.51374999999998749445
341 0 1 0.0 6.43125000000001278977 1.28625000000001299405 209.65885289999997098676
342 0 1 0.0 6.43125000000001367795 1.28625000000001321609 214.80364710000000627588
343 0 1 0.0 6.43125000000001367795 1.28625000000001366018 219.94874999999998976818
344 0 1 0.0 6.43125000000001456613 1.28625000000001388223 225.09385290000000168220
345 0 1 0.0 6.43125000000001456613 1.28625000000001410427 230.23864709999998012790
346 0 1 0.0 6.43125000000001456613 1.28625000000001454836 235.38374999999996362021
347 0 1 0.0 6.43125000000001545430 1.28625000000001477041 240.52885290000000395594
348 0 1 0.0 6.43125000000001545430 1.28625000000001521450 245.67364709999998240164
349 0 1 0.0 6.43125000000001545430 1.28625000000001543654 250.81874999999999431566
350 0 1 0.0 6.43125000000001634248 1.28625000000001588063 255.96385289999997780797
351 0 1 0.0 6.43125000000001634248 1.28625000000001610267 261.10864709999998467538
352 0 1 0.0 6.43125000000001634248 1.28625000000001632472 266.25375000000002501110
353 0 1 0.0 6.43125000000001723066 1.28625000000001676881 271.39885290000000850341
354 0 1 0.0 6.43125000000001723066 1.28625000000001699085 276.54364709999998694911
355 0 1 0.0 6.43125000000001723066 1.28625000000001743494 281.68874999999997044142
356 0 1 0.0 6.43125000000001811884 1.28625000000001765699 286.83385289999995393373
357 0 1 0.0 6.43125000000001811884 1.28625000000001810108 291.97864709999998922285
358 0 1 0.0 6.43125000000001811884 1.28625000000001832312 297.12374999999997271516