# LAMMPS data file written by OVITO Basic 3.8.4

8 atoms
2 atom types

0.0 4.91941 xlo xhi
0.0 4.91941 ylo yhi
0.0 4.91941 zlo zhi

Masses

1 95.94  # Mo
2 28.0855  # Si

Atoms  # atomic

1 1 0.0 2.459705 1.2298525
2 1 0.0 2.459705 3.6895575
3 1 2.459705 3.6895575 0.0
4 1 2.459705 1.2298525 0.0
5 1 3.6895575 0.0 2.459705
6 1 1.2298525 0.0 2.459705
7 2 2.459705 2.459705 2.459705
8 2 0.0 0.0 0.0
