# LAMMPS data file written by OVITO Basic 3.8.4

6 atoms
2 atom types

0.0 3.220376 xlo xhi
0.0 3.220376 ylo yhi
0.0 7.869042 zlo zhi

Masses

1 95.94  # Mo
2 28.0855  # Si

Atoms  # atomic

1 1 0.0 0.0 0.0
2 1 1.610188 1.610188 3.934521
3 2 1.610188 1.610188 1.2971328833
4 2 0.0 0.0 2.6373881167
5 2 0.0 0.0 5.2316538833
6 2 1.610188 1.610188 6.5719091167
