ITEM: TIMESTEP
0
ITEM: NUMBER OF ATOMS
18000
ITEM: BOX BOUNDS pp pp pp
1.6161462487731804e-01 2.7179385375122678e+01
1.5771581816566993e-01 2.7183284181834306e+01
1.8862100773716577e+00 3.2620578992263165e+02
ITEM: ATOMS id type x y z c_peratom fx fy fz 
362 3 5.51875 5.73075 7.26757 -29.0152 -0.422377 -1.00098 0.558072 
1501 3 0.164896 2.78705 4.58295 -29.3749 -0.599935 1.37972 -1.29475e-05 
1801 2 5.50295 2.90855 4.58073 -25.3719 -0.936009 0.0479474 0.058974 
3061 3 2.78357 5.56453 4.57336 -29.3227 -0.0882633 0.26496 -0.191706 
4502 2 2.79038 2.95592 7.31573 -25.5647 -0.127487 0.490787 -0.848272 
6001 1 1.37936 1.40044 3.35377 -7.64499 0.133556 0.0114919 -0.599579 
7501 1 4.06284 4.37702 5.85423 -7.53284 1.15961 -0.592168 0.708073 
9001 1 4.00433 4.38917 3.15036 -7.76976 0.241443 -0.812364 0.134548 
10501 1 1.35259 1.58223 5.97177 -7.78154 0.560408 -0.102066 0.58059 
12001 1 4.05847 1.66231 5.90283 -7.98361 0.638897 -0.617202 0.11327 
13501 1 1.34732 4.12371 3.21975 -7.33946 -0.0611707 -0.508561 -0.706861 
15001 1 1.48318 4.33887 5.84282 -7.14841 -0.116693 -0.493048 0.728434 
16501 1 4.07654 1.58974 3.16322 -7.4594 -0.239641 1.00395 0.177473 
13502 1 1.47475 4.22674 8.61578 -7.6334 -0.583086 0.928404 0.451471 
10801 1 6.8788 1.52032 5.8823 -7.39376 -1.96527 1.13757 0.523045 
15301 1 6.82056 4.34239 5.97413 -7.66673 -0.759374 -0.263961 -0.53592 
302 2 5.48938 0.222677 7.28132 -25.5036 -0.113749 0.00910501 0.188299 
6301 1 6.77155 1.54641 3.25018 -7.43861 0.71956 0.0772239 -0.252225 
13801 1 6.76204 4.21698 3.31341 -7.78508 0.457973 0.764333 -0.651533 
6061 1 1.5272 6.77954 3.18085 -7.65043 0.55134 0.561724 0.426059 
3001 2 2.67211 0.221064 4.7573 -25.3232 1.75412 -0.59612 -1.61526 
6302 1 6.85305 1.60249 8.63037 -7.39423 -0.296313 -0.0588328 -0.478387 
16502 1 4.18109 1.6349 8.61399 -7.61226 -0.131192 -0.804845 0.415452 
13802 1 6.83366 4.27862 8.5962 -7.24731 -0.467488 0.0521501 0.252201 
361 2 5.5001 5.5644 1.88945 -25.4397 0.321611 0.307592 0.0172849 
662 2 10.8178 5.7137 7.33169 -24.9642 -0.000411783 -0.0856925 -0.922404 
2101 2 10.8109 2.95146 4.51979 -25.3275 0.472587 1.60083 0.837277 
3301 3 8.17654 0.326304 4.65229 -29.4388 -0.517175 -0.285807 -0.606927 
3361 2 8.1564 5.75803 4.54131 -25.4334 0.388703 -1.63654 -0.478625 
4802 2 8.13437 3.08934 7.27306 -25.5551 0.596924 -1.68029 0.0998038 
6601 1 12.2815 1.68065 3.24662 -7.50669 -0.279384 -0.465622 0.0497709 
7801 1 9.54144 4.40582 5.85542 -7.80473 -0.101994 -0.658106 0.725331 
9301 1 9.4703 4.46508 3.11766 -7.48056 0.0175372 -0.573221 -0.0731461 
11101 1 12.1102 1.66403 5.93729 -7.87092 -1.45056 -0.366072 -0.339274 
12301 1 9.33608 1.64235 5.95589 -7.35001 2.31026 1.1317 -0.582477 
14101 1 12.208 4.22123 3.24838 -7.49943 0.519365 0.335852 -0.831574 
15601 1 12.2112 4.36741 5.91636 -7.40431 -0.40406 -0.193329 0.400417 
16801 1 9.49576 1.80089 3.23953 -8.05499 -0.433341 -0.773932 -0.900516 
601 2 10.9382 0.301023 1.89224 -25.5672 -0.518102 0.0923401 -0.748224 
5102 2 13.4086 2.90222 7.27304 -25.2499 1.64472 0.700534 0.197532 
3661 3 13.6106 5.56684 4.60123 -29.7079 -0.650348 0.977741 -0.250037 
6602 1 12.1698 1.48178 8.60264 -7.95764 0.501226 0.948143 0.261385 
6661 1 12.3214 6.77981 3.40753 -6.60268 -0.574369 0.937431 -0.171028 
602 3 10.8296 0.424042 7.29629 -29.0402 -0.869333 -1.61462 -0.100221 
3601 2 13.5375 0.269172 4.59285 -25.5465 0.208293 0.0194588 0.561873 
16802 1 9.53927 1.60388 8.56225 -7.18437 0.357713 1.36401 -0.247539 
14102 1 12.2205 4.32246 8.62343 -8.53748 -0.619973 0.125686 -0.101322 
962 2 16.2343 5.54344 7.23157 -25.8489 0.603457 -0.106102 -0.321158 
2401 2 16.2245 3.02448 4.41119 -24.992 1.88861 -0.509524 3.07739 
3961 3 18.8937 5.66896 4.33351 -29.1888 0.319117 -0.620617 1.20418 
5402 2 19.0894 2.96084 7.157 -25.9467 -1.62644 -0.721289 -0.0476037 
6901 1 17.5845 1.57988 3.20994 -7.7852 0.214721 0.272541 -0.930942 
8101 1 14.8619 4.22002 5.85518 -7.5118 0.492608 -0.301117 0.552791 
9601 1 15.0158 4.41826 3.28412 -8.07469 -1.60767 0.535157 -1.68445 
11401 1 17.5939 1.59608 5.81396 -7.51671 -0.95162 -0.0260203 0.0137203 
12601 1 14.7012 1.55206 6.12516 -7.45354 1.58033 -0.673499 -1.30537 
14401 1 17.5746 4.20529 3.12812 -7.67744 0.534601 0.614458 0.281342 
15901 1 17.7262 4.26213 5.88618 -7.34015 -0.838038 0.191536 -1.13444 
17101 1 14.9913 1.66763 3.29095 -7.9045 -1.07824 -0.46894 -0.518241 
6961 1 17.5492 6.86127 3.05499 -7.79872 0.136995 -0.223537 0.506388 
11461 1 17.5854 6.89502 5.82361 -7.33585 0.0990823 1.08763 -0.654886 
12661 1 14.9639 6.8349 5.80614 -7.26574 -0.00420675 0.94097 0.0787076 
9602 1 14.8706 4.12195 8.63176 -7.51556 0.0557791 0.702351 -0.153646 
3901 3 18.8087 0.364364 4.5488 -28.9055 1.31626 -0.906627 -0.238456 
14402 1 17.6422 4.24069 8.5594 -7.11683 -0.581707 -0.00759985 -0.177801 
8401 1 20.4078 4.31715 5.7347 -7.27476 -0.719756 -0.0746351 1.14823 
9902 1 20.2908 4.13019 8.61888 -7.69471 0.928646 0.905162 -0.07655 
9901 1 20.19 4.23363 3.20411 -7.54914 0.0967989 0.30379 -1.76042 
12901 1 20.2612 1.58171 5.78052 -7.51662 0.102703 -0.176906 0.134922 
17401 1 20.2484 1.52768 3.17249 -7.82471 -0.785917 0.111195 -0.697463 
17402 1 20.2831 1.46633 8.46368 -7.2013 1.28283 0.538661 0.463005 
17462 1 20.3595 6.884 8.63146 -8.12525 1.17199 0.510222 -1.19936 
6962 1 17.7384 6.89271 8.50396 -7.62896 -1.2421 1.37506 0.473813 
902 2 16.263 0.239839 7.24677 -25.7104 -0.288536 0.338831 0.912893 
6902 1 17.6871 1.55452 8.52498 -7.11647 -0.643608 0.184373 0.166968 
5101 2 13.6811 3.04837 1.89993 -25.1194 -1.11136 -0.682822 0.053929 
62 2 27.0589 5.75132 7.22303 -25.3584 1.36225 -2.78321 -0.178184 
1262 2 21.619 5.58209 7.16238 -25.2147 0.594519 -0.214555 -0.0165717 
2701 2 21.5928 2.77759 4.42124 -25.7775 0.822844 2.04837 0.824352 
4261 2 24.3519 5.553 4.54685 -25.434 -0.242422 0.0204901 0.134321 
5702 2 24.3857 2.83874 7.21384 -25.6773 0.466592 0.908239 -0.474308 
7201 1 23.0076 1.44609 3.20119 -7.9001 0.559859 0.289839 -1.03994 
8701 1 25.8633 4.26307 5.7321 -7.20152 -0.759628 -0.125224 0.951973 
10201 1 25.6101 4.33632 3.16697 -7.35261 0.874043 -0.462152 -0.838259 
11701 1 23.0375 1.55444 5.82679 -7.52811 0.19711 -1.44092 0.229086 
13201 1 25.808 1.51562 5.93076 -7.52733 -0.534475 -0.213824 0.238307 
14701 1 22.9514 4.23808 3.20425 -7.4201 -0.403576 0.100588 -0.264266 
16201 1 23.01 4.10014 5.91503 -7.19789 0.827606 1.35608 0.0174514 
17701 1 25.7439 1.56779 3.29678 -7.70571 0.0857089 -0.286813 -0.865429 
10202 1 25.7904 4.1887 8.47886 -7.49439 -0.655618 0.601362 0.590382 
14702 1 22.9541 4.37161 8.62027 -7.67624 0.612954 -0.332424 0.644002 
11761 1 22.9704 6.87743 5.83136 -7.89465 0.253524 0.242444 0.507057 
4201 2 24.491 0.167075 4.56733 -25.2768 -0.242579 -0.293044 0.185862 
7202 1 23.0307 1.64837 8.59706 -7.51194 -0.637898 0.0164971 0.201775 
61 2 27.1154 5.64455 1.91802 -25.553 0.144345 -1.01201 -0.993524 
10561 1 1.46153 6.99009 5.82211 -7.93066 0.235969 0.147668 0.71517 
16561 1 4.25806 7.04467 3.2167 -7.33158 -0.674164 -0.955645 -0.310277 
6361 1 6.91045 7.02112 3.1602 -7.78592 -0.157298 -0.425872 1.00175 
12061 1 4.16776 6.99692 5.95898 -7.65873 -0.0479617 0.281395 0.379312 
6062 1 1.53241 6.99715 8.55838 -8.05012 -0.941717 -0.147909 0.512754 
10861 1 6.89224 6.94524 6.03833 -7.89766 -1.47891 1.13665 -0.28474 
422 2 5.41869 11.1194 7.27756 -25.7038 0.697941 0.0473533 -0.529519 
1861 2 5.48358 8.35652 4.68998 -25.889 -0.0888551 -0.181762 -1.97855 
3121 2 2.72778 11.1088 4.65725 -25.5451 0.729667 -1.48696 -1.43957 
4562 2 2.69656 8.38256 7.28576 -25.0044 1.86197 -0.29995 -0.389872 
6121 1 1.42693 12.2552 3.19335 -7.74984 -0.931995 0.815811 0.573076 
7561 1 4.18921 9.73978 5.80006 -7.45414 -1.72052 0.054675 1.93306 
9061 1 4.09177 9.62821 3.19199 -6.60873 -0.511043 0.557243 -0.499724 
10621 1 1.36773 12.5178 5.90457 -8.02381 0.453065 -0.676356 0.734744 
12121 1 4.17134 12.4242 5.88195 -7.77901 -1.16068 0.960833 1.05306 
13561 1 1.4227 9.53039 3.15027 -7.29055 -0.401253 -0.224418 0.154682 
15061 1 1.4155 9.72931 5.98453 -8.09421 -0.0373787 0.156025 -0.154535 
16621 1 4.10031 12.3367 3.25578 -7.62282 0.146532 0.177346 -0.465062 
10921 1 6.79156 12.5308 5.91833 -7.28232 0.325169 0.494055 -0.221414 
6421 1 6.77178 12.4567 3.23164 -7.42222 0.673706 -0.10283 -0.403283 
15361 1 6.7903 9.79263 5.93095 -7.20767 0.321405 -0.926407 0.810752 
13861 1 6.73173 9.72024 3.32225 -7.29049 1.47114 0.229329 -1.38516 
9062 1 4.08121 9.78882 8.54672 -7.86786 -0.192744 -1.01109 0.575753 
6422 1 6.70484 12.5276 8.47603 -7.61344 0.366253 -0.224941 1.7479 
13862 1 6.79297 9.73896 8.55757 -7.95806 -0.0459755 -1.28925 0.445897 
4621 2 2.83335 13.6143 1.97172 -24.9399 -0.308494 0.870901 -0.331002 
11161 1 12.3437 7.04927 5.97391 -7.5479 -1.34499 -0.145418 0.794036 
16861 1 9.67046 7.09231 3.17394 -7.51326 -0.653003 -0.333727 -0.512044 
12361 1 9.40805 7.05105 5.88749 -7.97923 1.9948 0.0446032 0.876923 
722 2 10.7937 11.1571 7.34174 -26.3339 0.256992 0.0114553 0.11567 
2161 2 10.854 8.25799 4.6474 -25.4999 1.47568 0.664406 -0.570169 
3421 2 8.11406 11.0906 4.63145 -26.0002 0.204645 1.14069 0.580677 
4862 2 8.21834 8.31264 7.36626 -25.0843 -1.6923 1.80136 -0.666051 
6721 1 12.2883 12.2671 3.32041 -7.27744 -0.484653 0.904092 -0.588592 
7861 1 9.44151 9.77022 6.081 -7.18038 0.352425 -0.622618 0.451367 
9361 1 9.57305 9.74671 3.46177 -7.87869 -0.887405 0.273594 -1.67568 
11221 1 12.0548 12.5554 5.97209 -6.9987 1.70691 -0.919199 0.763577 
12421 1 9.50723 12.4633 5.95367 -6.75359 -1.42711 0.0246877 0.475412 
14161 1 12.2462 9.57709 3.0702 -7.87414 0.0322724 -0.612019 0.582486 
15661 1 12.1636 9.74794 5.88301 -7.71796 0.223945 -0.292603 -0.206901 
16921 1 9.58901 12.5689 3.30798 -7.31702 -0.866056 -2.26599 -1.57828 
5162 2 13.6194 8.39252 7.2312 -25.134 -0.69967 -0.673031 0.378437 
14162 1 12.2097 9.79095 8.51898 -7.08475 0.877743 -0.741706 0.0998557 
3721 2 13.5238 10.9412 4.59517 -25.1578 -0.169846 1.00721 -1.08216 
721 2 10.8028 10.9288 1.95056 -25.0485 0.867515 1.54308 -0.338043 
17161 1 14.8814 7.03862 3.10883 -7.33562 0.75258 0.664993 -0.418332 
17461 1 20.2296 7.0039 3.0884 -7.90432 0.0501688 -0.708954 -0.297975 
1022 2 16.2678 11.0587 7.29221 -25.1946 0.535797 0.363553 -0.0781946 
2461 2 16.3164 8.38114 4.52541 -25.1694 -0.146813 -2.36303 -0.688513 
4021 2 18.9754 11.0116 4.62824 -25.166 0.309334 1.12676 -0.959979 
5462 2 19.0374 8.27665 7.23174 -25.1923 -1.36628 -0.299005 -1.06036 
7021 1 17.5619 12.2569 3.30813 -7.70243 1.41871 -1.52438 0.40991 
8161 1 14.9537 9.60096 5.77264 -8.26411 -0.377392 0.475137 1.16633 
9661 1 14.9119 9.71676 3.07688 -7.93024 0.150335 -0.346965 1.40651 
11521 1 17.5091 12.4232 6.03408 -7.44111 0.655257 0.151956 -1.01639 
12721 1 14.7591 12.3465 5.90528 -7.87539 0.35036 -0.778784 0.152959 
14461 1 17.7385 9.41806 3.15129 -7.63092 -1.01291 1.58994 0.951514 
15961 1 17.6516 9.77617 5.91042 -7.80745 -0.92516 -1.24825 0.0444713 
17221 1 14.9522 12.4345 3.13415 -7.27467 -0.863063 -0.513636 0.39369 
7022 1 17.7395 12.388 8.57935 -7.41923 -0.00527539 1.09573 0.934624 
14462 1 17.6705 9.74859 8.62722 -7.87886 -0.436329 -1.35436 -0.0912583 
2521 2 16.1755 13.5799 4.60337 -25.6766 1.21203 1.9251 0.0244005 
9662 1 14.9507 9.70537 8.61647 -8.23219 0.243411 -0.42521 -0.342255 
12961 1 20.2046 7.00058 5.71097 -7.6251 0.652985 -0.383192 1.0845 
17521 1 20.3534 12.3219 3.19909 -7.9056 -1.18885 -0.435939 -0.280227 
8461 1 20.2559 9.65684 5.82908 -7.85103 1.4166 0.509807 0.313844 
9961 1 20.2951 9.67868 3.18433 -7.47438 0.855598 0.406574 0.811428 
13021 1 20.2906 12.5995 5.89197 -7.45441 -0.36645 -1.70089 -0.707021 
9962 1 20.3353 9.61934 8.46809 -7.96354 0.473965 0.0294808 0.691722 
17222 1 14.9896 12.422 8.60177 -7.80327 0.382167 0.0158427 0.375913 
17162 1 14.9109 6.94826 8.52713 -7.78976 -0.484512 -0.026437 0.522212 
5521 3 19.1529 13.592 2.05724 -29.1105 -1.79496 0.603804 -0.794729 
1021 2 16.2753 11.0001 1.90518 -25.4947 0.80461 0.292834 -0.940457 
7261 1 22.9246 7.03904 3.16268 -7.86778 1.41196 -1.87632 -1.07001 
13261 1 25.7503 6.97682 5.95668 -8.05148 -1.1088 0.330084 -0.409033 
17761 1 25.8284 6.99897 3.20006 -8.04573 -1.33361 0.207434 0.14651 
1561 2 27.1407 8.21851 4.55636 -25.3264 -0.273863 1.83829 -0.387179 
17522 1 20.4985 12.3561 8.51149 -7.41028 -1.65824 -0.87488 0.207947 
122 2 27.0618 11.0466 7.35011 -25.2748 -1.1113 -0.81893 -0.792478 
1322 2 21.6874 10.9326 7.20005 -25.3542 0.501757 1.66196 -0.169496 
2761 2 21.6328 8.2847 4.44042 -25.4082 -0.559859 0.133696 0.919526 
4321 2 24.3142 10.9719 4.57248 -25.8093 0.0845453 -0.00829237 0.320535 
5762 3 24.3611 8.25278 7.27653 -28.931 0.778175 0.76947 -0.150684 
7321 1 22.8484 12.2572 3.16225 -7.45755 1.06522 -0.0331607 -0.20077 
8761 1 25.701 9.65187 6.02529 -7.11002 0.0162546 -0.45124 -0.353413 
10261 1 25.7232 9.7218 3.31941 -7.48524 0.325616 -1.0783 -0.964895 
11821 1 22.9862 12.3446 5.87112 -7.4811 -0.191799 -0.687934 -0.372147 
13321 1 25.6208 12.3128 5.99269 -7.51369 0.561612 1.00798 -0.174849 
14761 1 23.0387 9.53417 3.21907 -7.63341 -0.0724954 1.31478 -0.591105 
16261 1 22.9921 9.6313 5.88271 -7.83299 -0.202988 -0.693357 0.36131 
17821 1 25.6026 12.3441 3.28539 -7.60956 0.440346 0.299561 -0.39096 
14762 1 23.1231 9.65503 8.61821 -7.71003 -0.543105 0.389114 -0.822269 
10262 1 25.788 9.5052 8.62437 -7.44872 0.278743 0.550718 0.153544 
7262 1 23.1848 7.06353 8.55265 -7.46532 -0.905651 -0.58576 -0.123423 
5761 3 24.3707 8.2336 1.88953 -28.9373 -0.299342 0.837001 -0.526769 
17822 1 25.6338 12.3553 8.62961 -7.82928 0.880188 0.525253 0.189466 
7322 1 23.0351 12.3643 8.54127 -7.32285 0.649789 0.000697645 0.393456 
1321 3 21.6173 10.8466 1.89841 -28.7652 0.745502 0.424157 -0.0756678 
1921 3 5.48116 13.8764 4.68307 -29.4293 0.721644 -1.11178 0.105374 
4622 2 2.77787 13.7477 7.3604 -25.0235 0.308527 0.681849 -0.664185 
482 3 5.54749 16.4662 7.30542 -29.3476 -0.786875 0.149571 -0.487942 
1981 2 5.51609 19.1644 4.58776 -25.5509 0.165083 -0.808307 -0.0363004 
3181 2 2.8154 16.3387 4.69203 -25.3949 0.274937 1.16728 0.0388072 
4682 3 2.73596 19.1736 7.26654 -29.439 0.475931 -0.321967 0.191507 
6181 1 1.32675 17.755 3.18558 -7.71867 1.26216 0.425658 0.159932 
7621 1 4.24867 15.144 6.08496 -7.76639 -1.18727 -0.979051 -0.0909273 
9121 1 4.13013 14.971 3.43589 -7.72695 -0.880724 0.619142 -0.695419 
10681 1 1.63433 17.8226 5.90838 -7.50095 -1.05844 0.359611 -0.325819 
12181 1 4.30534 17.7305 5.90866 -7.24143 0.296778 0.15857 -0.232324 
13621 1 1.36392 15.0818 3.44478 -7.61353 0.39281 -0.655267 -0.997844 
15121 1 1.31095 15.1878 6.08041 -7.58213 1.48327 -1.38618 -0.843885 
16681 1 4.12586 17.7906 3.19528 -7.70494 -0.748462 -0.649744 1.04855 
13921 1 6.69544 15.1238 3.46854 -7.2552 0.508086 0.367114 -1.60754 
9181 1 4.09337 20.3893 3.23733 -7.74051 0.98301 1.21131 -0.153907 
6182 1 1.39427 17.8376 8.51756 -7.41443 -1.23697 -0.0172708 0.0926169 
16682 1 3.97613 17.8422 8.53191 -7.46266 1.05847 0.261292 0.384788 
6481 1 6.82758 17.7611 3.18752 -7.56524 1.04284 0.676717 1.18271 
7681 1 4.02799 20.4113 5.95865 -7.83818 0.551609 0.818383 -0.133165 
481 2 5.46773 16.5391 1.98814 -25.2867 0.274879 -2.1846 -0.659364 
15421 1 6.84457 15.2513 6.00501 -7.35859 0.207298 -0.59302 0.319949 
6482 1 6.67853 17.8582 8.5236 -8.0506 0.678675 -0.839174 0.630496 
13922 1 6.75779 15.1501 8.52289 -7.55828 0.046745 0.55969 1.30231 
4681 2 2.8031 19.1456 1.8898 -25.2974 -0.665389 -0.357775 -0.830264 
5222 2 13.5866 13.7897 7.30835 -25.9066 -1.44512 -0.112867 0.189747 
2221 2 10.8977 13.8416 4.5853 -26.2754 -1.45512 -0.305164 0.433051 
10981 1 7.00933 17.8303 5.90878 -7.3611 -1.5308 0.197977 -0.361828 
4922 3 8.06031 13.8695 7.35306 -29.3202 0.661867 -0.713477 -0.460488 
782 2 10.7926 16.4912 7.33389 -25.6565 0.365169 -0.759893 -0.35339 
2281 2 10.8301 19.2526 4.68421 -25.2423 0.218979 -1.1601 -0.7381 
3481 3 8.14733 16.4144 4.69163 -29.4952 0.0901744 -0.0935052 -1.20348 
4982 2 8.19232 19.1182 7.32603 -25.4938 -0.4944 1.06185 -0.311077 
6781 1 12.2682 17.8705 3.36793 -7.62307 -0.0724272 0.152857 -0.799845 
7921 1 9.46077 15.102 5.84561 -7.48355 -0.110816 0.719187 1.99237 
9421 1 9.36419 15.1069 3.22701 -6.72463 -0.0979623 1.61022 0.677052 
11281 1 12.266 17.8182 6.08748 -7.32271 -0.598079 0.721961 -0.536012 
12481 1 9.47678 17.7982 5.87744 -7.71017 1.4133 0.023199 -0.00857525 
14221 1 12.0115 15.169 3.17732 -7.89251 1.63878 -0.156929 -0.789543 
15721 1 12.1749 15.2124 5.9501 -7.24553 0.446871 -0.262674 -0.665955 
16981 1 9.55733 17.8988 3.11301 -7.55447 -0.0220111 0.311268 0.262906 
5282 2 13.6205 19.1739 7.33424 -25.6036 -0.175823 -0.000470817 -0.0261205 
3781 2 13.5654 16.4908 4.60954 -25.5589 -0.465776 0.334462 1.36432 
5281 2 13.6373 19.1828 2.00566 -25.1027 0.815791 -0.91918 -1.76821 
16982 1 9.46207 17.7694 8.59476 -7.7524 -0.625338 -0.417076 0.484107 
14222 1 12.1492 15.1511 8.55942 -7.24948 -0.378377 -0.449277 0.786307 
5221 2 13.4917 13.8679 1.89281 -25.2367 0.761371 -1.29199 0.127625 
5522 3 18.992 13.833 7.35792 -29.5586 -0.421436 -0.847134 -0.7433 
1082 2 16.2772 16.4347 7.27516 -25.7342 0.240026 -0.190036 0.258391 
2581 2 16.3351 19.1516 4.63804 -25.6149 0.0933984 -0.235763 0.239911 
4081 3 18.9778 16.2491 4.59406 -29.2826 0.175909 0.559238 0.103691 
5582 2 18.9539 19.0336 7.43581 -25.7118 0.157079 1.43086 -1.58915 
7081 1 17.7102 17.5384 3.13649 -7.52054 0.84589 1.09919 2.01678 
8221 1 14.9601 15.0502 6.0466 -7.45355 0.235547 0.163932 -0.499918 
9721 1 14.786 15.0895 3.45087 -7.65613 0.522523 -0.426607 -1.79023 
11581 1 17.6758 17.7435 5.98836 -7.62761 0.145522 0.465732 -0.872509 
12781 1 14.9967 17.8093 5.95054 -7.4087 -0.404073 -0.351135 -0.301934 
14521 1 17.6563 14.7825 3.17338 -7.28663 -0.329701 1.34658 0.915408 
16021 1 17.7261 15.0817 5.91843 -7.13501 -1.96859 -0.120745 -0.27156 
17281 1 15.0562 17.7284 3.27443 -7.64438 -0.765031 0.959699 0.0988914 
14581 1 17.5987 20.413 3.2553 -7.42769 0.36416 0.190211 -0.292299 
10021 1 20.3336 14.9349 3.4132 -7.67464 -0.385401 0.476082 0.892026 
13081 1 20.3862 17.7075 5.94697 -7.38136 -0.112273 0.0285403 -0.0372344 
8521 1 20.1252 15.1588 6.13769 -7.01244 1.68248 0.289566 -0.552039 
1081 2 16.3452 16.408 1.94766 -25.6834 -0.320344 -1.7764 -1.72784 
17581 1 20.3198 17.657 3.26331 -7.41473 0.618505 -0.0818073 -0.386067 
8581 1 20.2492 20.3564 6.07965 -7.28636 0.691687 0.566633 -0.978565 
17282 1 14.9159 17.7802 8.59136 -7.83363 -0.206938 0.556439 1.0328 
1621 2 26.9833 13.7161 4.59935 -25.2854 -0.371029 0.0621963 0.00602529 
5822 3 24.2862 13.7231 7.23635 -28.982 -0.23516 -0.390531 0.251376 
2821 3 21.661 13.6912 4.59212 -29.2262 -0.386798 -0.592543 0.110539 
182 2 27.0189 16.4486 7.21795 -25.4502 -0.399808 1.11408 1.3788 
1681 2 27.1538 19.1235 4.54885 -25.3083 -0.936127 -0.156528 0.868959 
1382 2 21.6597 16.3945 7.29689 -25.4735 -0.909293 -0.337789 0.161143 
2881 2 21.6916 18.9687 4.61438 -25.3879 -0.59402 1.06911 -0.0491683 
4381 2 24.2819 16.441 4.58564 -25.1176 1.3835 -1.92861 -0.316206 
5882 3 24.4474 19.1754 7.21587 -29.0458 -0.2889 -0.110229 0.622973 
7381 1 23.0168 17.6694 3.28954 -7.96281 -1.13103 0.264489 -0.76109 
8821 1 25.6206 15.0978 5.9363 -7.954 -0.821013 -0.870415 -0.546478 
10321 1 25.6241 14.9627 3.12138 -7.36915 0.852754 0.741183 1.80983 
11881 1 23.1041 17.6093 6.02227 -8.01396 -0.316942 1.02898 -0.0484159 
13381 1 25.7713 17.7667 5.82949 -7.84653 0.45402 0.907856 -0.373402 
14821 1 22.9067 14.9681 3.23248 -7.96658 0.330935 0.437853 0.122799 
16321 1 22.802 14.8661 5.93297 -7.68528 0.901885 1.3793 -0.337245 
17881 1 25.6426 17.5779 3.09274 -7.38236 0.161331 1.39369 0.738216 
14881 1 23.0876 20.4079 3.29165 -7.36115 -1.10181 -0.236626 -0.921089 
14822 1 22.9029 15.0932 8.57268 -7.85027 0.869755 -0.580524 0.839912 
16381 1 22.9873 20.3885 5.89416 -7.62644 0.313688 -0.811814 0.266379 
10322 1 25.6578 15.1757 8.5947 -7.62498 0.333131 -1.15542 0.213905 
17882 1 25.6036 17.83 8.48541 -7.30035 0.844642 -0.0972882 0.611577 
10381 1 25.7116 20.3549 3.31141 -7.64286 0.51483 0.070757 -0.815463 
5821 2 24.3203 13.7505 1.90839 -25.5 -0.418586 -1.92994 -1.1786 
5881 2 24.334 19.0814 1.90019 -25.613 0.614023 -0.452437 -0.380972 
15181 1 1.34781 20.4657 5.95185 -7.69005 0.219538 0.255797 0.176764 
13681 1 1.44779 20.4456 3.24465 -7.70639 -0.344245 -0.585712 -0.414873 
13981 1 6.84795 20.4782 3.07301 -7.62373 0.298779 -0.150158 0.977297 
15481 1 6.83032 20.5594 5.83836 -7.68664 -0.496116 -0.137342 0.205285 
542 2 5.3726 21.9576 7.2157 -25.5458 0.631881 -1.35773 0.39198 
2041 2 5.39989 24.5977 4.56433 -25.7809 0.745857 0.0933105 0.200492 
3241 2 2.7841 21.7707 4.501 -25.2361 0.00265411 0.426084 1.91164 
4742 3 2.7154 24.4595 7.3484 -29.485 1.31905 0.846549 0.146502 
6241 1 1.38982 22.9841 3.25619 -7.93662 0.898409 2.31836 0.579129 
7741 1 4.14254 25.8223 6.08449 -7.12337 -0.288722 1.35192 -0.421114 
9241 1 4.13054 25.9831 3.42406 -7.5555 -0.368042 -0.435813 -1.36746 
10741 1 1.47284 23.1864 6.1449 -7.49902 0.0610099 -0.0820186 -0.954641 
12241 1 4.01125 23.2665 5.8759 -7.39183 0.209543 -1.46304 -0.271046 
13741 1 1.49624 25.6817 3.3001 -7.77682 0.386492 0.0579756 -0.725579 
15241 1 1.51274 25.8135 5.97899 -8.03793 -1.21907 0.0238624 0.136105 
16741 1 4.19492 23.1328 3.23028 -7.96016 -0.905309 0.521161 -0.820495 
6541 1 6.91539 23.2834 3.21874 -7.28208 -1.13031 -0.668415 -0.0392261 
11041 1 6.72049 23.2683 5.81951 -7.65014 0.241039 -0.301789 1.50848 
15541 1 6.80098 25.9405 5.88343 -7.43266 -0.316475 -0.26753 0.502108 
14041 1 6.86909 25.9339 3.1238 -7.47731 0.0235488 0.021812 0.250425 
9242 1 4.11033 25.8451 8.64281 -7.19447 -0.129888 1.24843 1.15952 
1741 3 0.178137 24.5335 4.62748 -28.9246 -0.611826 -1.30295 0.396585 
242 2 0.212019 21.8504 7.42583 -25.4853 -1.15053 -0.262868 -0.855472 
13982 1 6.73616 20.5391 8.58204 -7.41909 0.554373 -0.699646 -0.224284 
16742 1 4.19659 23.2668 8.52566 -7.23431 -0.257098 -0.251576 0.694961 
15781 1 12.252 20.526 5.92014 -7.9891 -0.142564 1.05463 0.0418291 
14281 1 12.3072 20.5309 3.08488 -7.84085 -0.686319 0.601251 1.49236 
7981 1 9.54994 20.5566 6.15343 -7.63937 0.235902 -0.145135 -0.743182 
9481 1 9.55126 20.6405 3.32961 -7.78329 0.185121 -1.28063 0.0952949 
842 2 10.9641 21.9498 7.44183 -25.0678 -0.755368 -1.45526 -0.647256 
2341 2 10.8003 24.6684 4.75483 -25.1632 0.118179 0.0513189 -1.23455 
3541 2 8.17968 21.9177 4.6066 -25.5418 -0.0590213 -0.174383 -0.369258 
5042 2 8.08364 24.5788 7.31366 -25.3689 0.63183 0.408976 -0.364081 
6841 1 12.1595 23.2407 3.36964 -7.61684 -0.121497 0.409365 -0.080975 
8041 1 9.36789 26.0954 5.88863 -7.34784 1.09416 -1.43243 0.632427 
9541 1 9.62921 26.1743 3.31264 -7.61319 -0.738206 -1.04846 -0.0752405 
11341 1 12.146 23.4248 6.2222 -7.69947 -0.231153 -1.47574 -1.66149 
12541 1 9.44995 23.2333 5.9965 -7.83704 0.298331 0.769032 -0.479293 
14341 1 12.2812 26.047 3.14449 -7.63118 0.23903 -1.19026 1.18924 
15841 1 12.1116 26.0075 6.01851 -7.60689 0.0206483 1.03629 -0.366486 
17041 1 9.4895 23.2469 3.14632 -7.28033 1.27898 0.683173 1.73775 
5342 2 13.5417 24.6353 7.46365 -25.768 1.58781 -1.056 -1.32739 
3841 2 13.5236 21.9619 4.64194 -25.1909 0.703213 -0.540789 0.684695 
5041 2 8.25843 24.5971 1.92989 -25.6171 -0.64507 0.306932 -0.663668 
9542 1 9.52292 26.0069 8.5551 -7.22587 0.392102 -0.970791 -0.423341 
5341 2 13.6488 24.6302 1.92797 -25.4812 -1.1211 -0.101816 -0.458106 
9781 1 15.0066 20.5451 3.2892 -7.73596 -1.00504 0.0624926 -0.235162 
10081 1 20.2229 20.4317 3.34576 -7.84334 2.01473 -0.390879 -0.856389 
8281 1 14.9728 20.4438 6.02884 -7.26196 -0.392801 1.22658 -0.127887 
16081 1 17.5841 20.621 5.95892 -7.28669 0.531938 -0.838642 -0.0194762 
1142 2 16.3747 21.9672 7.30909 -25.7056 -1.17407 -0.672441 0.128652 
2641 2 16.3417 24.6556 4.59345 -25.4526 -0.0791108 -0.762764 -0.164373 
4141 2 19.0877 21.7994 4.60394 -25.6752 -1.14372 1.18813 0.526904 
5642 2 19.032 24.664 7.36587 -25.3407 0.946556 -1.19614 -1.3445 
7141 1 17.7381 23.2715 3.16887 -7.55081 -1.06079 -0.599688 0.510605 
8341 1 14.889 25.853 5.93378 -7.2973 -0.146452 1.27578 0.441398 
9841 1 14.9923 26.0494 3.31119 -7.65586 0.578759 -0.269501 -0.926736 
11641 1 17.8461 23.2948 5.92585 -7.44398 -1.25588 0.0615011 -0.208027 
12841 1 14.8701 23.2938 5.99481 -7.23695 0.994998 -1.32012 0.761866 
14641 1 17.7474 25.9992 3.17645 -7.52514 -0.759706 -0.0547555 0.523063 
16141 1 17.5866 25.9486 5.94566 -7.99065 0.928487 0.550085 -0.0214052 
17341 1 14.8446 23.3154 3.41536 -7.81863 1.15981 -0.0974191 -1.73601 
10141 1 20.4217 25.8677 3.17163 -7.26367 0.310146 0.759646 -0.380777 
1141 2 16.2189 21.9197 1.89792 -25.3743 1.98382 0.0237023 0.770622 
7142 1 17.7376 23.2158 8.61703 -7.69762 -0.829351 0.487584 1.15447 
2 2 27.1078 27.1054 7.3273 -25.333 -0.214249 2.11729 -0.0766232 
8881 1 25.6589 20.5145 6.01578 -7.36378 0.23416 -0.244539 -0.379636 
17641 1 20.4862 23.2336 3.17678 -7.18377 -1.01008 -0.762881 0.359601 
7442 1 22.9989 23.318 8.56079 -7.65163 0.943109 0.0363646 0.995711 
13141 1 20.5155 23.193 5.83801 -7.50127 -0.400441 -0.680443 1.23767 
8641 1 20.43 25.9787 5.92503 -7.51715 -1.51361 -0.919248 -0.606128 
1202 2 21.7843 27.1815 7.15634 -25.6482 -0.284942 1.53013 1.08045 
1442 2 21.7506 21.7514 7.21694 -25.8682 -0.853831 0.9526 0.452943 
2941 2 21.7243 24.5428 4.60386 -25.8675 0.900684 -0.0404646 -1.30288 
4441 3 24.4713 21.8219 4.61559 -29.5607 -0.245744 -0.184559 -0.0542248 
5942 2 24.4472 24.4867 7.27683 -25.6514 0.712023 0.0423874 0.478492 
7441 1 23.0828 23.062 3.24756 -6.94755 0.370507 0.181941 -0.440374 
8941 1 25.783 25.8439 6.05194 -7.81054 0.461077 0.181823 -1.47215 
10441 1 25.9575 25.7421 3.29497 -7.84512 -0.729327 1.00116 -0.443466 
11941 1 23.2229 23.0658 5.95491 -7.39787 0.0729349 -0.0948205 -0.578894 
13441 1 25.9327 23.2082 6.07846 -7.1967 -0.417791 -0.0185525 -0.0284612 
14941 1 23.2257 25.7463 3.19286 -7.5742 -0.811152 1.33778 0.950548 
16441 1 23.1087 25.7835 5.95651 -7.71689 0.0945005 0.328622 -1.20329 
17941 1 25.7567 23.057 3.45917 -7.12556 0.267817 0.239939 -1.06649 
14882 1 23.0836 20.6293 8.57736 -7.4998 0.668909 -1.21629 0.578671 
10142 1 20.5159 25.9127 8.61028 -7.59965 0.0147296 -1.11488 -0.232221 
14942 1 23.2909 26.121 8.55254 -7.27572 -1.20474 -1.95667 0.546819 
9002 1 4.15516 4.24433 8.74988 -7.63299 0.182522 0.410136 -0.967273 
6002 1 1.43758 1.58489 8.67709 -7.53738 -0.00258524 -0.344164 -0.813706 
6362 1 6.73602 6.79211 8.72896 -7.59599 0.264879 2.30511 0.391393 
363 2 5.48905 5.66442 12.7392 -25.6404 2.00819 -0.0801858 -0.140521 
1802 2 5.56017 3.01311 10.0952 -25.7581 0.0187332 0.0408005 -1.43215 
3062 2 2.82079 5.58238 9.92172 -25.4361 0.300138 0.899416 0.726031 
4503 3 2.78616 3.02076 12.5983 -29.4324 1.01505 -0.0814508 1.39179 
6003 1 1.25857 1.42385 14.1165 -7.3105 1.40876 1.17652 -0.456323 
7502 1 4.34146 4.27041 11.5219 -7.09252 -1.3321 -0.743136 -1.69579 
9003 1 4.21568 4.29455 14.0321 -7.15344 -0.595294 -0.210435 1.10861 
10502 1 1.57433 1.76173 11.2765 -7.8798 -0.668638 -0.499801 1.37869 
12002 1 4.2164 1.6865 11.4019 -7.37728 -0.252613 -0.489375 -1.53192 
13503 1 1.48694 4.14842 14.0178 -7.30011 -0.0783672 0.573943 -0.373546 
15002 1 1.65929 4.43622 11.4394 -7.56663 -1.441 -0.0102658 -0.752151 
16503 1 4.09986 1.57006 13.8621 -7.01183 -0.693212 0.572927 1.04182 
6303 1 6.86913 1.58916 13.9725 -7.38544 -0.688367 0.231639 0.636924 
10802 1 6.89916 1.6764 11.3053 -7.70094 0.0478522 -0.460691 0.102661 
1803 3 5.58971 3.02802 15.3 -29.5075 -0.653247 -0.789955 -0.0461219 
13803 1 6.8664 4.27137 13.9971 -7.53704 0.219443 0.589161 -0.230339 
12062 1 4.16714 6.82831 11.3248 -7.69543 0.481097 1.74622 -0.466217 
303 2 5.56725 0.281269 12.7071 -25.8556 0.716965 -0.0587396 0.531078 
3002 2 2.8607 0.398883 10.0699 -25.264 0.0179844 -1.78178 -1.10004 
3003 2 2.79582 0.224622 15.3225 -25.8781 0.464063 -0.0147891 0.558175 
9302 1 9.4548 4.38446 8.72048 -7.96946 1.0563 -0.269831 -0.4503 
15302 1 6.94372 4.45591 11.2364 -7.52899 0.829481 -1.09283 0.634714 
663 3 10.8153 5.57076 12.8535 -29.3773 1.8397 0.469812 -0.78199 
2102 2 11.0597 3.02568 9.99414 -24.9946 -2.39402 -1.04326 0.887077 
3362 3 8.16813 5.64576 9.9661 -29.4415 0.23732 0.677868 0.666139 
4803 2 8.2452 2.90856 12.6287 -25.5981 0.358671 0.946319 1.03939 
6603 1 12.2397 1.54351 14.0756 -7.82326 -0.720601 0.216603 -0.342749 
7802 1 9.73383 4.47574 11.4469 -7.57276 -0.990041 -0.80452 -0.355068 
9303 1 9.56544 4.18438 14.1204 -7.46971 0.166854 -0.101552 -0.380837 
11102 1 12.2432 1.5136 11.3141 -7.70648 0.234761 0.49183 0.441684 
12302 1 9.5707 1.68775 11.1809 -7.58645 0.251626 -0.0527287 1.15686 
14103 1 12.3061 4.26297 14.0772 -7.28867 -0.613107 -0.0873848 -0.0391842 
15602 1 12.3576 4.27696 11.4195 -7.68482 -0.583469 -0.00995882 -0.62407 
16803 1 9.43412 1.42417 14.01 -7.28841 1.26497 0.215452 -0.727906 
16863 1 9.71505 6.87729 13.9882 -7.83857 -1.52446 0.80166 0.101727 
3662 2 13.4973 5.60672 9.98668 -24.989 1.27639 1.33654 0.591621 
3302 2 8.2019 0.277654 9.89777 -25.9005 0.623479 -0.054506 0.881955 
603 2 10.8863 0.169948 12.6622 -25.5131 -0.573305 0.262946 0.419651 
3603 2 13.5641 0.246526 15.358 -25.78 0.858793 -1.06566 0.888263 
5103 2 13.6874 2.96161 12.7747 -25.551 -1.15722 0.0875504 -0.788846 
17102 1 14.963 1.3902 8.7948 -7.03699 -0.353954 0.880851 0.00519153 
963 3 16.3096 5.55047 12.563 -29.2068 0.0442433 1.39372 0.620044 
2402 2 16.3299 2.8809 9.999 -25.9467 -0.546984 -0.45084 -0.870626 
3962 2 18.984 5.62824 9.87582 -25.5482 -0.327063 -1.02628 1.28725 
5403 3 19.0388 2.9859 12.5663 -28.6424 -0.541895 -0.604371 0.272602 
6903 1 17.5869 1.38097 13.8624 -7.69434 0.686732 2.59124 0.632403 
8102 1 14.9517 4.31758 11.3354 -7.5509 0.487743 0.479908 -0.187062 
9603 1 14.9805 4.39162 13.9892 -7.60075 0.509933 -0.477645 -0.0599878 
11402 1 17.7178 1.61791 11.2868 -7.39512 0.459955 0.575517 -0.214443 
12602 1 14.9973 1.62996 11.4824 -7.34677 0.142951 -0.141799 0.0163596 
14403 1 17.6218 4.32563 13.8489 -7.77575 0.519252 -1.61302 0.17766 
15902 1 17.5991 4.28762 11.1804 -7.42163 -0.238052 -0.0134574 1.01187 
17103 1 14.918 1.65199 14.1263 -7.81758 0.369563 -0.885067 -0.662874 
3963 2 19.1186 5.68771 15.2414 -25.5212 -0.969771 -1.15785 1.49005 
9903 1 20.3325 4.25313 14.035 -7.57805 0.417809 0.373418 -0.936319 