ITEM: TIMESTEP
0
ITEM: NUMBER OF ATOMS
6000
ITEM: BOX BOUNDS pp pp pp
3.8936105183591607e-01 2.6951638948163975e+01
3.9391831629263940e-01 2.6947081683706987e+01
1.5543289318448998e+00 1.0780967106815521e+02
ITEM: ATOMS id type x y z c_peratom fx fy fz 
122 3 5.79796 5.62684 6.77872 -29.3203 -0.247705 0.0425224 0.45489 
601 3 5.79898 3.06917 4.23155 -29.6118 -0.266375 -0.193493 0.162343 
602 2 5.72016 2.96348 9.53571 -25.7487 -0.588369 0.12906 0.0794631 
1001 3 3.05863 0.4883 4.17081 -29.3912 0.226132 0.0569912 0.304702 
1021 3 3.06008 5.72297 4.25037 -29.1478 0.315962 -0.602353 -0.732269 
1022 2 3.00671 5.69898 9.48321 -25.7528 0.348046 -0.103968 0.729864 
1502 2 3.03063 3.08003 6.83647 -25.4336 0.235802 -0.78216 -0.192109 
2001 1 1.67056 1.77849 2.95627 -7.50515 0.685845 0.144781 -0.578962 
2002 1 1.59305 1.72667 8.22337 -7.72363 0.532868 0.133009 -0.819134 
2501 1 4.47652 4.30622 5.57809 -7.74534 -0.864497 0.94546 -0.560743 
3001 1 4.58838 4.43762 2.88538 -7.63202 -1.2957 -0.870939 1.21091 
3002 1 4.29349 4.33001 8.22875 -7.40218 1.16782 0.21952 -0.514976 
3501 1 1.71277 1.72901 5.49378 -7.70656 -0.334883 0.949177 1.01084 
4001 1 4.47808 1.71949 5.49692 -7.31451 -0.528308 0.0528648 0.182146 
4501 1 1.81601 4.37812 2.90403 -7.39535 0.224919 -0.204303 -0.18259 
4502 1 1.65034 4.51298 8.19975 -7.92021 -0.392303 -1.33746 -1.34797 
5001 1 1.73947 4.40217 5.44309 -7.76382 0.298724 -0.593679 1.41647 
5501 1 4.37029 1.78168 2.93581 -7.5002 -0.456987 -0.113347 -0.409434 
5502 1 4.28944 1.70701 8.16673 -7.44792 0.106004 -0.685442 0.331661 
2021 1 1.72529 6.95214 2.89238 -7.5865 0.0326284 1.07422 0.0332138 
3521 1 1.76674 6.94189 5.48913 -7.93088 0.334694 0.604748 0.645862 
4021 1 4.5393 6.99766 5.56168 -7.83065 -1.26604 -0.328731 -0.34492 
5522 1 4.45917 6.94519 8.09845 -7.4613 -0.737384 0.372025 0.859178 
1501 2 3.15787 3.06454 1.57303 -25.4173 -1.27175 0.0232402 0.963409 
2101 1 6.9157 1.76961 2.86782 -7.49696 0.50885 0.759481 0.448793 
2102 1 7.00965 1.6534 8.23615 -7.83835 0.332108 -0.529237 0.655368 
22 3 0.411549 5.68609 6.88439 -28.8342 -0.485047 0.747672 -0.124552 
102 2 5.74791 0.397441 6.92208 -25.5184 -0.713289 0.188925 -0.438779 
121 2 5.77275 5.7287 1.58204 -25.5387 -0.340594 1.79995 0.283416 
4602 1 7.07069 4.27794 8.16165 -7.66309 -1.20574 0.525455 0.147168 
2122 1 7.04367 6.99002 8.07962 -7.79635 0.00293587 0.208128 0.679473 
4601 1 7.16472 4.46146 2.949 -7.83681 0.913422 -0.791185 0.402565 
5101 1 7.05034 4.30084 5.60375 -7.39548 0.318712 1.29617 -0.808876 
3621 1 7.13351 6.97601 5.44073 -7.6483 0.407313 -0.694382 0.439015 
222 2 10.9881 5.78323 6.79062 -25.412 0.425688 -0.663169 0.88188 
701 3 10.976 3.10706 4.32001 -29.2497 -0.190967 -0.317195 -0.378002 
702 2 11.0283 3.1091 9.50591 -25.6042 -0.0563841 0.909948 -0.615909 
1121 3 8.40986 5.75999 4.19884 -29.1044 0.107615 -0.262305 -0.284586 
1122 2 8.29993 5.66576 9.48141 -25.3951 0.412206 0.401491 0.690977 
1602 3 8.42468 3.09344 6.90363 -29.6218 -1.02061 -0.665242 -1.05449 
2201 1 12.2781 1.96566 3.03507 -7.78464 -0.374228 -0.7033 -0.173494 
2202 1 12.19 1.7788 8.18914 -7.50275 0.652531 -0.112695 0.00589402 
2601 1 9.65882 4.38619 5.56576 -7.91307 0.0662922 0.152574 -0.0698557 
3101 1 9.82738 4.29608 3.02119 -7.70755 -0.643569 1.4916 -1.06956 
3102 1 9.60975 4.38272 8.14826 -7.74835 1.34745 -0.201295 0.366958 
3601 1 7.10617 1.81351 5.55891 -7.45997 -0.256493 -0.888537 -0.153463 
3701 1 12.2602 1.76646 5.65855 -7.70754 0.551472 -0.209899 -0.505687 
4101 1 9.63355 1.68636 5.38492 -7.43883 0.935774 0.196842 0.646994 
4701 1 12.385 4.65897 2.8533 -7.48683 -1.10348 -1.15625 -0.778341 
4702 1 12.3514 4.50143 8.22144 -7.27275 -0.665245 -0.603255 -0.966841 
5201 1 12.3226 4.42998 5.49739 -8.01189 0.00876626 -0.796006 0.298801 
5601 1 9.51555 1.79405 2.89094 -7.51559 0.445948 -0.693962 -0.179046 
5602 1 9.54292 1.71225 7.96292 -7.54252 0.830364 -0.652873 0.688417 
5622 1 9.63465 7.02273 8.087 -7.81631 0.526475 0.430536 0.374635 
1702 3 13.6688 3.08679 6.82202 -29.0886 -0.658944 0.127053 0.869104 
1221 2 13.6109 5.79482 4.19747 -25.4698 1.11263 0.546381 1.56228 
1601 3 8.3733 3.08958 1.68529 -29.4756 -0.525267 0.358378 -0.835762 
221 3 11.0306 5.78704 1.6226 -29.0853 -0.676094 -0.369571 -0.433225 
201 2 10.9258 0.45766 1.62334 -25.4221 0.744514 0.715829 -0.204012 
1101 3 8.29546 0.51474 4.24279 -29.2994 0.118561 -0.281478 -0.177191 
1102 3 8.40029 0.427377 9.58171 -28.9636 -0.691728 -0.511696 -0.630821 
1701 2 13.6578 3.13313 1.5989 -25.7972 -0.460594 -0.587329 -0.255489 
5521 1 4.34715 7.03841 2.96678 -7.69556 -0.253335 0.235926 -0.438096 
2022 1 1.69679 7.13284 8.23185 -7.54106 0.411995 -0.545465 -1.61992 
142 2 5.73095 11.0146 6.85731 -25.5578 0.0971228 0.665111 -0.713721 
521 3 0.414997 8.32171 4.1686 -29.3513 0.624181 0.186602 1.24041 
621 2 5.73377 8.34351 4.21166 -25.6223 0.105276 -0.0797129 -1.22311 
622 2 5.69142 8.37732 9.48175 -25.1021 0.5828 -1.30321 -0.180033 
1041 3 3.09985 10.9837 4.11715 -29.8911 -0.322433 0.621448 0.0897355 
1042 3 3.14372 10.9114 9.59629 -29.0821 -1.36145 0.720578 -0.364342 
1522 2 3.07163 8.34488 6.76817 -25.3186 -0.0226719 -0.232313 0.766385 
2041 1 1.69558 12.311 2.90001 -7.35253 -0.402584 0.31338 0.252493 
2042 1 1.8564 12.281 8.32375 -7.41722 -0.21249 0.267839 0.0655077 
2521 1 4.33048 9.73532 5.37863 -7.66927 0.0444269 -1.13039 0.70981 
3021 1 4.38019 9.70563 2.71281 -7.43915 0.666818 -0.980535 -0.241849 
3022 1 4.39352 9.64213 8.1738 -8.11801 -0.407218 0.392296 -0.0437899 
3541 1 1.76642 12.3207 5.52558 -7.75817 -0.492018 0.141057 0.632758 
4041 1 4.41324 12.2643 5.46034 -7.32049 0.212859 1.19676 0.206491 
4521 1 1.85721 9.65497 3.01827 -7.47489 -0.566791 -0.691089 -1.40383 
4522 1 1.73427 9.69435 8.28916 -7.54106 0.232934 0.422219 -0.812351 
5021 1 1.70127 9.61802 5.53656 -7.39671 0.281813 -0.101005 0.614829 
5541 1 4.28128 12.2845 2.77482 -7.0459 0.832101 0.696573 0.542688 
5542 1 4.45589 12.3347 8.19155 -7.59942 0.402504 -0.227193 0.119399 
1542 2 3.0245 13.6468 6.92042 -25.5388 0.56599 -0.172711 -0.0160995 
42 2 0.443146 11.0047 6.91518 -25.7749 -0.182258 -0.0809193 -0.330203 
5121 1 6.98676 9.56975 5.55966 -7.63677 0.989007 1.05014 -0.131736 
522 2 0.40196 8.42534 9.57525 -25.6363 -0.483205 -0.0549057 0.162593 
642 3 5.75963 13.6339 9.52155 -29.2051 0.0593401 0.515713 -0.210949 
1521 3 2.99035 8.35638 1.61033 -29.2127 0.943168 0.00725772 -0.314685 
2121 1 7.08449 7.03861 2.84154 -7.58162 0.272839 0.306639 -0.107963 
4121 1 9.7448 7.07401 5.37628 -7.91862 -0.245947 0.108652 -0.0738855 
2222 1 12.4245 7.09686 8.18707 -7.48444 -0.602709 -0.00845933 0.126874 
3721 1 12.3359 7.09186 5.62765 -7.49977 -0.189037 0.569428 -0.92322 
5621 1 9.7034 7.03956 2.70768 -7.67412 0.137764 -1.10158 0.408089 
2141 1 7.05955 12.4179 2.80522 -7.91505 -0.607468 -0.798202 -0.11471 
2142 1 7.12166 12.3646 8.22909 -7.35169 -0.178625 0.0765816 -0.39257 
4622 1 7.06035 9.74333 8.11564 -7.57373 0.0328624 -1.06031 0.912444 
2221 1 12.3345 7.20135 2.96783 -7.80721 -0.350178 0.0792734 -0.467605 
1242 3 13.6416 11.0123 9.56984 -29.3382 0.929571 0.647388 0.0279198 
242 2 11.1402 10.9855 6.82512 -24.9363 -1.14832 0.569567 0.359286 
721 3 11.0691 8.51243 4.21457 -28.9923 0.0285722 -1.12849 -0.328956 
722 2 11.1151 8.34776 9.4988 -25.2698 -0.668095 0.257388 0.483185 
1141 2 8.36852 11.0877 4.0611 -25.1906 0.737708 -1.01396 1.75755 
1142 2 8.4403 10.9714 9.57006 -25.4932 -0.276109 1.5526 -1.57262 
1622 3 8.34582 8.37003 6.80274 -29.1404 0.144928 -0.0415133 -0.0426069 
2241 1 12.4133 12.2994 2.83562 -7.96523 -0.388282 0.0268255 0.226128 
2242 1 12.3995 12.3656 8.17589 -7.99 -0.769453 -0.681105 0.0317377 
2621 1 9.74032 9.72793 5.4914 -8.02416 0.055914 -0.0309958 -0.024464 
3121 1 9.78813 9.60364 2.82912 -7.94782 0.456059 0.985266 0.634122 
3122 1 9.67186 9.64215 8.19702 -7.81199 1.45225 0.110519 -0.664036 
3641 1 7.12348 12.3817 5.51566 -7.75035 0.167037 -0.452472 0.20033 
3741 1 12.5114 12.3173 5.48125 -8.10727 -0.758175 -0.358052 -0.264995 
4141 1 9.82847 12.3794 5.4217 -7.72648 0.323804 -0.233664 0.201116 
4621 1 7.10522 9.6726 2.8982 -7.62183 -0.203477 0.248393 -0.637751 
4721 1 12.5193 9.68901 2.93357 -7.74586 -0.891794 0.983062 -0.0836189 
4722 1 12.5199 9.66552 8.1987 -8.0907 -1.07969 0.797971 -0.223025 
5221 1 12.4607 9.67435 5.53476 -8.11307 -0.629345 0.377597 0.0604032 
5641 1 9.74289 12.2791 2.75167 -8.02627 0.821741 -0.148077 0.250983 
5642 1 9.76402 12.3777 8.17833 -7.56621 0.35016 -0.624326 -0.543769 
741 3 11.1514 13.5903 4.15304 -28.8312 -0.686423 0.382117 0.0550017 
24 3 0.397266 5.63338 17.6183 -29.6789 -0.502905 -0.327239 0.128046 
1003 3 2.96385 0.412865 14.9435 -28.9933 0.179149 -0.658799 -0.915916 
104 2 5.60358 0.471055 17.4414 -25.2226 0.234699 -1.19811 1.5536 
503 3 0.446813 3.09261 14.9414 -28.9652 -1.25191 -0.935788 0.509311 
123 2 5.67296 5.72764 12.2436 -25.3859 -0.316669 -0.868401 0.0868995 
124 3 5.66495 5.68479 17.4814 -29.4199 -0.00995415 -0.0666573 0.313866 
603 2 5.71364 3.0119 14.9191 -25.36 -0.90425 0.589182 -1.25309 
1023 2 2.95895 5.71341 14.8979 -25.2996 0.357547 0.345412 1.4102 
1503 2 3.04684 3.01697 12.2502 -25.4803 -0.547757 -0.820357 -0.141813 
1504 3 3.10158 3.08396 17.5314 -29.2701 -0.941579 0.0883038 0.552145 
2003 1 1.67302 1.60703 13.5011 -7.74728 0.544228 1.65389 1.01916 
2004 1 1.73302 1.82579 18.8253 -7.79549 0.910743 -0.866593 -0.468158 
2502 1 4.25676 4.23257 10.8639 -7.57642 1.12522 0.694491 0.314097 
2503 1 4.35322 4.42707 16.218 -7.56369 0.0668158 0.142831 -0.100192 
3003 1 4.27969 4.38198 13.6183 -7.54556 1.05738 -0.54693 -0.867841 
3004 1 4.34882 4.30857 18.7331 -7.50279 -0.202143 0.274677 1.24149 
3502 1 1.80261 1.62995 10.8477 -7.6751 -0.130473 -0.330438 0.0770282 
3503 1 1.68056 1.57959 16.1224 -7.78105 -0.989411 0.604906 0.488808 
4002 1 4.53691 1.52116 10.8266 -7.62134 -1.09187 -0.476887 0.515145 
4003 1 4.21307 1.81249 16.2558 -8.22154 0.546298 -0.763346 -0.494166 
4503 1 1.7045 4.27348 13.7774 -7.89348 -0.946037 0.350311 -1.44666 
4504 1 1.72459 4.37641 18.8989 -7.31761 0.28585 0.145403 0.27775 
5002 1 1.58075 4.31014 10.9168 -7.30733 0.547424 -0.377884 0.610875 
5003 1 1.69751 4.27696 16.3552 -7.76522 0.221766 0.257511 -0.401071 
5503 1 4.35063 1.66847 13.5651 -7.68622 -0.0387591 0.233158 0.191826 
5504 1 4.5271 1.79152 18.8862 -7.62717 -1.38018 -0.544194 0.106468 
2024 1 1.72417 6.97662 18.8657 -7.5311 1.15565 0.290347 0.878789 
5524 1 4.31598 6.86441 18.8523 -7.69597 0.448125 0.742689 0.434467 
2103 1 6.99395 1.68582 13.539 -7.79881 0.642569 -0.366137 0.52346 
4604 1 6.96275 4.38517 18.8421 -7.54772 0.246355 -0.514429 -0.189117 
3522 1 1.65664 6.91401 10.8321 -7.3648 0.455798 1.16119 0.315451 
3523 1 1.5878 7.01177 16.326 -7.97537 0.23906 -0.65471 -1.33845 
4022 1 4.28578 6.96624 10.894 -7.83426 0.264336 0.472442 -0.128475 
5523 1 4.31177 6.98166 13.6312 -7.71191 0.498904 0.722203 -0.668258 
5103 1 6.99846 4.38021 16.1448 -7.7862 0.633466 0.0536104 0.388246 
3603 1 6.97287 1.69969 16.2216 -8.00606 0.649979 0.450366 -0.512885 
4603 1 6.99313 4.39549 13.5091 -7.90056 0.934577 -0.370398 0.0683336 
3623 1 6.95492 6.98924 16.1844 -7.78336 0.383618 0.0882502 0.00963943 
1223 3 13.5808 5.75949 14.896 -29.1697 0.885683 -0.589258 -0.231023 
2104 1 7.10758 1.75204 18.8615 -7.59977 0.272487 -0.528596 0.310912 
5102 1 7.03413 4.30619 10.8278 -7.5859 -0.665772 0.740267 0.435345 
2124 1 7.04881 6.92537 18.8571 -7.48414 -0.602362 0.7087 -1.19531 
1703 2 13.6127 3.11138 12.2214 -25.6399 0.0149693 0.777531 -0.0781806 
3602 1 7.08988 1.71842 10.9589 -7.50713 0.700895 -0.480591 -0.437446 
223 2 11.0486 5.75231 12.1827 -25.6671 -0.0822757 -0.361297 0.554735 
224 3 11.1213 5.66197 17.5408 -28.8827 -0.602293 0.256188 -0.290141 
703 3 10.9524 3.04394 14.9161 -29.1767 0.577961 0.0627977 -0.401288 
1123 3 8.38419 5.64625 14.7889 -29.1021 -0.109729 0.662998 0.501664 
1603 3 8.36243 2.94466 12.1833 -29.0452 -0.343476 1.35728 -0.421923 
1604 2 8.36963 3.06345 17.5452 -25.3664 -0.684974 0.08988 -1.54233 
2203 1 12.2558 1.70616 13.5209 -7.71633 0.264184 -0.305263 0.958299 
2204 1 12.4128 1.67975 18.8546 -7.76657 0.657942 0.307092 0.340654 
2602 1 9.63306 4.34704 10.8981 -7.37291 0.219374 -0.0569092 -0.0579979 
2603 1 9.66524 4.34502 16.1496 -7.77117 0.0163077 -0.191501 -0.096729 
3103 1 9.76615 4.47975 13.5477 -7.61131 -0.789543 -0.690517 0.406881 
3104 1 9.7144 4.36124 18.7736 -8.15543 0.419367 1.26878 0.613605 
3702 1 12.2959 1.78146 10.8933 -7.54185 -0.0318746 -0.433187 -0.299429 
3703 1 12.2307 1.7311 16.2338 -7.55614 0.672453 -0.163015 -0.362159 
4102 1 9.70837 1.76982 10.6313 -7.93621 -1.01237 -1.48195 0.816443 
4103 1 9.65784 1.65139 16.0205 -7.55265 -0.565218 0.739149 -0.363548 
4703 1 12.3852 4.37651 13.5605 -7.73802 -1.04869 0.72969 0.838462 
4704 1 12.4709 4.3725 18.8488 -7.87203 -1.12218 -0.178319 -0.43583 
5202 1 12.3345 4.51423 10.8136 -7.47464 0.0937129 -0.615736 0.448098 
5203 1 12.299 4.34109 16.2677 -7.76483 -0.275934 0.420265 -0.515274 
5603 1 9.66317 1.83516 13.369 -7.95252 -0.630769 -0.304291 0.195367 
5604 1 9.79566 1.79202 18.6262 -7.74373 0.341152 -1.00914 1.0806 
2224 1 12.4174 7.01008 18.8303 -7.94461 0.557638 -0.339132 -0.272003 
4123 1 9.74832 6.97237 16.183 -7.65951 -0.403454 -0.73064 0.11306 
3723 1 12.3136 6.96862 16.1644 -8.16135 0.595672 0.0959659 -0.0706196 
4122 1 9.72539 6.98281 10.8967 -7.829 -0.53498 0.884132 -1.37307 
4023 1 4.29325 7.08216 16.2602 -7.67513 -0.249167 -0.44889 -0.113429 
2023 1 1.68279 7.07547 13.474 -7.86079 0.253866 -0.533532 1.04104 
3622 1 6.94209 7.06989 10.9547 -7.86263 0.684547 -0.517134 -1.48558 
143 2 5.73968 10.9763 12.1697 -25.2254 -0.0241078 0.238796 1.40145 
144 2 5.68587 10.9661 17.5106 -25.8209 0.261834 0.274487 0.67813 
623 3 5.65588 8.30147 14.9062 -29.386 0.494843 0.546633 0.050037 
1043 2 2.97035 10.9804 14.8907 -25.5043 1.24312 -0.34369 0.202883 
1523 3 3.06874 8.33416 12.1877 -29.1259 -0.675909 0.0194076 0.646294 
1524 3 2.98363 8.28548 17.5454 -29.1424 0.0581202 0.1832 0.215615 
2043 1 1.72378 12.2149 13.5428 -7.57433 -0.783948 1.32333 0.336905 
2044 1 1.64869 12.3094 18.8811 -7.65209 0.347965 0.579897 0.0994157 
2522 1 4.41817 9.61291 10.9018 -8.21651 -0.252331 0.384879 0.0100322 
2523 1 4.4329 9.64121 16.215 -7.57545 -1.12028 0.274801 -0.306039 
3023 1 4.38922 9.59825 13.6245 -7.59343 0.252478 0.15032 -1.07515 
3024 1 4.29081 9.62077 18.8078 -7.6501 -0.112472 -0.822248 0.872017 
3542 1 1.60385 12.2499 11.0259 -7.38406 0.442883 0.666006 -0.879663 
3543 1 1.60986 12.4165 16.1414 -7.76109 -0.054407 -0.814247 0.471159 
4042 1 4.24692 12.2942 10.8168 -7.93439 1.16358 -0.138645 0.684492 
4043 1 4.30773 12.3936 16.2729 -7.84652 0.149593 -0.363406 -0.376782 
4523 1 1.71065 9.6606 13.5706 -7.36479 -0.270299 -0.254663 -0.548512 
4524 1 1.62973 9.71333 18.8315 -7.39309 1.2905 -1.33422 0.606072 
5022 1 1.79554 9.57501 10.8859 -7.50943 0.516424 0.402659 0.613375 
5023 1 1.59819 9.64365 16.2186 -7.91059 1.75178 0.399728 0.220921 
5543 1 4.42794 12.2893 13.5992 -7.95608 0.496903 0.630809 -0.331399 
5544 1 4.3772 12.2739 19.0101 -7.49211 0.130542 0.640027 -0.4308 
2123 1 7.00092 7.10405 13.574 -7.58979 -0.296229 -0.755442 0.410486 
3643 1 6.9697 12.3347 16.2361 -7.6387 0.628559 0.584 -0.853389 
1543 2 3.07712 13.6462 12.3126 -25.4291 0.0291004 -0.315236 -0.677223 
4624 1 6.99735 9.58533 18.8375 -7.41988 -0.148693 0.0933109 0.204064 
4724 1 12.413 9.64572 18.726 -7.81811 -0.205733 -0.100923 0.796493 
4723 1 12.4362 9.63253 13.4319 -7.28245 -0.510728 1.39592 0.622493 
1643 2 8.45259 13.6567 12.1871 -25.1761 -0.0972536 0.118872 -0.950237 
5222 1 12.4156 9.72047 10.828 -7.5142 -0.675489 0.848514 -0.162046 
5223 1 12.3634 9.6287 16.121 -8.1032 0.275136 -0.278602 -0.409499 
2223 1 12.2951 7.11077 13.4739 -7.69539 0.0904699 -1.08636 1.06289 
2622 1 9.77727 9.74317 10.8558 -7.82654 0.217258 -0.6011 0.349413 
5624 1 9.78389 7.05492 18.893 -7.62061 -0.152459 -1.00306 -1.20326 
3722 1 12.4404 7.10398 10.8428 -7.56594 0.0575949 0.0372514 -0.0169142 
2623 1 9.71676 9.5625 16.1417 -7.66752 0.493225 0.433314 -0.104551 
2143 1 7.15975 12.1741 13.5223 -7.43587 -0.15533 1.93016 0.0334001 
5643 1 9.8183 12.3426 13.5553 -7.98585 -0.0871205 0.107383 -1.12518 
5123 1 7.09619 9.69539 16.1903 -7.4007 -0.136051 -0.48291 -0.250254 
4623 1 7.15961 9.71421 13.5742 -7.25749 -0.682124 -0.970992 -0.457564 
3642 1 7.05219 12.4016 10.8265 -7.9987 -0.590896 -0.110012 0.620985 
1644 2 8.46531 13.577 17.5764 -25.3469 -1.48102 1.11286 -0.45903 
2244 1 12.3354 12.3077 18.8608 -7.49903 0.075934 -0.460941 0.192117 
5644 1 9.72425 12.2524 18.8486 -7.72241 0.418177 0.386569 0.452911 
1624 2 8.39751 8.24945 17.4389 -25.6631 -0.398869 0.527418 0.791326 
1623 2 8.39886 8.33833 12.2274 -25.6323 -0.0115081 0.778656 0.193288 
1143 3 8.43326 10.9622 14.8746 -29.468 -0.344546 -0.450773 -0.297837 
5623 1 9.63841 7.08058 13.5596 -7.50332 0.46869 -0.828944 0.699728 
243 3 11.0158 11.0289 12.1734 -28.9084 1.03221 -0.655086 0.219452 
723 3 11.1083 8.30177 14.8708 -29.3178 -0.977842 0.36295 -0.884202 
244 2 11.074 10.965 17.4825 -25.4545 -0.269164 0.147143 -0.0697008 
2144 1 7.04468 12.3612 18.8625 -7.21039 -0.144671 -0.838469 -0.113418 
5122 1 7.06678 9.69738 10.813 -7.95532 0.0179559 -0.0322038 0.361626 
4143 1 9.70075 12.2292 16.1161 -7.81154 -0.336358 0.83206 0.599832 
4142 1 9.78363 12.3677 10.8157 -7.99811 0.0435693 0.105921 0.818998 
3743 1 12.3499 12.3596 16.1391 -7.93495 0.336485 -0.0411047 0.101723 
3742 1 12.3992 12.4809 10.7367 -7.64001 -0.777672 -0.897989 0.709455 
2243 1 12.4671 12.4128 13.4294 -8.10089 -0.27363 -0.231421 -0.259887 
3124 1 9.71517 9.69473 18.8874 -7.3477 0.266578 -0.612498 -1.22155 
3123 1 9.81922 9.64611 13.4743 -7.3876 0.0102655 0.95682 0.404949 
125 2 5.59594 5.6478 22.8909 -25.5973 1.07802 0.0249739 -0.657799 
604 3 5.65699 3.07657 20.1793 -29.4862 0.618229 -0.439031 -0.278199 
605 2 5.6644 3.07339 25.4515 -25.7086 -0.345717 -1.10588 0.678586 
1024 3 3.03445 5.56312 20.1332 -29.2991 -0.19056 0.722841 0.343842 
1025 3 2.92636 5.68172 25.493 -28.8884 0.503227 0.0466688 0.529227 
1505 2 2.95011 2.99231 22.8009 -25.1058 0.466316 0.106213 0.215875 
2005 1 1.6333 1.72891 24.0822 -7.80755 -0.00725949 -0.136051 -0.250664 
2504 1 4.3954 4.25822 21.4691 -7.8627 -0.749985 -0.125586 -0.537935 
2505 1 4.31278 4.36724 26.7427 -7.54925 0.0707092 0.691828 0.816721 
3005 1 4.23034 4.26317 24.1631 -7.71977 -0.160664 1.32818 -0.58004 
3504 1 1.59072 1.60331 21.4645 -8.12055 0.87798 -0.0665226 0.75097 
3505 1 1.6331 1.65649 26.6426 -7.78758 0.409514 0.241577 1.19034 
4004 1 4.25159 1.64088 21.4963 -7.82081 -0.448024 0.123205 0.0369903 
4005 1 4.38103 1.67851 26.8356 -7.31413 -0.372666 -0.0872095 -0.370978 
4505 1 1.57961 4.45637 24.2568 -8.10705 0.313428 0.0947979 -1.25264 
5004 1 1.72069 4.37448 21.4876 -7.97036 0.0925545 -0.606829 0.89271 
5005 1 1.73261 4.35514 26.8642 -7.79959 -0.644865 0.973384 -0.657527 
5505 1 4.31393 1.70886 24.1787 -7.59916 -0.0281042 -1.13581 -0.592466 
2105 1 6.99989 1.66126 24.099 -7.85291 -0.310159 0.487518 0.336468 
5104 1 6.99551 4.35335 21.5033 -7.53758 0.446342 -0.196802 0.0879942 
3524 1 1.70934 6.98075 21.6415 -7.64186 -1.12919 -0.270556 0.337033 
5105 1 6.99131 4.41794 26.7906 -7.5777 0.569952 0.647548 0.459725 
3604 1 6.86793 1.74724 21.5043 -7.33455 0.0149066 0.066853 -0.13086 
4605 1 6.97878 4.43247 24.2411 -7.58343 -0.253063 -0.605157 -0.796032 
1004 3 2.93521 0.409197 20.2571 -29.1858 0.784066 -0.377792 -0.766971 
4024 1 4.25987 6.85944 21.5607 -7.35356 0.113041 0.213121 -1.18462 
2025 1 1.55992 7.027 24.3448 -8.13123 0.87993 0.240864 -0.115512 
5525 1 4.2605 6.95183 24.0983 -7.80389 -0.532334 -0.0532734 1.22541 
3624 1 6.99256 6.97933 21.4674 -7.44163 -0.206364 0.0974791 1.16048 
1506 2 2.9865 3.04324 28.0978 -25.6432 0.776841 -1.17281 0.855942 
225 3 11.1159 5.55433 22.9378 -29.2831 -1.2316 1.39779 -1.51897 
704 2 11.0008 3.08188 20.1235 -25.3042 0.72262 -0.302827 0.207972 
705 3 10.9868 3.06583 25.5046 -28.958 -0.0976369 -0.401431 0.0870525 
1124 2 8.36731 5.70309 20.163 -25.8024 0.5338 -0.31246 0.777644 
1125 3 8.42971 5.72004 25.4938 -29.1763 -0.808111 0.354295 0.0752068 
1605 2 8.3042 3.02768 22.8488 -25.3996 -0.341657 0.142075 -0.853813 
2205 1 12.467 1.75196 24.2714 -8.13009 -0.45905 -1.08638 -0.0219718 
2604 1 9.77928 4.40939 21.5627 -7.52557 -0.778569 -0.849024 -0.81223 
2605 1 9.7429 4.42223 26.7015 -7.87442 -0.18412 -0.0774895 0.170655 
3105 1 9.52641 4.36856 24.1007 -7.61796 1.63227 0.491207 1.03277 
3605 1 7.05246 1.75583 26.7697 -7.54739 -0.797696 -0.271873 -0.589751 
3704 1 12.2699 1.80451 21.5189 -7.95204 -0.227949 -0.414541 0.54952 
3705 1 12.1817 1.65283 26.9189 -7.71185 0.657444 0.837723 -0.510093 
4104 1 9.49117 1.68004 21.3526 -7.94399 0.891172 0.793837 0.482236 
4105 1 9.63022 1.7559 26.6876 -7.44654 0.0905338 0.13424 1.14352 
4705 1 12.2453 4.2805 24.12 -7.99935 -0.155756 0.35636 -0.108313 
5204 1 12.3439 4.44533 21.4264 -7.3864 1.02394 -0.826622 0.763803 
5205 1 12.3652 4.37231 26.6832 -7.96981 -0.025189 -0.138327 0.945233 
5605 1 9.67622 1.74301 24.2152 -7.96104 0.636239 0.171101 -1.51291 
1606 2 8.3113 3.02675 28.0609 -25.7271 0.808197 0.50984 0.762855 
1105 3 8.19865 0.473814 25.4439 -29.31 0.475262 -0.52715 0.468625 
206 3 10.8707 0.419696 28.1175 -29.3336 0.286296 0.0354348 0.133512 
205 2 10.9328 0.429724 22.8631 -24.8831 -0.0822061 0.484053 -0.795432 
3724 1 12.2612 6.95739 21.5341 -7.37377 0.802426 1.04011 0.414599 
4125 1 9.71913 7.02957 26.8708 -7.51758 0.304712 -0.540815 -0.389051 
2225 1 12.4407 6.91112 24.1873 -8.17498 0.101464 -0.1701 0.239799 
226 3 10.9866 5.72844 28.098 -29.0315 -0.00875484 0.466003 0.205556 
1224 3 13.6505 5.66719 20.1738 -29.2918 -0.263207 0.275747 0.00908843 
1104 3 8.31189 0.399225 20.0779 -29.1432 -1.02974 0.324002 0.289266 
4025 1 4.26437 7.05182 26.7158 -7.84823 0.0576273 -0.446151 0.481197 
45 2 0.390961 11.0014 22.8996 -25.4007 -0.186831 -0.331884 0.394217 
3525 1 1.63948 7.10368 27.0622 -7.57762 0.128697 -1.23691 -1.01285 
525 3 0.403563 8.45407 25.5388 -29.3202 -0.536516 -0.8063 0.735374 
145 2 5.69247 10.883 22.9557 -25.4444 -0.231444 1.22168 -0.972538 
624 2 5.62567 8.24023 20.2307 -25.6422 0.0384712 0.0692692 -1.01386 
625 2 5.69402 8.38658 25.5194 -25.4876 0.0813097 -0.866993 0.803806 
1044 2 3.0539 10.9955 20.2562 -25.7028 0.0854691 -1.07895 -0.00444843 
1045 3 3.08449 11.0511 25.4669 -29.3405 -0.502845 -0.438156 1.16382 
1525 3 2.93123 8.22097 23.0216 -29.2272 0.473983 0.753809 -1.53848 
2045 1 1.71903 12.3468 24.2926 -7.87271 -0.560053 0.512225 -0.187798 
2524 1 4.42788 9.50827 21.6217 -7.48692 -0.739835 0.476593 -0.575748 
2525 1 4.27592 9.74855 26.8369 -7.59633 1.29853 -0.0210509 0.23808 
3025 1 4.32589 9.58496 24.2189 -7.75547 0.208686 0.491448 0.224978 
3544 1 1.7472 12.1947 21.6276 -7.57738 -0.442604 1.48286 -0.401195 
3545 1 1.81734 12.3923 26.9147 -7.44386 0.140346 0.331792 -0.71571 
4044 1 4.39895 12.2662 21.7221 -7.53858 -0.0499552 0.280675 -0.789106 
4045 1 4.46989 12.3286 26.9316 -7.52064 0.055965 0.609415 -0.487841 
4525 1 1.79459 9.69016 24.2203 -7.66333 -0.47525 -0.41321 -0.264456 
5024 1 1.7456 9.59468 21.5403 -7.43523 0.0836073 -0.417214 0.371506 
5025 1 1.70356 9.68104 26.8249 -7.65746 -0.546334 0.59222 -0.235222 
5545 1 4.31342 12.3252 24.3201 -7.82494 0.745568 0.581847 0.2086 
644 3 5.69191 13.6623 20.2802 -29.6422 0.371412 -0.418523 -0.670507 
2145 1 6.97068 12.3626 24.1992 -7.91195 -0.131935 -0.405881 0.344642 
2125 1 7.0243 7.0339 24.2096 -7.58446 0.0628659 -0.126858 0.294875 
3644 1 7.02699 12.2779 21.4498 -7.26452 0.0509981 0.375952 1.08732 
3625 1 6.97556 7.15702 27.0132 -7.44143 0.247159 -1.06677 -0.989266 
524 2 0.42685 8.26017 20.2121 -25.737 -0.0697671 0.00796571 -0.00996911 
3725 1 12.4845 7.04909 26.8734 -7.90092 -0.801471 -0.135435 -0.321697 
4124 1 9.69862 7.04156 21.5376 -6.96011 -0.212525 -0.36793 0.338507 
4625 1 7.06359 9.65519 24.2232 -7.88552 0.439447 0.383374 0.0817318 
5124 1 7.09083 9.65773 21.5665 -7.48637 -0.763008 -0.183786 -0.350747 
5625 1 9.75089 7.04887 24.2492 -7.71562 0.183237 -0.615327 -0.231755 
1745 2 13.5855 13.5765 22.8599 -24.9553 0.587607 0.0788783 0.543435 
1245 3 13.5498 11.0338 25.5415 -29.3898 1.1399 -0.690677 0.353461 
245 3 11.0821 10.9988 22.7975 -28.9737 -0.647904 -0.590734 0.93148 
724 2 11.1258 8.35667 20.1514 -25.7513 -0.753025 -0.64355 0.532016 
725 2 11.1116 8.36811 25.5008 -25.4528 -0.477321 -0.346774 1.19325 
1144 2 8.35008 10.9393 20.1851 -25.8361 -0.0847288 0.588664 -0.202114 
1145 2 8.40939 11.0045 25.5551 -25.7096 0.248616 -0.127959 0.742041 
1625 2 8.39743 8.36909 22.8168 -25.7649 0.749391 -1.16806 0.916599 
2245 1 12.2432 12.2133 24.3109 -7.96844 0.427752 -0.0564473 -0.642533 
2624 1 9.74584 9.66634 21.4864 -7.45164 0.456437 0.719125 0.813525 
2625 1 9.72979 9.61875 26.9039 -7.44107 0.309587 0.513682 0.571979 
3125 1 9.82823 9.74117 24.1874 -7.59805 -0.724838 0.0273995 -0.408543 
3645 1 7.09577 12.4198 26.8932 -7.54597 0.0896585 -0.488543 -0.261071 
3744 1 12.3568 12.223 21.5484 -8.12615 -0.295723 -0.139244 0.0908418 
3745 1 12.2562 12.3394 27.0066 -7.3015 1.26962 -0.825534 -0.753961 
4144 1 9.73883 12.3282 21.5961 -7.74752 0.148527 -1.17361 -0.000749185 
4145 1 9.74629 12.3122 26.8623 -7.51285 -0.296515 0.0464064 0.665845 
4725 1 12.3795 9.57508 24.1242 -7.87915 0.378164 0.291871 -0.0938605 
5125 1 7.08502 9.70308 26.8578 -7.38753 -0.83166 0.697951 0.271425 
5224 1 12.361 9.67225 21.4681 -7.97738 0.88046 -0.233903 0.0113379 
5225 1 12.3975 9.76272 26.8882 -7.86139 -0.6401 -0.525954 -0.223442 
5645 1 9.67279 12.3628 24.3172 -7.4313 0.00440421 -0.0533167 -1.15193 
1725 3 13.6074 8.26335 22.8903 -28.9559 0.507459 0.155392 -0.108777 
745 3 11.033 13.6064 25.583 -29.6314 -0.741766 -0.462911 0.208245 
744 3 11.0021 13.5012 20.295 -29.2685 0.214912 1.05312 -0.697953 
1645 2 8.35533 13.615 22.9219 -25.7068 -0.323675 0.0547989 -0.191146 
26 3 0.428541 5.70037 28.2303 -29.5045 -0.92598 0.763188 -0.155426 
126 2 5.62008 5.71995 28.2037 -25.5348 0.978291 0.316956 -0.908974 
127 2 5.70389 5.86378 33.501 -25.5217 -0.41064 -0.526361 -0.247152 
606 2 5.62369 3.13817 30.8512 -25.7466 0.476851 -1.64537 -1.36541 
607 2 5.60008 3.11213 36.1812 -25.4476 0.958228 -0.688998 -0.915101 
1026 3 2.95868 5.75202 30.8731 -29.2331 0.334462 0.359542 -0.2 
1027 3 2.98713 5.76166 36.0567 -29.6793 -0.2884 0.469525 1.19506 
1507 2 2.93559 3.11414 33.5233 -25.2716 0.424646 0.0613378 -1.01082 
2006 1 1.69286 1.75888 29.5186 -7.54647 -0.140202 -0.00178638 -0.826979 
2007 1 1.62731 1.66926 34.7535 -7.63531 0.447447 0.200377 0.149746 
2506 1 4.31296 4.4301 32.0887 -7.54255 -0.619612 0.0799758 1.42181 
3006 1 4.32653 4.39832 29.4781 -7.8139 -0.183671 0.176081 -0.329443 
3007 1 4.35008 4.51858 34.8563 -7.88774 -0.646277 -0.164115 -0.761119 
3506 1 1.61133 1.79417 32.1541 -7.62975 0.915778 -0.218557 0.0968473 
4006 1 4.27106 1.75187 32.0174 -7.5239 -0.358238 -0.269081 1.53429 
4506 1 1.68518 4.49063 29.4331 -7.78376 -0.557251 -0.271098 1.00489 
4507 1 1.62917 4.42817 34.8369 -7.6952 0.714341 -0.0066878 -0.897309 
5006 1 1.65221 4.50777 32.1565 -7.9456 -0.312973 0.0320026 -0.196019 
5506 1 4.35783 1.67457 29.4446 -6.97442 -0.404764 0.686042 -0.123129 
5507 1 4.32708 1.80109 34.785 -7.83291 -0.568195 0.211511 -0.460411 
2106 1 6.96824 1.65951 29.4193 -7.19172 -0.136518 0.46766 0.12521 
4026 1 4.34462 6.98273 32.0543 -7.549 -0.222781 0.216731 0.938006 
107 3 5.61517 0.433084 33.4477 -29.1785 0.209614 -0.173577 0.292664 
3606 1 6.92051 1.68718 32.1323 -7.64674 0.465317 0.124262 0.0882949 
5106 1 7.00911 4.39234 32.1147 -7.54672 -0.0599891 0.483175 0.170772 
2107 1 6.93968 1.71563 34.7741 -7.35477 0.394914 0.466372 0.135987 
1006 3 2.96269 0.401707 30.8388 -29.457 -0.0616068 0.523851 -0.76542 
1227 3 13.641 5.63936 36.1247 -29.5427 0.200136 0.587887 0.253271 
1226 2 13.6342 5.85295 30.7689 -25.2373 -0.0561496 -1.22342 0.455508 
4607 1 7.05189 4.51798 34.7374 -7.25809 -0.0754612 -0.699184 0.242972 
227 2 11.0543 5.81191 33.3937 -25.5121 -1.10898 -0.779491 1.37501 
706 2 11.0552 3.06246 30.8406 -25.7523 -0.305848 -0.0981635 -0.75527 
707 2 11.023 3.05075 36.1157 -25.7758 0.145425 0.487483 0.493297 
1126 2 8.38948 5.71878 30.8002 -25.5681 -0.0613326 0.418075 0.0260944 
1127 2 8.34083 5.87008 36.172 -25.8827 -0.0570327 -0.152269 -0.6556 
1607 2 8.34578 3.03318 33.4294 -25.5859 -0.462931 0.227581 0.960767 
2206 1 12.2829 1.74394 29.5104 -7.72023 0.416775 -0.384621 -0.411345 
2207 1 12.3715 1.66775 34.914 -7.69019 0.17106 0.597736 -1.21601 
2606 1 9.69277 4.33254 32.1486 -7.74899 -0.175113 1.2448 -0.263069 
3106 1 9.73964 4.38411 29.3594 -7.35908 0.135756 0.231338 0.187859 
3107 1 9.72294 4.56182 34.853 -7.36377 0.506191 -0.950525 -0.388726 
3706 1 12.4391 1.69697 32.1621 -7.43658 -0.163645 0.587679 0.837705 
4106 1 9.74305 1.71583 32.1127 -7.62361 -0.665654 -0.848498 0.42405 
4606 1 7.13883 4.42583 29.466 -7.57932 -1.50573 -0.421848 -0.29226 
4706 1 12.297 4.53601 29.4703 -7.96255 0.860476 -0.221292 -0.92278 
4707 1 12.4645 4.36806 34.8761 -7.60822 -0.616789 -0.0356419 -1.08362 
5206 1 12.3157 4.42457 32.1558 -7.44599 0.461208 -0.0604987 0.132549 
5606 1 9.61601 1.72879 29.4406 -7.31858 0.343948 0.276318 -0.402321 
5607 1 9.6788 1.70819 34.8207 -7.79501 -0.224055 0.666479 -0.207396 
1706 2 13.6422 3.03488 28.1755 -25.2549 -0.246614 0.125755 -0.529705 
2026 1 1.74232 7.13426 29.6975 -7.39971 0.272137 -0.905875 0.618525 
2027 1 1.66187 7.06146 34.92 -7.08875 0.879049 -0.514863 0.0835139 
1526 2 3.05496 8.39081 28.1547 -25.597 -0.509383 -0.283289 0.959145 
5527 1 4.27599 7.17645 34.7973 -7.79425 -0.205478 0.121037 -0.563792 
46 2 0.478424 10.9985 28.2323 -25.8025 -0.551968 0.246435 -0.770254 
47 3 0.530191 10.9909 33.4853 -29.2982 -1.0178 0.0194377 -0.500964 
146 2 5.7228 11.0467 28.3163 -25.2991 0.832472 -0.0577321 -2.40815 
147 2 5.8009 10.9873 33.4395 -25.1484 -1.78142 0.575724 0.0909865 
527 3 0.439412 8.33416 36.1554 -29.7474 0.357288 -0.587436 -0.320475 
626 3 5.67271 8.38356 30.8226 -29.3174 0.300811 -0.558899 0.294334 
627 3 5.65429 8.49598 36.1837 -29.3567 0.0112861 -0.50637 -0.18836 