ITEM: TIMESTEP
0
ITEM: NUMBER OF ATOMS
12000
ITEM: BOX BOUNDS pp pp pp
1.2647847783941657e-01 2.7214521522160499e+01
1.1348623869896812e-01 2.7227513761301260e+01
9.9729119389776599e-01 2.1773070880609615e+02
ITEM: ATOMS id type x y z c_peratom fx fy fz 
242 2 5.50588 5.17537 6.24829 -24.0228 0.0416939 1.68822 0.793337 
1201 3 5.51375 2.43125 3.98698 -29.1659 -0.115483 2.38148 -1.97558 
1202 3 5.36649 2.751 8.98535 -28.3167 0.0050158 -2.04111 1.60612 
2041 2 2.87919 5.05803 3.69447 -24.2307 -1.98494 -0.723096 -0.0219373 
2042 2 2.97382 5.49007 8.91539 -25.1246 -3.73801 0.360974 1.46451 
3002 3 2.81118 2.66674 6.20215 -27.2889 -1.38688 -0.555052 1.25688 
4001 1 0.378985 1.40905 1.72633 -5.91593 0.459368 -0.128315 1.92254 
4002 1 1.1247 1.12868 7.79071 -8.19477 2.16833 0.947859 -0.10136 
5001 1 4.17531 3.73077 5.07655 -8.88622 -0.920151 0.651343 -1.20684 
6001 1 4.65432 3.53135 2.32847 -6.87475 -0.775044 1.51113 -0.766362 
6002 1 4.15039 4.01068 7.54714 -8.47439 -1.10582 -0.386508 1.09432 
7001 1 1.20314 1.36518 4.98542 -8.4786 1.53924 0.999636 0.131525 
8001 1 4.04322 1.10459 4.71704 -7.70676 -0.97514 0.473645 2.31017 
9001 1 1.84145 3.59451 2.42721 -7.51007 -1.65435 1.1832 2.34778 
9002 1 1.48049 4.02882 7.65728 -7.25213 1.43365 -0.627197 -0.369934 
10001 1 1.24178 4.01535 5.16347 -7.70413 1.09277 0.588016 -1.191 
11001 1 3.47971 1.19619 2.21418 -6.75234 0.183583 -1.87286 0.144542 
11002 1 4.00827 1.09013 7.5701 -8.03391 0.307003 3.25103 -1.93195 
4041 1 0.678777 5.92262 3.05673 -7.1832 2.38071 -0.75239 -1.13511 
11041 1 3.73981 6.15807 2.09516 -7.54261 0.0437 0.813989 -0.233724 
7201 1 6.30827 1.474 5.54874 -7.68239 2.67181 -1.50809 2.33641 
4201 1 6.63894 1.269 3.01001 -7.10682 -1.17659 -2.23845 -0.706919 
9202 1 6.62949 3.80183 7.78759 -8.1756 -0.421224 2.76224 -0.0146588 
4241 1 6.47907 6.73451 2.26085 -7.53606 -0.457915 1.41175 0.87637 
4242 1 6.51342 6.46735 7.93288 -7.53244 -0.282061 -1.11747 -0.936478 
1002 2 0.284353 2.79819 9.08087 -25.2161 -2.66897 -0.0640009 -0.969721 
4042 1 1.07839 6.78717 7.99419 -6.78557 1.92866 -2.2326 -2.48013 
8041 1 4.01798 6.4704 4.93064 -8.5873 0.569921 -0.185619 0.32582 
10201 1 6.90733 3.8207 5.21611 -7.44925 -0.551196 2.03005 0.0200339 
4202 1 7.02961 1.46902 8.07121 -7.60814 -1.72813 -3.0684 -0.203273 
7241 1 6.89851 6.75333 5.30118 -8.73104 -0.291975 -1.12466 -1.32685 
9201 1 7.1763 4.23954 2.68091 -6.5929 -1.05185 0.139593 -1.10164 
442 2 10.7721 5.32332 6.5817 -24.421 -0.181865 1.05757 1.83005 
1401 2 11.0079 2.76907 3.98995 -24.0711 -3.03344 0.936408 -2.77988 
1402 3 10.9247 2.48614 8.92363 -28.0809 -0.662754 0.795241 1.50424 
2241 3 8.33839 5.51893 3.93716 -28.3779 -1.71669 -2.84413 -1.31721 
2242 2 7.88223 5.20721 9.04096 -25.114 3.24458 -1.59245 2.31919 
3202 3 7.87055 2.62478 6.74984 -28.3206 2.6095 -0.467294 -2.55786 
4401 1 11.5523 1.99794 1.89349 -7.11412 0.276784 0.974359 2.88685 
4402 1 12.3846 1.05425 7.7627 -8.39936 -2.86265 1.73365 -1.22062 
5201 1 9.46007 3.9544 5.37706 -7.54897 0.364341 -0.338967 -0.100081 
6201 1 9.63778 4.27845 2.68207 -7.6305 2.90432 -0.813809 -0.334426 
6202 1 9.29648 3.58721 7.98227 -7.54431 -0.175495 -0.169789 -0.379346 
7401 1 12.1163 1.27805 5.18407 -9.4442 -0.720438 2.37486 -1.19693 
8201 1 9.38055 1.1303 4.89094 -8.1895 0.93342 0.218658 1.57062 
9401 1 12.6609 4.30546 2.6033 -7.47428 -3.69942 -0.12278 -0.696747 
9402 1 11.922 3.77684 7.87536 -7.52822 0.442699 0.216146 -1.79386 
10401 1 12.0136 4.30139 5.26192 -8.53196 2.43682 -1.44911 -1.50807 
11201 1 9.00176 1.34306 2.25532 -6.64776 1.62321 -0.945459 1.97672 
11202 1 9.52119 0.834354 7.81015 -7.75228 2.00989 2.21736 -1.38059 
8241 1 9.50387 6.71358 5.05371 -8.73796 0.54077 0.0411476 0.37043 
11242 1 9.37446 6.31179 7.80689 -7.89807 -1.40662 1.62848 -1.03138 
2441 2 13.5045 5.72801 3.99976 -25.0847 1.96263 -1.23286 -2.29258 
11241 1 9.17886 6.72928 2.18229 -8.31282 1.42391 0.968355 0.701563 
3402 2 13.5175 2.72094 6.2722 -24.1064 -0.153918 -0.327312 3.57458 
441 2 10.9903 5.56536 1.33303 -24.2741 -0.390764 -0.950152 -0.859555 
3401 3 13.3617 3.09501 1.08377 -29.4402 0.668115 -0.89566 1.3115 
401 2 10.6185 0.267784 1.08372 -25.7639 -1.97444 -1.67929 -1.38845 
3201 2 8.11071 3.06003 1.09409 -26.115 1.50229 -3.10701 0.841688 
2442 2 13.7023 5.65222 9.14257 -25.4281 -2.34737 -1.65251 0.402067 
642 2 16.3904 5.37871 6.16604 -24.4043 -1.54055 1.91812 2.97012 
1601 3 16.1258 2.70829 3.6311 -27.4858 -2.52819 2.25494 0.119224 
1602 2 16.3495 2.45998 8.94832 -24.425 -0.524482 1.30319 3.44208 
2641 3 18.9653 5.7078 3.62367 -27.9838 -2.23704 -1.14007 0.0120526 
2642 2 18.9723 5.33119 9.07283 -24.4057 0.00145476 -0.00479906 -3.28097 
3602 2 18.705 2.54842 6.41785 -24.9813 3.7185 -0.218512 -1.09518 
4601 1 16.986 1.81456 2.09365 -9.1115 0.134231 -0.440636 1.23135 
4602 1 17.6494 1.16693 7.79415 -7.80677 -1.59119 -1.86387 -1.23861 
5401 1 14.6143 3.76818 4.79454 -7.93375 1.00685 0.913659 0.461172 
6401 1 15.0941 4.54241 2.32579 -6.988 2.44499 -0.490915 -0.598468 
6402 1 14.5003 4.46523 7.51991 -7.41471 1.81747 -1.67066 -2.49259 
7601 1 17.457 1.49384 5.03588 -8.76415 -1.73755 -1.79181 -1.9936 
9601 1 18.0295 4.40381 2.3339 -7.85402 -1.07302 -0.689483 -1.14761 
9602 1 17.5106 3.86562 7.61498 -8.65851 -1.66508 2.1396 1.57515 
10601 1 17.2161 3.99022 4.86324 -7.94504 2.36227 -0.37581 -0.784434 
11401 1 14.0007 1.67746 2.75475 -7.05168 1.61316 -0.0801496 1.55035 
11402 1 14.9275 1.30341 7.83882 -7.95821 0.241415 0.0652239 -1.03094 
8401 1 14.7447 1.03039 5.34288 -8.28654 1.03745 1.19337 -1.16399 
11602 1 20.0499 1.59641 8.01124 -7.24705 2.47194 -0.73575 -0.556057 
7641 1 17.7863 6.74538 5.0777 -8.0075 1.97797 1.05132 -1.58767 
6602 1 20.1101 4.12698 6.8617 -6.53121 0.47811 1.43443 1.3216 
4641 1 17.198 6.87493 2.24643 -7.94515 0.745765 -0.390756 2.28577 
11601 1 19.5809 1.0202 2.19121 -6.99073 -0.716256 3.66705 -1.01131 
8761 1 20.2724 2.15149 4.76435 -6.82051 -1.5203 0.479742 0.333243 
601 3 16.0827 0.180879 1.07261 -28.1702 -0.771858 1.58009 -1.74559 
8441 1 15.2967 6.78058 4.82539 -8.01288 -2.32878 -1.54587 2.38715 
2601 3 18.4061 0.263577 3.59882 -28.1649 3.93133 -1.46352 1.70234 
4642 1 17.6361 6.8406 7.6243 -8.03009 0.961937 -0.618438 1.62568 
1001 3 27.0337 2.48975 3.71149 -29.3013 -0.781645 0.366256 -1.7902 
42 2 27.0268 5.62133 6.31472 -25.6091 2.01744 -1.33915 3.0094 
8601 1 20.5271 5.11517 4.53557 -7.58382 0.618917 -1.26421 -0.834095 
6601 1 20.578 4.04579 2.22758 -7.36354 -1.23599 -0.27022 -0.374015 
842 3 21.6504 5.69842 5.97967 -28.9243 -0.604284 0.565286 3.31733 
1801 3 21.6306 3.30361 3.77198 -29.3052 1.0573 -1.73774 0.48188 
1802 3 21.8751 2.63359 9.54082 -28.1226 1.68192 -1.62078 -3.04495 
2841 3 24.3943 5.4873 3.59785 -29.0311 -1.93757 -1.57013 -0.427484 
2842 2 24.2281 5.32802 8.78154 -25.7109 0.0895319 3.43748 2.44909 
3802 2 24.3723 2.68023 6.4338 -25.6761 -0.331556 0.249075 -0.420882 
4801 1 22.4202 1.94998 2.43197 -6.99272 -0.0991301 -2.62531 -0.894619 
4802 1 23.1944 1.14317 7.80289 -6.76041 -1.28675 0.536342 0.488545 
5801 1 25.5003 3.53145 4.71761 -7.0984 0.441347 0.121476 0.394031 
6801 1 26.1074 3.69081 2.12657 -7.71586 -1.59101 -0.508419 -0.371906 
6802 1 25.7584 4.31671 7.7661 -7.69747 1.68549 -2.07789 -2.26238 
7801 1 22.9458 1.50035 5.25592 -6.93671 -0.111906 -0.327793 -1.17532 
8801 1 25.6922 0.915476 4.93286 -7.53045 0.0917778 -0.278412 1.58447 
9801 1 23.1877 4.30578 2.34794 -7.20445 1.66231 0.590407 1.72844 
9802 1 23.0782 3.66924 7.94771 -7.48058 -1.63643 0.940108 0.605279 
10801 1 22.9917 4.35165 5.15051 -7.89177 -0.218722 -0.154734 -0.628093 
11801 1 25.0638 1.03266 2.3527 -6.58617 -1.88477 1.18667 -1.10953 
11802 1 25.6778 1.4174 7.86879 -8.30354 1.36111 -1.09752 -0.0507479 
4842 1 23.0548 6.44286 7.27002 -7.08735 -0.154704 -0.756776 -0.151298 
8841 1 25.5222 6.11941 5.01926 -7.13056 0.12571 1.82334 -2.21779 
4841 1 22.7176 6.85239 2.08238 -6.19739 0.253561 -0.27583 1.76967 
3801 3 24.4683 2.72363 1.12208 -28.4974 -0.213342 -1.31219 1.57897 
11642 1 20.597 6.75409 7.81572 -6.85156 -1.79185 -0.581105 1.10784 
41 3 26.9707 5.12178 1.09424 -28.6644 0.875128 0.71889 -0.590762 
11841 1 25.4909 6.19419 2.1539 -7.27381 -0.722188 1.45562 -0.636126 
11042 1 3.93949 7.01694 7.67815 -8.07835 -0.915807 -0.392546 -0.501222 
7041 1 1.04923 7.19243 5.19303 -7.65281 1.68232 0.108705 1.41126 
282 2 5.50876 11.082 6.15302 -23.1712 -0.112261 -2.0342 2.03159 
1241 2 5.48258 7.90639 3.9689 -23.6656 0.851259 -0.210561 -2.02406 
1242 2 5.37398 8.07981 9.16196 -24.2384 0.449263 -0.879743 -0.581602 
2081 2 2.83011 10.5712 3.72259 -24.6492 -1.80301 1.71893 -4.91739 
2082 2 2.91595 10.7547 9.23279 -23.5762 -3.51447 2.38424 1.4922 
3042 3 2.6016 8.3918 6.45654 -27.716 -0.20642 -1.84159 -0.555159 
4081 1 0.923271 12.1347 2.13323 -7.29574 -0.0273846 -0.423496 -1.18415 
4082 1 1.31607 12.2115 7.54186 -7.76502 -0.402068 -1.48329 -0.409005 
5041 1 4.05305 9.20868 4.99663 -8.76444 0.43271 0.562944 1.74055 
6041 1 3.95085 9.11389 2.20195 -8.46144 3.52778 1.42356 3.04629 
6042 1 4.00991 9.60876 7.92761 -8.77003 1.79821 -0.312839 -1.77775 
7081 1 1.34407 12.2608 4.70861 -7.23774 0.471249 1.09798 2.50694 
8081 1 4.21711 11.9032 4.54345 -7.95316 1.55504 -0.367557 2.19467 
9041 1 1.25735 9.08599 2.51698 -7.87231 0.578614 -0.248932 -1.99832 
9042 1 1.18529 9.22492 7.62492 -7.67546 1.99453 2.63689 -0.770875 
10041 1 1.42602 9.82126 4.97713 -7.31003 -1.72345 -2.76392 3.66933 
11081 1 3.519 12.0404 2.04077 -6.77843 1.89166 -1.92563 0.341591 
11082 1 3.94718 12.3915 7.79337 -8.32084 1.48534 -1.21984 0.246191 
10241 1 6.85007 9.46569 5.04695 -8.03797 -1.74595 0.917281 -1.23209 
3082 3 2.4901 13.6445 6.31283 -27.5227 -0.00494337 -2.20498 0.726683 
4281 1 6.49773 12.2882 2.25433 -7.47408 -0.204593 -0.677675 1.32483 
1282 2 5.5201 13.4311 9.02614 -24.1126 -1.134 1.78465 1.79068 
1281 2 5.47841 13.633 3.92614 -24.886 -1.43968 0.805146 -2.47698 
281 2 5.47643 10.4907 1.02063 -25.1034 -1.45887 2.63039 -2.61855 
4441 1 12.1191 6.9171 2.73162 -7.40376 -2.55511 -0.0331386 -0.989964 
7441 1 12.2434 7.08999 5.19762 -8.07576 -1.42067 -1.06278 0.472461 
4442 1 12.2247 6.90347 7.89854 -7.61096 -0.216652 -1.71358 -0.0444432 
9242 1 6.92663 8.90725 7.80578 -7.54721 -1.15232 2.30604 2.0531 
4282 1 7.22185 11.536 7.58297 -8.2045 -1.74579 1.02269 0.123827 
9241 1 7.00288 9.58058 2.1458 -7.8697 -0.416313 -2.41743 1.98744 
7281 1 6.91161 12.3284 4.96518 -8.88275 0.334106 -1.26226 0.628271 
482 3 10.8372 10.8371 6.36182 -28.6419 0.0493411 -0.462262 -0.0720719 
1441 2 10.5837 8.22808 3.86449 -24.1978 2.49289 0.680551 0.0345112 
1442 3 10.8878 8.30093 9.18595 -28.5014 0.406221 -3.44038 0.106872 
2281 2 7.98521 10.8722 3.55325 -24.4862 1.8186 0.223773 -0.373003 
2282 3 8.25176 10.4873 9.20184 -27.1526 0.32644 0.627399 -1.86254 
3242 3 8.24073 8.0364 6.68899 -28.6898 -0.443418 -1.04195 -1.56722 
4481 1 11.9769 12.1661 4.88506 -6.78638 -0.172166 2.73229 0.974516 
4482 1 12.489 11.8237 7.50069 -8.05432 -0.957658 2.00679 0.556165 
5241 1 9.36792 9.36809 5.55644 -7.39201 1.82821 0.392182 -3.50645 
6241 1 9.60223 9.41803 2.4038 -7.77105 -0.242552 1.06481 0.670795 
6242 1 9.52682 9.08369 7.87244 -7.74729 -0.119503 1.37366 3.30417 
7481 1 12.1433 9.8011 5.12751 -7.88934 -1.44043 -3.45924 -0.00305451 
8281 1 9.50634 11.951 4.72957 -8.08542 -0.748821 1.12316 1.89185 
9441 1 12.1667 12.1752 2.2979 -7.56366 -1.51322 2.00637 -0.0492679 
9442 1 12.0618 9.35857 7.83675 -7.62026 -0.269278 1.57948 0.144022 
10441 1 12.295 9.60762 2.23292 -6.92125 -0.269617 -0.452103 1.39979 
11281 1 9.31084 12.3356 2.12805 -7.87682 0.415363 -0.0934186 1.99913 
10481 1 9.738 12.0272 7.78175 -8.72745 0.361698 -0.0248888 -0.389568 
3442 2 13.4571 8.29475 6.3954 -24.6791 1.11484 0.451358 0.988234 
2482 3 13.4968 10.7503 8.93189 -28.5815 0.840393 -0.558205 1.12598 
3482 3 13.4235 13.4239 6.63452 -28.1666 1.58994 -0.887262 -2.33675 
2481 3 13.3883 10.7815 3.90294 -30.4535 1.55727 2.35594 -2.31682 
3282 3 8.21647 13.2988 6.29881 -28.1854 0.434518 1.90598 0.890084 
1482 2 10.5304 13.514 9.22738 -24.0343 -0.15572 -0.886468 -0.61173 
481 3 10.9853 11.2197 1.09375 -28.6638 -1.07401 -2.51921 -0.805837 
3641 2 18.6989 8.13838 1.38715 -24.1121 1.0596 1.50097 -2.39492 
1682 3 16.1818 13.4939 9.39932 -27.677 -0.138694 -1.85682 -2.41209 
11641 1 20.0554 6.9684 2.647 -7.50756 -0.849673 -1.18967 -0.240802 
11442 1 15.0128 6.99703 7.72118 -7.69659 -0.0931738 -0.515642 1.1808 
11441 1 14.6833 7.47769 2.49567 -6.8384 -2.3508 -0.254358 -1.92243 
3682 3 18.7723 13.5831 6.57646 -28.4068 -0.177071 -0.292226 -0.899735 
682 3 16.0846 10.9223 6.4621 -29.6507 -0.727688 0.734449 0.572589 
1641 3 15.946 8.198 3.58542 -28.7772 2.72616 2.81081 0.638999 
1642 3 16.3772 7.8859 9.15434 -26.9097 -1.06351 0.964091 -0.83416 
2681 3 18.4383 11.0907 3.58243 -29.1885 0.297086 -0.77698 3.21541 
2682 2 18.8641 10.7001 9.07899 -24.0891 0.540714 1.50218 1.0696 
3642 2 18.6486 8.48875 6.32617 -24.5907 2.27443 -0.877154 -1.23683 
4681 1 17.3921 12.2305 2.34137 -7.7397 -1.33269 2.01373 0.39847 
5441 1 17.1772 9.83692 5.28147 -7.20005 1.40833 -2.38528 -0.753828 
6441 1 14.7547 9.43698 4.79896 -7.24487 -1.1984 -2.14846 0.0793672 
6442 1 15.127 11.9752 8.18575 -7.56978 -0.667037 1.47577 0.176371 
7681 1 14.5186 11.7621 5.5568 -6.88114 -0.128681 1.68125 0.363086 
9641 1 14.9382 10.2146 2.18399 -6.54228 0.289459 -5.0738 -0.388118 
9642 1 17.3346 9.47903 7.82075 -8.62807 1.57879 -0.0780198 2.16423 
10641 1 17.6478 9.43306 2.76551 -8.07348 -0.684161 -0.252836 -0.085153 
11481 1 14.6419 12.3466 2.71762 -6.45133 1.2596 3.78203 0.574306 
11681 1 19.9113 11.8227 2.52995 -7.24945 -1.50375 3.04643 2.36951 
8482 1 17.339 12.3194 4.97772 -7.4851 0.519258 1.17219 0.202296 
6483 1 17.6813 12.1473 7.74362 -8.03492 0.721486 -0.150909 0.649238 
10442 1 14.6523 9.49481 7.62538 -7.50779 1.21232 1.49089 1.27642 
11682 1 20.3574 12.5356 7.75775 -7.35531 -1.66851 -2.17545 0.0728052 
5641 1 20.376 12.7891 5.38231 -7.57438 -0.451927 1.58048 -2.44457 
8641 1 19.7804 10.285 5.09145 -7.22185 -0.340115 -1.04714 0.889043 
1882 2 21.8567 13.2014 9.05233 -24.9552 -0.784246 0.592172 0.83273 
11842 1 25.5643 7.09949 7.37825 -6.21238 0.868496 -0.215441 1.17233 
1081 2 26.9954 13.3887 3.56163 -24.6858 -0.716084 1.65699 0.737275 
1042 3 27.1981 8.16258 9.02403 -30.4687 -1.76954 -0.501893 2.2319 
1041 3 27.088 7.65264 3.48782 -28.3497 -2.1851 2.1338 0.551226 
5601 1 20.5893 7.55999 5.31661 -7.5677 -0.441883 0.940129 -0.131387 
6641 1 20.4865 9.33558 2.56719 -6.67893 -2.01481 1.44424 -1.55995 
6642 1 20.5014 9.62753 7.6695 -8.5091 -1.83638 0.337169 1.00385 
7841 1 23.2475 7.10987 4.6871 -8.14886 -2.05578 0.186194 -0.978366 
82 2 26.9804 10.6987 6.28508 -25.0268 -0.520204 -0.646783 0.33372 
4881 1 22.7789 12.2013 2.72364 -8.15738 -0.639747 0.381859 0.10592 
882 3 21.46 10.9977 6.18216 -28.613 -0.619854 1.32714 0.969928 
1841 3 21.6501 8.19984 3.69393 -29.3624 0.324318 -0.328391 -2.11675 
1842 2 21.5346 8.19357 9.22541 -25.5433 1.82858 -0.30921 -1.57839 
2881 3 24.0011 10.8115 3.68548 -28.0866 0.767273 -0.560654 -0.34825 
2882 3 24.5594 10.7493 9.25463 -29.1374 -1.79194 -1.42651 0.219826 
3842 3 24.0272 8.13196 6.2015 -29.2243 1.87336 -1.1011 2.17864 
4882 1 23.123 11.7374 8.14751 -7.65605 -0.36926 -0.0234533 -1.39295 
5841 1 25.5329 9.08245 5.30231 -7.80113 0.327876 1.99939 -1.22007 
6841 1 25.6864 8.86761 2.25272 -7.09311 0.190409 -0.0500978 -0.383683 
6842 1 25.9162 9.82677 8.29245 -6.55233 1.30464 -1.1526 -1.10621 
7881 1 23.0222 12.2933 5.29788 -7.61512 -0.508118 0.615511 0.671838 
8881 1 25.488 12.0239 4.63737 -8.28274 1.21139 0.544044 1.31216 
9841 1 22.9619 9.39139 2.34868 -6.95007 1.78708 2.06313 1.49482 
9842 1 23.3832 9.02001 7.83837 -6.74633 -1.74056 1.03839 0.623943 
10841 1 22.6345 9.80131 5.0864 -8.6728 0.891514 -1.72678 -0.446182 
11882 1 25.7205 12.1095 7.41518 -8.04941 -0.695411 2.38483 -1.63851 
11881 1 25.4093 11.6556 2.06195 -7.6048 -1.4028 0.570106 1.28832 
3881 2 24.2376 13.3997 1.31532 -24.321 -1.51046 0.282106 -1.80598 
3882 3 24.4441 13.4773 6.28243 -28.4297 -1.10157 1.36258 -0.147627 
881 2 21.2746 11.1447 1.25136 -24.4581 3.11125 -4.58578 -0.136322 
1082 2 26.913 13.3757 8.84891 -24.4024 2.5065 0.409908 1.56155 
6004 1 4.75886 3.63035 18.4486 -7.22151 -2.22604 1.89587 -0.191267 
9004 1 1.92639 4.32471 18.2272 -7.65986 0.246943 1.65476 1.69768 
243 3 5.55922 5.2916 11.6855 -28.7333 0.772767 -1.55816 1.29629 
244 2 5.34809 5.50087 16.9988 -24.5756 3.67107 -2.82245 4.44045 
1203 3 5.49849 2.85395 14.4919 -28.042 -0.397751 -1.20016 -0.828212 
2043 3 2.86471 5.26829 14.3534 -28.6081 -0.247409 0.038315 1.6498 
3003 3 2.81641 2.84127 11.8519 -28.2034 -0.131382 -0.431551 -0.326294 
3004 3 2.971 2.6497 17.0938 -29.4206 -0.997996 0.852867 0.606471 
4003 1 1.57696 1.53001 12.9413 -7.82544 -3.31467 -0.655552 0.357483 
5002 1 4.05746 4.06465 10.2321 -8.33299 -0.776004 -1.40798 0.446492 
5003 1 4.11728 4.02526 15.8194 -8.60621 2.31699 -0.547378 -1.05976 
6003 1 4.05273 4.07352 12.9356 -8.34669 0.260601 1.24697 0.469959 
7002 1 1.82583 1.80718 10.337 -7.46272 1.07686 0.522649 -0.814083 
7003 1 1.63453 1.66924 15.7988 -7.07209 -3.20509 0.404038 -1.80254 
8002 1 4.46649 1.14466 10.1093 -7.42743 0.460575 0.692016 1.74926 
8003 1 3.77711 0.742512 16.404 -6.79943 -1.13098 3.54818 -1.79954 
9003 1 1.43062 4.03469 13.0407 -7.67551 -1.31182 0.596488 -1.19701 
10002 1 0.957461 4.4683 10.1677 -7.12931 1.82685 -0.0247296 1.9535 
10003 1 1.74954 4.14229 15.5759 -6.26688 -0.892697 0.634279 -0.52549 
11003 1 3.966 1.55736 13.5583 -7.69291 2.29087 1.29916 -0.296302 
9203 1 6.62475 3.70665 12.964 -7.28274 0.649287 -0.154342 1.51726 
10203 1 6.85004 4.19049 15.6249 -8.72185 -1.84964 -1.5422 1.10642 
1003 3 0.178327 2.73141 14.5548 -29.0769 -0.0779695 1.13282 0.689174 
7043 1 1.78805 6.71795 15.8506 -7.23617 -2.01531 0.784469 -0.120456 
4043 1 1.8813 6.59009 13.1522 -8.47508 -1.3486 1.17991 -0.124667 
10202 1 6.69022 3.70824 10.4929 -7.32135 -0.266837 1.16038 -1.70381 
11043 1 4.53663 6.7069 13.4898 -8.30115 -1.93049 0.173442 -2.02194 
4204 1 6.8176 1.57132 18.5217 -7.29573 -0.307162 -1.85697 1.58514 
7203 1 6.35516 1.65159 16.1472 -7.65633 1.00764 0.977251 -3.3271 
4203 1 6.67851 1.09642 13.4017 -7.9371 -0.0399097 1.43051 0.832848 
44 3 0.394331 5.57933 17.1425 -28.8247 -0.042841 -1.17416 -1.54498 
8043 1 4.24988 6.89059 16.0086 -7.91664 -0.571591 1.38388 -0.95893 
8042 1 4.41181 6.57124 10.4817 -8.20385 -1.57605 1.0041 0.891816 
11044 1 4.1289 6.84576 18.6833 -8.61342 0.315585 -0.204993 -0.708097 
2003 2 2.52749 0.26427 14.3934 -24.5318 1.7578 -1.71551 1.17891 
4004 1 1.61472 1.6403 18.4084 -7.85125 -0.139868 -1.50998 2.55681 
11004 1 4.3464 1.16356 18.9885 -7.89688 -1.89309 -1.25268 1.68079 
11204 1 9.18974 1.66152 18.7034 -7.57524 3.88952 -0.276071 0.237198 
4243 1 6.94911 6.27654 13.1313 -7.37883 0.60068 1.76859 0.559953 
7242 1 6.9062 6.5251 10.5044 -8.02617 -0.196643 1.35462 0.442554 
7202 1 7.24197 1.06881 10.5801 -7.94202 0.747416 -0.545806 1.6819 
7402 1 12.414 1.39899 10.4399 -8.17469 -0.393918 -0.783482 -0.577597 
7403 1 12.2551 0.861884 15.5943 -7.84392 -0.13969 1.80911 0.286416 
5202 1 9.39443 3.99976 10.5905 -7.45388 0.9244 0.525531 0.331634 
10402 1 12.4778 4.01165 10.4477 -6.742 -2.56415 -0.41187 1.36312 
8202 1 9.82916 1.3686 10.3617 -8.68953 -0.842772 -0.0489542 0.0405987 
443 2 10.7241 5.32095 11.9063 -25.6458 2.42166 -0.639808 -2.38168 
444 3 10.8644 5.54442 17.0556 -28.2146 0.891585 0.155885 1.30395 
1403 2 11.0678 2.56054 14.4483 -24.5342 -2.18894 -2.7755 3.60806 
2243 2 8.29734 5.16453 14.5857 -23.9795 1.93182 5.22773 -1.59758 
3203 2 8.3802 2.58093 11.9683 -24.6158 -4.09527 -1.04452 -3.35959 
3204 2 8.12481 3.00111 17.2168 -24.841 0.725719 -2.9631 -0.10356 
4403 1 11.8304 1.12452 12.96 -8.04998 2.43566 0.203127 -0.346024 
5203 1 9.87273 4.07339 16.094 -8.24768 -3.47803 -0.809656 -0.415954 
6203 1 9.38264 3.8105 13.319 -8.47096 1.13751 0.184503 1.1607 
8203 1 9.28475 1.15471 15.9359 -7.9337 0.354394 -0.0473948 0.406957 
9403 1 11.8936 4.07644 13.4123 -6.79951 2.71687 0.348301 -5.04603 
10403 1 12.3382 3.96504 15.7877 -6.95491 2.76291 -0.731306 1.43836 
11203 1 9.28151 1.0306 13.2294 -7.96459 0.193341 -0.0682443 -0.884285 
8442 1 12.1257 6.52622 10.6062 -7.25876 1.14685 3.05905 0.412355 
3403 3 13.6413 2.80253 11.4984 -27.8972 0.891963 -0.348397 0.550311 
8242 1 9.58204 6.81653 10.3416 -6.53643 -0.984483 0.0740575 0.296855 
8243 1 9.73209 6.77736 15.6634 -7.74602 0.158919 0.00167787 0.176575 
403 3 10.7531 0.158549 11.4416 -27.4195 1.29976 -3.55554 2.76721 
11243 1 9.55085 6.63768 12.9897 -7.57658 -1.35364 1.7151 1.74 
7443 1 12.6674 6.81932 15.7807 -7.22805 -1.43144 -0.135273 3.31151 
4443 1 12.2302 6.53864 13.5258 -6.48406 -0.13098 1.17629 -3.90243 
9204 1 7.19553 4.54486 18.2532 -7.00424 0.714445 0.880176 1.20481 
4404 1 12.2575 0.924467 18.6841 -7.78706 -0.866138 1.21752 -0.550105 
11244 1 9.46386 6.68625 18.4651 -6.52115 0.0645769 0.233528 -0.478712 
9404 1 12.524 3.8274 18.4235 -7.58837 -0.522558 -0.0492439 1.45351 
6204 1 10.0073 4.099 19.0026 -6.82338 -1.14696 2.49035 -2.99708 
2443 3 13.8626 5.49899 14.4439 -29.6386 -1.8849 0.167084 1.48587 
6404 1 15.0821 4.12596 18.0521 -6.55675 0.727488 0.792411 1.13567 
11644 1 20.3872 6.85372 18.4959 -8.5373 0.684689 0.704022 1.09736 
3404 2 13.9265 2.75481 16.9808 -24.5631 -2.20749 0.795649 0.520159 
10602 1 17.5459 3.65071 10.629 -7.42642 -1.00892 0.51562 -2.01255 
5402 1 14.8909 3.98827 10.1174 -7.38243 2.53352 -1.73473 0.996552 
643 2 16.3647 5.27431 11.9576 -24.9646 -0.375386 -0.721962 0.558371 
644 3 16.6414 5.52052 17.3159 -29.6178 -1.17983 -0.730647 0.462366 
1603 2 16.6699 2.53155 14.5681 -24.9577 -2.36205 3.31918 0.988213 
2643 2 19.3401 5.5721 14.5585 -25.0443 1.15343 -2.36275 -3.19595 
3603 2 19.22 2.74882 11.6715 -24.1619 -2.07295 -1.82639 3.17689 
3604 2 19.1695 2.69949 17.3105 -23.8206 1.13748 0.426918 0.901473 
4603 1 17.5764 1.36846 13.1842 -6.93393 2.13029 -2.05877 -2.79021 
5403 1 15.4133 4.22206 15.4393 -6.52167 -0.616542 -0.229102 1.99826 
6403 1 14.7098 4.19113 13.2372 -7.35833 0.134862 -0.921806 -5.05785 
7602 1 17.6836 0.998271 10.3447 -7.88099 1.77355 0.175261 0.412979 
7603 1 17.8636 1.11933 15.8159 -7.85845 1.57565 2.83226 2.5756 
8402 1 15.0662 0.964776 10.4025 -7.36926 -1.32009 2.92577 -1.56031 
8403 1 15.1412 1.45723 15.8693 -8.06105 0.104553 -0.138664 -1.59535 
9603 1 17.7916 3.97585 13.1349 -7.47737 0.456246 0.565516 1.41584 
10603 1 17.8964 4.00023 16.0522 -7.53984 0.864635 -1.22914 -0.236529 
11403 1 14.8862 1.40022 12.8016 -7.80195 -1.81719 0.367347 2.03632 
5602 1 20.1293 3.80262 10.0909 -8.83868 2.37446 0.842577 -0.709733 
4604 1 18.1674 1.41492 18.9249 -7.93018 1.85338 -1.23823 -2.87439 
8443 1 15.1423 6.81802 16.22 -7.82961 2.10826 0.443436 0.0606472 
8642 1 19.9712 6.73227 10.4166 -7.37157 1.85011 -1.66071 -0.32898 
7643 1 18.2061 6.60513 15.8875 -7.96299 -3.68701 3.23211 1.94471 
4643 1 17.7219 6.69554 13.3107 -7.92915 -0.119037 -0.029794 -1.44574 
5442 1 14.8135 6.50961 10.9022 -8.01838 1.05024 0.859062 -2.10569 
11603 1 20.4133 1.61887 13.2012 -8.66657 -0.172207 -0.300644 0.541336 
11404 1 15.3259 1.50427 18.5883 -7.82568 -0.930606 -2.01992 -0.662728 
2603 3 19.518 0.159275 14.715 -28.379 -2.92303 -2.53095 -1.21675 
7642 1 17.5114 6.31323 10.3324 -8.38855 -2.17895 2.49689 0.232718 
9604 1 17.7641 4.21912 18.7377 -7.89514 1.44875 -0.71904 0.40764 
4844 1 23.1738 6.79653 18.2286 -7.08482 -0.726865 1.36415 3.74786 
3 3 26.9886 0.240252 11.7251 -28.714 1.72424 -1.10928 1.67844 
9804 1 23.3381 4.25316 18.6829 -7.73011 -0.425301 -1.50033 1.11866 
11843 1 25.925 6.868 12.9593 -7.50703 0.0539954 0.272873 -0.166753 
11804 1 26.0699 1.42075 18.8494 -8.04119 1.50457 -2.93701 0.729301 
7843 1 23.425 6.77112 15.952 -6.08688 0.958723 -0.993126 -3.79743 
8602 1 20.8356 1.10201 10.4228 -8.53552 -1.02768 0.296505 1.73421 
8603 1 20.6944 1.03432 16.0786 -8.02513 -1.19357 4.26784 -0.0851701 
6804 1 25.9701 3.94864 18.6547 -7.44698 2.2188 4.39601 2.88633 
43 2 27.0602 5.53668 11.8039 -25.3657 0.843341 -0.883174 -2.09259 
5603 1 20.6083 4.14807 15.8771 -8.15249 -0.442522 -1.35899 0.277223 
10802 1 22.7575 3.95898 10.7227 -6.97402 -2.96217 0.319998 -2.01173 
8802 1 26.3012 1.91258 10.937 -7.7758 0.0236148 -0.518135 -1.07289 
6603 1 20.539 4.51601 13.0183 -7.94961 -0.05397 -1.11787 -0.815039 
7802 1 23.5848 1.38785 10.4074 -7.2905 -0.0132861 -1.1516 0.987363 
843 3 21.8376 5.54345 11.6634 -28.5451 0.1429 0.957689 1.57244 
844 3 21.9079 5.45282 17.4791 -28.8778 0.601922 -0.150529 -2.86765 
1803 2 21.9791 2.73556 14.6431 -24.3441 -0.366173 1.50544 0.198824 
2843 3 24.3845 5.3343 14.6863 -29.1482 0.328111 1.60428 -0.93465 
3803 2 24.5 2.72311 12.0762 -25.7909 0.944131 0.606366 -3.3029 
3804 2 24.8166 2.67493 17.5034 -25.6125 -2.4409 -0.595058 -2.75552 
4803 1 23.0253 1.44659 13.1427 -8.37245 -0.553864 -2.26761 0.967554 
5802 1 25.1543 4.34179 10.5054 -6.33161 2.53128 0.265295 1.21995 
5803 1 26.4874 3.68694 16.2784 -6.80273 -1.79486 0.677355 -1.06835 
6803 1 25.681 4.14081 13.5536 -7.50058 2.22698 -0.998195 -0.510859 
7803 1 23.1661 1.70611 16.2333 -7.28185 0.302922 -1.98539 -0.800521 
8803 1 25.7202 1.13631 15.9123 -7.22129 1.86368 0.170687 2.65091 
9803 1 23.269 4.1006 13.0351 -6.80519 -2.613 0.543484 4.77599 
10803 1 23.2605 4.22029 16.005 -7.44107 0.892554 -0.353148 -1.10688 
11803 1 25.6833 1.42002 13.472 -7.58267 1.44234 0.426667 -1.07176 
4843 1 23.1304 6.61751 13.0026 -7.80941 -0.424355 1.48781 1.4667 
6604 1 20.689 4.24511 18.6875 -8.06698 -1.21134 -0.913947 0.0205242 
7842 1 22.9795 6.8265 10.2363 -7.74699 -0.702835 -2.08946 0.035463 
8843 1 26.1367 6.3193 15.2665 -7.01305 1.20555 -0.235498 3.11916 
11604 1 21.0017 1.43082 19.0213 -7.66808 -1.05345 -0.363232 0.237442 
4804 1 23.5837 1.37175 18.9226 -7.4992 -1.24641 -0.258407 0.0372964 
6044 1 4.38129 9.62948 18.7856 -8.24457 -2.4606 0.0141643 0.561137 
11084 1 4.0739 12.4522 18.6545 -8.30478 -0.0771158 -0.905021 1.20017 
3083 3 2.61696 13.375 11.8519 -28.1297 1.42657 0.97823 -0.696757 
9244 1 6.86391 9.63737 18.8155 -7.30224 -0.722018 2.20578 -1.01158 
7042 1 1.60544 6.95293 10.4546 -5.895 1.10647 -0.770699 1.81433 
9044 1 1.53386 10.0481 18.7148 -8.38834 1.66741 -2.26422 -0.480303 
1283 2 5.75651 13.4153 14.3681 -25.6274 -1.54093 -1.58528 2.81541 
5042 1 4.19569 9.32786 10.8365 -9.16024 0.180222 -0.209991 -1.06415 
4244 1 6.62222 7.14062 18.7691 -6.37695 0.906347 -0.655912 -0.990081 
7243 1 6.88938 6.91112 16.0489 -8.1368 0.371878 0.553941 -1.51596 
1043 2 0.226333 7.99256 14.37 -25.1531 -0.760769 -0.358563 1.13328 
83 2 0.204016 10.7669 11.787 -25.0891 -0.369207 0.557342 1.10689 
10042 1 1.44612 9.4554 10.4277 -7.10313 0.756604 1.97507 -1.192 
283 2 5.36192 10.8954 11.7717 -23.6571 2.03947 -0.669397 2.95162 
284 3 5.24612 10.8458 17.2547 -29.0656 1.04384 1.33029 -0.369694 
1243 3 5.55089 7.99118 14.6467 -28.2751 0.016547 1.72424 0.471075 
2083 2 2.82105 10.9023 14.5191 -25.3267 -0.375221 -0.0456892 2.57185 
3043 3 3.07869 8.00641 12.3036 -27.4985 -1.36056 0.423426 -2.55601 
3044 3 3.00812 8.11059 17.4464 -27.9657 -0.448485 0.75891 -2.21916 
4083 1 1.57872 12.1498 12.9952 -8.58326 -3.0605 0.0479792 2.25248 
5043 1 3.75945 9.51349 16.2226 -7.13705 -0.776177 0.653881 1.0031 
6043 1 4.0341 9.46916 13.5945 -8.16697 1.77599 -2.273 -2.35645 
7082 1 1.47502 12.1929 10.4579 -8.23986 -1.13014 0.136349 -1.40718 
7083 1 1.93921 12.3009 15.8894 -6.95298 -0.92693 0.66486 -1.01226 
8082 1 4.15547 12.2556 10.6266 -8.3568 -0.205635 -1.78404 -2.48469 
8083 1 4.39126 12.202 15.9573 -6.48045 0.592764 -0.78804 -0.189692 
9043 1 1.42075 9.39589 13.106 -7.96659 1.32122 -0.381901 -0.0474386 
10043 1 1.24886 9.47465 15.7048 -8.02115 -1.06949 0.0963073 1.04777 
11083 1 4.05207 12.2054 13.2199 -7.92474 1.82025 0.768793 -0.608464 
84 3 0.322793 10.6043 17.1357 -28.9186 -1.67863 2.78777 0.425292 
4283 1 6.87002 11.8073 13.1318 -8.18164 0.678818 0.717672 -0.709744 
7282 1 6.8085 12.1579 10.3316 -8.95617 0.819151 -0.169842 -0.147567 
10243 1 6.21441 9.65167 15.914 -7.26999 1.45512 -2.19487 1.19734 
9243 1 6.79899 9.34436 13.4267 -7.79868 1.1169 -3.01884 -1.76956 
4044 1 1.52982 7.20775 18.4385 -8.25853 -1.08201 -0.404227 1.10505 
4084 1 1.18214 12.5176 18.2636 -6.93444 0.443762 0.660089 0.645546 
3084 3 2.78361 13.6131 17.4214 -29.1642 -0.196798 0.0900836 -1.52379 
3283 3 8.31478 12.9614 11.7564 -27.6056 -0.958117 2.46739 1.50707 
4484 1 12.1852 12.3853 18.6827 -7.91811 0.331151 0.09357 0.526469 
4444 1 12.1915 6.95913 18.6886 -7.98582 0.517991 -1.98859 -2.19987 
3483 2 13.5007 13.2809 11.7248 -24.5034 0.320869 2.10447 2.40663 
4284 1 6.98249 12.363 18.6305 -7.7336 -1.75442 0.171233 0.709789 
11284 1 9.65873 12.5016 18.5353 -7.18885 -1.91743 -0.966828 1.12914 
1483 3 10.9346 13.5153 14.4519 -29.1616 0.0907173 -1.58965 -0.0457634 
7283 1 6.9386 12.2199 15.9238 -6.62555 0.606543 0.107075 -0.462139 
10242 1 7.0597 9.49187 10.6256 -9.02587 -2.23351 0.430068 -1.01266 
11282 1 12.3507 12.1594 10.2878 -7.89959 -0.338915 -0.157805 -2.39932 
3484 2 13.5874 13.4833 17.4779 -25.4756 1.14651 1.65849 -1.19996 
6244 1 9.49714 9.58164 18.6572 -7.33962 0.735697 0.424566 0.0273485 
7442 1 12.2539 9.5263 10.5165 -8.41949 -0.965265 -0.699965 -0.588903 
8282 1 9.64492 11.8448 10.6083 -9.0943 -2.3742 1.65363 -2.29653 
5242 1 9.65676 9.32757 10.5818 -8.50978 -1.12865 0.29148 -0.0558097 
483 2 10.8681 10.6603 11.8389 -24.0435 1.80572 -0.847648 2.70616 
484 2 10.7691 10.998 17.2329 -25.9854 -1.22776 -0.233158 0.730281 
1443 3 11.0804 8.02387 14.4686 -28.904 -0.386659 -1.7927 0.0885156 
2283 3 8.26506 10.5829 14.4553 -28.6979 -1.80296 2.60343 0.102114 
3243 2 8.10356 7.99214 11.7407 -24.3748 1.81127 -2.10194 2.01029 
3244 2 7.86473 8.52632 17.3265 -24.9923 0.898444 -4.08587 1.34976 
4483 1 11.9243 12.2483 12.8481 -7.6483 1.42811 -0.318154 1.93521 
5243 1 8.78875 10.0362 16.2074 -7.4366 1.90189 -0.816077 -0.535154 
6243 1 9.70738 9.34176 13.4968 -8.26185 -1.03025 -0.0416111 -1.1094 
7483 1 12.3176 11.7093 15.87 -7.49314 0.451809 1.49492 -0.019931 
8283 1 9.68331 12.431 15.8587 -6.7871 0.102209 0.65153 -0.166201 