ITEM: TIMESTEP
18
ITEM: NUMBER OF ATOMS
3584
ITEM: BOX BOUNDS pp pp ss
0.0000000000000000e+00 4.3111019472983898e+01
0.0000000000000000e+00 2.4890158697766498e+01
-3.6580800000000006e-03 3.4552298188307212e+01
ITEM: ATOMS id type xs ys zs c_peratom 
1 1 0 0.1 -0.000975438 -3.9035 
2 1 0.0166667 0.05 0.0580508 -4.4085 
3 1 0.0166667 0.15 0.0581078 -4.40791 
4 1 0 0 -0.000962348 -3.9036 
5 1 0.05 0.05 -0.000998593 -3.90367 
9 1 0 0.2 -0.000758005 -3.90358 
10 1 0.05 0.15 -0.000985828 -3.90342 
35 1 0.0333333 0 0.116803 -4.44949 
40 1 0.0333333 0.2 0.116882 -4.42427 
43 1 0.0333333 0.1 0.11686 -4.44956 
44 1 0.0666667 0.1 0.058011 -4.40862 
45 1 0.0833333 0.05 0.116717 -4.44917 
46 1 0.0833333 0.15 0.116738 -4.44947 
47 1 0.0666667 0 0.0579808 -4.40824 
60 1 0.0666667 0.2 0.0580281 -4.40768 
48 1 0.1 0 -0.00108663 -3.90356 
49 1 0.116667 0.05 0.0579024 -4.40811 
61 1 0.1 0.2 -0.00107431 -3.90344 
62 1 0.116667 0.15 0.0578917 -4.40819 
64 1 0.1 0.1 -0.00108984 -3.9036 
65 1 0.15 0.05 -0.00117081 -3.9036 
66 1 0.15 0.15 -0.00116713 -3.90358 
153 1 0.133333 0.1 0.116623 -4.44912 
156 1 0.133333 0 0.116616 -4.44901 
157 1 0.166667 0 0.0578286 -4.40801 
158 1 0.183333 0.05 0.116543 -4.44901 
177 1 0.133333 0.2 0.116603 -4.4491 
178 1 0.166667 0.2 0.0578202 -4.40807 
179 1 0.183333 0.15 0.11654 -4.44903 
181 1 0.166667 0.1 0.057813 -4.408 
182 1 0.2 0.1 -0.0012347 -3.90357 
183 1 0.216667 0.05 0.057762 -4.408 
184 1 0.216667 0.15 0.0577568 -4.40802 
185 1 0.2 0 -0.00122554 -3.90363 
186 1 0.25 0.05 -0.00127766 -3.90357 
213 1 0.2 0.2 -0.00124256 -3.9036 
214 1 0.25 0.15 -0.00128207 -3.90356 
312 1 0.233333 0 0.116502 -4.44905 
336 1 0.233333 0.2 0.116491 -4.44905 
339 1 0.233333 0.1 0.116495 -4.44904 
340 1 0.266667 0.1 0.0577253 -4.40805 
341 1 0.283333 0.05 0.116475 -4.44907 
342 1 0.283333 0.15 0.116473 -4.44905 
343 1 0.266667 0 0.0577272 -4.40805 
374 1 0.266667 0.2 0.0577202 -4.40803 
344 1 0.3 0 -0.00130065 -3.90356 
345 1 0.316667 0.05 0.0577116 -4.40804 
375 1 0.3 0.2 -0.00130146 -3.90358 
376 1 0.316667 0.15 0.0577119 -4.40805 
378 1 0.3 0.1 -0.00130046 -3.90358 
379 1 0.35 0.05 -0.001304 -3.90359 
380 1 0.35 0.15 -0.00130423 -3.9036 
503 1 0.333333 0.1 0.116467 -4.44906 
506 1 0.333333 0 0.116467 -4.44906 
507 1 0.366667 0 0.0577111 -4.40805 
508 1 0.383333 0.05 0.116471 -4.44906 
534 1 0.333333 0.2 0.116467 -4.44907 
535 1 0.366667 0.2 0.057711 -4.40805 
536 1 0.383333 0.15 0.116471 -4.44906 
538 1 0.366667 0.1 0.0577117 -4.40805 
539 1 0.4 0.1 -0.00130003 -3.90358 
540 1 0.416667 0.05 0.0577207 -4.40805 
541 1 0.416667 0.15 0.0577212 -4.40806 
542 1 0.4 0 -0.00130047 -3.90358 
543 1 0.45 0.05 -0.00127933 -3.90362 
573 1 0.4 0.2 -0.00130012 -3.90357 
574 1 0.45 0.15 -0.00127764 -3.90362 
672 1 0.433333 0 0.116483 -4.44906 
696 1 0.433333 0.2 0.116486 -4.44906 
699 1 0.433333 0.1 0.116485 -4.44906 
700 1 0.466667 0.1 0.0577461 -4.40802 
701 1 0.483333 0.05 0.116506 -4.44904 
702 1 0.483333 0.15 0.116512 -4.44904 
703 1 0.466667 0 0.0577415 -4.40802 
734 1 0.466667 0.2 0.0577482 -4.40803 
704 1 0.5 0 -0.00125524 -3.90369 
705 1 0.516667 0.05 0.0577618 -4.40804 
735 1 0.5 0.2 -0.00124248 -3.90373 
736 1 0.516667 0.15 0.0577691 -4.40803 
738 1 0.5 0.1 -0.00124722 -3.90372 
739 1 0.55 0.05 -0.00125724 -3.90355 
740 1 0.55 0.15 -0.0012487 -3.90359 
863 1 0.533333 0.1 0.116518 -4.44908 
866 1 0.533333 0 0.116514 -4.44908 
867 1 0.566667 0 0.0577627 -4.40822 
868 1 0.583333 0.05 0.116526 -4.4493 
894 1 0.533333 0.2 0.116525 -4.44907 
895 1 0.566667 0.2 0.0577713 -4.40821 
896 1 0.583333 0.15 0.116528 -4.4493 
898 1 0.566667 0.1 0.0577642 -4.40823 
899 1 0.6 0.1 -0.00123132 -3.90332 
900 1 0.616667 0.05 0.0578082 -4.40888 
901 1 0.616667 0.15 0.0578059 -4.40889 
902 1 0.6 0 -0.00122653 -3.90337 
903 1 0.65 0.05 -0.00105412 -3.89026 
933 1 0.6 0.2 -0.00122693 -3.90333 
934 1 0.65 0.15 -0.00105799 -3.8902 
1032 1 0.633333 0 0.116566 -4.44826 
1056 1 0.633333 0.2 0.116564 -4.44827 
1059 1 0.633333 0.1 0.116564 -4.44827 
1060 1 0.666667 0.1 0.0579918 -4.37605 
1061 1 0.683333 0.05 0.116466 -4.44933 
1062 1 0.683333 0.15 0.11646 -4.44934 
1063 1 0.666667 0 0.0579915 -4.37609 
1094 1 0.666667 0.2 0.0579872 -4.37603 
1064 1 0.7 0 -0.000329282 -3.54841 
1065 1 0.716667 0.05 0.0574599 -4.25274 
1095 1 0.7 0.2 -0.000326329 -3.54816 
1096 1 0.716667 0.15 0.0574586 -4.25275 
1098 1 0.7 0.1 -0.00032001 -3.54825 
1214 1 0.733333 0.1 0.116377 -4.42761 
1217 1 0.733333 0 0.116361 -4.42745 
1218 1 0.766667 0 0.0564211 -4.17755 
1219 1 0.783333 0.05 0.116106 -4.44045 
1245 1 0.733333 0.2 0.116372 -4.42762 
1246 1 0.766667 0.2 0.0564385 -4.17781 
1247 1 0.783333 0.15 0.116109 -4.4406 
1249 1 0.766667 0.1 0.0564401 -4.17782 
1250 1 0.8 0.1 -0.000403696 -3.54605 
1251 1 0.816667 0.05 0.0580842 -4.34841 
1252 1 0.816667 0.15 0.0580834 -4.34842 
1253 1 0.8 0 -0.000431246 -3.54608 
1254 1 0.85 0.05 -0.00103609 -3.89083 
1284 1 0.8 0.2 -0.000410681 -3.54592 
1285 1 0.85 0.15 -0.00104109 -3.8907 
1383 1 0.833333 0 0.116608 -4.44664 
1407 1 0.833333 0.2 0.116615 -4.44674 
1410 1 0.833333 0.1 0.116624 -4.44668 
1411 1 0.866667 0.1 0.0578713 -4.40893 
1412 1 0.883333 0.05 0.116629 -4.44976 
1413 1 0.883333 0.15 0.116618 -4.44994 
1414 1 0.866667 0 0.0578654 -4.40891 
1445 1 0.866667 0.2 0.0578597 -4.40915 
1415 1 0.9 0 -0.0010932 -3.90315 
1416 1 0.916667 0.05 0.0579184 -4.40819 
1446 1 0.9 0.2 -0.00110817 -3.9027 
1447 1 0.916667 0.15 0.0579135 -4.40733 
1449 1 0.9 0.1 -0.0011066 -3.90303 
1450 1 0.95 0.05 -0.00106106 -3.90315 
1451 1 0.95 0.15 -0.000996762 -3.90352 
1574 1 0.933333 0.1 0.116703 -4.44925 
1577 1 0.933333 0 0.1167 -4.44904 
1578 1 0.966667 0 0.0580052 -4.40731 
1579 1 0.983333 0.05 0.116807 -4.44945 
1605 1 0.933333 0.2 0.116654 -4.43409 
1606 1 0.966667 0.2 0.0582504 -4.40789 
1607 1 0.983333 0.15 0.116778 -4.43454 
1609 1 0.966667 0.1 0.0579993 -4.40763 
6 1 0 0.3 -0.000300242 -3.90301 
7 1 0.0166667 0.25 0.0584013 -4.39752 
8 1 0.0166667 0.35 0.0587956 -4.38912 
11 1 0.05 0.25 -0.000779272 -3.90343 
15 1 0 0.4 -0.00028302 -3.90304 
16 1 0.05 0.35 -0.000574457 -3.90412 
53 1 0.0333333 0.4 0.117707 -4.3313 
56 1 0.0333333 0.3 0.117698 -4.3313 
57 1 0.0666667 0.3 0.0582361 -4.4075 
58 1 0.0833333 0.25 0.116645 -4.43455 
59 1 0.0833333 0.35 0.116547 -4.41896 
78 1 0.0666667 0.4 0.0582392 -4.40747 
63 1 0.116667 0.25 0.0578885 -4.40731 
79 1 0.1 0.4 -0.00101348 -3.90371 
80 1 0.116667 0.35 0.0578779 -4.40624 
82 1 0.1 0.3 -0.00102871 -3.90373 
83 1 0.15 0.25 -0.00117203 -3.90346 
84 1 0.15 0.35 -0.00117829 -3.90328 
174 1 0.133333 0.3 0.116584 -4.44923 
180 1 0.183333 0.25 0.116544 -4.4491 
205 1 0.133333 0.4 0.116589 -4.44921 
206 1 0.166667 0.4 0.0578168 -4.40816 
207 1 0.183333 0.35 0.116539 -4.44916 
209 1 0.166667 0.3 0.0578037 -4.40815 
210 1 0.2 0.3 -0.00123737 -3.90358 
211 1 0.216667 0.25 0.0577574 -4.40806 
212 1 0.216667 0.35 0.0577524 -4.40804 
215 1 0.25 0.25 -0.00128551 -3.90357 
237 1 0.2 0.4 -0.00124343 -3.9036 
238 1 0.25 0.35 -0.00128651 -3.90356 
367 1 0.233333 0.4 0.11649 -4.44908 
370 1 0.233333 0.3 0.116492 -4.4491 
371 1 0.266667 0.3 0.0577199 -4.40804 
372 1 0.283333 0.25 0.116469 -4.44904 
373 1 0.283333 0.35 0.116467 -4.44905 
402 1 0.266667 0.4 0.0577173 -4.40804 
377 1 0.316667 0.25 0.0577096 -4.40805 
403 1 0.3 0.4 -0.00130565 -3.90357 
404 1 0.316667 0.35 0.0577066 -4.40804 
406 1 0.3 0.3 -0.00130515 -3.90357 
407 1 0.35 0.25 -0.00130547 -3.90359 
408 1 0.35 0.35 -0.00130618 -3.90359 
531 1 0.333333 0.3 0.116465 -4.44906 
537 1 0.383333 0.25 0.11647 -4.44907 
565 1 0.333333 0.4 0.116464 -4.44906 
566 1 0.366667 0.4 0.0577102 -4.40805 
567 1 0.383333 0.35 0.11647 -4.44907 
569 1 0.366667 0.3 0.0577105 -4.40805 
570 1 0.4 0.3 -0.00130038 -3.90358 
571 1 0.416667 0.25 0.0577211 -4.40806 
572 1 0.416667 0.35 0.057721 -4.40806 
575 1 0.45 0.25 -0.00127741 -3.90362 
597 1 0.4 0.4 -0.00130051 -3.90358 
598 1 0.45 0.35 -0.00127765 -3.90362 
727 1 0.433333 0.4 0.116485 -4.44906 
730 1 0.433333 0.3 0.116486 -4.44906 
731 1 0.466667 0.3 0.0577482 -4.40803 
732 1 0.483333 0.25 0.116513 -4.44904 
733 1 0.483333 0.35 0.116512 -4.44904 
762 1 0.466667 0.4 0.057746 -4.40802 
737 1 0.516667 0.25 0.0577727 -4.40804 
763 1 0.5 0.4 -0.00124728 -3.90372 
764 1 0.516667 0.35 0.0577691 -4.40803 
766 1 0.5 0.3 -0.00124251 -3.90373 
767 1 0.55 0.25 -0.00124325 -3.90362 
768 1 0.55 0.35 -0.00124878 -3.90359 
891 1 0.533333 0.3 0.116525 -4.44907 
897 1 0.583333 0.25 0.11653 -4.4493 
925 1 0.533333 0.4 0.116518 -4.44908 
926 1 0.566667 0.4 0.0577639 -4.40823 
927 1 0.583333 0.35 0.116528 -4.4493 
929 1 0.566667 0.3 0.0577712 -4.40821 
930 1 0.6 0.3 -0.00122704 -3.90333 
931 1 0.616667 0.25 0.0578074 -4.40887 
932 1 0.616667 0.35 0.0578064 -4.40889 
935 1 0.65 0.25 -0.00105941 -3.89019 
957 1 0.6 0.4 -0.00123159 -3.90332 
958 1 0.65 0.35 -0.00105702 -3.8902 
1087 1 0.633333 0.4 0.116564 -4.44827 
1090 1 0.633333 0.3 0.116564 -4.44827 
1091 1 0.666667 0.3 0.0579871 -4.37603 
1092 1 0.683333 0.25 0.116456 -4.44933 
1093 1 0.683333 0.35 0.116461 -4.44934 
1120 1 0.666667 0.4 0.0579918 -4.37605 
1097 1 0.716667 0.25 0.0574545 -4.25273 
1121 1 0.7 0.4 -0.000319444 -3.5482 
1122 1 0.716667 0.35 0.0574615 -4.25278 
1124 1 0.7 0.3 -0.00032612 -3.54814 
1242 1 0.733333 0.3 0.116376 -4.42762 
1248 1 0.783333 0.25 0.11611 -4.44062 
1276 1 0.733333 0.4 0.116385 -4.42761 
1277 1 0.766667 0.4 0.0564628 -4.17782 
1278 1 0.783333 0.35 0.116125 -4.44062 
1280 1 0.766667 0.3 0.0564477 -4.17781 
1281 1 0.8 0.3 -0.000404036 -3.54593 
1282 1 0.816667 0.25 0.0580792 -4.34845 
1283 1 0.816667 0.35 0.0580943 -4.34851 
1286 1 0.85 0.25 -0.00105255 -3.8905 
1308 1 0.8 0.4 -0.000383986 -3.54609 
1309 1 0.85 0.35 -0.00104221 -3.89048 
1438 1 0.833333 0.4 0.11664 -4.44677 
1441 1 0.833333 0.3 0.11662 -4.44682 
1442 1 0.866667 0.3 0.0578782 -4.40956 
1443 1 0.883333 0.25 0.116649 -4.45022 
1444 1 0.883333 0.35 0.116696 -4.45046 
1473 1 0.866667 0.4 0.0579007 -4.40955 
1448 1 0.916667 0.25 0.0579985 -4.40622 
1474 1 0.9 0.4 -0.00102093 -3.90275 
1475 1 0.916667 0.35 0.0580947 -4.40658 
1477 1 0.9 0.3 -0.001046 -3.90265 
1478 1 0.95 0.25 -0.000707354 -3.90423 
1479 1 0.95 0.35 -0.00047313 -3.90391 
1602 1 0.933333 0.3 0.116809 -4.40869 
1608 1 0.983333 0.25 0.117662 -4.34294 
1631 1 0.933333 0.4 0.116822 -4.4087 
1632 1 0.966667 0.4 0.0587391 -4.39986 
1633 1 0.983333 0.35 0.119243 -4.266 
1635 1 0.966667 0.3 0.0587281 -4.3999 
12 1 0 0.5 -0.00073297 -3.90353 
13 1 0.0166667 0.45 0.0584208 -4.39747 
14 1 0.0166667 0.55 0.0581256 -4.40802 
17 1 0.05 0.45 -0.000758396 -3.90347 
21 1 0 0.6 -0.000935062 -3.90331 
22 1 0.05 0.55 -0.0009685 -3.90332 
71 1 0.0333333 0.6 0.116907 -4.44983 
74 1 0.0333333 0.5 0.116902 -4.42427 
75 1 0.0666667 0.5 0.0580561 -4.40775 
76 1 0.0833333 0.45 0.116668 -4.43463 
77 1 0.0833333 0.55 0.116757 -4.44944 
95 1 0.0666667 0.6 0.0580334 -4.4089 
81 1 0.116667 0.45 0.0578913 -4.4073 
96 1 0.1 0.6 -0.00107698 -3.90351 
97 1 0.116667 0.55 0.0579199 -4.40831 
99 1 0.1 0.5 -0.00106313 -3.90345 
100 1 0.15 0.45 -0.0011626 -3.90344 
101 1 0.15 0.55 -0.00115989 -3.90358 
202 1 0.133333 0.5 0.116624 -4.44919 
208 1 0.183333 0.45 0.116544 -4.44908 
229 1 0.133333 0.6 0.116639 -4.44906 
230 1 0.166667 0.6 0.0578298 -4.40805 
231 1 0.183333 0.55 0.116549 -4.44905 
233 1 0.166667 0.5 0.0578183 -4.40805 
234 1 0.2 0.5 -0.00123681 -3.90357 
235 1 0.216667 0.45 0.0577578 -4.40805 
236 1 0.216667 0.55 0.0577593 -4.408 
239 1 0.25 0.45 -0.00128929 -3.90354 
253 1 0.2 0.6 -0.00122794 -3.9036 
254 1 0.25 0.55 -0.00128227 -3.90356 
395 1 0.233333 0.6 0.116497 -4.44901 
398 1 0.233333 0.5 0.11649 -4.44906 
399 1 0.266667 0.5 0.0577171 -4.40804 
400 1 0.283333 0.45 0.116466 -4.44903 
401 1 0.283333 0.55 0.116471 -4.44906 
422 1 0.266667 0.6 0.0577261 -4.40804 
405 1 0.316667 0.45 0.0577082 -4.40804 
423 1 0.3 0.6 -0.00130306 -3.90357 
424 1 0.316667 0.55 0.0577087 -4.40805 
426 1 0.3 0.5 -0.00130431 -3.90356 
427 1 0.35 0.45 -0.00130613 -3.9036 
428 1 0.35 0.55 -0.0013058 -3.9036 
562 1 0.333333 0.5 0.116465 -4.44907 
568 1 0.383333 0.45 0.116469 -4.44907 
589 1 0.333333 0.6 0.116465 -4.44906 
590 1 0.366667 0.6 0.0577099 -4.40804 
591 1 0.383333 0.55 0.116469 -4.44906 
593 1 0.366667 0.5 0.0577101 -4.40805 
594 1 0.4 0.5 -0.00130077 -3.90359 
595 1 0.416667 0.45 0.0577205 -4.40806 
596 1 0.416667 0.55 0.0577188 -4.40805 
599 1 0.45 0.45 -0.00127935 -3.90363 
613 1 0.4 0.6 -0.00130163 -3.90359 
614 1 0.45 0.55 -0.0012833 -3.90362 
755 1 0.433333 0.6 0.11648 -4.44906 
758 1 0.433333 0.5 0.116483 -4.44906 
759 1 0.466667 0.5 0.0577415 -4.40802 
760 1 0.483333 0.45 0.116506 -4.44904 
761 1 0.483333 0.55 0.116501 -4.44905 
782 1 0.466667 0.6 0.0577369 -4.40803 
765 1 0.516667 0.45 0.0577617 -4.40804 
783 1 0.5 0.6 -0.00126096 -3.90367 
784 1 0.516667 0.55 0.0577563 -4.40806 
786 1 0.5 0.5 -0.0012553 -3.90369 
787 1 0.55 0.45 -0.00125738 -3.90355 
788 1 0.55 0.55 -0.00125788 -3.90357 
922 1 0.533333 0.5 0.116514 -4.44908 
928 1 0.583333 0.45 0.116525 -4.4493 
949 1 0.533333 0.6 0.116513 -4.44907 
950 1 0.566667 0.6 0.0577646 -4.40819 
951 1 0.583333 0.55 0.116525 -4.44929 
953 1 0.566667 0.5 0.0577624 -4.40822 
954 1 0.6 0.5 -0.00122687 -3.90337 
955 1 0.616667 0.45 0.0578084 -4.40888 
956 1 0.616667 0.55 0.0578081 -4.40886 
959 1 0.65 0.45 -0.00105342 -3.89026 
973 1 0.6 0.6 -0.00122961 -3.90346 
974 1 0.65 0.55 -0.00105956 -3.89046 
1113 1 0.633333 0.6 0.116559 -4.44805 
1116 1 0.633333 0.5 0.116566 -4.44827 
1117 1 0.666667 0.5 0.0579914 -4.37608 
1118 1 0.683333 0.45 0.116466 -4.44934 
1119 1 0.683333 0.55 0.116451 -4.44899 
1138 1 0.666667 0.6 0.0579748 -4.37617 
1123 1 0.716667 0.45 0.0574622 -4.25278 
1139 1 0.7 0.6 -0.000412986 -3.56247 
1140 1 0.716667 0.55 0.0574253 -4.25226 
1142 1 0.7 0.5 -0.000328879 -3.54836 
1273 1 0.733333 0.5 0.116366 -4.42744 
1279 1 0.783333 0.45 0.116129 -4.44045 
1300 1 0.733333 0.6 0.116314 -4.4287 
1301 1 0.766667 0.6 0.05627 -4.19346 
1302 1 0.783333 0.55 0.116079 -4.44149 
1304 1 0.766667 0.5 0.0564441 -4.17753 
1305 1 0.8 0.5 -0.00040471 -3.54615 
1306 1 0.816667 0.45 0.0581065 -4.34845 
1307 1 0.816667 0.55 0.0580539 -4.34869 
1310 1 0.85 0.45 -0.00102064 -3.89066 
1324 1 0.8 0.6 -0.000560367 -3.559 
1325 1 0.85 0.55 -0.00104635 -3.89068 
1466 1 0.833333 0.6 0.116618 -4.44766 
1469 1 0.833333 0.5 0.116634 -4.44667 
1470 1 0.866667 0.5 0.0578929 -4.40912 
1471 1 0.883333 0.45 0.11668 -4.45017 
1472 1 0.883333 0.55 0.116649 -4.44988 
1493 1 0.866667 0.6 0.0578739 -4.40896 
1476 1 0.916667 0.45 0.0580291 -4.40608 
1494 1 0.9 0.6 -0.00108485 -3.90287 
1495 1 0.916667 0.55 0.0579451 -4.40724 
1497 1 0.9 0.5 -0.00106002 -3.90285 
1498 1 0.95 0.45 -0.000673417 -3.9043 
1499 1 0.95 0.55 -0.000951576 -3.90342 
1628 1 0.933333 0.5 0.11668 -4.43411 
1634 1 0.983333 0.45 0.117683 -4.34303 
1649 1 0.933333 0.6 0.116732 -4.44925 
1650 1 0.966667 0.6 0.0580493 -4.40666 
1651 1 0.983333 0.55 0.116801 -4.43466 
1653 1 0.966667 0.5 0.0582724 -4.40781 
18 1 0 0.7 -0.000714701 -3.90389 
19 1 0.0166667 0.65 0.0581499 -4.40776 
20 1 0.0166667 0.75 0.0584068 -4.39893 
23 1 0.05 0.65 -0.000947463 -3.90336 
27 1 0 0.8 -0.0005875 -3.90277 
28 1 0.05 0.75 -0.000773075 -3.90376 
88 1 0.0333333 0.8 0.117761 -4.35792 
91 1 0.0333333 0.7 0.116947 -4.42401 
92 1 0.0666667 0.7 0.0580559 -4.40727 
93 1 0.0833333 0.65 0.116757 -4.4494 
94 1 0.0833333 0.75 0.116689 -4.43435 
107 1 0.0666667 0.8 0.0582439 -4.40904 
98 1 0.116667 0.65 0.0579106 -4.40819 
108 1 0.1 0.8 -0.00100791 -3.90395 
109 1 0.116667 0.75 0.0579044 -4.4071 
111 1 0.1 0.7 -0.00106152 -3.90338 
112 1 0.15 0.65 -0.0011611 -3.90355 
113 1 0.15 0.75 -0.00115284 -3.90343 
226 1 0.133333 0.7 0.11662 -4.44911 
232 1 0.183333 0.65 0.116555 -4.44901 
245 1 0.133333 0.8 0.116621 -4.44903 
246 1 0.166667 0.8 0.0578331 -4.40805 
247 1 0.183333 0.75 0.116559 -4.44903 
249 1 0.166667 0.7 0.0578286 -4.40803 
250 1 0.2 0.7 -0.00121889 -3.90363 
251 1 0.216667 0.65 0.0577684 -4.40801 
252 1 0.216667 0.75 0.0577769 -4.40803 
255 1 0.25 0.65 -0.00127382 -3.90358 
261 1 0.2 0.8 -0.00121601 -3.90364 
262 1 0.25 0.75 -0.00127209 -3.90359 
415 1 0.233333 0.8 0.11651 -4.44907 
418 1 0.233333 0.7 0.116507 -4.44906 
419 1 0.266667 0.7 0.0577285 -4.40804 
420 1 0.283333 0.65 0.116474 -4.44906 
421 1 0.283333 0.75 0.116476 -4.44905 
434 1 0.266667 0.8 0.0577305 -4.40805 
425 1 0.316667 0.65 0.05771 -4.40804 
435 1 0.3 0.8 -0.0013014 -3.90355 
436 1 0.316667 0.75 0.0577103 -4.40804 
438 1 0.3 0.7 -0.00130076 -3.90356 
439 1 0.35 0.65 -0.00130602 -3.90359 
440 1 0.35 0.75 -0.00130629 -3.90359 
586 1 0.333333 0.7 0.116466 -4.44906 
592 1 0.383333 0.65 0.116468 -4.44906 
605 1 0.333333 0.8 0.116465 -4.44905 
606 1 0.366667 0.8 0.0577093 -4.40804 
607 1 0.383333 0.75 0.116467 -4.44906 
609 1 0.366667 0.7 0.0577091 -4.40804 
610 1 0.4 0.7 -0.00130275 -3.90359 
611 1 0.416667 0.65 0.0577168 -4.40805 
612 1 0.416667 0.75 0.057716 -4.40805 
615 1 0.45 0.65 -0.00128734 -3.9036 
621 1 0.4 0.8 -0.00130277 -3.90359 
622 1 0.45 0.75 -0.00128889 -3.9036 
775 1 0.433333 0.8 0.116478 -4.44906 
778 1 0.433333 0.7 0.116478 -4.44906 
779 1 0.466667 0.7 0.0577341 -4.40804 
780 1 0.483333 0.65 0.116499 -4.44905 
781 1 0.483333 0.75 0.116498 -4.44905 
794 1 0.466667 0.8 0.0577341 -4.40804 
785 1 0.516667 0.65 0.0577552 -4.40804 
795 1 0.5 0.8 -0.00126228 -3.90367 
796 1 0.516667 0.75 0.0577559 -4.40803 
798 1 0.5 0.7 -0.0012623 -3.90367 
799 1 0.55 0.65 -0.0012544 -3.90362 
800 1 0.55 0.75 -0.0012535 -3.90363 
946 1 0.533333 0.7 0.116512 -4.44906 
952 1 0.583333 0.65 0.116521 -4.44921 
965 1 0.533333 0.8 0.116512 -4.44906 
966 1 0.566667 0.8 0.0577612 -4.40811 
967 1 0.583333 0.75 0.116516 -4.44917 
969 1 0.566667 0.7 0.0577611 -4.40811 
970 1 0.6 0.7 -0.00124477 -3.90346 
971 1 0.616667 0.65 0.0577894 -4.4086 
972 1 0.616667 0.75 0.0577706 -4.40856 
975 1 0.65 0.65 -0.00112183 -3.88974 
981 1 0.6 0.8 -0.00124467 -3.90346 
982 1 0.65 0.75 -0.00119652 -3.90416 
1131 1 0.633333 0.8 0.116526 -4.44886 
1134 1 0.633333 0.7 0.116526 -4.44886 
1135 1 0.666667 0.7 0.057829 -4.39261 
1136 1 0.683333 0.65 0.116407 -4.45018 
1137 1 0.683333 0.75 0.116518 -4.44893 
1148 1 0.666667 0.8 0.057829 -4.3926 
1141 1 0.716667 0.65 0.0572697 -4.28174 
1149 1 0.7 0.8 -0.000813979 -3.72307 
1150 1 0.716667 0.75 0.0579357 -4.35204 
1152 1 0.7 0.7 -0.000814059 -3.72306 
1153 1 0.75 0.75 -0.000362669 -3.57849 
1297 1 0.733333 0.7 0.116485 -4.43845 
1303 1 0.783333 0.65 0.116305 -4.43946 
1316 1 0.733333 0.8 0.116485 -4.43847 
1317 1 0.766667 0.8 0.0574461 -4.27866 
1318 1 0.783333 0.75 0.116393 -4.44994 
1320 1 0.766667 0.7 0.0574498 -4.27865 
1321 1 0.8 0.7 -0.000588842 -3.72445 
1322 1 0.816667 0.65 0.0580078 -4.36472 
1323 1 0.816667 0.75 0.0581017 -4.37677 
1326 1 0.85 0.65 -0.00107266 -3.88991 
1332 1 0.8 0.8 -0.000595208 -3.72444 
1333 1 0.85 0.75 -0.00103963 -3.90449 
1486 1 0.833333 0.8 0.116636 -4.44739 
1489 1 0.833333 0.7 0.116649 -4.44736 
1490 1 0.866667 0.7 0.0578967 -4.40885 
1491 1 0.883333 0.65 0.116646 -4.44974 
1492 1 0.883333 0.75 0.116669 -4.44972 
1505 1 0.866667 0.8 0.0578912 -4.409 
1496 1 0.916667 0.65 0.0579561 -4.40727 
1506 1 0.9 0.8 -0.00106195 -3.90299 
1507 1 0.916667 0.75 0.0580118 -4.40735 
1509 1 0.9 0.7 -0.00107126 -3.90311 
1510 1 0.95 0.65 -0.000928405 -3.90378 
1511 1 0.95 0.75 -0.000784692 -3.90371 
1646 1 0.933333 0.7 0.11673 -4.43434 
1652 1 0.983333 0.65 0.116847 -4.43455 
1659 1 0.933333 0.8 0.116841 -4.42378 
1660 1 0.966667 0.8 0.0583636 -4.39883 
1661 1 0.983333 0.75 0.117806 -4.35811 
1663 1 0.966667 0.7 0.0583109 -4.40919 
24 1 0 0.9 -0.000755608 -3.90386 
25 1 0.0166667 0.85 0.0583728 -4.39886 
26 1 0.0166667 0.95 0.0580887 -4.40721 
29 1 0.05 0.85 -0.00079521 -3.90376 
30 1 0.05 0.95 -0.000973329 -3.90346 
103 1 0.0333333 0.9 0.116881 -4.42375 
104 1 0.0666667 0.9 0.0580392 -4.40736 
105 1 0.0833333 0.85 0.116689 -4.43429 
106 1 0.0833333 0.95 0.116711 -4.44929 
110 1 0.116667 0.85 0.0579149 -4.40725 
114 1 0.116667 0.95 0.0578928 -4.40811 
115 1 0.1 0.9 -0.00107428 -3.90346 
116 1 0.15 0.85 -0.00115348 -3.90348 
117 1 0.15 0.95 -0.0011541 -3.90361 
242 1 0.133333 0.9 0.11662 -4.44913 
248 1 0.183333 0.85 0.116562 -4.44907 
256 1 0.183333 0.95 0.11656 -4.44904 
257 1 0.166667 0.9 0.0578326 -4.40805 
258 1 0.2 0.9 -0.00121646 -3.90364 
259 1 0.216667 0.85 0.0577752 -4.40802 
260 1 0.216667 0.95 0.0577738 -4.40804 
263 1 0.25 0.85 -0.00127241 -3.90357 
264 1 0.25 0.95 -0.00127533 -3.90357 
430 1 0.233333 0.9 0.116509 -4.44908 
431 1 0.266667 0.9 0.0577285 -4.40805 
432 1 0.283333 0.85 0.116476 -4.44906 
433 1 0.283333 0.95 0.116475 -4.44906 
437 1 0.316667 0.85 0.0577094 -4.40804 
441 1 0.316667 0.95 0.0577111 -4.40804 
442 1 0.3 0.9 -0.00130161 -3.90355 
443 1 0.35 0.85 -0.00130609 -3.90358 
444 1 0.35 0.95 -0.00130522 -3.90359 
602 1 0.333333 0.9 0.116466 -4.44906 
608 1 0.383333 0.85 0.116468 -4.44906 
616 1 0.383333 0.95 0.116469 -4.44906 
617 1 0.366667 0.9 0.05771 -4.40804 
618 1 0.4 0.9 -0.0013016 -3.90359 
619 1 0.416667 0.85 0.0577168 -4.40805 
620 1 0.416667 0.95 0.0577189 -4.40805 
623 1 0.45 0.85 -0.0012873 -3.9036 
624 1 0.45 0.95 -0.00128325 -3.90362 
790 1 0.433333 0.9 0.11648 -4.44906 
791 1 0.466667 0.9 0.0577369 -4.40803 
792 1 0.483333 0.85 0.116499 -4.44905 
793 1 0.483333 0.95 0.116501 -4.44905 
797 1 0.516667 0.85 0.0577553 -4.40804 
801 1 0.516667 0.95 0.0577564 -4.40806 
802 1 0.5 0.9 -0.00126092 -3.90367 
803 1 0.55 0.85 -0.0012543 -3.90362 
804 1 0.55 0.95 -0.00125773 -3.90357 
962 1 0.533333 0.9 0.116513 -4.44907 
968 1 0.583333 0.85 0.116521 -4.44921 
976 1 0.583333 0.95 0.116525 -4.44929 
977 1 0.566667 0.9 0.0577648 -4.40819 
978 1 0.6 0.9 -0.00122934 -3.90347 
979 1 0.616667 0.85 0.05779 -4.40861 
980 1 0.616667 0.95 0.0578084 -4.40886 
983 1 0.65 0.85 -0.0011211 -3.88974 
984 1 0.65 0.95 -0.00105922 -3.89046 
1144 1 0.633333 0.9 0.11656 -4.44805 
1145 1 0.666667 0.9 0.0579751 -4.37617 
1146 1 0.683333 0.85 0.116407 -4.45017 
1147 1 0.683333 0.95 0.116452 -4.44897 
1151 1 0.716667 0.85 0.0572702 -4.28173 
1154 1 0.716667 0.95 0.0574248 -4.25224 
1155 1 0.7 0.9 -0.000412977 -3.56251 
1313 1 0.733333 0.9 0.116312 -4.42871 
1319 1 0.783333 0.85 0.116302 -4.4395 
1327 1 0.783333 0.95 0.116062 -4.44153 
1328 1 0.766667 0.9 0.056256 -4.1935 
1329 1 0.8 0.9 -0.000579981 -3.55895 
1330 1 0.816667 0.85 0.0579943 -4.36472 
1331 1 0.816667 0.95 0.0580293 -4.34868 
1334 1 0.85 0.85 -0.00109128 -3.88983 
1335 1 0.85 0.95 -0.00107454 -3.89064 
1501 1 0.833333 0.9 0.116591 -4.44764 
1502 1 0.866667 0.9 0.0578511 -4.40902 
1503 1 0.883333 0.85 0.116654 -4.44984 
1504 1 0.883333 0.95 0.116626 -4.4498 
1508 1 0.916667 0.85 0.0579976 -4.40736 
1512 1 0.916667 0.95 0.0579357 -4.40721 
1513 1 0.9 0.9 -0.00108942 -3.90312 
1514 1 0.95 0.85 -0.000801995 -3.90372 
1515 1 0.95 0.95 -0.000964274 -3.90398 
1656 1 0.933333 0.9 0.11668 -4.43425 
1662 1 0.983333 0.85 0.117737 -4.35783 
1664 1 0.983333 0.95 0.116754 -4.4343 
1665 1 0.966667 0.9 0.0582536 -4.40886 
31 1 0 0.1 0.175703 -4.44982 
32 1 0.0166667 0.05 0.234542 -4.44099 
33 1 0.0166667 0.15 0.234573 -4.42608 
34 1 0 0 0.175638 -4.45128 
36 1 0.05 0.05 0.175637 -4.45013 
39 1 0 0.2 0.175619 -4.35358 
41 1 0.05 0.15 0.175682 -4.43736 
131 1 0.0666667 0.1 0.234499 -4.45075 
134 1 0.0666667 0 0.234344 -4.44944 
148 1 0.0666667 0.2 0.234352 -4.4342 
135 1 0.1 0 0.175471 -4.4503 
136 1 0.116667 0.05 0.234225 -4.44915 
149 1 0.1 0.2 0.17545 -4.45143 
150 1 0.116667 0.15 0.234219 -4.44927 
152 1 0.1 0.1 0.175514 -4.45064 
154 1 0.15 0.05 0.175397 -4.4501 
155 1 0.15 0.15 0.175389 -4.45006 
288 1 0.166667 0 0.234165 -4.44986 
304 1 0.166667 0.2 0.234164 -4.44993 
307 1 0.166667 0.1 0.234157 -4.44987 
308 1 0.2 0.1 0.17533 -4.45023 
309 1 0.216667 0.05 0.234116 -4.44984 
310 1 0.216667 0.15 0.234111 -4.44983 
311 1 0.2 0 0.175342 -4.45026 
313 1 0.25 0.05 0.175305 -4.45025 
335 1 0.2 0.2 0.175339 -4.45028 
337 1 0.25 0.15 0.175296 -4.45025 
475 1 0.266667 0.1 0.2341 -4.44988 
478 1 0.266667 0 0.234104 -4.44988 
498 1 0.266667 0.2 0.234094 -4.44985 
479 1 0.3 0 0.175291 -4.45027 
480 1 0.316667 0.05 0.234097 -4.44987 
499 1 0.3 0.2 0.175288 -4.45026 
500 1 0.316667 0.15 0.234097 -4.44987 
502 1 0.3 0.1 0.17529 -4.45027 
504 1 0.35 0.05 0.175289 -4.45027 
505 1 0.35 0.15 0.175289 -4.45027 
648 1 0.366667 0 0.234099 -4.44987 
664 1 0.366667 0.2 0.2341 -4.44987 
667 1 0.366667 0.1 0.2341 -4.44987 
668 1 0.4 0.1 0.175296 -4.45026 
669 1 0.416667 0.05 0.234108 -4.44986 
670 1 0.416667 0.15 0.234109 -4.44986 
671 1 0.4 0 0.175295 -4.45026 
673 1 0.45 0.05 0.175311 -4.45025 
695 1 0.4 0.2 0.175296 -4.45027 
697 1 0.45 0.15 0.175314 -4.45025 
835 1 0.466667 0.1 0.234126 -4.44986 
838 1 0.466667 0 0.234123 -4.44986 
858 1 0.466667 0.2 0.234128 -4.44986 
839 1 0.5 0 0.175327 -4.45026 
840 1 0.516667 0.05 0.234138 -4.44985 
859 1 0.5 0.2 0.175336 -4.45026 
860 1 0.516667 0.15 0.234143 -4.44985 
862 1 0.5 0.1 0.175331 -4.45026 
864 1 0.55 0.05 0.175336 -4.4503 
865 1 0.55 0.15 0.175342 -4.45029 
1008 1 0.566667 0 0.234139 -4.44985 
1024 1 0.566667 0.2 0.234145 -4.44984 
1027 1 0.566667 0.1 0.234141 -4.44986 
1028 1 0.6 0.1 0.175343 -4.45014 
1029 1 0.616667 0.05 0.234138 -4.44985 
1030 1 0.616667 0.15 0.23414 -4.44988 
1031 1 0.6 0 0.175345 -4.45013 
1033 1 0.65 0.05 0.175335 -4.45057 
1055 1 0.6 0.2 0.175347 -4.45013 
1057 1 0.65 0.15 0.175329 -4.45059 
1186 1 0.666667 0.1 0.2341 -4.4497 
1189 1 0.666667 0 0.234102 -4.44971 
1209 1 0.666667 0.2 0.234098 -4.44974 
1190 1 0.7 0 0.175239 -4.44972 
1191 1 0.716667 0.05 0.234024 -4.45007 
1210 1 0.7 0.2 0.175239 -4.44979 
1211 1 0.716667 0.15 0.234016 -4.45006 
1213 1 0.7 0.1 0.175247 -4.44978 
1215 1 0.75 0.05 0.17511 -4.44805 
1216 1 0.75 0.15 0.17511 -4.44808 
1359 1 0.766667 0 0.233956 -4.45012 
1375 1 0.766667 0.2 0.233961 -4.45007 
1378 1 0.766667 0.1 0.233964 -4.45005 
1379 1 0.8 0.1 0.175149 -4.45051 
1380 1 0.816667 0.05 0.234054 -4.44993 
1381 1 0.816667 0.15 0.234052 -4.44994 
1382 1 0.8 0 0.175136 -4.45075 
1384 1 0.85 0.05 0.175415 -4.44981 
1406 1 0.8 0.2 0.175143 -4.45056 
1408 1 0.85 0.15 0.175413 -4.44979 
1546 1 0.866667 0.1 0.234219 -4.44985 
1549 1 0.866667 0 0.234209 -4.44975 
1569 1 0.866667 0.2 0.23421 -4.44978 
1550 1 0.9 0 0.175439 -4.45018 
1551 1 0.916667 0.05 0.234258 -4.44951 
1570 1 0.9 0.2 0.175433 -4.45164 
1571 1 0.916667 0.15 0.234235 -4.44961 
1573 1 0.9 0.1 0.175447 -4.45029 
1575 1 0.95 0.05 0.175574 -4.44985 
1576 1 0.95 0.15 0.17554 -4.43732 
1689 1 0.966667 0 0.234444 -4.45008 
1705 1 0.966667 0.2 0.234362 -4.42569 
1708 1 0.966667 0.1 0.234481 -4.44094 
37 1 0.0166667 0.25 0.233447 -4.343 
38 1 0.0166667 0.35 0.231838 -4.26668 
42 1 0.05 0.25 0.175558 -4.33952 
54 1 0.05 0.35 0.175326 -4.24248 
145 1 0.0666667 0.3 0.234164 -4.40981 
169 1 0.0666667 0.4 0.234172 -4.40986 
151 1 0.116667 0.25 0.234167 -4.45036 
170 1 0.1 0.4 0.175369 -4.43907 
171 1 0.116667 0.35 0.234124 -4.45047 
173 1 0.1 0.3 0.175366 -4.43912 
175 1 0.15 0.25 0.175374 -4.45018 
176 1 0.15 0.35 0.17537 -4.45022 
328 1 0.166667 0.4 0.234161 -4.44996 
331 1 0.166667 0.3 0.234157 -4.44994 
332 1 0.2 0.3 0.175338 -4.4503 
333 1 0.216667 0.25 0.234119 -4.44988 
334 1 0.216667 0.35 0.234123 -4.44992 
338 1 0.25 0.25 0.175295 -4.45026 
366 1 0.2 0.4 0.17534 -4.45033 
368 1 0.25 0.35 0.1753 -4.45027 
495 1 0.266667 0.3 0.234093 -4.44984 
526 1 0.266667 0.4 0.234091 -4.44984 
501 1 0.316667 0.25 0.234093 -4.44987 
527 1 0.3 0.4 0.17528 -4.45025 
528 1 0.316667 0.35 0.23409 -4.44987 
530 1 0.3 0.3 0.175282 -4.45025 
532 1 0.35 0.25 0.175288 -4.45027 
533 1 0.35 0.35 0.175288 -4.45026 
688 1 0.366667 0.4 0.234098 -4.44987 
691 1 0.366667 0.3 0.234099 -4.44987 
692 1 0.4 0.3 0.175295 -4.45027 
693 1 0.416667 0.25 0.234109 -4.44987 
694 1 0.416667 0.35 0.234109 -4.44987 
698 1 0.45 0.25 0.175314 -4.45025 
726 1 0.4 0.4 0.175295 -4.45027 
728 1 0.45 0.35 0.175314 -4.45025 
855 1 0.466667 0.3 0.234128 -4.44986 
886 1 0.466667 0.4 0.234126 -4.44986 
861 1 0.516667 0.25 0.234147 -4.44985 
887 1 0.5 0.4 0.175331 -4.45026 
888 1 0.516667 0.35 0.234143 -4.44985 
890 1 0.5 0.3 0.175336 -4.45026 
892 1 0.55 0.25 0.175344 -4.4503 
893 1 0.55 0.35 0.175341 -4.45029 
1048 1 0.566667 0.4 0.23414 -4.44986 
1051 1 0.566667 0.3 0.234145 -4.44984 
1052 1 0.6 0.3 0.175347 -4.45013 
1053 1 0.616667 0.25 0.234136 -4.44987 
1054 1 0.616667 0.35 0.23414 -4.44988 
1058 1 0.65 0.25 0.175328 -4.45058 
1086 1 0.6 0.4 0.175343 -4.45014 
1088 1 0.65 0.35 0.175329 -4.45059 
1206 1 0.666667 0.3 0.234098 -4.44973 
1237 1 0.666667 0.4 0.234099 -4.4497 
1212 1 0.716667 0.25 0.234012 -4.45005 
1238 1 0.7 0.4 0.175246 -4.44977 
1239 1 0.716667 0.35 0.234016 -4.45007 
1241 1 0.7 0.3 0.175239 -4.44978 
1243 1 0.75 0.25 0.175113 -4.44808 
1244 1 0.75 0.35 0.17512 -4.44807 
1399 1 0.766667 0.4 0.23398 -4.45004 
1402 1 0.766667 0.3 0.233968 -4.45006 
1403 1 0.8 0.3 0.175155 -4.45062 
1404 1 0.816667 0.25 0.234055 -4.45002 
1405 1 0.816667 0.35 0.234069 -4.45003 
1409 1 0.85 0.25 0.175413 -4.44975 
1437 1 0.8 0.4 0.17517 -4.45058 
1439 1 0.85 0.35 0.175428 -4.44977 
1566 1 0.866667 0.3 0.234213 -4.4498 
1597 1 0.866667 0.4 0.234229 -4.44978 
1572 1 0.916667 0.25 0.234235 -4.43458 
1598 1 0.9 0.4 0.175515 -4.43902 
1599 1 0.916667 0.35 0.234336 -4.41969 
1601 1 0.9 0.3 0.1755 -4.43901 
1603 1 0.95 0.25 0.175481 -4.33978 