ITEM: TIMESTEP
4
ITEM: NUMBER OF ATOMS
3584
ITEM: BOX BOUNDS pp pp ss
0.0000000000000000e+00 4.3111019472983898e+01
0.0000000000000000e+00 2.4890158697766498e+01
-3.6580800000000006e-03 3.4552298188307212e+01
ITEM: ATOMS id type xs ys zs c_peratom 
1 1 0 0.1 -6.16626e-06 -3.90337 
2 1 0.0166667 0.05 0.0589776 -4.40792 
3 1 0.0166667 0.15 0.0589424 -4.4068 
4 1 0 0 -6.77778e-06 -3.90329 
5 1 0.05 0.05 2.07447e-06 -3.90372 
9 1 0 0.2 5.40358e-05 -3.90273 
10 1 0.05 0.15 4.62859e-06 -3.90305 
35 1 0.0333333 0 0.117791 -4.44995 
40 1 0.0333333 0.2 0.117815 -4.42513 
43 1 0.0333333 0.1 0.117774 -4.44954 
44 1 0.0666667 0.1 0.058979 -4.40799 
45 1 0.0833333 0.05 0.117765 -4.44932 
46 1 0.0833333 0.15 0.11779 -4.45001 
47 1 0.0666667 0 0.0589811 -4.40823 
60 1 0.0666667 0.2 0.0589535 -4.40729 
48 1 0.1 0 -4.87281e-07 -3.90364 
49 1 0.116667 0.05 0.0589693 -4.40799 
61 1 0.1 0.2 -5.41979e-06 -3.9033 
62 1 0.116667 0.15 0.0589758 -4.40817 
64 1 0.1 0.1 -3.73622e-07 -3.90363 
65 1 0.15 0.05 -2.96909e-06 -3.90358 
66 1 0.15 0.15 -1.88446e-06 -3.90363 
153 1 0.133333 0.1 0.117765 -4.44942 
156 1 0.133333 0 0.117765 -4.44932 
157 1 0.166667 0 0.0589696 -4.40803 
158 1 0.183333 0.05 0.117764 -4.44943 
177 1 0.133333 0.2 0.117763 -4.44946 
178 1 0.166667 0.2 0.0589699 -4.40809 
179 1 0.183333 0.15 0.117764 -4.44942 
181 1 0.166667 0.1 0.0589696 -4.40804 
182 1 0.2 0.1 -2.94255e-06 -3.9036 
183 1 0.216667 0.05 0.0589696 -4.40805 
184 1 0.216667 0.15 0.0589696 -4.40805 
185 1 0.2 0 -2.94618e-06 -3.9036 
186 1 0.25 0.05 -2.94781e-06 -3.90361 
213 1 0.2 0.2 -2.94672e-06 -3.90361 
214 1 0.25 0.15 -2.94582e-06 -3.90361 
312 1 0.233333 0 0.117764 -4.44945 
336 1 0.233333 0.2 0.117764 -4.44946 
339 1 0.233333 0.1 0.117764 -4.44946 
340 1 0.266667 0.1 0.0589696 -4.40805 
341 1 0.283333 0.05 0.117764 -4.44945 
342 1 0.283333 0.15 0.117764 -4.44945 
343 1 0.266667 0 0.0589696 -4.40805 
374 1 0.266667 0.2 0.0589696 -4.40805 
344 1 0.3 0 -2.94707e-06 -3.90361 
345 1 0.316667 0.05 0.0589696 -4.40805 
375 1 0.3 0.2 -2.94709e-06 -3.90361 
376 1 0.316667 0.15 0.0589696 -4.40805 
378 1 0.3 0.1 -2.94707e-06 -3.90361 
379 1 0.35 0.05 -2.94709e-06 -3.90361 
380 1 0.35 0.15 -2.94709e-06 -3.90361 
503 1 0.333333 0.1 0.117764 -4.44945 
506 1 0.333333 0 0.117764 -4.44945 
507 1 0.366667 0 0.0589696 -4.40805 
508 1 0.383333 0.05 0.117764 -4.44945 
534 1 0.333333 0.2 0.117764 -4.44945 
535 1 0.366667 0.2 0.0589696 -4.40805 
536 1 0.383333 0.15 0.117764 -4.44945 
538 1 0.366667 0.1 0.0589696 -4.40805 
539 1 0.4 0.1 -2.94711e-06 -3.90361 
540 1 0.416667 0.05 0.0589696 -4.40805 
541 1 0.416667 0.15 0.0589696 -4.40805 
542 1 0.4 0 -2.94711e-06 -3.90361 
543 1 0.45 0.05 -2.9463e-06 -3.90361 
573 1 0.4 0.2 -2.94711e-06 -3.90361 
574 1 0.45 0.15 -2.9463e-06 -3.90361 
672 1 0.433333 0 0.117764 -4.44945 
696 1 0.433333 0.2 0.117764 -4.44945 
699 1 0.433333 0.1 0.117764 -4.44945 
700 1 0.466667 0.1 0.0589696 -4.40805 
701 1 0.483333 0.05 0.117764 -4.44945 
702 1 0.483333 0.15 0.117764 -4.44945 
703 1 0.466667 0 0.0589696 -4.40805 
734 1 0.466667 0.2 0.0589696 -4.40805 
704 1 0.5 0 -2.97505e-06 -3.90361 
705 1 0.516667 0.05 0.0589696 -4.40805 
735 1 0.5 0.2 -2.9748e-06 -3.90361 
736 1 0.516667 0.15 0.0589696 -4.40805 
738 1 0.5 0.1 -2.97479e-06 -3.90361 
739 1 0.55 0.05 -2.78409e-06 -3.90361 
740 1 0.55 0.15 -2.7881e-06 -3.90361 
863 1 0.533333 0.1 0.117764 -4.44945 
866 1 0.533333 0 0.117764 -4.44945 
867 1 0.566667 0 0.0589676 -4.40818 
868 1 0.583333 0.05 0.11776 -4.44975 
894 1 0.533333 0.2 0.117764 -4.44945 
895 1 0.566667 0.2 0.0589676 -4.40818 
896 1 0.583333 0.15 0.11776 -4.44975 
898 1 0.566667 0.1 0.0589676 -4.40818 
899 1 0.6 0.1 -1.2871e-05 -3.90318 
900 1 0.616667 0.05 0.058965 -4.40916 
901 1 0.616667 0.15 0.058965 -4.40918 
902 1 0.6 0 -1.28428e-05 -3.90316 
903 1 0.65 0.05 0.000111869 -3.88964 
933 1 0.6 0.2 -1.28954e-05 -3.90318 
934 1 0.65 0.15 0.000111636 -3.88965 
1032 1 0.633333 0 0.117778 -4.44878 
1056 1 0.633333 0.2 0.117778 -4.44877 
1059 1 0.633333 0.1 0.117778 -4.44876 
1060 1 0.666667 0.1 0.059168 -4.37588 
1061 1 0.683333 0.05 0.117661 -4.4485 
1062 1 0.683333 0.15 0.117661 -4.44848 
1063 1 0.666667 0 0.0591712 -4.37598 
1094 1 0.666667 0.2 0.0591679 -4.37588 
1064 1 0.7 0 0.00100206 -3.55034 
1065 1 0.716667 0.05 0.0588252 -4.25205 
1095 1 0.7 0.2 0.00100043 -3.55003 
1096 1 0.716667 0.15 0.058825 -4.252 
1098 1 0.7 0.1 0.00100044 -3.55003 
1214 1 0.733333 0.1 0.117461 -4.42732 
1217 1 0.733333 0 0.117466 -4.42708 
1218 1 0.766667 0 0.0574975 -4.17442 
1219 1 0.783333 0.05 0.11721 -4.44085 
1245 1 0.733333 0.2 0.117461 -4.42731 
1246 1 0.766667 0.2 0.0574973 -4.17468 
1247 1 0.783333 0.15 0.11721 -4.441 
1249 1 0.766667 0.1 0.0574973 -4.17471 
1250 1 0.8 0.1 0.00111255 -3.54823 
1251 1 0.816667 0.05 0.0595191 -4.34764 
1252 1 0.816667 0.15 0.0595184 -4.34771 
1253 1 0.8 0 0.00111628 -3.5486 
1254 1 0.85 0.05 4.45744e-05 -3.89046 
1284 1 0.8 0.2 0.00111255 -3.54819 
1285 1 0.85 0.15 4.5983e-05 -3.89048 
1383 1 0.833333 0 0.117906 -4.445 
1407 1 0.833333 0.2 0.117906 -4.44507 
1410 1 0.833333 0.1 0.117905 -4.44516 
1411 1 0.866667 0.1 0.0588839 -4.40999 
1412 1 0.883333 0.05 0.117711 -4.45077 
1413 1 0.883333 0.15 0.117709 -4.45095 
1414 1 0.866667 0 0.0588842 -4.40988 
1445 1 0.866667 0.2 0.0588904 -4.41012 
1415 1 0.9 0 -3.4403e-05 -3.90267 
1416 1 0.916667 0.05 0.0589588 -4.40795 
1446 1 0.9 0.2 -3.92306e-05 -3.90222 
1447 1 0.916667 0.15 0.0589341 -4.40693 
1449 1 0.9 0.1 -3.42731e-05 -3.90269 
1450 1 0.95 0.05 -1.10102e-05 -3.90343 
1451 1 0.95 0.15 2.5959e-05 -3.90371 
1574 1 0.933333 0.1 0.117744 -4.44933 
1577 1 0.933333 0 0.117747 -4.44938 
1578 1 0.966667 0 0.058943 -4.40688 
1579 1 0.983333 0.05 0.117747 -4.44938 
1605 1 0.933333 0.2 0.117679 -4.43434 
1606 1 0.966667 0.2 0.0591571 -4.40809 
1607 1 0.983333 0.15 0.11768 -4.43445 
1609 1 0.966667 0.1 0.0589405 -4.40681 
6 1 0 0.3 0.00010118 -3.90039 
7 1 0.0166667 0.25 0.059272 -4.39966 
8 1 0.0166667 0.35 0.0597092 -4.39391 
11 1 0.05 0.25 6.53944e-05 -3.90248 
15 1 0 0.4 0.000101182 -3.90038 
16 1 0.05 0.35 0.000124459 -3.90267 
53 1 0.0333333 0.4 0.11874 -4.33132 
56 1 0.0333333 0.3 0.11874 -4.33132 
57 1 0.0666667 0.3 0.059162 -4.40842 
58 1 0.0833333 0.25 0.117727 -4.43521 
59 1 0.0833333 0.35 0.117636 -4.4194 
78 1 0.0666667 0.4 0.059162 -4.40842 
63 1 0.116667 0.25 0.0589529 -4.40728 
79 1 0.1 0.4 2.70157e-05 -3.90339 
80 1 0.116667 0.35 0.058924 -4.40616 
82 1 0.1 0.3 2.70111e-05 -3.90339 
83 1 0.15 0.25 -5.53205e-06 -3.90349 
84 1 0.15 0.35 -1.00365e-05 -3.9033 
174 1 0.133333 0.3 0.117744 -4.44962 
180 1 0.183333 0.25 0.117764 -4.44947 
205 1 0.133333 0.4 0.117744 -4.44962 
206 1 0.166667 0.4 0.0589704 -4.40814 
207 1 0.183333 0.35 0.117764 -4.44949 
209 1 0.166667 0.3 0.0589704 -4.40814 
210 1 0.2 0.3 -2.81759e-06 -3.90365 
211 1 0.216667 0.25 0.0589695 -4.40806 
212 1 0.216667 0.35 0.0589694 -4.40807 
215 1 0.25 0.25 -2.94424e-06 -3.9036 
237 1 0.2 0.4 -2.81765e-06 -3.90365 
238 1 0.25 0.35 -2.94462e-06 -3.9036 
367 1 0.233333 0.4 0.117764 -4.44946 
370 1 0.233333 0.3 0.117764 -4.44946 
371 1 0.266667 0.3 0.0589696 -4.40805 
372 1 0.283333 0.25 0.117764 -4.44945 
373 1 0.283333 0.35 0.117764 -4.44945 
402 1 0.266667 0.4 0.0589696 -4.40805 
377 1 0.316667 0.25 0.0589696 -4.40805 
403 1 0.3 0.4 -2.94711e-06 -3.90361 
404 1 0.316667 0.35 0.0589696 -4.40805 
406 1 0.3 0.3 -2.94711e-06 -3.90361 
407 1 0.35 0.25 -2.94708e-06 -3.90361 
408 1 0.35 0.35 -2.94708e-06 -3.90361 
531 1 0.333333 0.3 0.117764 -4.44945 
537 1 0.383333 0.25 0.117764 -4.44945 
565 1 0.333333 0.4 0.117764 -4.44945 
566 1 0.366667 0.4 0.0589696 -4.40805 
567 1 0.383333 0.35 0.117764 -4.44945 
569 1 0.366667 0.3 0.0589696 -4.40805 
570 1 0.4 0.3 -2.94711e-06 -3.90361 
571 1 0.416667 0.25 0.0589696 -4.40805 
572 1 0.416667 0.35 0.0589696 -4.40805 
575 1 0.45 0.25 -2.9463e-06 -3.90361 
597 1 0.4 0.4 -2.94711e-06 -3.90361 
598 1 0.45 0.35 -2.9463e-06 -3.90361 
727 1 0.433333 0.4 0.117764 -4.44945 
730 1 0.433333 0.3 0.117764 -4.44945 
731 1 0.466667 0.3 0.0589696 -4.40805 
732 1 0.483333 0.25 0.117764 -4.44945 
733 1 0.483333 0.35 0.117764 -4.44945 
762 1 0.466667 0.4 0.0589696 -4.40805 
737 1 0.516667 0.25 0.0589696 -4.40805 
763 1 0.5 0.4 -2.97479e-06 -3.90361 
764 1 0.516667 0.35 0.0589696 -4.40805 
766 1 0.5 0.3 -2.9748e-06 -3.90361 
767 1 0.55 0.25 -2.78775e-06 -3.90361 
768 1 0.55 0.35 -2.7881e-06 -3.90361 
891 1 0.533333 0.3 0.117764 -4.44945 
897 1 0.583333 0.25 0.11776 -4.44975 
925 1 0.533333 0.4 0.117764 -4.44945 
926 1 0.566667 0.4 0.0589676 -4.40818 
927 1 0.583333 0.35 0.11776 -4.44975 
929 1 0.566667 0.3 0.0589676 -4.40818 
930 1 0.6 0.3 -1.28954e-05 -3.90318 
931 1 0.616667 0.25 0.058965 -4.40918 
932 1 0.616667 0.35 0.058965 -4.40918 
935 1 0.65 0.25 0.000111629 -3.88965 
957 1 0.6 0.4 -1.2871e-05 -3.90318 
958 1 0.65 0.35 0.000111636 -3.88965 
1087 1 0.633333 0.4 0.117778 -4.44876 
1090 1 0.633333 0.3 0.117778 -4.44877 
1091 1 0.666667 0.3 0.0591679 -4.37588 
1092 1 0.683333 0.25 0.117661 -4.44848 
1093 1 0.683333 0.35 0.117661 -4.44848 
1120 1 0.666667 0.4 0.059168 -4.37588 
1097 1 0.716667 0.25 0.058825 -4.252 
1121 1 0.7 0.4 0.00100044 -3.55003 
1122 1 0.716667 0.35 0.058825 -4.252 
1124 1 0.7 0.3 0.00100043 -3.55003 
1242 1 0.733333 0.3 0.117461 -4.42731 
1248 1 0.783333 0.25 0.11721 -4.44101 
1276 1 0.733333 0.4 0.117461 -4.42732 
1277 1 0.766667 0.4 0.0574973 -4.17471 
1278 1 0.783333 0.35 0.11721 -4.44102 
1280 1 0.766667 0.3 0.0574973 -4.17468 
1281 1 0.8 0.3 0.00111252 -3.54818 
1282 1 0.816667 0.25 0.0595183 -4.34769 
1283 1 0.816667 0.35 0.0595183 -4.34769 
1286 1 0.85 0.25 4.85735e-05 -3.89053 
1308 1 0.8 0.4 0.00111248 -3.54819 
1309 1 0.85 0.35 5.00738e-05 -3.89054 
1438 1 0.833333 0.4 0.117906 -4.445 
1441 1 0.833333 0.3 0.117906 -4.44501 
1442 1 0.866667 0.3 0.0589028 -4.41031 
1443 1 0.883333 0.25 0.117732 -4.45152 
1444 1 0.883333 0.35 0.117761 -4.45207 
1473 1 0.866667 0.4 0.0589028 -4.41031 
1448 1 0.916667 0.25 0.0589085 -4.4055 
1474 1 0.9 0.4 -2.75113e-05 -3.90174 
1475 1 0.916667 0.35 0.0589095 -4.40599 
1477 1 0.9 0.3 -2.75222e-05 -3.90174 
1478 1 0.95 0.25 9.70436e-05 -3.90341 
1479 1 0.95 0.35 0.000125296 -3.90191 
1602 1 0.933333 0.3 0.117733 -4.40955 
1608 1 0.983333 0.25 0.118646 -4.34235 
1631 1 0.933333 0.4 0.117733 -4.40955 
1632 1 0.966667 0.4 0.0595947 -4.40304 
1633 1 0.983333 0.35 0.120469 -4.26378 
1635 1 0.966667 0.3 0.0595947 -4.40305 
12 1 0 0.5 5.50926e-05 -3.90277 
13 1 0.0166667 0.45 0.059272 -4.39963 
14 1 0.0166667 0.55 0.0589492 -4.40699 
17 1 0.05 0.45 6.53665e-05 -3.90247 
21 1 0 0.6 -1.22579e-05 -3.90295 
22 1 0.05 0.55 7.06576e-06 -3.90312 
71 1 0.0333333 0.6 0.117802 -4.45021 
74 1 0.0333333 0.5 0.117815 -4.42504 
75 1 0.0666667 0.5 0.0589535 -4.40725 
76 1 0.0833333 0.45 0.117727 -4.43522 
77 1 0.0833333 0.55 0.11779 -4.44992 
95 1 0.0666667 0.6 0.0589913 -4.40828 
81 1 0.116667 0.45 0.0589529 -4.40728 
96 1 0.1 0.6 2.04759e-06 -3.9037 
97 1 0.116667 0.55 0.0589758 -4.40814 
99 1 0.1 0.5 -5.43619e-06 -3.90328 
100 1 0.15 0.45 -5.52754e-06 -3.90349 
101 1 0.15 0.55 -1.91543e-06 -3.90362 
202 1 0.133333 0.5 0.117764 -4.44947 
208 1 0.183333 0.45 0.117764 -4.44947 
229 1 0.133333 0.6 0.117766 -4.44932 
230 1 0.166667 0.6 0.0589695 -4.40801 
231 1 0.183333 0.55 0.117764 -4.44942 
233 1 0.166667 0.5 0.0589699 -4.40809 
234 1 0.2 0.5 -2.94528e-06 -3.90361 
235 1 0.216667 0.45 0.0589695 -4.40806 
236 1 0.216667 0.55 0.0589696 -4.40805 
239 1 0.25 0.45 -2.94424e-06 -3.9036 
253 1 0.2 0.6 -2.94245e-06 -3.9036 
254 1 0.25 0.55 -2.94596e-06 -3.90361 
395 1 0.233333 0.6 0.117764 -4.44946 
398 1 0.233333 0.5 0.117764 -4.44946 
399 1 0.266667 0.5 0.0589696 -4.40805 
400 1 0.283333 0.45 0.117764 -4.44945 
401 1 0.283333 0.55 0.117764 -4.44945 
422 1 0.266667 0.6 0.0589696 -4.40805 
405 1 0.316667 0.45 0.0589696 -4.40805 
423 1 0.3 0.6 -2.94706e-06 -3.90361 
424 1 0.316667 0.55 0.0589696 -4.40805 
426 1 0.3 0.5 -2.94709e-06 -3.90361 
427 1 0.35 0.45 -2.94708e-06 -3.90361 
428 1 0.35 0.55 -2.94709e-06 -3.90361 
562 1 0.333333 0.5 0.117764 -4.44945 
568 1 0.383333 0.45 0.117764 -4.44945 
589 1 0.333333 0.6 0.117764 -4.44945 
590 1 0.366667 0.6 0.0589696 -4.40805 
591 1 0.383333 0.55 0.117764 -4.44945 
593 1 0.366667 0.5 0.0589696 -4.40805 
594 1 0.4 0.5 -2.94711e-06 -3.90361 
595 1 0.416667 0.45 0.0589696 -4.40805 
596 1 0.416667 0.55 0.0589696 -4.40805 
599 1 0.45 0.45 -2.9463e-06 -3.90361 
613 1 0.4 0.6 -2.94711e-06 -3.90361 
614 1 0.45 0.55 -2.9463e-06 -3.90361 
755 1 0.433333 0.6 0.117764 -4.44945 
758 1 0.433333 0.5 0.117764 -4.44945 
759 1 0.466667 0.5 0.0589696 -4.40805 
760 1 0.483333 0.45 0.117764 -4.44945 
761 1 0.483333 0.55 0.117764 -4.44945 
782 1 0.466667 0.6 0.0589696 -4.40805 
765 1 0.516667 0.45 0.0589696 -4.40805 
783 1 0.5 0.6 -2.97197e-06 -3.90361 
784 1 0.516667 0.55 0.0589696 -4.40805 
786 1 0.5 0.5 -2.97505e-06 -3.90361 
787 1 0.55 0.45 -2.78409e-06 -3.90361 
788 1 0.55 0.55 -2.74584e-06 -3.90361 
922 1 0.533333 0.5 0.117764 -4.44945 
928 1 0.583333 0.45 0.11776 -4.44975 
949 1 0.533333 0.6 0.117764 -4.44946 
950 1 0.566667 0.6 0.0589679 -4.40818 
951 1 0.583333 0.55 0.11776 -4.44977 
953 1 0.566667 0.5 0.0589676 -4.40818 
954 1 0.6 0.5 -1.28428e-05 -3.90316 
955 1 0.616667 0.45 0.058965 -4.40916 
956 1 0.616667 0.55 0.0589674 -4.4092 
959 1 0.65 0.45 0.000111869 -3.88964 
973 1 0.6 0.6 -1.20374e-05 -3.90327 
974 1 0.65 0.55 0.000122724 -3.89001 
1113 1 0.633333 0.6 0.11779 -4.44841 
1116 1 0.633333 0.5 0.117778 -4.44878 
1117 1 0.666667 0.5 0.0591712 -4.37598 
1118 1 0.683333 0.45 0.117661 -4.4485 
1119 1 0.683333 0.55 0.117678 -4.44806 
1138 1 0.666667 0.6 0.0591923 -4.37589 
1123 1 0.716667 0.45 0.0588252 -4.25205 
1139 1 0.7 0.6 0.000933451 -3.56428 
1140 1 0.716667 0.55 0.0588252 -4.25143 
1142 1 0.7 0.5 0.00100206 -3.55034 
1273 1 0.733333 0.5 0.117466 -4.42708 
1279 1 0.783333 0.45 0.11721 -4.44086 
1300 1 0.733333 0.6 0.117374 -4.42871 
1301 1 0.766667 0.6 0.0573088 -4.19042 
1302 1 0.783333 0.55 0.117172 -4.44186 
1304 1 0.766667 0.5 0.0574975 -4.17442 
1305 1 0.8 0.5 0.00111624 -3.54858 
1306 1 0.816667 0.45 0.059519 -4.3476 
1307 1 0.816667 0.55 0.0594962 -4.34779 
1310 1 0.85 0.45 4.8277e-05 -3.89054 
1324 1 0.8 0.6 0.000945325 -3.56114 
1325 1 0.85 0.55 4.78679e-05 -3.89069 
1466 1 0.833333 0.6 0.117874 -4.44638 
1469 1 0.833333 0.5 0.117907 -4.44491 
1470 1 0.866667 0.5 0.0588907 -4.41002 
1471 1 0.883333 0.45 0.117732 -4.45152 
1472 1 0.883333 0.55 0.11771 -4.45084 
1493 1 0.866667 0.6 0.0588844 -4.40969 
1476 1 0.916667 0.45 0.0589084 -4.40551 
1494 1 0.9 0.6 -3.7348e-05 -3.90262 
1495 1 0.916667 0.55 0.0589348 -4.40698 
1497 1 0.9 0.5 -3.91993e-05 -3.90226 
1498 1 0.95 0.45 9.70422e-05 -3.90343 
1499 1 0.95 0.55 2.22459e-05 -3.90354 
1628 1 0.933333 0.5 0.117679 -4.43433 
1634 1 0.983333 0.45 0.118646 -4.34234 
1649 1 0.933333 0.6 0.117726 -4.44936 
1650 1 0.966667 0.6 0.0589159 -4.40574 
1651 1 0.983333 0.55 0.117679 -4.43457 
1653 1 0.966667 0.5 0.0591574 -4.40815 
18 1 0 0.7 6.29922e-05 -3.90317 
19 1 0.0166667 0.65 0.058943 -4.4067 
20 1 0.0166667 0.75 0.0593153 -4.40063 
23 1 0.05 0.65 5.07111e-06 -3.90303 
27 1 0 0.8 4.48288e-05 -3.90168 
28 1 0.05 0.75 6.17827e-05 -3.90309 
88 1 0.0333333 0.8 0.118766 -4.35685 
91 1 0.0333333 0.7 0.117792 -4.42423 
92 1 0.0666667 0.7 0.0589409 -4.40691 
93 1 0.0833333 0.65 0.117793 -4.44997 
94 1 0.0833333 0.75 0.117701 -4.43455 
107 1 0.0666667 0.8 0.0591923 -4.40964 
98 1 0.116667 0.65 0.0589761 -4.40819 
108 1 0.1 0.8 3.14999e-05 -3.90378 
109 1 0.116667 0.75 0.0589455 -4.40706 
111 1 0.1 0.7 -7.93389e-06 -3.90321 
112 1 0.15 0.65 -1.88622e-06 -3.90363 
113 1 0.15 0.75 -6.7071e-06 -3.90345 
226 1 0.133333 0.7 0.117763 -4.44952 
232 1 0.183333 0.65 0.117764 -4.44942 
245 1 0.133333 0.8 0.117746 -4.44944 
246 1 0.166667 0.8 0.05897 -4.4081 
247 1 0.183333 0.75 0.117764 -4.44946 
249 1 0.166667 0.7 0.0589699 -4.40811 
250 1 0.2 0.7 -2.94927e-06 -3.90362 
251 1 0.216667 0.65 0.0589696 -4.40805 
252 1 0.216667 0.75 0.0589695 -4.40806 
255 1 0.25 0.65 -2.94572e-06 -3.90361 
261 1 0.2 0.8 -2.84286e-06 -3.90364 
262 1 0.25 0.75 -2.94672e-06 -3.9036 
415 1 0.233333 0.8 0.117764 -4.44946 
418 1 0.233333 0.7 0.117764 -4.44946 
419 1 0.266667 0.7 0.0589696 -4.40805 
420 1 0.283333 0.65 0.117764 -4.44945 
421 1 0.283333 0.75 0.117764 -4.44945 
434 1 0.266667 0.8 0.0589696 -4.40805 
425 1 0.316667 0.65 0.0589696 -4.40805 
435 1 0.3 0.8 -2.9471e-06 -3.90361 
436 1 0.316667 0.75 0.0589696 -4.40805 
438 1 0.3 0.7 -2.94708e-06 -3.90361 
439 1 0.35 0.65 -2.94709e-06 -3.90361 
440 1 0.35 0.75 -2.94708e-06 -3.90361 
586 1 0.333333 0.7 0.117764 -4.44945 
592 1 0.383333 0.65 0.117764 -4.44945 
605 1 0.333333 0.8 0.117764 -4.44945 
606 1 0.366667 0.8 0.0589696 -4.40805 
607 1 0.383333 0.75 0.117764 -4.44945 
609 1 0.366667 0.7 0.0589696 -4.40805 
610 1 0.4 0.7 -2.9471e-06 -3.90361 
611 1 0.416667 0.65 0.0589696 -4.40805 
612 1 0.416667 0.75 0.0589696 -4.40805 
615 1 0.45 0.65 -2.9465e-06 -3.90361 
621 1 0.4 0.8 -2.9471e-06 -3.90361 
622 1 0.45 0.75 -2.94674e-06 -3.90361 
775 1 0.433333 0.8 0.117764 -4.44945 
778 1 0.433333 0.7 0.117764 -4.44945 
779 1 0.466667 0.7 0.0589696 -4.40805 
780 1 0.483333 0.65 0.117764 -4.44945 
781 1 0.483333 0.75 0.117764 -4.44945 
794 1 0.466667 0.8 0.0589696 -4.40805 
785 1 0.516667 0.65 0.0589696 -4.40805 
795 1 0.5 0.8 -2.96335e-06 -3.90361 
796 1 0.516667 0.75 0.0589696 -4.40805 
798 1 0.5 0.7 -2.96335e-06 -3.90361 
799 1 0.55 0.65 -2.82461e-06 -3.90362 
800 1 0.55 0.75 -2.98273e-06 -3.90361 
946 1 0.533333 0.7 0.117764 -4.44945 
952 1 0.583333 0.65 0.117761 -4.44965 
965 1 0.533333 0.8 0.117764 -4.44945 
966 1 0.566667 0.8 0.0589684 -4.40811 
967 1 0.583333 0.75 0.117762 -4.44957 
969 1 0.566667 0.7 0.0589684 -4.40811 
970 1 0.6 0.7 -9.18759e-06 -3.90338 
971 1 0.616667 0.65 0.0589669 -4.40878 
972 1 0.616667 0.75 0.0589586 -4.4087 
975 1 0.65 0.65 8.63126e-05 -3.88941 
981 1 0.6 0.8 -9.18759e-06 -3.90338 
982 1 0.65 0.75 9.62156e-06 -3.9037 
1131 1 0.633333 0.8 0.117756 -4.44941 
1134 1 0.633333 0.7 0.117756 -4.44941 
1135 1 0.666667 0.7 0.0590091 -4.39279 
1136 1 0.683333 0.65 0.117594 -4.44989 
1137 1 0.683333 0.75 0.117795 -4.44843 
1148 1 0.666667 0.8 0.0590091 -4.39279 
1141 1 0.716667 0.65 0.0585373 -4.28081 
1149 1 0.7 0.8 0.000450821 -3.7237 
1150 1 0.716667 0.75 0.0592941 -4.35227 
1152 1 0.7 0.7 0.000450821 -3.7237 
1153 1 0.75 0.75 0.000933643 -3.57966 
1297 1 0.733333 0.7 0.117638 -4.43764 
1303 1 0.783333 0.65 0.117393 -4.43951 
1316 1 0.733333 0.8 0.117638 -4.43764 
1317 1 0.766667 0.8 0.0586549 -4.27717 
1318 1 0.783333 0.75 0.117468 -4.44946 
1320 1 0.766667 0.7 0.0586549 -4.27717 
1321 1 0.8 0.7 0.000661017 -3.72522 
1322 1 0.816667 0.65 0.0593282 -4.3643 
1323 1 0.816667 0.75 0.0592396 -4.37657 
1326 1 0.85 0.65 1.1168e-05 -3.88978 
1332 1 0.8 0.8 0.000661029 -3.72522 
1333 1 0.85 0.75 3.11547e-05 -3.90394 
1486 1 0.833333 0.8 0.117842 -4.44695 
1489 1 0.833333 0.7 0.117843 -4.44693 
1490 1 0.866667 0.7 0.0589286 -4.40957 
1491 1 0.883333 0.65 0.117724 -4.45052 
1492 1 0.883333 0.75 0.117762 -4.45082 
1505 1 0.866667 0.8 0.058934 -4.40964 
1496 1 0.916667 0.65 0.0589367 -4.40694 
1506 1 0.9 0.8 -1.24519e-05 -3.90254 
1507 1 0.916667 0.75 0.0589354 -4.4069 
1509 1 0.9 0.7 -2.27484e-05 -3.90282 
1510 1 0.95 0.65 2.72611e-05 -3.90373 
1511 1 0.95 0.75 6.1639e-05 -3.90318 
1646 1 0.933333 0.7 0.117699 -4.43457 
1652 1 0.983333 0.65 0.117682 -4.43443 
1659 1 0.933333 0.8 0.117792 -4.42426 
1660 1 0.966667 0.8 0.0593158 -4.40073 
1661 1 0.983333 0.75 0.118764 -4.35702 
1663 1 0.966667 0.7 0.0591897 -4.40943 
24 1 0 0.9 6.17505e-05 -3.90312 
25 1 0.0166667 0.85 0.0593164 -4.40075 
26 1 0.0166667 0.95 0.0589409 -4.40691 
29 1 0.05 0.85 6.17365e-05 -3.90311 
30 1 0.05 0.95 2.48778e-06 -3.90296 
103 1 0.0333333 0.9 0.117794 -4.42425 
104 1 0.0666667 0.9 0.0589421 -4.40702 
105 1 0.0833333 0.85 0.117698 -4.43462 
106 1 0.0833333 0.95 0.117794 -4.44997 
110 1 0.116667 0.85 0.0589452 -4.40703 
114 1 0.116667 0.95 0.0589766 -4.40824 
115 1 0.1 0.9 -7.98745e-06 -3.90322 
116 1 0.15 0.85 -6.7003e-06 -3.90345 
117 1 0.15 0.95 -1.89497e-06 -3.90365 
242 1 0.133333 0.9 0.117763 -4.44956 
248 1 0.183333 0.85 0.117764 -4.44945 
256 1 0.183333 0.95 0.117764 -4.44945 
257 1 0.166667 0.9 0.0589699 -4.40811 
258 1 0.2 0.9 -2.94839e-06 -3.90362 
259 1 0.216667 0.85 0.0589695 -4.40806 
260 1 0.216667 0.95 0.0589696 -4.40805 
263 1 0.25 0.85 -2.94676e-06 -3.9036 
264 1 0.25 0.95 -2.94505e-06 -3.90361 
430 1 0.233333 0.9 0.117764 -4.44945 
431 1 0.266667 0.9 0.0589696 -4.40805 
432 1 0.283333 0.85 0.117764 -4.44945 
433 1 0.283333 0.95 0.117764 -4.44945 
437 1 0.316667 0.85 0.0589696 -4.40805 
441 1 0.316667 0.95 0.0589696 -4.40805 
442 1 0.3 0.9 -2.94709e-06 -3.90361 
443 1 0.35 0.85 -2.94708e-06 -3.90361 
444 1 0.35 0.95 -2.94709e-06 -3.90361 
602 1 0.333333 0.9 0.117764 -4.44945 
608 1 0.383333 0.85 0.117764 -4.44945 
616 1 0.383333 0.95 0.117764 -4.44945 
617 1 0.366667 0.9 0.0589696 -4.40805 
618 1 0.4 0.9 -2.94711e-06 -3.90361 
619 1 0.416667 0.85 0.0589696 -4.40805 
620 1 0.416667 0.95 0.0589696 -4.40805 
623 1 0.45 0.85 -2.9465e-06 -3.90361 
624 1 0.45 0.95 -2.9463e-06 -3.90361 
790 1 0.433333 0.9 0.117764 -4.44945 
791 1 0.466667 0.9 0.0589696 -4.40805 
792 1 0.483333 0.85 0.117764 -4.44945 
793 1 0.483333 0.95 0.117764 -4.44945 
797 1 0.516667 0.85 0.0589696 -4.40805 
801 1 0.516667 0.95 0.0589696 -4.40805 
802 1 0.5 0.9 -2.97197e-06 -3.90361 
803 1 0.55 0.85 -2.82461e-06 -3.90362 
804 1 0.55 0.95 -2.74584e-06 -3.90361 
962 1 0.533333 0.9 0.117764 -4.44946 
968 1 0.583333 0.85 0.117761 -4.44965 
976 1 0.583333 0.95 0.11776 -4.44977 
977 1 0.566667 0.9 0.0589679 -4.40818 
978 1 0.6 0.9 -1.20374e-05 -3.90327 
979 1 0.616667 0.85 0.0589669 -4.40878 
980 1 0.616667 0.95 0.0589674 -4.4092 
983 1 0.65 0.85 8.63126e-05 -3.88941 
984 1 0.65 0.95 0.000122724 -3.89001 
1144 1 0.633333 0.9 0.11779 -4.44841 
1145 1 0.666667 0.9 0.0591923 -4.37589 
1146 1 0.683333 0.85 0.117594 -4.44989 
1147 1 0.683333 0.95 0.117678 -4.44806 
1151 1 0.716667 0.85 0.0585373 -4.28081 
1154 1 0.716667 0.95 0.0588252 -4.25143 
1155 1 0.7 0.9 0.000933451 -3.56428 
1313 1 0.733333 0.9 0.117374 -4.42871 
1319 1 0.783333 0.85 0.117393 -4.43951 
1327 1 0.783333 0.95 0.117172 -4.44186 
1328 1 0.766667 0.9 0.0573088 -4.19042 
1329 1 0.8 0.9 0.000945287 -3.56114 
1330 1 0.816667 0.85 0.0593282 -4.3643 
1331 1 0.816667 0.95 0.0594962 -4.3478 
1334 1 0.85 0.85 1.2528e-05 -3.88979 
1335 1 0.85 0.95 4.78278e-05 -3.89067 
1501 1 0.833333 0.9 0.117874 -4.44632 
1502 1 0.866667 0.9 0.0588903 -4.40973 
1503 1 0.883333 0.85 0.11775 -4.45098 
1504 1 0.883333 0.95 0.117708 -4.45079 
1508 1 0.916667 0.85 0.0589333 -4.40693 
1512 1 0.916667 0.95 0.0589342 -4.4069 
1513 1 0.9 0.9 -3.49453e-05 -3.90251 
1514 1 0.95 0.85 6.12088e-05 -3.90319 
1515 1 0.95 0.95 3.10433e-05 -3.90389 
1656 1 0.933333 0.9 0.117698 -4.43455 
1662 1 0.983333 0.85 0.118763 -4.35679 
1664 1 0.983333 0.95 0.117699 -4.43462 
1665 1 0.966667 0.9 0.0591916 -4.40965 
31 1 0 0.1 0.176642 -4.45149 
32 1 0.0166667 0.05 0.235665 -4.44195 
33 1 0.0166667 0.15 0.235728 -4.42686 
34 1 0 0 0.176608 -4.45116 
36 1 0.05 0.05 0.17662 -4.4502 
39 1 0 0.2 0.176616 -4.3541 
41 1 0.05 0.15 0.176695 -4.43768 
131 1 0.0666667 0.1 0.235541 -4.45101 
134 1 0.0666667 0 0.235297 -4.44944 
148 1 0.0666667 0.2 0.235351 -4.43419 
135 1 0.1 0 0.176543 -4.44938 
136 1 0.116667 0.05 0.235266 -4.44923 
149 1 0.1 0.2 0.176541 -4.45053 
150 1 0.116667 0.15 0.235268 -4.4494 
152 1 0.1 0.1 0.176576 -4.45003 
154 1 0.15 0.05 0.176542 -4.44953 
155 1 0.15 0.15 0.176541 -4.44946 
288 1 0.166667 0 0.235291 -4.4501 
304 1 0.166667 0.2 0.23529 -4.45003 
307 1 0.166667 0.1 0.235291 -4.45011 
308 1 0.2 0.1 0.176545 -4.44975 
309 1 0.216667 0.05 0.23529 -4.4501 
310 1 0.216667 0.15 0.23529 -4.4501 
311 1 0.2 0 0.176545 -4.44973 
313 1 0.25 0.05 0.176545 -4.44972 
335 1 0.2 0.2 0.176545 -4.44974 
337 1 0.25 0.15 0.176545 -4.44972 
475 1 0.266667 0.1 0.235291 -4.45009 
478 1 0.266667 0 0.235291 -4.45009 
498 1 0.266667 0.2 0.235291 -4.45009 
479 1 0.3 0 0.176545 -4.44972 
480 1 0.316667 0.05 0.235291 -4.45009 
499 1 0.3 0.2 0.176545 -4.44972 
500 1 0.316667 0.15 0.235291 -4.45009 
502 1 0.3 0.1 0.176545 -4.44972 
504 1 0.35 0.05 0.176545 -4.44972 
505 1 0.35 0.15 0.176545 -4.44972 
648 1 0.366667 0 0.235291 -4.45009 
664 1 0.366667 0.2 0.235291 -4.45009 
667 1 0.366667 0.1 0.235291 -4.45009 
668 1 0.4 0.1 0.176545 -4.44972 
669 1 0.416667 0.05 0.235291 -4.45009 
670 1 0.416667 0.15 0.235291 -4.45009 
671 1 0.4 0 0.176545 -4.44972 
673 1 0.45 0.05 0.176545 -4.44972 
695 1 0.4 0.2 0.176545 -4.44972 
697 1 0.45 0.15 0.176545 -4.44972 
835 1 0.466667 0.1 0.235291 -4.45009 
838 1 0.466667 0 0.235291 -4.45009 
858 1 0.466667 0.2 0.235291 -4.45009 
839 1 0.5 0 0.176545 -4.44972 
840 1 0.516667 0.05 0.23529 -4.45009 
859 1 0.5 0.2 0.176545 -4.44972 
860 1 0.516667 0.15 0.23529 -4.45009 
862 1 0.5 0.1 0.176545 -4.44972 
864 1 0.55 0.05 0.176544 -4.44975 
865 1 0.55 0.15 0.176544 -4.44976 
1008 1 0.566667 0 0.23529 -4.45004 
1024 1 0.566667 0.2 0.23529 -4.45004 
1027 1 0.566667 0.1 0.23529 -4.45004 
1028 1 0.6 0.1 0.176542 -4.44955 
1029 1 0.616667 0.05 0.235284 -4.45014 
1030 1 0.616667 0.15 0.235284 -4.45014 
1031 1 0.6 0 0.176542 -4.44957 
1033 1 0.65 0.05 0.176499 -4.44997 
1055 1 0.6 0.2 0.176542 -4.44955 
1057 1 0.65 0.15 0.176499 -4.44996 
1186 1 0.666667 0.1 0.235273 -4.45044 
1189 1 0.666667 0 0.235273 -4.45043 
1209 1 0.666667 0.2 0.235273 -4.45044 
1190 1 0.7 0 0.17642 -4.45049 
1191 1 0.716667 0.05 0.235298 -4.4503 
1210 1 0.7 0.2 0.176417 -4.45062 
1211 1 0.716667 0.15 0.235297 -4.45031 
1213 1 0.7 0.1 0.176417 -4.45063 
1215 1 0.75 0.05 0.17641 -4.45006 
1216 1 0.75 0.15 0.176409 -4.45013 
1359 1 0.766667 0 0.235319 -4.44975 
1375 1 0.766667 0.2 0.235318 -4.44973 
1378 1 0.766667 0.1 0.235318 -4.44972 
1379 1 0.8 0.1 0.17638 -4.45146 
1380 1 0.816667 0.05 0.235276 -4.45065 
1381 1 0.816667 0.15 0.235276 -4.45061 
1382 1 0.8 0 0.176375 -4.45163 
1384 1 0.85 0.05 0.17653 -4.44865 
1406 1 0.8 0.2 0.17638 -4.45149 
1408 1 0.85 0.15 0.17653 -4.4486 
1546 1 0.866667 0.1 0.235287 -4.45026 
1549 1 0.866667 0 0.235283 -4.4502 
1569 1 0.866667 0.2 0.235283 -4.45028 
1550 1 0.9 0 0.176518 -4.44948 
1551 1 0.916667 0.05 0.235265 -4.44911 
1570 1 0.9 0.2 0.176521 -4.45089 
1571 1 0.916667 0.15 0.23524 -4.44979 
1573 1 0.9 0.1 0.176527 -4.44953 
1575 1 0.95 0.05 0.176608 -4.44988 
1576 1 0.95 0.15 0.176534 -4.43759 
1689 1 0.966667 0 0.235473 -4.45069 
1705 1 0.966667 0.2 0.235468 -4.42651 
1708 1 0.966667 0.1 0.23563 -4.44192 
37 1 0.0166667 0.25 0.234394 -4.34194 
38 1 0.0166667 0.35 0.232621 -4.26491 
42 1 0.05 0.25 0.176633 -4.33896 
54 1 0.05 0.35 0.176426 -4.24084 
145 1 0.0666667 0.3 0.235333 -4.41043 
169 1 0.0666667 0.4 0.235333 -4.41044 
151 1 0.116667 0.25 0.235273 -4.45095 
170 1 0.1 0.4 0.176468 -4.43887 
171 1 0.116667 0.35 0.235238 -4.4513 
173 1 0.1 0.3 0.176468 -4.43887 
175 1 0.15 0.25 0.176544 -4.4496 
176 1 0.15 0.35 0.17654 -4.44955 
328 1 0.166667 0.4 0.23529 -4.4499 
331 1 0.166667 0.3 0.23529 -4.44989 
332 1 0.2 0.3 0.176544 -4.44975 
333 1 0.216667 0.25 0.23529 -4.4501 
334 1 0.216667 0.35 0.23529 -4.45011 
338 1 0.25 0.25 0.176545 -4.44972 
366 1 0.2 0.4 0.176544 -4.44975 
368 1 0.25 0.35 0.176545 -4.44972 
495 1 0.266667 0.3 0.235291 -4.45009 
526 1 0.266667 0.4 0.235291 -4.45009 
501 1 0.316667 0.25 0.235291 -4.45009 
527 1 0.3 0.4 0.176545 -4.44972 
528 1 0.316667 0.35 0.235291 -4.45009 
530 1 0.3 0.3 0.176545 -4.44972 
532 1 0.35 0.25 0.176545 -4.44972 
533 1 0.35 0.35 0.176545 -4.44972 
688 1 0.366667 0.4 0.235291 -4.45009 
691 1 0.366667 0.3 0.235291 -4.45009 
692 1 0.4 0.3 0.176545 -4.44972 
693 1 0.416667 0.25 0.235291 -4.45009 
694 1 0.416667 0.35 0.235291 -4.45009 
698 1 0.45 0.25 0.176545 -4.44972 
726 1 0.4 0.4 0.176545 -4.44972 
728 1 0.45 0.35 0.176545 -4.44972 
855 1 0.466667 0.3 0.235291 -4.45009 
886 1 0.466667 0.4 0.235291 -4.45009 
861 1 0.516667 0.25 0.23529 -4.45009 
887 1 0.5 0.4 0.176545 -4.44972 
888 1 0.516667 0.35 0.23529 -4.45009 
890 1 0.5 0.3 0.176545 -4.44972 
892 1 0.55 0.25 0.176544 -4.44976 
893 1 0.55 0.35 0.176544 -4.44976 
1048 1 0.566667 0.4 0.23529 -4.45004 
1051 1 0.566667 0.3 0.23529 -4.45004 
1052 1 0.6 0.3 0.176542 -4.44955 
1053 1 0.616667 0.25 0.235284 -4.45014 
1054 1 0.616667 0.35 0.235284 -4.45014 
1058 1 0.65 0.25 0.176499 -4.44996 
1086 1 0.6 0.4 0.176542 -4.44955 
1088 1 0.65 0.35 0.176499 -4.44996 
1206 1 0.666667 0.3 0.235273 -4.45044 
1237 1 0.666667 0.4 0.235273 -4.45044 
1212 1 0.716667 0.25 0.235297 -4.45031 
1238 1 0.7 0.4 0.176417 -4.45063 
1239 1 0.716667 0.35 0.235297 -4.45031 
1241 1 0.7 0.3 0.176417 -4.45062 
1243 1 0.75 0.25 0.176409 -4.45012 
1244 1 0.75 0.35 0.176409 -4.45013 
1399 1 0.766667 0.4 0.235318 -4.44972 
1402 1 0.766667 0.3 0.235318 -4.44973 
1403 1 0.8 0.3 0.17638 -4.45152 
1404 1 0.816667 0.25 0.235276 -4.45064 
1405 1 0.816667 0.35 0.235276 -4.45069 
1409 1 0.85 0.25 0.17653 -4.4485 
1437 1 0.8 0.4 0.17638 -4.4515 
1439 1 0.85 0.35 0.176532 -4.44849 
1566 1 0.866667 0.3 0.235296 -4.45029 
1597 1 0.866667 0.4 0.235296 -4.45029 
1572 1 0.916667 0.25 0.235305 -4.435 
1598 1 0.9 0.4 0.176606 -4.43903 
1599 1 0.916667 0.35 0.235417 -4.42001 