ITEM: TIMESTEP
13
ITEM: NUMBER OF ATOMS
3584
ITEM: BOX BOUNDS pp pp ss
0.0000000000000000e+00 4.3111019472983898e+01
0.0000000000000000e+00 2.4890158697766498e+01
-3.6580800000000006e-03 3.4552298188307212e+01
ITEM: ATOMS id type xs ys zs c_peratom 
1 1 0 0.1 1.15448e-05 -3.90483 
2 1 0.0166667 0.05 0.0588626 -4.40754 
3 1 0.0166667 0.15 0.0588819 -4.40678 
4 1 0 0 3.59906e-06 -3.90468 
5 1 0.05 0.05 -1.31966e-05 -3.90503 
9 1 0 0.2 0.000160038 -3.9044 
10 1 0.05 0.15 -7.36203e-06 -3.90454 
35 1 0.0333333 0 0.117438 -4.44977 
40 1 0.0333333 0.2 0.117492 -4.42463 
43 1 0.0333333 0.1 0.117483 -4.44926 
44 1 0.0666667 0.1 0.0588343 -4.40708 
45 1 0.0833333 0.05 0.117311 -4.44848 
46 1 0.0833333 0.15 0.117366 -4.44934 
47 1 0.0666667 0 0.0587718 -4.40667 
60 1 0.0666667 0.2 0.0587848 -4.40629 
48 1 0.1 0 -5.81679e-05 -3.90503 
49 1 0.116667 0.05 0.0587182 -4.4064 
61 1 0.1 0.2 -8.94451e-05 -3.90464 
62 1 0.116667 0.15 0.058687 -4.40669 
64 1 0.1 0.1 -8.84295e-05 -3.90509 
65 1 0.15 0.05 -0.000172224 -3.90493 
66 1 0.15 0.15 -0.000172707 -3.90483 
153 1 0.133333 0.1 0.117235 -4.44873 
156 1 0.133333 0 0.117234 -4.44863 
157 1 0.166667 0 0.058622 -4.4066 
158 1 0.183333 0.05 0.117176 -4.44887 
177 1 0.133333 0.2 0.11722 -4.44883 
178 1 0.166667 0.2 0.0586064 -4.40661 
179 1 0.183333 0.15 0.117172 -4.44882 
181 1 0.166667 0.1 0.0586102 -4.40659 
182 1 0.2 0.1 -0.000236935 -3.9048 
183 1 0.216667 0.05 0.0585672 -4.40664 
184 1 0.216667 0.15 0.0585702 -4.40663 
185 1 0.2 0 -0.000240088 -3.90479 
186 1 0.25 0.05 -0.000258597 -3.90485 
213 1 0.2 0.2 -0.000240315 -3.90482 
214 1 0.25 0.15 -0.000260781 -3.90486 
312 1 0.233333 0 0.117144 -4.44886 
336 1 0.233333 0.2 0.117143 -4.44889 
339 1 0.233333 0.1 0.117145 -4.44887 
340 1 0.266667 0.1 0.0585567 -4.40661 
341 1 0.283333 0.05 0.117139 -4.44885 
342 1 0.283333 0.15 0.117139 -4.44885 
343 1 0.266667 0 0.0585552 -4.40661 
374 1 0.266667 0.2 0.0585531 -4.40662 
344 1 0.3 0 -0.000261977 -3.9049 
345 1 0.316667 0.05 0.0585556 -4.40662 
375 1 0.3 0.2 -0.000262906 -3.9049 
376 1 0.316667 0.15 0.0585555 -4.40662 
378 1 0.3 0.1 -0.000261771 -3.9049 
379 1 0.35 0.05 -0.000261679 -3.90492 
380 1 0.35 0.15 -0.000261737 -3.90492 
503 1 0.333333 0.1 0.117139 -4.44885 
506 1 0.333333 0 0.11714 -4.44885 
507 1 0.366667 0 0.058556 -4.40663 
508 1 0.383333 0.05 0.11714 -4.44885 
534 1 0.333333 0.2 0.11714 -4.44885 
535 1 0.366667 0.2 0.0585561 -4.40663 
536 1 0.383333 0.15 0.11714 -4.44885 
538 1 0.366667 0.1 0.0585561 -4.40662 
539 1 0.4 0.1 -0.000261748 -3.90491 
540 1 0.416667 0.05 0.0585555 -4.40664 
541 1 0.416667 0.15 0.0585555 -4.40663 
542 1 0.4 0 -0.00026174 -3.90491 
543 1 0.45 0.05 -0.000261812 -3.90486 
573 1 0.4 0.2 -0.000261765 -3.90491 
574 1 0.45 0.15 -0.00026185 -3.90485 
672 1 0.433333 0 0.11714 -4.44886 
696 1 0.433333 0.2 0.11714 -4.44886 
699 1 0.433333 0.1 0.11714 -4.44886 
700 1 0.466667 0.1 0.0585593 -4.40665 
701 1 0.483333 0.05 0.117148 -4.44885 
702 1 0.483333 0.15 0.117148 -4.44885 
703 1 0.466667 0 0.0585595 -4.40665 
734 1 0.466667 0.2 0.0585592 -4.40665 
704 1 0.5 0 -0.000247328 -3.90487 
705 1 0.516667 0.05 0.0585884 -4.40659 
735 1 0.5 0.2 -0.000246988 -3.90485 
736 1 0.516667 0.15 0.058589 -4.4066 
738 1 0.5 0.1 -0.000246814 -3.90486 
739 1 0.55 0.05 -0.000188564 -3.90501 
740 1 0.55 0.15 -0.000185051 -3.90501 
863 1 0.533333 0.1 0.117184 -4.44886 
866 1 0.533333 0 0.117179 -4.44886 
867 1 0.566667 0 0.0586174 -4.40669 
868 1 0.583333 0.05 0.117208 -4.44899 
894 1 0.533333 0.2 0.117184 -4.44887 
895 1 0.566667 0.2 0.0586337 -4.40671 
896 1 0.583333 0.15 0.11722 -4.44896 
898 1 0.566667 0.1 0.05863 -4.4067 
899 1 0.6 0.1 -0.000174705 -3.90472 
900 1 0.616667 0.05 0.0586409 -4.4075 
901 1 0.616667 0.15 0.0586532 -4.40749 
902 1 0.6 0 -0.000193077 -3.90465 
903 1 0.65 0.05 -6.6574e-05 -3.89118 
933 1 0.6 0.2 -0.000166283 -3.90474 
934 1 0.65 0.15 -5.26633e-05 -3.89122 
1032 1 0.633333 0 0.117219 -4.44813 
1056 1 0.633333 0.2 0.117235 -4.44809 
1059 1 0.633333 0.1 0.117219 -4.44813 
1060 1 0.666667 0.1 0.0588095 -4.3743 
1061 1 0.683333 0.05 0.117151 -4.44891 
1062 1 0.683333 0.15 0.117146 -4.44892 
1063 1 0.666667 0 0.05881 -4.37433 
1094 1 0.666667 0.2 0.0588231 -4.37428 
1064 1 0.7 0 0.000730396 -3.55064 
1065 1 0.716667 0.05 0.0583519 -4.25174 
1095 1 0.7 0.2 0.000740556 -3.55048 
1096 1 0.716667 0.15 0.0583487 -4.25169 
1098 1 0.7 0.1 0.000725228 -3.5504 
1214 1 0.733333 0.1 0.117001 -4.4263 
1217 1 0.733333 0 0.117003 -4.42607 
1218 1 0.766667 0 0.0572821 -4.17788 
1219 1 0.783333 0.05 0.116773 -4.44028 
1245 1 0.733333 0.2 0.117015 -4.42633 
1246 1 0.766667 0.2 0.0572684 -4.17804 
1247 1 0.783333 0.15 0.116769 -4.44045 
1249 1 0.766667 0.1 0.0572469 -4.17807 
1250 1 0.8 0.1 0.000617559 -3.54793 
1251 1 0.816667 0.05 0.0589111 -4.34633 
1252 1 0.816667 0.15 0.05892 -4.3464 
1253 1 0.8 0 0.000637217 -3.54841 
1254 1 0.85 0.05 -0.000130952 -3.89162 
1284 1 0.8 0.2 0.000646953 -3.5481 
1285 1 0.85 0.15 -0.000101598 -3.89171 
1383 1 0.833333 0 0.117222 -4.44596 
1407 1 0.833333 0.2 0.117257 -4.44598 
1410 1 0.833333 0.1 0.11722 -4.44603 
1411 1 0.866667 0.1 0.0586011 -4.40781 
1412 1 0.883333 0.05 0.117208 -4.4496 
1413 1 0.883333 0.15 0.117234 -4.44973 
1414 1 0.866667 0 0.058602 -4.40765 
1445 1 0.866667 0.2 0.0586593 -4.4079 
1415 1 0.9 0 -0.000161947 -3.90403 
1416 1 0.916667 0.05 0.0587097 -4.40668 
1446 1 0.9 0.2 -9.13339e-05 -3.90399 
1447 1 0.916667 0.15 0.0587464 -4.40568 
1449 1 0.9 0.1 -0.000137106 -3.90404 
1450 1 0.95 0.05 4.59055e-06 -3.90488 
1451 1 0.95 0.15 9.6743e-05 -3.90535 
1574 1 0.933333 0.1 0.117375 -4.44894 
1577 1 0.933333 0 0.117316 -4.44873 
1578 1 0.966667 0 0.0588494 -4.40593 
1579 1 0.983333 0.05 0.11749 -4.4491 
1605 1 0.933333 0.2 0.117328 -4.43362 
1606 1 0.966667 0.2 0.0591025 -4.4069 
1607 1 0.983333 0.15 0.117472 -4.43409 
1609 1 0.966667 0.1 0.0588852 -4.40641 
6 1 0 0.3 0.000506427 -3.9036 
7 1 0.0166667 0.25 0.0591217 -4.39654 
8 1 0.0166667 0.35 0.0595371 -4.38823 
11 1 0.05 0.25 0.000139328 -3.90425 
15 1 0 0.4 0.000506287 -3.90359 
16 1 0.05 0.35 0.000362792 -3.9053 
53 1 0.0333333 0.4 0.118243 -4.33169 
56 1 0.0333333 0.3 0.118247 -4.33163 
57 1 0.0666667 0.3 0.0590107 -4.40608 
58 1 0.0833333 0.25 0.117308 -4.43451 
59 1 0.0833333 0.35 0.117177 -4.41834 
78 1 0.0666667 0.4 0.0589978 -4.40606 
63 1 0.116667 0.25 0.0587001 -4.40602 
79 1 0.1 0.4 -3.46425e-05 -3.90499 
80 1 0.116667 0.35 0.058688 -4.40475 
82 1 0.1 0.3 -3.65635e-05 -3.90513 
83 1 0.15 0.25 -0.000191093 -3.90474 
84 1 0.15 0.35 -0.000194922 -3.90458 
174 1 0.133333 0.3 0.117213 -4.44908 
180 1 0.183333 0.25 0.117163 -4.44877 
205 1 0.133333 0.4 0.11721 -4.44907 
206 1 0.166667 0.4 0.0586014 -4.40676 
207 1 0.183333 0.35 0.11716 -4.44886 
209 1 0.166667 0.3 0.058596 -4.40675 
210 1 0.2 0.3 -0.000248767 -3.90475 
211 1 0.216667 0.25 0.058562 -4.40665 
212 1 0.216667 0.35 0.0585506 -4.40664 
215 1 0.25 0.25 -0.00026537 -3.90485 
237 1 0.2 0.4 -0.000248774 -3.90479 
238 1 0.25 0.35 -0.000266626 -3.90484 
367 1 0.233333 0.4 0.117135 -4.44886 
370 1 0.233333 0.3 0.117135 -4.44886 
371 1 0.266667 0.3 0.0585526 -4.40661 
372 1 0.283333 0.25 0.117135 -4.44886 
373 1 0.283333 0.35 0.117135 -4.44888 
402 1 0.266667 0.4 0.0585523 -4.40661 
377 1 0.316667 0.25 0.0585547 -4.40662 
403 1 0.3 0.4 -0.000264405 -3.90491 
404 1 0.316667 0.35 0.0585539 -4.40663 
406 1 0.3 0.3 -0.000264345 -3.90491 
407 1 0.35 0.25 -0.000261739 -3.90492 
408 1 0.35 0.35 -0.000261774 -3.90492 
531 1 0.333333 0.3 0.11714 -4.44884 
537 1 0.383333 0.25 0.11714 -4.44886 
565 1 0.333333 0.4 0.11714 -4.44884 
566 1 0.366667 0.4 0.0585561 -4.40663 
567 1 0.383333 0.35 0.11714 -4.44886 
569 1 0.366667 0.3 0.0585561 -4.40663 
570 1 0.4 0.3 -0.000261782 -3.90491 
571 1 0.416667 0.25 0.0585555 -4.40663 
572 1 0.416667 0.35 0.0585555 -4.40663 
575 1 0.45 0.25 -0.000261881 -3.90485 
597 1 0.4 0.4 -0.000261779 -3.90491 
598 1 0.45 0.35 -0.000261848 -3.90485 
727 1 0.433333 0.4 0.11714 -4.44886 
730 1 0.433333 0.3 0.11714 -4.44886 
731 1 0.466667 0.3 0.0585592 -4.40665 
732 1 0.483333 0.25 0.117148 -4.44885 
733 1 0.483333 0.35 0.117148 -4.44885 
762 1 0.466667 0.4 0.0585593 -4.40665 
737 1 0.516667 0.25 0.0585885 -4.4066 
763 1 0.5 0.4 -0.000246815 -3.90486 
764 1 0.516667 0.35 0.058589 -4.4066 
766 1 0.5 0.3 -0.000246988 -3.90485 
767 1 0.55 0.25 -0.000185522 -3.905 
768 1 0.55 0.35 -0.000185053 -3.90501 
891 1 0.533333 0.3 0.117184 -4.44887 
897 1 0.583333 0.25 0.117221 -4.449 
925 1 0.533333 0.4 0.117184 -4.44886 
926 1 0.566667 0.4 0.05863 -4.4067 
927 1 0.583333 0.35 0.11722 -4.44896 
929 1 0.566667 0.3 0.0586337 -4.40671 
930 1 0.6 0.3 -0.0001663 -3.90474 
931 1 0.616667 0.25 0.0586597 -4.40752 
932 1 0.616667 0.35 0.0586532 -4.40749 
935 1 0.65 0.25 -4.42567e-05 -3.89126 
957 1 0.6 0.4 -0.000174743 -3.90472 
958 1 0.65 0.35 -5.26801e-05 -3.89122 
1087 1 0.633333 0.4 0.117219 -4.44813 
1090 1 0.633333 0.3 0.117235 -4.44809 
1091 1 0.666667 0.3 0.0588229 -4.37428 
1092 1 0.683333 0.25 0.117159 -4.4489 
1093 1 0.683333 0.35 0.117147 -4.44894 
1120 1 0.666667 0.4 0.0588091 -4.3743 
1097 1 0.716667 0.25 0.0583633 -4.25176 
1121 1 0.7 0.4 0.000725564 -3.5504 
1122 1 0.716667 0.35 0.0583517 -4.25172 
1124 1 0.7 0.3 0.00074073 -3.55048 
1242 1 0.733333 0.3 0.117016 -4.42635 
1248 1 0.783333 0.25 0.11679 -4.44036 
1276 1 0.733333 0.4 0.117004 -4.42633 
1277 1 0.766667 0.4 0.0572528 -4.17805 
1278 1 0.783333 0.35 0.116784 -4.44038 
1280 1 0.766667 0.3 0.0572705 -4.17803 
1281 1 0.8 0.3 0.000660973 -3.54812 
1282 1 0.816667 0.25 0.0589558 -4.3464 
1283 1 0.816667 0.35 0.0589612 -4.3464 
1286 1 0.85 0.25 -4.08772e-05 -3.89192 
1308 1 0.8 0.4 0.000643765 -3.54794 
1309 1 0.85 0.35 -2.72722e-05 -3.8919 
1438 1 0.833333 0.4 0.117268 -4.44595 
1441 1 0.833333 0.3 0.117279 -4.44597 
1442 1 0.866667 0.3 0.0586887 -4.40819 
1443 1 0.883333 0.25 0.117296 -4.4501 
1444 1 0.883333 0.35 0.117325 -4.45065 
1473 1 0.866667 0.4 0.058676 -4.40823 
1448 1 0.916667 0.25 0.0588019 -4.40452 
1474 1 0.9 0.4 -9.82539e-05 -3.90347 
1475 1 0.916667 0.35 0.0588123 -4.40509 
1477 1 0.9 0.3 -8.43312e-05 -3.90359 
1478 1 0.95 0.25 0.000301507 -3.90563 
1479 1 0.95 0.35 0.0004021 -3.90467 
1602 1 0.933333 0.3 0.117431 -4.40856 
1608 1 0.983333 0.25 0.11833 -4.34333 
1631 1 0.933333 0.4 0.117421 -4.40871 
1632 1 0.966667 0.4 0.0595153 -4.39941 
1633 1 0.983333 0.35 0.119899 -4.26776 
1635 1 0.966667 0.3 0.0595224 -4.39949 
12 1 0 0.5 0.000200975 -3.90453 
13 1 0.0166667 0.45 0.0591327 -4.39635 
14 1 0.0166667 0.55 0.0589163 -4.40672 
17 1 0.05 0.45 0.000150608 -3.9043 
21 1 0 0.6 6.45742e-05 -3.90457 
22 1 0.05 0.55 5.09804e-05 -3.90473 
71 1 0.0333333 0.6 0.11757 -4.44997 
74 1 0.0333333 0.5 0.117493 -4.42444 
75 1 0.0666667 0.5 0.0588254 -4.40607 
76 1 0.0833333 0.45 0.117314 -4.43463 
77 1 0.0833333 0.55 0.117363 -4.44892 
95 1 0.0666667 0.6 0.0588725 -4.40736 
81 1 0.116667 0.45 0.0586855 -4.40603 
96 1 0.1 0.6 -3.37646e-05 -3.90524 
97 1 0.116667 0.55 0.0587368 -4.40653 
99 1 0.1 0.5 -7.23543e-05 -3.90477 
100 1 0.15 0.45 -0.000189309 -3.90463 
101 1 0.15 0.55 -0.000161124 -3.90492 
202 1 0.133333 0.5 0.117231 -4.4489 
208 1 0.183333 0.45 0.11716 -4.44875 
229 1 0.133333 0.6 0.117239 -4.44839 
230 1 0.166667 0.6 0.0586356 -4.40652 
231 1 0.183333 0.55 0.117174 -4.44883 
233 1 0.166667 0.5 0.0585961 -4.40663 
234 1 0.2 0.5 -0.000240091 -3.90476 
235 1 0.216667 0.45 0.0585635 -4.40665 
236 1 0.216667 0.55 0.0585659 -4.40663 
239 1 0.25 0.45 -0.000265464 -3.90487 
253 1 0.2 0.6 -0.000235401 -3.9048 
254 1 0.25 0.55 -0.000261401 -3.90485 
395 1 0.233333 0.6 0.11714 -4.44885 
398 1 0.233333 0.5 0.117141 -4.4489 
399 1 0.266667 0.5 0.0585529 -4.40662 
400 1 0.283333 0.45 0.117135 -4.44886 
401 1 0.283333 0.55 0.117138 -4.44885 
422 1 0.266667 0.6 0.0585547 -4.4066 
405 1 0.316667 0.45 0.0585546 -4.40662 
423 1 0.3 0.6 -0.00026221 -3.90491 
424 1 0.316667 0.55 0.0585551 -4.40662 
426 1 0.3 0.5 -0.000263031 -3.9049 
427 1 0.35 0.45 -0.000261771 -3.90492 
428 1 0.35 0.55 -0.000261807 -3.90492 
562 1 0.333333 0.5 0.117139 -4.44885 
568 1 0.383333 0.45 0.11714 -4.44886 
589 1 0.333333 0.6 0.117139 -4.44885 
590 1 0.366667 0.6 0.058556 -4.40662 
591 1 0.383333 0.55 0.11714 -4.44886 
593 1 0.366667 0.5 0.058556 -4.40663 
594 1 0.4 0.5 -0.000261757 -3.90491 
595 1 0.416667 0.45 0.0585555 -4.40664 
596 1 0.416667 0.55 0.0585555 -4.40664 
599 1 0.45 0.45 -0.000261812 -3.90486 
613 1 0.4 0.6 -0.000261749 -3.90491 
614 1 0.45 0.55 -0.000261907 -3.90487 
755 1 0.433333 0.6 0.11714 -4.44886 
758 1 0.433333 0.5 0.11714 -4.44886 
759 1 0.466667 0.5 0.0585595 -4.40665 
760 1 0.483333 0.45 0.117148 -4.44885 
761 1 0.483333 0.55 0.117146 -4.44885 
782 1 0.466667 0.6 0.0585586 -4.40664 
765 1 0.516667 0.45 0.0585884 -4.40659 
783 1 0.5 0.6 -0.000250796 -3.90487 
784 1 0.516667 0.55 0.0585819 -4.40659 
786 1 0.5 0.5 -0.000247329 -3.90487 
787 1 0.55 0.45 -0.000188568 -3.90501 
788 1 0.55 0.55 -0.000202457 -3.90497 
922 1 0.533333 0.5 0.117179 -4.44886 
928 1 0.583333 0.45 0.117208 -4.44899 
949 1 0.533333 0.6 0.117169 -4.44887 
950 1 0.566667 0.6 0.0586081 -4.40673 
951 1 0.583333 0.55 0.117196 -4.44901 
953 1 0.566667 0.5 0.0586174 -4.40669 
954 1 0.6 0.5 -0.000193112 -3.90465 
955 1 0.616667 0.45 0.0586408 -4.4075 
956 1 0.616667 0.55 0.0586341 -4.40754 
959 1 0.65 0.45 -6.66263e-05 -3.89117 
973 1 0.6 0.6 -0.000199488 -3.90473 
974 1 0.65 0.55 -5.67484e-05 -3.89147 
1113 1 0.633333 0.6 0.117222 -4.44783 
1116 1 0.633333 0.5 0.117219 -4.44813 
1117 1 0.666667 0.5 0.0588096 -4.37433 
1118 1 0.683333 0.45 0.117151 -4.44892 
1119 1 0.683333 0.55 0.11714 -4.44851 
1138 1 0.666667 0.6 0.0588173 -4.37436 
1123 1 0.716667 0.45 0.0583543 -4.25176 
1139 1 0.7 0.6 0.000650848 -3.56476 
1140 1 0.716667 0.55 0.0583325 -4.25135 
1142 1 0.7 0.5 0.000730508 -3.55063 
1273 1 0.733333 0.5 0.117004 -4.42609 
1279 1 0.783333 0.45 0.116784 -4.44025 
1300 1 0.733333 0.6 0.116975 -4.42768 
1301 1 0.766667 0.6 0.05713 -4.19404 
1302 1 0.783333 0.55 0.11677 -4.44119 
1304 1 0.766667 0.5 0.0572851 -4.17788 
1305 1 0.8 0.5 0.000649836 -3.54832 
1306 1 0.816667 0.45 0.0589447 -4.34633 
1307 1 0.816667 0.55 0.0589139 -4.34656 
1310 1 0.85 0.45 -5.63695e-05 -3.89184 
1324 1 0.8 0.6 0.000504855 -3.56143 
1325 1 0.85 0.55 -4.40617e-05 -3.89196 
1466 1 0.833333 0.6 0.117238 -4.44678 
1469 1 0.833333 0.5 0.117252 -4.44587 
1470 1 0.866667 0.5 0.0586681 -4.40777 
1471 1 0.883333 0.45 0.117285 -4.45012 
1472 1 0.883333 0.55 0.117264 -4.44958 
1493 1 0.866667 0.6 0.0586592 -4.4074 
1476 1 0.916667 0.45 0.0587823 -4.40443 
1494 1 0.9 0.6 -6.6317e-05 -3.90422 
1495 1 0.916667 0.55 0.058771 -4.40554 
1497 1 0.9 0.5 -9.13514e-05 -3.90394 
1498 1 0.95 0.45 0.000308368 -3.90556 
1499 1 0.95 0.55 0.000129595 -3.90524 
1628 1 0.933333 0.5 0.117315 -4.43371 
1634 1 0.983333 0.45 0.118327 -4.34346 
1649 1 0.933333 0.6 0.117396 -4.449 
1650 1 0.966667 0.6 0.0589188 -4.40526 
1651 1 0.983333 0.55 0.117483 -4.43432 
1653 1 0.966667 0.5 0.0591069 -4.40662 
18 1 0 0.7 0.000197385 -3.90478 
19 1 0.0166667 0.65 0.0589149 -4.40659 
20 1 0.0166667 0.75 0.0591827 -4.39809 
23 1 0.05 0.65 3.72287e-05 -3.90446 
27 1 0 0.8 0.000281917 -3.90378 
28 1 0.05 0.75 0.000182467 -3.90481 
88 1 0.0333333 0.8 0.118368 -4.35809 
91 1 0.0333333 0.7 0.11753 -4.42414 
92 1 0.0666667 0.7 0.0588159 -4.40566 
93 1 0.0833333 0.65 0.117401 -4.44922 
94 1 0.0833333 0.75 0.117324 -4.43411 
107 1 0.0666667 0.8 0.0590526 -4.40778 
98 1 0.116667 0.65 0.0587408 -4.40653 
108 1 0.1 0.8 7.55107e-06 -3.90547 
109 1 0.116667 0.75 0.0587223 -4.40554 
111 1 0.1 0.7 -3.21983e-05 -3.90472 
112 1 0.15 0.65 -0.000136881 -3.90501 
113 1 0.15 0.75 -0.000147176 -3.90479 
226 1 0.133333 0.7 0.117258 -4.44888 
232 1 0.183333 0.65 0.117186 -4.44882 
245 1 0.133333 0.8 0.117244 -4.44872 
246 1 0.166667 0.8 0.0586329 -4.40666 
247 1 0.183333 0.75 0.117184 -4.44877 
249 1 0.166667 0.7 0.0586338 -4.4066 
250 1 0.2 0.7 -0.000227577 -3.9048 
251 1 0.216667 0.65 0.0585706 -4.40665 
252 1 0.216667 0.75 0.0585719 -4.40665 
255 1 0.25 0.65 -0.000261561 -3.90482 
261 1 0.2 0.8 -0.0002317 -3.9048 
262 1 0.25 0.75 -0.000262096 -3.90482 
415 1 0.233333 0.8 0.117142 -4.44886 
418 1 0.233333 0.7 0.117147 -4.4489 
419 1 0.266667 0.7 0.0585525 -4.40662 
420 1 0.283333 0.65 0.117136 -4.44884 
421 1 0.283333 0.75 0.117134 -4.44884 
434 1 0.266667 0.8 0.0585539 -4.4066 
425 1 0.316667 0.65 0.058555 -4.40662 
435 1 0.3 0.8 -0.000263961 -3.9049 
436 1 0.316667 0.75 0.0585542 -4.40661 
438 1 0.3 0.7 -0.000263544 -3.90489 
439 1 0.35 0.65 -0.000261837 -3.90492 
440 1 0.35 0.75 -0.00026187 -3.90492 
586 1 0.333333 0.7 0.117139 -4.44885 
592 1 0.383333 0.65 0.11714 -4.44885 
605 1 0.333333 0.8 0.117139 -4.44884 
606 1 0.366667 0.8 0.058556 -4.40663 
607 1 0.383333 0.75 0.11714 -4.44886 
609 1 0.366667 0.7 0.0585559 -4.40663 
610 1 0.4 0.7 -0.000261775 -3.90491 
611 1 0.416667 0.65 0.0585555 -4.40663 
612 1 0.416667 0.75 0.0585556 -4.40663 
615 1 0.45 0.65 -0.000262111 -3.90488 
621 1 0.4 0.8 -0.000261779 -3.90492 
622 1 0.45 0.75 -0.000262217 -3.90488 
775 1 0.433333 0.8 0.11714 -4.44886 
778 1 0.433333 0.7 0.11714 -4.44886 
779 1 0.466667 0.7 0.0585565 -4.40664 
780 1 0.483333 0.65 0.117144 -4.44885 
781 1 0.483333 0.75 0.117142 -4.44885 
794 1 0.466667 0.8 0.0585565 -4.40664 
785 1 0.516667 0.65 0.0585746 -4.4066 
795 1 0.5 0.8 -0.000255788 -3.90486 
796 1 0.516667 0.75 0.0585728 -4.40661 
798 1 0.5 0.7 -0.000255788 -3.90486 
799 1 0.55 0.65 -0.00021606 -3.90493 
800 1 0.55 0.75 -0.000219778 -3.90492 
946 1 0.533333 0.7 0.117163 -4.44887 
952 1 0.583333 0.65 0.117194 -4.44894 
965 1 0.533333 0.8 0.117163 -4.44887 
966 1 0.566667 0.8 0.0586018 -4.40667 
967 1 0.583333 0.75 0.117193 -4.44887 
969 1 0.566667 0.7 0.0586018 -4.40667 
970 1 0.6 0.7 -0.000195192 -3.90481 
971 1 0.616667 0.65 0.0586287 -4.40719 
972 1 0.616667 0.75 0.0586204 -4.40715 
975 1 0.65 0.65 -9.35894e-05 -3.89091 
981 1 0.6 0.8 -0.000195187 -3.90481 
982 1 0.65 0.75 -0.000172075 -3.90533 
1131 1 0.633333 0.8 0.117192 -4.44864 
1134 1 0.633333 0.7 0.117192 -4.44864 
1135 1 0.666667 0.7 0.0586734 -4.39095 
1136 1 0.683333 0.65 0.117097 -4.44995 
1137 1 0.683333 0.75 0.117217 -4.44853 
1148 1 0.666667 0.8 0.0586734 -4.39095 
1141 1 0.716667 0.65 0.0581589 -4.28088 
1149 1 0.7 0.8 0.000254331 -3.72492 
1150 1 0.716667 0.75 0.0588032 -4.35055 
1152 1 0.7 0.7 0.00025421 -3.72492 
1153 1 0.75 0.75 0.000590975 -3.57974 
1297 1 0.733333 0.7 0.117138 -4.43757 
1303 1 0.783333 0.65 0.116955 -4.43912 
1316 1 0.733333 0.8 0.117139 -4.43758 
1317 1 0.766667 0.8 0.0582364 -4.27762 
1318 1 0.783333 0.75 0.117011 -4.44997 
1320 1 0.766667 0.7 0.0582366 -4.27763 
1321 1 0.8 0.7 0.000427259 -3.726 
1322 1 0.816667 0.65 0.0588565 -4.36274 
1323 1 0.816667 0.75 0.0588995 -4.37479 
1326 1 0.85 0.65 -8.79329e-05 -3.89116 
1332 1 0.8 0.8 0.000431356 -3.72604 
1333 1 0.85 0.75 -0.000122401 -3.90545 
1486 1 0.833333 0.8 0.117254 -4.44669 
1489 1 0.833333 0.7 0.117254 -4.44668 
1490 1 0.866667 0.7 0.0586687 -4.40753 
1491 1 0.883333 0.65 0.117264 -4.44955 
1492 1 0.883333 0.75 0.117295 -4.44981 
1505 1 0.866667 0.8 0.058669 -4.40776 
1496 1 0.916667 0.65 0.0587892 -4.40557 
1506 1 0.9 0.8 -4.58647e-05 -3.90416 
1507 1 0.916667 0.75 0.0588054 -4.40555 
1509 1 0.9 0.7 -3.85707e-05 -3.90438 
1510 1 0.95 0.65 0.000114559 -3.90537 
1511 1 0.95 0.75 0.000196605 -3.905 
1646 1 0.933333 0.7 0.117385 -4.43396 
1652 1 0.983333 0.65 0.1175 -4.43425 
1659 1 0.933333 0.8 0.11745 -4.42359 
1660 1 0.966667 0.8 0.059189 -4.39803 
1661 1 0.983333 0.75 0.118444 -4.35839 
1663 1 0.966667 0.7 0.0591268 -4.40838 
24 1 0 0.9 0.000173716 -3.90486 
25 1 0.0166667 0.85 0.0591685 -4.39796 
26 1 0.0166667 0.95 0.0588273 -4.40586 
29 1 0.05 0.85 0.000161646 -3.90501 
30 1 0.05 0.95 5.27597e-06 -3.90439 
103 1 0.0333333 0.9 0.117456 -4.42382 
104 1 0.0666667 0.9 0.0588056 -4.40564 
105 1 0.0833333 0.85 0.117296 -4.4337 
106 1 0.0833333 0.95 0.117355 -4.44941 
110 1 0.116667 0.85 0.0587364 -4.40566 
114 1 0.116667 0.95 0.0586982 -4.4066 
115 1 0.1 0.9 -6.74651e-05 -3.90481 
116 1 0.15 0.85 -0.000161822 -3.90481 
117 1 0.15 0.95 -0.000161258 -3.90489 
242 1 0.133333 0.9 0.117245 -4.44889 
248 1 0.183333 0.85 0.117181 -4.44882 
256 1 0.183333 0.95 0.11718 -4.44885 
257 1 0.166667 0.9 0.0586197 -4.40667 
258 1 0.2 0.9 -0.000236132 -3.90476 
259 1 0.216667 0.85 0.0585652 -4.40664 
260 1 0.216667 0.95 0.0585684 -4.40667 
263 1 0.25 0.85 -0.000262338 -3.90482 
264 1 0.25 0.95 -0.000262502 -3.90484 
430 1 0.233333 0.9 0.117142 -4.44888 
431 1 0.266667 0.9 0.0585534 -4.40661 
432 1 0.283333 0.85 0.117136 -4.44885 
433 1 0.283333 0.95 0.117136 -4.44884 
437 1 0.316667 0.85 0.0585543 -4.40662 
441 1 0.316667 0.95 0.0585556 -4.40662 
442 1 0.3 0.9 -0.000262984 -3.9049 
443 1 0.35 0.85 -0.000261836 -3.90492 
444 1 0.35 0.95 -0.000261677 -3.90492 
602 1 0.333333 0.9 0.117139 -4.44885 
608 1 0.383333 0.85 0.11714 -4.44886 
616 1 0.383333 0.95 0.11714 -4.44886 
617 1 0.366667 0.9 0.058556 -4.40663 
618 1 0.4 0.9 -0.000261754 -3.90491 
619 1 0.416667 0.85 0.0585555 -4.40663 
620 1 0.416667 0.95 0.0585555 -4.40663 
623 1 0.45 0.85 -0.00026211 -3.90488 
624 1 0.45 0.95 -0.000261905 -3.90487 
790 1 0.433333 0.9 0.11714 -4.44886 
791 1 0.466667 0.9 0.0585586 -4.40664 
792 1 0.483333 0.85 0.117144 -4.44885 
793 1 0.483333 0.95 0.117146 -4.44885 
797 1 0.516667 0.85 0.0585746 -4.4066 
801 1 0.516667 0.95 0.0585819 -4.40659 
802 1 0.5 0.9 -0.000250795 -3.90487 
803 1 0.55 0.85 -0.000216058 -3.90493 
804 1 0.55 0.95 -0.000202453 -3.90497 
962 1 0.533333 0.9 0.117169 -4.44887 
968 1 0.583333 0.85 0.117194 -4.44894 
976 1 0.583333 0.95 0.117196 -4.44901 
977 1 0.566667 0.9 0.0586081 -4.40673 
978 1 0.6 0.9 -0.000199469 -3.90473 
979 1 0.616667 0.85 0.0586288 -4.40719 
980 1 0.616667 0.95 0.0586341 -4.40754 
983 1 0.65 0.85 -9.35203e-05 -3.89091 
984 1 0.65 0.95 -5.66657e-05 -3.89147 
1144 1 0.633333 0.9 0.117223 -4.44783 
1145 1 0.666667 0.9 0.0588174 -4.37436 
1146 1 0.683333 0.85 0.117097 -4.44996 
1147 1 0.683333 0.95 0.11714 -4.44852 
1151 1 0.716667 0.85 0.0581602 -4.28089 
1154 1 0.716667 0.95 0.0583325 -4.25135 
1155 1 0.7 0.9 0.000650981 -3.56477 
1313 1 0.733333 0.9 0.116977 -4.42767 
1319 1 0.783333 0.85 0.116958 -4.4391 
1327 1 0.783333 0.95 0.11677 -4.44118 
1328 1 0.766667 0.9 0.0571317 -4.19402 
1329 1 0.8 0.9 0.000509296 -3.56155 
1330 1 0.816667 0.85 0.0588607 -4.36272 
1331 1 0.816667 0.95 0.0589043 -4.34651 
1334 1 0.85 0.85 -9.66338e-05 -3.89116 
1335 1 0.85 0.95 -7.8905e-05 -3.89188 
1501 1 0.833333 0.9 0.117235 -4.44677 
1502 1 0.866667 0.9 0.0586374 -4.4076 
1503 1 0.883333 0.85 0.117292 -4.45001 
1504 1 0.883333 0.95 0.117228 -4.44974 
1508 1 0.916667 0.85 0.0587754 -4.40558 
1512 1 0.916667 0.95 0.0587175 -4.40554 
1513 1 0.9 0.9 -0.000118662 -3.90415 
1514 1 0.95 0.85 0.000171914 -3.90504 
1515 1 0.95 0.95 6.41129e-05 -3.90548 
1656 1 0.933333 0.9 0.117296 -4.43389 
1662 1 0.983333 0.85 0.118391 -4.35811 
1664 1 0.983333 0.95 0.117401 -4.43403 
1665 1 0.966667 0.9 0.0590739 -4.40787 
31 1 0 0.1 0.176175 -4.44951 
32 1 0.0166667 0.05 0.234831 -4.44083 
33 1 0.0166667 0.15 0.234867 -4.42598 
34 1 0 0 0.176115 -4.45077 
36 1 0.05 0.05 0.176034 -4.4499 
39 1 0 0.2 0.176091 -4.35292 
41 1 0.05 0.15 0.176126 -4.43699 
131 1 0.0666667 0.1 0.234734 -4.45071 
134 1 0.0666667 0 0.234591 -4.44936 
148 1 0.0666667 0.2 0.234638 -4.43406 
135 1 0.1 0 0.175878 -4.44983 
136 1 0.116667 0.05 0.234469 -4.44933 
149 1 0.1 0.2 0.175913 -4.4508 
150 1 0.116667 0.15 0.234467 -4.44931 
152 1 0.1 0.1 0.175922 -4.45025 
154 1 0.15 0.05 0.175825 -4.44974 
155 1 0.15 0.15 0.175796 -4.44961 
288 1 0.166667 0 0.234445 -4.45019 
304 1 0.166667 0.2 0.234422 -4.45017 
307 1 0.166667 0.1 0.234435 -4.45021 
308 1 0.2 0.1 0.175782 -4.44991 
309 1 0.216667 0.05 0.234426 -4.45012 
310 1 0.216667 0.15 0.234426 -4.45015 
311 1 0.2 0 0.175785 -4.44991 
313 1 0.25 0.05 0.175767 -4.44992 
335 1 0.2 0.2 0.17578 -4.44987 
337 1 0.25 0.15 0.175766 -4.44993 
475 1 0.266667 0.1 0.234419 -4.45014 
478 1 0.266667 0 0.234415 -4.45013 
498 1 0.266667 0.2 0.234416 -4.45013 
479 1 0.3 0 0.175765 -4.44989 
480 1 0.316667 0.05 0.234419 -4.45012 
499 1 0.3 0.2 0.175764 -4.4499 
500 1 0.316667 0.15 0.234419 -4.45013 
502 1 0.3 0.1 0.175765 -4.44989 
504 1 0.35 0.05 0.175767 -4.44989 
505 1 0.35 0.15 0.175767 -4.44989 
648 1 0.366667 0 0.234421 -4.45013 
664 1 0.366667 0.2 0.234421 -4.45013 
667 1 0.366667 0.1 0.234421 -4.45013 
668 1 0.4 0.1 0.175767 -4.4499 
669 1 0.416667 0.05 0.234421 -4.45014 
670 1 0.416667 0.15 0.234421 -4.45014 
671 1 0.4 0 0.175767 -4.4499 
673 1 0.45 0.05 0.175768 -4.44992 
695 1 0.4 0.2 0.175767 -4.4499 
697 1 0.45 0.15 0.175768 -4.44992 
835 1 0.466667 0.1 0.234424 -4.45013 
838 1 0.466667 0 0.234424 -4.45013 
858 1 0.466667 0.2 0.234424 -4.45013 
839 1 0.5 0 0.175782 -4.44988 
840 1 0.516667 0.05 0.234438 -4.45011 
859 1 0.5 0.2 0.175782 -4.44989 
860 1 0.516667 0.15 0.234439 -4.45011 
862 1 0.5 0.1 0.175783 -4.44988 
864 1 0.55 0.05 0.17581 -4.44987 
865 1 0.55 0.15 0.175817 -4.44985 
1008 1 0.566667 0 0.234459 -4.45011 
1024 1 0.566667 0.2 0.234469 -4.45012 
1027 1 0.566667 0.1 0.234466 -4.45014 
1028 1 0.6 0.1 0.175819 -4.44984 
1029 1 0.616667 0.05 0.234466 -4.44995 
1030 1 0.616667 0.15 0.234475 -4.45004 
1031 1 0.6 0 0.175819 -4.4498 
1033 1 0.65 0.05 0.17582 -4.4501 
1055 1 0.6 0.2 0.175833 -4.4498 
1057 1 0.65 0.15 0.175812 -4.45018 
1186 1 0.666667 0.1 0.234433 -4.45001 
1189 1 0.666667 0 0.23443 -4.4502 
1209 1 0.666667 0.2 0.234444 -4.45007 
1190 1 0.7 0 0.17571 -4.44961 
1191 1 0.716667 0.05 0.234391 -4.45086 
1210 1 0.7 0.2 0.175732 -4.44971 
1211 1 0.716667 0.15 0.234394 -4.45077 
1213 1 0.7 0.1 0.175727 -4.44968 
1215 1 0.75 0.05 0.175579 -4.44824 
1216 1 0.75 0.15 0.175582 -4.44828 
1359 1 0.766667 0 0.234315 -4.45036 
1375 1 0.766667 0.2 0.234323 -4.45044 
1378 1 0.766667 0.1 0.234314 -4.4504 
1379 1 0.8 0.1 0.175629 -4.4504 
1380 1 0.816667 0.05 0.234354 -4.45029 
1381 1 0.816667 0.15 0.234357 -4.45022 
1382 1 0.8 0 0.175629 -4.45053 
1384 1 0.85 0.05 0.175783 -4.44951 
1406 1 0.8 0.2 0.175635 -4.45037 
1408 1 0.85 0.15 0.175808 -4.44953 
1546 1 0.866667 0.1 0.234465 -4.45036 
1549 1 0.866667 0 0.234453 -4.45026 
1569 1 0.866667 0.2 0.2345 -4.45005 
1550 1 0.9 0 0.175843 -4.44972 
1551 1 0.916667 0.05 0.23449 -4.44912 
1570 1 0.9 0.2 0.17589 -4.45099 
1571 1 0.916667 0.15 0.23449 -4.44942 
1573 1 0.9 0.1 0.175865 -4.44968 
1575 1 0.95 0.05 0.176026 -4.44952 
1576 1 0.95 0.15 0.176024 -4.43661 
1689 1 0.966667 0 0.234741 -4.45025 
1705 1 0.966667 0.2 0.234682 -4.42642 
1708 1 0.966667 0.1 0.234805 -4.44084 
37 1 0.0166667 0.25 0.233763 -4.34384 
38 1 0.0166667 0.35 0.232063 -4.26879 
42 1 0.05 0.25 0.176013 -4.33933 
54 1 0.05 0.35 0.175703 -4.24205 
145 1 0.0666667 0.3 0.234505 -4.41036 
169 1 0.0666667 0.4 0.234496 -4.41038 
151 1 0.116667 0.25 0.234481 -4.45049 
170 1 0.1 0.4 0.175852 -4.43879 
171 1 0.116667 0.35 0.234476 -4.45066 
173 1 0.1 0.3 0.175868 -4.43893 
175 1 0.15 0.25 0.175795 -4.44983 
176 1 0.15 0.35 0.175824 -4.44999 
328 1 0.166667 0.4 0.23442 -4.45006 
331 1 0.166667 0.3 0.234422 -4.45001 
332 1 0.2 0.3 0.175748 -4.44983 
333 1 0.216667 0.25 0.234411 -4.45018 
334 1 0.216667 0.35 0.234394 -4.45017 
338 1 0.25 0.25 0.175764 -4.44991 
366 1 0.2 0.4 0.175749 -4.44986 
368 1 0.25 0.35 0.175766 -4.44987 
495 1 0.266667 0.3 0.234415 -4.45011 
526 1 0.266667 0.4 0.234414 -4.45011 
501 1 0.316667 0.25 0.234419 -4.45014 
527 1 0.3 0.4 0.175762 -4.44993 
528 1 0.316667 0.35 0.234419 -4.45015 
530 1 0.3 0.3 0.175762 -4.44993 
532 1 0.35 0.25 0.175767 -4.44989 
533 1 0.35 0.35 0.175767 -4.44989 
688 1 0.366667 0.4 0.234421 -4.45013 
691 1 0.366667 0.3 0.234421 -4.45013 
692 1 0.4 0.3 0.175767 -4.4499 
693 1 0.416667 0.25 0.234421 -4.45014 
694 1 0.416667 0.35 0.234421 -4.45014 
698 1 0.45 0.25 0.175768 -4.44992 
726 1 0.4 0.4 0.175767 -4.4499 
728 1 0.45 0.35 0.175768 -4.44992 
855 1 0.466667 0.3 0.234424 -4.45013 
886 1 0.466667 0.4 0.234424 -4.45013 
861 1 0.516667 0.25 0.234438 -4.45011 
887 1 0.5 0.4 0.175783 -4.44988 
888 1 0.516667 0.35 0.234439 -4.45011 
890 1 0.5 0.3 0.175782 -4.44989 
892 1 0.55 0.25 0.175815 -4.44987 
893 1 0.55 0.35 0.175816 -4.44985 
1048 1 0.566667 0.4 0.234466 -4.45013 
1051 1 0.566667 0.3 0.234469 -4.45012 
1052 1 0.6 0.3 0.175833 -4.4498 
1053 1 0.616667 0.25 0.234479 -4.45001 
1054 1 0.616667 0.35 0.234475 -4.45004 
1058 1 0.65 0.25 0.175826 -4.45013 
1086 1 0.6 0.4 0.175819 -4.44985 
1088 1 0.65 0.35 0.175811 -4.45018 
1206 1 0.666667 0.3 0.234444 -4.45007 
1237 1 0.666667 0.4 0.234432 -4.45001 
1212 1 0.716667 0.25 0.234403 -4.45077 
1238 1 0.7 0.4 0.175729 -4.44968 
1239 1 0.716667 0.35 0.234394 -4.45078 
1241 1 0.7 0.3 0.175734 -4.44972 
1243 1 0.75 0.25 0.175597 -4.44828 
1244 1 0.75 0.35 0.175583 -4.44828 
1399 1 0.766667 0.4 0.234314 -4.45039 
1402 1 0.766667 0.3 0.234323 -4.45042 
1403 1 0.8 0.3 0.175646 -4.45037 
1404 1 0.816667 0.25 0.234374 -4.45024 
1405 1 0.816667 0.35 0.23437 -4.45032 
1409 1 0.85 0.25 0.175853 -4.44941 
1437 1 0.8 0.4 0.175637 -4.45035 
1439 1 0.85 0.35 0.175848 -4.4494 
1566 1 0.866667 0.3 0.234526 -4.45006 
1597 1 0.866667 0.4 0.234516 -4.45012 
1572 1 0.916667 0.25 0.234525 -4.43444 
1598 1 0.9 0.4 0.175986 -4.43866 