ITEM: TIMESTEP
12
ITEM: NUMBER OF ATOMS
3584
ITEM: BOX BOUNDS pp pp ss
0.0000000000000000e+00 4.3111019472983898e+01
0.0000000000000000e+00 2.4890158697766498e+01
-3.6580800000000006e-03 3.4552298188307212e+01
ITEM: ATOMS id type xs ys zs c_peratom 
1 1 0 0.1 9.38619e-05 -3.9047 
2 1 0.0166667 0.05 0.0590524 -4.40798 
3 1 0.0166667 0.15 0.0591135 -4.40753 
4 1 0 0 0.000112743 -3.90474 
5 1 0.05 0.05 0.000109786 -3.90491 
9 1 0 0.2 0.000274172 -3.90445 
10 1 0.05 0.15 9.44342e-05 -3.90459 
35 1 0.0333333 0 0.117553 -4.44902 
40 1 0.0333333 0.2 0.117655 -4.42389 
43 1 0.0333333 0.1 0.11765 -4.44847 
44 1 0.0666667 0.1 0.05902 -4.40784 
45 1 0.0833333 0.05 0.117497 -4.44824 
46 1 0.0833333 0.15 0.117504 -4.44878 
47 1 0.0666667 0 0.0589596 -4.40681 
60 1 0.0666667 0.2 0.0589955 -4.40661 
48 1 0.1 0 4.05101e-05 -3.90488 
49 1 0.116667 0.05 0.05891 -4.40734 
61 1 0.1 0.2 2.53043e-05 -3.9046 
62 1 0.116667 0.15 0.0588799 -4.40721 
64 1 0.1 0.1 -1.39622e-05 -3.90489 
65 1 0.15 0.05 -0.000111703 -3.90472 
66 1 0.15 0.15 -8.98312e-05 -3.90471 
153 1 0.133333 0.1 0.117385 -4.44835 
156 1 0.133333 0 0.117393 -4.44848 
157 1 0.166667 0 0.0588026 -4.40729 
158 1 0.183333 0.05 0.117329 -4.44856 
177 1 0.133333 0.2 0.117367 -4.44865 
178 1 0.166667 0.2 0.0587976 -4.40719 
179 1 0.183333 0.15 0.117334 -4.44856 
181 1 0.166667 0.1 0.058801 -4.40731 
182 1 0.2 0.1 -0.000150957 -3.90465 
183 1 0.216667 0.05 0.0587632 -4.40726 
184 1 0.216667 0.15 0.0587622 -4.40727 
185 1 0.2 0 -0.000155826 -3.90463 
186 1 0.25 0.05 -0.00016458 -3.90473 
213 1 0.2 0.2 -0.000156537 -3.90467 
214 1 0.25 0.15 -0.000166505 -3.90473 
312 1 0.233333 0 0.117306 -4.44856 
336 1 0.233333 0.2 0.117304 -4.44857 
339 1 0.233333 0.1 0.117309 -4.44856 
340 1 0.266667 0.1 0.0587569 -4.40725 
341 1 0.283333 0.05 0.117306 -4.44854 
342 1 0.283333 0.15 0.117305 -4.44854 
343 1 0.266667 0 0.0587558 -4.40725 
374 1 0.266667 0.2 0.0587539 -4.40724 
344 1 0.3 0 -0.000166159 -3.90477 
345 1 0.316667 0.05 0.0587564 -4.40726 
375 1 0.3 0.2 -0.000166677 -3.90477 
376 1 0.316667 0.15 0.0587563 -4.40726 
378 1 0.3 0.1 -0.00016638 -3.90477 
379 1 0.35 0.05 -0.000166097 -3.90478 
380 1 0.35 0.15 -0.000166127 -3.90478 
503 1 0.333333 0.1 0.117306 -4.44854 
506 1 0.333333 0 0.117306 -4.44854 
507 1 0.366667 0 0.0587567 -4.40726 
508 1 0.383333 0.05 0.117306 -4.44855 
534 1 0.333333 0.2 0.117306 -4.44854 
535 1 0.366667 0.2 0.0587567 -4.40726 
536 1 0.383333 0.15 0.117306 -4.44855 
538 1 0.366667 0.1 0.0587567 -4.40726 
539 1 0.4 0.1 -0.000166097 -3.90478 
540 1 0.416667 0.05 0.0587563 -4.40726 
541 1 0.416667 0.15 0.0587563 -4.40726 
542 1 0.4 0 -0.000166085 -3.90478 
543 1 0.45 0.05 -0.000167026 -3.90474 
573 1 0.4 0.2 -0.000166099 -3.90478 
574 1 0.45 0.15 -0.000167043 -3.90474 
672 1 0.433333 0 0.117306 -4.44855 
696 1 0.433333 0.2 0.117306 -4.44855 
699 1 0.433333 0.1 0.117306 -4.44855 
700 1 0.466667 0.1 0.0587574 -4.40728 
701 1 0.483333 0.05 0.117309 -4.44857 
702 1 0.483333 0.15 0.117309 -4.44857 
703 1 0.466667 0 0.0587575 -4.40728 
734 1 0.466667 0.2 0.0587573 -4.40728 
704 1 0.5 0 -0.000159863 -3.90467 
705 1 0.516667 0.05 0.0587732 -4.40729 
735 1 0.5 0.2 -0.000160159 -3.90465 
736 1 0.516667 0.15 0.058773 -4.40729 
738 1 0.5 0.1 -0.000159988 -3.90466 
739 1 0.55 0.05 -0.000110626 -3.90483 
740 1 0.55 0.15 -0.000109753 -3.90481 
863 1 0.533333 0.1 0.11734 -4.44851 
866 1 0.533333 0 0.117337 -4.44851 
867 1 0.566667 0 0.0588262 -4.40725 
868 1 0.583333 0.05 0.117376 -4.44869 
894 1 0.533333 0.2 0.117339 -4.44851 
895 1 0.566667 0.2 0.0588346 -4.40728 
896 1 0.583333 0.15 0.117386 -4.44867 
898 1 0.566667 0.1 0.0588346 -4.40726 
899 1 0.6 0.1 -4.46007e-05 -3.90477 
900 1 0.616667 0.05 0.0588575 -4.40806 
901 1 0.616667 0.15 0.0588732 -4.40803 
902 1 0.6 0 -6.23519e-05 -3.90469 
903 1 0.65 0.05 1.37237e-05 -3.89102 
933 1 0.6 0.2 -4.14825e-05 -3.90476 
934 1 0.65 0.15 3.45924e-05 -3.8911 
1032 1 0.633333 0 0.117397 -4.44776 
1056 1 0.633333 0.2 0.117415 -4.44777 
1059 1 0.633333 0.1 0.1174 -4.44781 
1060 1 0.666667 0.1 0.0589974 -4.37522 
1061 1 0.683333 0.05 0.117305 -4.44874 
1062 1 0.683333 0.15 0.117309 -4.44878 
1063 1 0.666667 0 0.0589936 -4.37524 
1094 1 0.666667 0.2 0.0590143 -4.3752 
1064 1 0.7 0 0.000795211 -3.54979 
1065 1 0.716667 0.05 0.0585016 -4.25229 
1095 1 0.7 0.2 0.00081274 -3.54969 
1096 1 0.716667 0.15 0.0585105 -4.25234 
1098 1 0.7 0.1 0.000794542 -3.5496 
1214 1 0.733333 0.1 0.117201 -4.42684 
1217 1 0.733333 0 0.117195 -4.4267 
1218 1 0.766667 0 0.0574751 -4.17813 
1219 1 0.783333 0.05 0.116937 -4.44019 
1245 1 0.733333 0.2 0.117219 -4.42688 
1246 1 0.766667 0.2 0.0574868 -4.17835 
1247 1 0.783333 0.15 0.116946 -4.44027 
1249 1 0.766667 0.1 0.0574608 -4.17829 
1250 1 0.8 0.1 0.000699821 -3.54764 
1251 1 0.816667 0.05 0.0590636 -4.34744 
1252 1 0.816667 0.15 0.0590845 -4.34748 
1253 1 0.8 0 0.000707534 -3.54791 
1254 1 0.85 0.05 -0.000141007 -3.89094 
1284 1 0.8 0.2 0.000723127 -3.54776 
1285 1 0.85 0.15 -9.74602e-05 -3.89108 
1383 1 0.833333 0 0.117367 -4.44585 
1407 1 0.833333 0.2 0.117395 -4.44582 
1410 1 0.833333 0.1 0.117367 -4.44588 
1411 1 0.866667 0.1 0.058741 -4.40837 
1412 1 0.883333 0.05 0.117327 -4.44948 
1413 1 0.883333 0.15 0.117372 -4.44961 
1414 1 0.866667 0 0.0587355 -4.40827 
1445 1 0.866667 0.2 0.0588044 -4.40841 
1415 1 0.9 0 -2.9386e-05 -3.90408 
1416 1 0.916667 0.05 0.0589258 -4.40695 
1446 1 0.9 0.2 7.14138e-05 -3.9042 
1447 1 0.916667 0.15 0.0589726 -4.40604 
1449 1 0.9 0.1 5.74189e-06 -3.90416 
1450 1 0.95 0.05 8.69977e-05 -3.90482 
1451 1 0.95 0.15 0.000196737 -3.90531 
1574 1 0.933333 0.1 0.117532 -4.44855 
1577 1 0.933333 0 0.117502 -4.44828 
1578 1 0.966667 0 0.0590483 -4.40681 
1579 1 0.983333 0.05 0.117624 -4.44847 
1605 1 0.933333 0.2 0.117546 -4.43325 
1606 1 0.966667 0.2 0.0592896 -4.40767 
1607 1 0.983333 0.15 0.117639 -4.43346 
1609 1 0.966667 0.1 0.0590799 -4.40721 
6 1 0 0.3 0.000467612 -3.90247 
7 1 0.0166667 0.25 0.0592952 -4.39723 
8 1 0.0166667 0.35 0.0595906 -4.38974 
11 1 0.05 0.25 0.000252952 -3.90421 
15 1 0 0.4 0.000465143 -3.90246 
16 1 0.05 0.35 0.000345069 -3.9045 
53 1 0.0333333 0.4 0.118445 -4.33202 
56 1 0.0333333 0.3 0.118454 -4.33204 
57 1 0.0666667 0.3 0.0591907 -4.40735 
58 1 0.0833333 0.25 0.11747 -4.43414 
59 1 0.0833333 0.35 0.117395 -4.41815 
78 1 0.0666667 0.4 0.0591858 -4.40731 
63 1 0.116667 0.25 0.0588666 -4.40643 
79 1 0.1 0.4 4.5729e-05 -3.90483 
80 1 0.116667 0.35 0.0588733 -4.40576 
82 1 0.1 0.3 3.82386e-05 -3.90489 
83 1 0.15 0.25 -0.000105722 -3.90457 
84 1 0.15 0.35 -0.000124289 -3.90444 
174 1 0.133333 0.3 0.117359 -4.44868 
180 1 0.183333 0.25 0.117317 -4.44852 
205 1 0.133333 0.4 0.117364 -4.44876 
206 1 0.166667 0.4 0.05879 -4.40731 
207 1 0.183333 0.35 0.117295 -4.44851 
209 1 0.166667 0.3 0.0587883 -4.40729 
210 1 0.2 0.3 -0.000164915 -3.90465 
211 1 0.216667 0.25 0.0587552 -4.40729 
212 1 0.216667 0.35 0.0587492 -4.40727 
215 1 0.25 0.25 -0.000170581 -3.90471 
237 1 0.2 0.4 -0.000165472 -3.90466 
238 1 0.25 0.35 -0.000171684 -3.9047 
367 1 0.233333 0.4 0.117304 -4.44853 
370 1 0.233333 0.3 0.117305 -4.44854 
371 1 0.266667 0.3 0.0587519 -4.40727 
372 1 0.283333 0.25 0.117303 -4.44855 
373 1 0.283333 0.35 0.117301 -4.44858 
402 1 0.266667 0.4 0.0587517 -4.40727 
377 1 0.316667 0.25 0.0587563 -4.40725 
403 1 0.3 0.4 -0.000167623 -3.90478 
404 1 0.316667 0.35 0.0587561 -4.40725 
406 1 0.3 0.3 -0.000167604 -3.90478 
407 1 0.35 0.25 -0.000166157 -3.90478 
408 1 0.35 0.35 -0.000166159 -3.90478 
531 1 0.333333 0.3 0.117306 -4.44854 
537 1 0.383333 0.25 0.117306 -4.44855 
565 1 0.333333 0.4 0.117306 -4.44854 
566 1 0.366667 0.4 0.0587566 -4.40726 
567 1 0.383333 0.35 0.117306 -4.44855 
569 1 0.366667 0.3 0.0587566 -4.40726 
570 1 0.4 0.3 -0.000166103 -3.90478 
571 1 0.416667 0.25 0.0587563 -4.40726 
572 1 0.416667 0.35 0.0587563 -4.40726 
575 1 0.45 0.25 -0.000167059 -3.90474 
597 1 0.4 0.4 -0.000166101 -3.90478 
598 1 0.45 0.35 -0.000167043 -3.90474 
727 1 0.433333 0.4 0.117306 -4.44855 
730 1 0.433333 0.3 0.117306 -4.44855 
731 1 0.466667 0.3 0.0587573 -4.40728 
732 1 0.483333 0.25 0.117309 -4.44857 
733 1 0.483333 0.35 0.117309 -4.44857 
762 1 0.466667 0.4 0.0587574 -4.40728 
737 1 0.516667 0.25 0.0587728 -4.40729 
763 1 0.5 0.4 -0.000159988 -3.90466 
764 1 0.516667 0.35 0.058773 -4.40729 
766 1 0.5 0.3 -0.00016016 -3.90465 
767 1 0.55 0.25 -0.000110315 -3.90479 
768 1 0.55 0.35 -0.000109754 -3.90481 
891 1 0.533333 0.3 0.117339 -4.44851 
897 1 0.583333 0.25 0.117384 -4.44869 
925 1 0.533333 0.4 0.11734 -4.44851 
926 1 0.566667 0.4 0.0588346 -4.40726 
927 1 0.583333 0.35 0.117386 -4.44867 
929 1 0.566667 0.3 0.0588346 -4.40728 
930 1 0.6 0.3 -4.14893e-05 -3.90476 
931 1 0.616667 0.25 0.0588737 -4.40808 
932 1 0.616667 0.35 0.0588732 -4.40803 
935 1 0.65 0.25 3.81031e-05 -3.89111 
957 1 0.6 0.4 -4.46146e-05 -3.90478 
958 1 0.65 0.35 3.46278e-05 -3.8911 
1087 1 0.633333 0.4 0.1174 -4.44781 
1090 1 0.633333 0.3 0.117415 -4.44778 
1091 1 0.666667 0.3 0.0590142 -4.37519 
1092 1 0.683333 0.25 0.117319 -4.44876 
1093 1 0.683333 0.35 0.117309 -4.44879 
1120 1 0.666667 0.4 0.0589973 -4.37521 
1097 1 0.716667 0.25 0.0585206 -4.25238 
1121 1 0.7 0.4 0.000794306 -3.54958 
1122 1 0.716667 0.35 0.0585117 -4.25238 
1124 1 0.7 0.3 0.000812594 -3.54968 
1242 1 0.733333 0.3 0.117223 -4.4269 
1248 1 0.783333 0.25 0.116964 -4.4402 
1276 1 0.733333 0.4 0.117206 -4.42686 
1277 1 0.766667 0.4 0.0574704 -4.17837 
1278 1 0.783333 0.35 0.116954 -4.44017 
1280 1 0.766667 0.3 0.0574921 -4.1784 
1281 1 0.8 0.3 0.000730004 -3.54775 
1282 1 0.816667 0.25 0.0591155 -4.34748 
1283 1 0.816667 0.35 0.0591222 -4.34747 
1286 1 0.85 0.25 -2.84869e-05 -3.89129 
1308 1 0.8 0.4 0.000713756 -3.5476 
1309 1 0.85 0.35 -1.81686e-06 -3.89133 
1438 1 0.833333 0.4 0.117403 -4.44591 
1441 1 0.833333 0.3 0.11742 -4.44587 
1442 1 0.866667 0.3 0.0588471 -4.40847 
1443 1 0.883333 0.25 0.117452 -4.44983 
1444 1 0.883333 0.35 0.11748 -4.45017 
1473 1 0.866667 0.4 0.0588296 -4.40849 
1448 1 0.916667 0.25 0.0590686 -4.40514 
1474 1 0.9 0.4 0.000114841 -3.90405 
1475 1 0.916667 0.35 0.0591092 -4.40572 
1477 1 0.9 0.3 0.000125514 -3.90413 
1478 1 0.95 0.25 0.000371004 -3.90543 
1479 1 0.95 0.35 0.00042502 -3.90417 
1602 1 0.933333 0.3 0.117658 -4.40801 
1608 1 0.983333 0.25 0.118454 -4.34332 
1631 1 0.933333 0.4 0.11764 -4.40799 
1632 1 0.966667 0.4 0.0596167 -4.40051 
1633 1 0.983333 0.35 0.120008 -4.26778 
1635 1 0.966667 0.3 0.0596225 -4.40061 
12 1 0 0.5 0.000322451 -3.9046 
13 1 0.0166667 0.45 0.0593089 -4.39716 
14 1 0.0166667 0.55 0.0591494 -4.4072 
17 1 0.05 0.45 0.00025208 -3.90428 
21 1 0 0.6 0.000181251 -3.90475 
22 1 0.05 0.55 0.000186104 -3.90473 
71 1 0.0333333 0.6 0.117708 -4.44915 
74 1 0.0333333 0.5 0.117665 -4.42363 
75 1 0.0666667 0.5 0.0590382 -4.4066 
76 1 0.0833333 0.45 0.117455 -4.43405 
77 1 0.0833333 0.55 0.117543 -4.44862 
95 1 0.0666667 0.6 0.0590411 -4.40753 
81 1 0.116667 0.45 0.0588603 -4.40638 
96 1 0.1 0.6 7.62697e-05 -3.90498 
97 1 0.116667 0.55 0.0589258 -4.40727 
99 1 0.1 0.5 2.25681e-05 -3.9047 
100 1 0.15 0.45 -9.87436e-05 -3.90452 
101 1 0.15 0.55 -9.41912e-05 -3.90475 
202 1 0.133333 0.5 0.117355 -4.44857 
208 1 0.183333 0.45 0.117319 -4.44856 
229 1 0.133333 0.6 0.117414 -4.44821 
230 1 0.166667 0.6 0.05882 -4.40734 
231 1 0.183333 0.55 0.117328 -4.44852 
233 1 0.166667 0.5 0.0587928 -4.40718 
234 1 0.2 0.5 -0.000153202 -3.90463 
235 1 0.216667 0.45 0.0587558 -4.4073 
236 1 0.216667 0.55 0.05876 -4.40727 
239 1 0.25 0.45 -0.00017077 -3.90472 
253 1 0.2 0.6 -0.000154954 -3.90462 
254 1 0.25 0.55 -0.000166042 -3.90472 
395 1 0.233333 0.6 0.117305 -4.44855 
398 1 0.233333 0.5 0.117304 -4.44859 
399 1 0.266667 0.5 0.0587539 -4.40724 
400 1 0.283333 0.45 0.117303 -4.44855 
401 1 0.283333 0.55 0.117305 -4.44854 
422 1 0.266667 0.6 0.0587561 -4.40725 
405 1 0.316667 0.45 0.0587563 -4.40726 
423 1 0.3 0.6 -0.000166548 -3.90478 
424 1 0.316667 0.55 0.0587561 -4.40726 
426 1 0.3 0.5 -0.000166733 -3.90478 
427 1 0.35 0.45 -0.00016617 -3.90478 
428 1 0.35 0.55 -0.000166144 -3.90478 
562 1 0.333333 0.5 0.117306 -4.44854 
568 1 0.383333 0.45 0.117306 -4.44855 
589 1 0.333333 0.6 0.117306 -4.44854 
590 1 0.366667 0.6 0.0587567 -4.40726 
591 1 0.383333 0.55 0.117306 -4.44855 
593 1 0.366667 0.5 0.0587566 -4.40726 
594 1 0.4 0.5 -0.000166091 -3.90478 
595 1 0.416667 0.45 0.0587563 -4.40726 
596 1 0.416667 0.55 0.0587563 -4.40726 
599 1 0.45 0.45 -0.000167026 -3.90474 
613 1 0.4 0.6 -0.000166096 -3.90478 
614 1 0.45 0.55 -0.000167033 -3.90475 
755 1 0.433333 0.6 0.117306 -4.44855 
758 1 0.433333 0.5 0.117306 -4.44855 
759 1 0.466667 0.5 0.0587575 -4.40728 
760 1 0.483333 0.45 0.117309 -4.44857 
761 1 0.483333 0.55 0.117309 -4.44856 
782 1 0.466667 0.6 0.0587572 -4.40728 
765 1 0.516667 0.45 0.0587732 -4.40729 
783 1 0.5 0.6 -0.00016147 -3.90469 
784 1 0.516667 0.55 0.0587706 -4.40727 
786 1 0.5 0.5 -0.000159864 -3.90467 
787 1 0.55 0.45 -0.000110627 -3.90483 
788 1 0.55 0.55 -0.000119459 -3.90481 
922 1 0.533333 0.5 0.117337 -4.44851 
928 1 0.583333 0.45 0.117376 -4.44869 
949 1 0.533333 0.6 0.117327 -4.44852 
950 1 0.566667 0.6 0.0588094 -4.4073 
951 1 0.583333 0.55 0.117362 -4.4487 
953 1 0.566667 0.5 0.0588262 -4.40725 
954 1 0.6 0.5 -6.23631e-05 -3.90469 
955 1 0.616667 0.45 0.0588574 -4.40806 
956 1 0.616667 0.55 0.0588399 -4.4081 
959 1 0.65 0.45 1.37384e-05 -3.89102 
973 1 0.6 0.6 -8.52504e-05 -3.90469 
974 1 0.65 0.55 8.15313e-06 -3.89126 
1113 1 0.633333 0.6 0.117386 -4.44755 
1116 1 0.633333 0.5 0.117396 -4.44776 
1117 1 0.666667 0.5 0.0589934 -4.37523 
1118 1 0.683333 0.45 0.117304 -4.44875 
1119 1 0.683333 0.55 0.117289 -4.44849 
1138 1 0.666667 0.6 0.0590039 -4.37523 
1123 1 0.716667 0.45 0.0585025 -4.25233 
1139 1 0.7 0.6 0.000734897 -3.56403 
1140 1 0.716667 0.55 0.0584863 -4.25198 
1142 1 0.7 0.5 0.000795085 -3.54978 
1273 1 0.733333 0.5 0.117197 -4.42671 
1279 1 0.783333 0.45 0.116946 -4.44014 
1300 1 0.733333 0.6 0.117196 -4.42802 
1301 1 0.766667 0.6 0.0573948 -4.19422 
1302 1 0.783333 0.55 0.116949 -4.44098 
1304 1 0.766667 0.5 0.0574793 -4.17817 
1305 1 0.8 0.5 0.000714399 -3.54781 
1306 1 0.816667 0.45 0.0590935 -4.34741 
1307 1 0.816667 0.55 0.05908 -4.3475 
1310 1 0.85 0.45 -5.68096e-05 -3.89112 
1324 1 0.8 0.6 0.00063329 -3.56157 
1325 1 0.85 0.55 -6.14306e-05 -3.89126 
1466 1 0.833333 0.6 0.117391 -4.44671 
1469 1 0.833333 0.5 0.117383 -4.44581 
1470 1 0.866667 0.5 0.0587954 -4.40834 
1471 1 0.883333 0.45 0.117429 -4.44981 
1472 1 0.883333 0.55 0.117379 -4.44944 
1493 1 0.866667 0.6 0.0588088 -4.40795 
1476 1 0.916667 0.45 0.0590556 -4.40504 
1494 1 0.9 0.6 5.86863e-05 -3.90422 
1495 1 0.916667 0.55 0.058991 -4.40595 
1497 1 0.9 0.5 6.28978e-05 -3.90412 
1498 1 0.95 0.45 0.000376078 -3.90545 
1499 1 0.95 0.55 0.000244946 -3.90531 
1628 1 0.933333 0.5 0.117522 -4.43304 
1634 1 0.983333 0.45 0.118443 -4.34321 
1649 1 0.933333 0.6 0.117557 -4.44848 
1650 1 0.966667 0.6 0.0591386 -4.40617 
1651 1 0.983333 0.55 0.117649 -4.43344 
1653 1 0.966667 0.5 0.0593103 -4.40743 
18 1 0 0.7 0.000284668 -3.90467 
19 1 0.0166667 0.65 0.0591636 -4.40724 
20 1 0.0166667 0.75 0.0593428 -4.39875 
23 1 0.05 0.65 0.000190882 -3.90473 
27 1 0 0.8 0.000317904 -3.90305 
28 1 0.05 0.75 0.000268815 -3.90473 
88 1 0.0333333 0.8 0.118522 -4.35827 
91 1 0.0333333 0.7 0.117695 -4.4232 
92 1 0.0666667 0.7 0.0590619 -4.40617 
93 1 0.0833333 0.65 0.117544 -4.44889 
94 1 0.0833333 0.75 0.117488 -4.43349 
107 1 0.0666667 0.8 0.0592266 -4.40883 
98 1 0.116667 0.65 0.0589255 -4.40707 
108 1 0.1 0.8 8.54395e-05 -3.90521 
109 1 0.116667 0.75 0.05891 -4.40621 
111 1 0.1 0.7 8.08424e-05 -3.9048 
112 1 0.15 0.65 -6.55314e-05 -3.90476 
113 1 0.15 0.75 -6.54323e-05 -3.90459 
226 1 0.133333 0.7 0.117405 -4.44869 
232 1 0.183333 0.65 0.117337 -4.44855 
245 1 0.133333 0.8 0.11741 -4.44846 
246 1 0.166667 0.8 0.0588178 -4.40733 
247 1 0.183333 0.75 0.117335 -4.44854 
249 1 0.166667 0.7 0.0588155 -4.40719 
250 1 0.2 0.7 -0.000147754 -3.90463 
251 1 0.216667 0.65 0.0587621 -4.40726 
252 1 0.216667 0.75 0.0587628 -4.40727 
255 1 0.25 0.65 -0.000166987 -3.9047 
261 1 0.2 0.8 -0.000152484 -3.90464 
262 1 0.25 0.75 -0.00016947 -3.90469 
415 1 0.233333 0.8 0.117306 -4.44853 
418 1 0.233333 0.7 0.117304 -4.44858 
419 1 0.266667 0.7 0.0587527 -4.40723 
420 1 0.283333 0.65 0.117304 -4.44853 
421 1 0.283333 0.75 0.117302 -4.44854 
434 1 0.266667 0.8 0.058753 -4.40726 
425 1 0.316667 0.65 0.0587561 -4.40726 
435 1 0.3 0.8 -0.000167514 -3.90477 
436 1 0.316667 0.75 0.058756 -4.40725 
438 1 0.3 0.7 -0.000166865 -3.90477 
439 1 0.35 0.65 -0.00016617 -3.90478 
440 1 0.35 0.75 -0.000166191 -3.90478 
586 1 0.333333 0.7 0.117306 -4.44854 
592 1 0.383333 0.65 0.117306 -4.44855 
605 1 0.333333 0.8 0.117306 -4.44854 
606 1 0.366667 0.8 0.0587566 -4.40726 
607 1 0.383333 0.75 0.117306 -4.44855 
609 1 0.366667 0.7 0.0587566 -4.40726 
610 1 0.4 0.7 -0.00016612 -3.90478 
611 1 0.416667 0.65 0.0587564 -4.40726 
612 1 0.416667 0.75 0.0587564 -4.40726 
615 1 0.45 0.65 -0.000166952 -3.90476 
621 1 0.4 0.8 -0.000166125 -3.90478 
622 1 0.45 0.75 -0.000166864 -3.90476 
775 1 0.433333 0.8 0.117306 -4.44855 
778 1 0.433333 0.7 0.117306 -4.44855 
779 1 0.466667 0.7 0.0587564 -4.40727 
780 1 0.483333 0.65 0.117307 -4.44856 
781 1 0.483333 0.75 0.117306 -4.44856 
794 1 0.466667 0.8 0.0587564 -4.40727 
785 1 0.516667 0.65 0.0587651 -4.40727 
795 1 0.5 0.8 -0.000164551 -3.90469 
796 1 0.516667 0.75 0.0587621 -4.40728 
798 1 0.5 0.7 -0.000164551 -3.90469 
799 1 0.55 0.65 -0.000133423 -3.90475 
800 1 0.55 0.75 -0.000139994 -3.90473 
946 1 0.533333 0.7 0.117322 -4.44853 
952 1 0.583333 0.65 0.117356 -4.44863 
965 1 0.533333 0.8 0.117322 -4.44853 
966 1 0.566667 0.8 0.0587981 -4.40728 
967 1 0.583333 0.75 0.117348 -4.44855 
969 1 0.566667 0.7 0.0587981 -4.40728 
970 1 0.6 0.7 -9.22193e-05 -3.90476 
971 1 0.616667 0.65 0.0588357 -4.40779 
972 1 0.616667 0.75 0.0588309 -4.4077 
975 1 0.65 0.65 -9.95105e-06 -3.89075 
981 1 0.6 0.8 -9.22188e-05 -3.90476 
982 1 0.65 0.75 -6.37455e-05 -3.90526 
1131 1 0.633333 0.8 0.117366 -4.44837 
1134 1 0.633333 0.7 0.117366 -4.44837 
1135 1 0.666667 0.7 0.0588693 -4.39172 
1136 1 0.683333 0.65 0.117272 -4.44976 
1137 1 0.683333 0.75 0.117381 -4.44813 
1148 1 0.666667 0.8 0.0588694 -4.39172 
1141 1 0.716667 0.65 0.0583382 -4.28153 
1149 1 0.7 0.8 0.000337631 -3.72449 
1150 1 0.716667 0.75 0.0589942 -4.35118 
1152 1 0.7 0.7 0.000337657 -3.7245 
1153 1 0.75 0.75 0.000693665 -3.57924 
1297 1 0.733333 0.7 0.117321 -4.43774 
1303 1 0.783333 0.65 0.117138 -4.439 
1316 1 0.733333 0.8 0.117323 -4.43775 
1317 1 0.766667 0.8 0.0584157 -4.27844 
1318 1 0.783333 0.75 0.117162 -4.44986 
1320 1 0.766667 0.7 0.0584145 -4.27843 
1321 1 0.8 0.7 0.00043611 -3.72525 
1322 1 0.816667 0.65 0.0590249 -4.36374 
1323 1 0.816667 0.75 0.0590627 -4.37615 
1326 1 0.85 0.65 -3.3284e-05 -3.89076 
1332 1 0.8 0.8 0.000438742 -3.7253 
1333 1 0.85 0.75 -7.19779e-06 -3.90526 
1486 1 0.833333 0.8 0.117421 -4.44667 
1489 1 0.833333 0.7 0.117417 -4.4466 
1490 1 0.866667 0.7 0.0588496 -4.40775 
1491 1 0.883333 0.65 0.117401 -4.44937 
1492 1 0.883333 0.75 0.117452 -4.44952 
1505 1 0.866667 0.8 0.0588465 -4.40785 
1496 1 0.916667 0.65 0.0589973 -4.40596 
1506 1 0.9 0.8 9.84179e-05 -3.90444 
1507 1 0.916667 0.75 0.0590552 -4.40626 
1509 1 0.9 0.7 0.000108567 -3.90459 
1510 1 0.95 0.65 0.000211924 -3.90531 
1511 1 0.95 0.75 0.000251336 -3.90473 
1646 1 0.933333 0.7 0.117558 -4.43322 
1652 1 0.983333 0.65 0.117669 -4.43318 
1659 1 0.933333 0.8 0.117644 -4.42297 
1660 1 0.966667 0.8 0.0593211 -4.39888 
1661 1 0.983333 0.75 0.118571 -4.35828 
1663 1 0.966667 0.7 0.0593155 -4.40935 
24 1 0 0.9 0.0002448 -3.90458 
25 1 0.0166667 0.85 0.0593014 -4.39868 
26 1 0.0166667 0.95 0.0590492 -4.40636 
29 1 0.05 0.85 0.000228373 -3.90465 
30 1 0.05 0.95 0.00013686 -3.90464 
103 1 0.0333333 0.9 0.117632 -4.42332 
104 1 0.0666667 0.9 0.0590189 -4.40638 
105 1 0.0833333 0.85 0.117501 -4.43332 
106 1 0.0833333 0.95 0.117475 -4.44909 
110 1 0.116667 0.85 0.0589222 -4.40664 
114 1 0.116667 0.95 0.0588701 -4.40697 
115 1 0.1 0.9 2.34729e-05 -3.90472 
116 1 0.15 0.85 -9.69908e-05 -3.90461 
117 1 0.15 0.95 -8.09284e-05 -3.90467 
242 1 0.133333 0.9 0.11739 -4.44867 
248 1 0.183333 0.85 0.117324 -4.44848 
256 1 0.183333 0.95 0.117332 -4.44861 
257 1 0.166667 0.9 0.0588054 -4.40728 
258 1 0.2 0.9 -0.000155373 -3.90463 
259 1 0.216667 0.85 0.0587589 -4.40727 
260 1 0.216667 0.95 0.0587599 -4.40727 
263 1 0.25 0.85 -0.00016852 -3.90469 
264 1 0.25 0.95 -0.000167428 -3.90471 
430 1 0.233333 0.9 0.117304 -4.44856 
431 1 0.266667 0.9 0.0587539 -4.40725 
432 1 0.283333 0.85 0.117303 -4.44855 
433 1 0.283333 0.95 0.117305 -4.44853 
437 1 0.316667 0.85 0.058756 -4.40725 
441 1 0.316667 0.95 0.0587566 -4.40726 
442 1 0.3 0.9 -0.000166705 -3.90477 
443 1 0.35 0.85 -0.000166163 -3.90478 
444 1 0.35 0.95 -0.000166135 -3.90478 
602 1 0.333333 0.9 0.117306 -4.44854 
608 1 0.383333 0.85 0.117306 -4.44855 
616 1 0.383333 0.95 0.117306 -4.44855 
617 1 0.366667 0.9 0.0587566 -4.40726 
618 1 0.4 0.9 -0.000166093 -3.90478 
619 1 0.416667 0.85 0.0587564 -4.40726 
620 1 0.416667 0.95 0.0587563 -4.40726 
623 1 0.45 0.85 -0.000166952 -3.90476 
624 1 0.45 0.95 -0.000167033 -3.90475 
790 1 0.433333 0.9 0.117306 -4.44855 
791 1 0.466667 0.9 0.0587572 -4.40728 
792 1 0.483333 0.85 0.117307 -4.44856 
793 1 0.483333 0.95 0.117309 -4.44856 
797 1 0.516667 0.85 0.0587651 -4.40727 
801 1 0.516667 0.95 0.0587706 -4.40727 
802 1 0.5 0.9 -0.00016147 -3.90469 
803 1 0.55 0.85 -0.000133423 -3.90475 
804 1 0.55 0.95 -0.000119458 -3.90481 
962 1 0.533333 0.9 0.117327 -4.44852 
968 1 0.583333 0.85 0.117356 -4.44863 
976 1 0.583333 0.95 0.117362 -4.4487 
977 1 0.566667 0.9 0.0588094 -4.4073 
978 1 0.6 0.9 -8.52459e-05 -3.90469 
979 1 0.616667 0.85 0.0588357 -4.40779 
980 1 0.616667 0.95 0.0588399 -4.4081 
983 1 0.65 0.85 -9.90981e-06 -3.89075 
984 1 0.65 0.95 8.18094e-06 -3.89126 
1144 1 0.633333 0.9 0.117386 -4.44755 
1145 1 0.666667 0.9 0.059004 -4.37523 
1146 1 0.683333 0.85 0.117272 -4.44976 
1147 1 0.683333 0.95 0.11729 -4.44849 
1151 1 0.716667 0.85 0.0583388 -4.28155 
1154 1 0.716667 0.95 0.0584863 -4.25198 
1155 1 0.7 0.9 0.00073488 -3.56403 
1313 1 0.733333 0.9 0.117198 -4.42803 
1319 1 0.783333 0.85 0.11714 -4.43893 
1327 1 0.783333 0.95 0.11695 -4.44096 
1328 1 0.766667 0.9 0.0573976 -4.19423 
1329 1 0.8 0.9 0.000636292 -3.56169 
1330 1 0.816667 0.85 0.0590364 -4.36368 
1331 1 0.816667 0.95 0.0590779 -4.34745 
1334 1 0.85 0.85 -1.66177e-05 -3.89081 
1335 1 0.85 0.95 -7.70178e-05 -3.89126 
1501 1 0.833333 0.9 0.117389 -4.44672 
1502 1 0.866667 0.9 0.0587924 -4.40798 
1503 1 0.883333 0.85 0.117428 -4.44968 
1504 1 0.883333 0.95 0.117353 -4.44952 
1508 1 0.916667 0.85 0.0590178 -4.40639 
1512 1 0.916667 0.95 0.0589357 -4.40621 
1513 1 0.9 0.9 5.49657e-06 -3.90426 
1514 1 0.95 0.85 0.000227074 -3.90471 
1515 1 0.95 0.95 0.000148019 -3.90536 
1656 1 0.933333 0.9 0.117498 -4.43322 
1662 1 0.983333 0.85 0.118513 -4.35824 
1664 1 0.983333 0.95 0.117562 -4.43332 
1665 1 0.966667 0.9 0.0592446 -4.40889 
31 1 0 0.1 0.176251 -4.44914 
32 1 0.0166667 0.05 0.23484 -4.44083 
33 1 0.0166667 0.15 0.234897 -4.4256 
34 1 0 0 0.176192 -4.45083 
36 1 0.05 0.05 0.176148 -4.44949 
39 1 0 0.2 0.176215 -4.35308 
41 1 0.05 0.15 0.176239 -4.43676 
131 1 0.0666667 0.1 0.234786 -4.4505 
134 1 0.0666667 0 0.234639 -4.44882 
148 1 0.0666667 0.2 0.234707 -4.43335 
135 1 0.1 0 0.17603 -4.44986 
136 1 0.116667 0.05 0.234571 -4.44878 
149 1 0.1 0.2 0.17604 -4.45088 
150 1 0.116667 0.15 0.234539 -4.4487 
152 1 0.1 0.1 0.176055 -4.45026 
154 1 0.15 0.05 0.17598 -4.44994 
155 1 0.15 0.15 0.175964 -4.44981 
288 1 0.166667 0 0.234534 -4.44955 
304 1 0.166667 0.2 0.23452 -4.44949 
307 1 0.166667 0.1 0.23453 -4.44958 
308 1 0.2 0.1 0.175941 -4.44998 
309 1 0.216667 0.05 0.234515 -4.44952 
310 1 0.216667 0.15 0.234515 -4.44955 
311 1 0.2 0 0.175941 -4.44998 
313 1 0.25 0.05 0.175929 -4.44998 
335 1 0.2 0.2 0.175937 -4.45 
337 1 0.25 0.15 0.175928 -4.44998 
475 1 0.266667 0.1 0.23451 -4.4495 
478 1 0.266667 0 0.234509 -4.4495 
498 1 0.266667 0.2 0.234508 -4.44951 
479 1 0.3 0 0.175929 -4.44996 
480 1 0.316667 0.05 0.234512 -4.4495 
499 1 0.3 0.2 0.175929 -4.44997 
500 1 0.316667 0.15 0.234512 -4.4495 
502 1 0.3 0.1 0.175928 -4.44996 
504 1 0.35 0.05 0.17593 -4.44997 
505 1 0.35 0.15 0.17593 -4.44997 
648 1 0.366667 0 0.234513 -4.44951 
664 1 0.366667 0.2 0.234513 -4.44951 
667 1 0.366667 0.1 0.234513 -4.44951 
668 1 0.4 0.1 0.17593 -4.44997 
669 1 0.416667 0.05 0.234513 -4.44951 
670 1 0.416667 0.15 0.234513 -4.44951 
671 1 0.4 0 0.17593 -4.44997 
673 1 0.45 0.05 0.17593 -4.44999 
695 1 0.4 0.2 0.17593 -4.44997 
697 1 0.45 0.15 0.17593 -4.44999 
835 1 0.466667 0.1 0.234513 -4.44952 
838 1 0.466667 0 0.234513 -4.44952 
858 1 0.466667 0.2 0.234513 -4.44952 
839 1 0.5 0 0.175937 -4.44995 
840 1 0.516667 0.05 0.234524 -4.44951 
859 1 0.5 0.2 0.175936 -4.44996 
860 1 0.516667 0.15 0.234523 -4.44952 
862 1 0.5 0.1 0.175937 -4.44996 
864 1 0.55 0.05 0.175964 -4.44997 
865 1 0.55 0.15 0.175966 -4.44997 
1008 1 0.566667 0 0.234545 -4.44941 
1024 1 0.566667 0.2 0.234552 -4.44941 
1027 1 0.566667 0.1 0.234555 -4.4494 
1028 1 0.6 0.1 0.176003 -4.44982 
1029 1 0.616667 0.05 0.234549 -4.44939 
1030 1 0.616667 0.15 0.234568 -4.44936 
1031 1 0.6 0 0.175993 -4.44979 
1033 1 0.65 0.05 0.175976 -4.45008 
1055 1 0.6 0.2 0.176007 -4.44981 
1057 1 0.65 0.15 0.175989 -4.45012 
1186 1 0.666667 0.1 0.234525 -4.44963 
1189 1 0.666667 0 0.234536 -4.44967 
1209 1 0.666667 0.2 0.234543 -4.4496 
1190 1 0.7 0 0.175895 -4.44988 
1191 1 0.716667 0.05 0.234523 -4.4499 
1210 1 0.7 0.2 0.175913 -4.44983 
1211 1 0.716667 0.15 0.234523 -4.44988 
1213 1 0.7 0.1 0.1759 -4.44981 
1215 1 0.75 0.05 0.17581 -4.44836 
1216 1 0.75 0.15 0.175822 -4.44835 
1359 1 0.766667 0 0.23443 -4.44961 
1375 1 0.766667 0.2 0.234449 -4.4496 
1378 1 0.766667 0.1 0.234433 -4.44958 
1379 1 0.8 0.1 0.175768 -4.45051 
1380 1 0.816667 0.05 0.234448 -4.44996 
1381 1 0.816667 0.15 0.234456 -4.44992 
1382 1 0.8 0 0.175768 -4.45061 
1384 1 0.85 0.05 0.175947 -4.44964 
1406 1 0.8 0.2 0.175783 -4.45055 
1408 1 0.85 0.15 0.175966 -4.44958 
1546 1 0.866667 0.1 0.234534 -4.44963 
1549 1 0.866667 0 0.234532 -4.44946 
1569 1 0.866667 0.2 0.234574 -4.44948 
1550 1 0.9 0 0.175977 -4.44977 
1551 1 0.916667 0.05 0.234566 -4.44859 
1570 1 0.9 0.2 0.176049 -4.45084 
1571 1 0.916667 0.15 0.234571 -4.44875 
1573 1 0.9 0.1 0.175999 -4.44985 
1575 1 0.95 0.05 0.176178 -4.44926 
1576 1 0.95 0.15 0.176194 -4.43648 
1689 1 0.966667 0 0.234785 -4.44992 
1705 1 0.966667 0.2 0.234789 -4.42547 
1708 1 0.966667 0.1 0.234847 -4.44021 
37 1 0.0166667 0.25 0.23387 -4.34371 
38 1 0.0166667 0.35 0.232353 -4.269 
42 1 0.05 0.25 0.17619 -4.33921 
54 1 0.05 0.35 0.175973 -4.24266 
145 1 0.0666667 0.3 0.234662 -4.40983 
169 1 0.0666667 0.4 0.234648 -4.40977 
151 1 0.116667 0.25 0.234527 -4.44984 
170 1 0.1 0.4 0.175994 -4.43866 
171 1 0.116667 0.35 0.234535 -4.45013 
173 1 0.1 0.3 0.176 -4.43871 
175 1 0.15 0.25 0.175951 -4.4498 
176 1 0.15 0.35 0.175953 -4.44985 
328 1 0.166667 0.4 0.23448 -4.4493 
331 1 0.166667 0.3 0.23448 -4.44926 
332 1 0.2 0.3 0.175914 -4.45002 
333 1 0.216667 0.25 0.234507 -4.44956 
334 1 0.216667 0.35 0.234505 -4.44954 
338 1 0.25 0.25 0.175924 -4.44997 
366 1 0.2 0.4 0.175913 -4.45002 
368 1 0.25 0.35 0.175925 -4.44997 
495 1 0.266667 0.3 0.234506 -4.44955 
526 1 0.266667 0.4 0.234505 -4.44955 
501 1 0.316667 0.25 0.234513 -4.4495 
527 1 0.3 0.4 0.175928 -4.44998 
528 1 0.316667 0.35 0.234513 -4.44949 
530 1 0.3 0.3 0.175928 -4.44998 
532 1 0.35 0.25 0.17593 -4.44997 
533 1 0.35 0.35 0.17593 -4.44997 
688 1 0.366667 0.4 0.234513 -4.44951 
691 1 0.366667 0.3 0.234513 -4.44951 
692 1 0.4 0.3 0.17593 -4.44997 
693 1 0.416667 0.25 0.234513 -4.44951 
694 1 0.416667 0.35 0.234513 -4.44951 
698 1 0.45 0.25 0.17593 -4.44999 
726 1 0.4 0.4 0.17593 -4.44997 
728 1 0.45 0.35 0.17593 -4.44999 
855 1 0.466667 0.3 0.234513 -4.44952 
886 1 0.466667 0.4 0.234513 -4.44952 
861 1 0.516667 0.25 0.234523 -4.44952 
887 1 0.5 0.4 0.175937 -4.44996 
888 1 0.516667 0.35 0.234523 -4.44952 
890 1 0.5 0.3 0.175936 -4.44996 
892 1 0.55 0.25 0.175965 -4.44997 
893 1 0.55 0.35 0.175966 -4.44997 
1048 1 0.566667 0.4 0.234554 -4.44939 
1051 1 0.566667 0.3 0.234552 -4.44941 
1052 1 0.6 0.3 0.176007 -4.44981 
1053 1 0.616667 0.25 0.234565 -4.44939 
1054 1 0.616667 0.35 0.234568 -4.44936 
1058 1 0.65 0.25 0.175993 -4.45013 
1086 1 0.6 0.4 0.176003 -4.44982 
1088 1 0.65 0.35 0.175989 -4.45013 
1206 1 0.666667 0.3 0.234542 -4.4496 
1237 1 0.666667 0.4 0.234524 -4.44963 
1212 1 0.716667 0.25 0.234533 -4.44986 
1238 1 0.7 0.4 0.175901 -4.44981 
1239 1 0.716667 0.35 0.234525 -4.44988 
1241 1 0.7 0.3 0.175914 -4.44983 
1243 1 0.75 0.25 0.175832 -4.44834 
1244 1 0.75 0.35 0.175823 -4.44837 
1399 1 0.766667 0.4 0.234435 -4.44964 
1402 1 0.766667 0.3 0.234447 -4.44962 
1403 1 0.8 0.3 0.175788 -4.45055 
1404 1 0.816667 0.25 0.234464 -4.44985 
1405 1 0.816667 0.35 0.234459 -4.44988 
1409 1 0.85 0.25 0.176009 -4.44944 
1437 1 0.8 0.4 0.175773 -4.45051 
1439 1 0.85 0.35 0.176012 -4.44941 
1566 1 0.866667 0.3 0.234589 -4.44934 
1597 1 0.866667 0.4 0.234567 -4.44935 
1572 1 0.916667 0.25 0.234627 -4.43393 
1598 1 0.9 0.4 0.176123 -4.4385 