ITEM: TIMESTEP
27
ITEM: NUMBER OF ATOMS
3584
ITEM: BOX BOUNDS pp pp ss
0.0000000000000000e+00 4.3111019472983898e+01
0.0000000000000000e+00 2.4890158697766498e+01
-3.6580800000000006e-03 3.4552298188307212e+01
ITEM: ATOMS id type xs ys zs c_peratom 
1 1 0 0.1 -0.00109819 -3.90427 
2 1 0.0166667 0.05 0.0569435 -4.45009 
3 1 0.0166667 0.15 0.0570063 -4.45005 
4 1 0 0 -0.00110162 -3.90428 
5 1 0.05 0.05 -0.00114338 -3.90427 
10 1 0.05 0.15 -0.00110075 -3.90446 
35 1 0.0333333 0 0.115689 -4.45044 
43 1 0.0333333 0.1 0.115698 -4.45044 
44 1 0.0666667 0.1 0.0569044 -4.45013 
45 1 0.0833333 0.05 0.115592 -4.44986 
46 1 0.0833333 0.15 0.11563 -4.45041 
47 1 0.0666667 0 0.0569007 -4.45017 
48 1 0.1 0 -0.00122017 -3.90428 
49 1 0.116667 0.05 0.0568019 -4.44987 
62 1 0.116667 0.15 0.0568144 -4.44998 
64 1 0.1 0.1 -0.00121803 -3.90429 
65 1 0.15 0.05 -0.00130864 -3.90432 
66 1 0.15 0.15 -0.00130551 -3.90432 
153 1 0.133333 0.1 0.115503 -4.44988 
156 1 0.133333 0 0.115501 -4.44985 
157 1 0.166667 0 0.0567259 -4.44997 
181 1 0.166667 0.1 0.0567252 -4.44998 
158 1 0.183333 0.05 0.115437 -4.44985 
179 1 0.183333 0.15 0.115435 -4.44985 
182 1 0.2 0.1 -0.00136588 -3.90435 
183 1 0.216667 0.05 0.0566778 -4.44998 
184 1 0.216667 0.15 0.0566772 -4.44998 
185 1 0.2 0 -0.00136512 -3.90435 
186 1 0.25 0.05 -0.00139805 -3.90437 
214 1 0.25 0.15 -0.00139816 -3.90437 
312 1 0.233333 0 0.115402 -4.44985 
339 1 0.233333 0.1 0.115401 -4.44986 
340 1 0.266667 0.1 0.0566515 -4.44997 
343 1 0.266667 0 0.0566516 -4.44997 
341 1 0.283333 0.05 0.115382 -4.44986 
342 1 0.283333 0.15 0.115382 -4.44986 
344 1 0.3 0 -0.00141751 -3.90438 
345 1 0.316667 0.05 0.0566351 -4.44997 
376 1 0.316667 0.15 0.056635 -4.44997 
378 1 0.3 0.1 -0.00141733 -3.90438 
379 1 0.35 0.05 -0.00143057 -3.90438 
380 1 0.35 0.15 -0.0014307 -3.90438 
503 1 0.333333 0.1 0.115369 -4.44986 
506 1 0.333333 0 0.115369 -4.44986 
507 1 0.366667 0 0.0566244 -4.44997 
508 1 0.383333 0.05 0.115362 -4.44986 
536 1 0.383333 0.15 0.115362 -4.44986 
538 1 0.366667 0.1 0.0566247 -4.44997 
539 1 0.4 0.1 -0.0014359 -3.90438 
540 1 0.416667 0.05 0.056622 -4.44997 
541 1 0.416667 0.15 0.0566223 -4.44997 
542 1 0.4 0 -0.00143622 -3.90438 
543 1 0.45 0.05 -0.00143381 -3.90437 
574 1 0.45 0.15 -0.00143313 -3.90437 
672 1 0.433333 0 0.115361 -4.44986 
699 1 0.433333 0.1 0.115362 -4.44986 
700 1 0.466667 0.1 0.056627 -4.44997 
701 1 0.483333 0.05 0.115368 -4.44985 
702 1 0.483333 0.15 0.115369 -4.44985 
703 1 0.466667 0 0.0566258 -4.44997 
704 1 0.5 0 -0.00142542 -3.90436 
705 1 0.516667 0.05 0.0566414 -4.44998 
736 1 0.516667 0.15 0.0566438 -4.44998 
738 1 0.5 0.1 -0.00142311 -3.90436 
863 1 0.533333 0.1 0.115387 -4.44985 
866 1 0.533333 0 0.115384 -4.44985 
739 1 0.55 0.05 -0.00139578 -3.90435 
740 1 0.55 0.15 -0.00139196 -3.90435 
867 1 0.566667 0 0.0566726 -4.44998 
868 1 0.583333 0.05 0.115421 -4.44986 
896 1 0.583333 0.15 0.115426 -4.44986 
898 1 0.566667 0.1 0.0566784 -4.44998 
899 1 0.6 0.1 -0.00133568 -3.90419 
900 1 0.616667 0.05 0.0567424 -4.45019 
901 1 0.616667 0.15 0.0567489 -4.45019 
902 1 0.6 0 -0.00134428 -3.90419 
1032 1 0.633333 0 0.115467 -4.44982 
1059 1 0.633333 0.1 0.115477 -4.44979 
903 1 0.65 0.05 -0.00117176 -3.90298 
934 1 0.65 0.15 -0.00116265 -3.90298 
1060 1 0.666667 0.1 0.0569172 -4.44435 
1061 1 0.683333 0.05 0.115433 -4.45345 
1062 1 0.683333 0.15 0.115442 -4.45343 
1063 1 0.666667 0 0.0569029 -4.44426 
1064 1 0.7 0 -0.000578375 -3.46782 
1065 1 0.716667 0.05 0.0572238 -4.28688 
1096 1 0.716667 0.15 0.0572348 -4.2869 
1098 1 0.7 0.1 -0.000557315 -3.46778 
1214 1 0.733333 0.1 0.115417 -4.44261 
1217 1 0.733333 0 0.115405 -4.44255 
1218 1 0.766667 0 0.0559723 -4.17112 
1219 1 0.783333 0.05 0.115045 -4.45253 
1247 1 0.783333 0.15 0.115049 -4.45254 
1249 1 0.766667 0.1 0.0559744 -4.17121 
1250 1 0.8 0.1 -0.00102845 -3.46543 
1251 1 0.816667 0.05 0.056994 -4.42629 
1252 1 0.816667 0.15 0.0569999 -4.42628 
1253 1 0.8 0 -0.00103113 -3.46551 
1254 1 0.85 0.05 -0.00123392 -3.90312 
1285 1 0.85 0.15 -0.00122212 -3.90311 
1383 1 0.833333 0 0.115406 -4.44954 
1410 1 0.833333 0.1 0.115406 -4.44955 
1411 1 0.866667 0.1 0.0567255 -4.45134 
1412 1 0.883333 0.05 0.115474 -4.4503 
1413 1 0.883333 0.15 0.115491 -4.45035 
1414 1 0.866667 0 0.0567243 -4.45134 
1415 1 0.9 0 -0.00125424 -3.90419 
1449 1 0.9 0.1 -0.00125152 -3.90419 
1416 1 0.916667 0.05 0.056826 -4.45016 
1447 1 0.916667 0.15 0.0568654 -4.45005 
1450 1 0.95 0.05 -0.00116104 -3.90433 
1451 1 0.95 0.15 -0.00108391 -3.90456 
1574 1 0.933333 0.1 0.115599 -4.44994 
1577 1 0.933333 0 0.115594 -4.44992 
1578 1 0.966667 0 0.0569306 -4.44987 
1579 1 0.983333 0.05 0.115664 -4.44992 
1607 1 0.983333 0.15 0.115709 -4.4466 
1609 1 0.966667 0.1 0.0569352 -4.44986 
6 1 0 0.3 -0.000792568 -3.90428 
7 1 0.0166667 0.25 0.0571453 -4.44672 
9 1 0 0.2 -0.000958896 -3.90459 
11 1 0.05 0.25 -0.00098018 -3.90484 
40 1 0.0333333 0.2 0.115565 -4.43462 
56 1 0.0333333 0.3 0.115818 -4.30797 
57 1 0.0666667 0.3 0.0571079 -4.45267 
58 1 0.0833333 0.25 0.115647 -4.44715 
60 1 0.0666667 0.2 0.05697 -4.45033 
61 1 0.1 0.2 -0.00118641 -3.90419 
63 1 0.116667 0.25 0.0568371 -4.44996 
82 1 0.1 0.3 -0.00113056 -3.90437 
83 1 0.15 0.25 -0.00129789 -3.90428 
174 1 0.133333 0.3 0.115504 -4.45002 
177 1 0.133333 0.2 0.115503 -4.44989 
178 1 0.166667 0.2 0.0567256 -4.44997 
209 1 0.166667 0.3 0.0567269 -4.45 
180 1 0.183333 0.25 0.115431 -4.44985 
210 1 0.2 0.3 -0.00136689 -3.90434 
211 1 0.216667 0.25 0.0566756 -4.44998 
213 1 0.2 0.2 -0.0013664 -3.90434 
215 1 0.25 0.25 -0.00139924 -3.90437 
336 1 0.233333 0.2 0.1154 -4.44985 
370 1 0.233333 0.3 0.115398 -4.44986 
371 1 0.266667 0.3 0.0566497 -4.44997 
374 1 0.266667 0.2 0.0566511 -4.44997 
372 1 0.283333 0.25 0.115381 -4.44986 
375 1 0.3 0.2 -0.00141761 -3.90438 
377 1 0.316667 0.25 0.0566343 -4.44997 
406 1 0.3 0.3 -0.00141884 -3.90438 
407 1 0.35 0.25 -0.00143129 -3.90438 
531 1 0.333333 0.3 0.115368 -4.44986 
534 1 0.333333 0.2 0.115369 -4.44986 
535 1 0.366667 0.2 0.0566243 -4.44997 
537 1 0.383333 0.25 0.115361 -4.44986 
569 1 0.366667 0.3 0.0566238 -4.44997 
570 1 0.4 0.3 -0.00143649 -3.90438 
571 1 0.416667 0.25 0.0566222 -4.44997 
573 1 0.4 0.2 -0.00143615 -3.90438 
575 1 0.45 0.25 -0.00143295 -3.90437 
696 1 0.433333 0.2 0.115362 -4.44986 
730 1 0.433333 0.3 0.115362 -4.44986 
731 1 0.466667 0.3 0.0566274 -4.44997 
732 1 0.483333 0.25 0.11537 -4.44985 
734 1 0.466667 0.2 0.0566277 -4.44997 
735 1 0.5 0.2 -0.00142189 -3.90436 
737 1 0.516667 0.25 0.0566443 -4.44998 
766 1 0.5 0.3 -0.00142202 -3.90436 
891 1 0.533333 0.3 0.115389 -4.44985 
894 1 0.533333 0.2 0.115389 -4.44985 
767 1 0.55 0.25 -0.00139097 -3.90435 
895 1 0.566667 0.2 0.0566812 -4.44998 
897 1 0.583333 0.25 0.115427 -4.44986 
929 1 0.566667 0.3 0.0566811 -4.44998 
930 1 0.6 0.3 -0.0013322 -3.90419 
931 1 0.616667 0.25 0.0567508 -4.45019 
933 1 0.6 0.2 -0.00133207 -3.90419 
1056 1 0.633333 0.2 0.115481 -4.44979 
1090 1 0.633333 0.3 0.115481 -4.44979 
935 1 0.65 0.25 -0.00116029 -3.90298 
1091 1 0.666667 0.3 0.0569232 -4.44435 
1092 1 0.683333 0.25 0.115444 -4.45343 
1094 1 0.666667 0.2 0.056923 -4.44435 
1095 1 0.7 0.2 -0.000550703 -3.46778 
1097 1 0.716667 0.25 0.0572379 -4.2869 
1124 1 0.7 0.3 -0.000550327 -3.46778 
1242 1 0.733333 0.3 0.115423 -4.44261 
1245 1 0.733333 0.2 0.115422 -4.44261 
1246 1 0.766667 0.2 0.0559788 -4.17121 
1248 1 0.783333 0.25 0.115053 -4.45253 
1280 1 0.766667 0.3 0.055982 -4.17122 
1281 1 0.8 0.3 -0.00101748 -3.46538 
1282 1 0.816667 0.25 0.0570093 -4.42624 
1284 1 0.8 0.2 -0.00102271 -3.46541 
1286 1 0.85 0.25 -0.00119745 -3.90307 
1407 1 0.833333 0.2 0.115416 -4.44956 
1441 1 0.833333 0.3 0.115427 -4.44957 
1442 1 0.866667 0.3 0.05679 -4.45166 
1443 1 0.883333 0.25 0.115547 -4.45089 
1445 1 0.866667 0.2 0.056754 -4.4514 
1446 1 0.9 0.2 -0.00119943 -3.90408 
1477 1 0.9 0.3 -0.00114085 -3.90423 
1448 1 0.916667 0.25 0.0569576 -4.45001 
1478 1 0.95 0.25 -0.000926684 -3.90502 
1602 1 0.933333 0.3 0.115556 -4.43071 
1605 1 0.933333 0.2 0.115659 -4.44665 
1606 1 0.966667 0.2 0.0571299 -4.45253 
1608 1 0.983333 0.25 0.11609 -4.32319 
1635 1 0.966667 0.3 0.0572973 -4.44963 
8 1 0.0166667 0.35 0.0572499 -4.44369 
12 1 0 0.5 -0.000937679 -3.90457 
13 1 0.0166667 0.45 0.0571514 -4.44672 
15 1 0 0.4 -0.000789433 -3.90427 
16 1 0.05 0.35 -0.000890867 -3.90515 
17 1 0.05 0.45 -0.000974225 -3.90481 
53 1 0.0333333 0.4 0.115816 -4.308 
59 1 0.0833333 0.35 0.115624 -4.44322 
74 1 0.0333333 0.5 0.115572 -4.43461 
75 1 0.0666667 0.5 0.0569826 -4.45028 
76 1 0.0833333 0.45 0.115646 -4.44713 
78 1 0.0666667 0.4 0.0571082 -4.45267 
79 1 0.1 0.4 -0.00113069 -3.90436 
80 1 0.116667 0.35 0.0568477 -4.44981 
81 1 0.116667 0.45 0.0568392 -4.44997 
84 1 0.15 0.35 -0.00129292 -3.90425 
99 1 0.1 0.5 -0.00117696 -3.90415 
100 1 0.15 0.45 -0.00129598 -3.90428 
202 1 0.133333 0.5 0.115505 -4.44988 
205 1 0.133333 0.4 0.115503 -4.45003 
206 1 0.166667 0.4 0.0567271 -4.45 
233 1 0.166667 0.5 0.0567294 -4.44997 
207 1 0.183333 0.35 0.115428 -4.44983 
208 1 0.183333 0.45 0.115431 -4.44985 
212 1 0.216667 0.35 0.0566746 -4.44997 
234 1 0.2 0.5 -0.00136483 -3.90434 
235 1 0.216667 0.45 0.0566756 -4.44998 
237 1 0.2 0.4 -0.00136681 -3.90433 
238 1 0.25 0.35 -0.00140043 -3.90437 
239 1 0.25 0.45 -0.00140028 -3.90437 
367 1 0.233333 0.4 0.115397 -4.44985 
398 1 0.233333 0.5 0.115399 -4.44985 
399 1 0.266667 0.5 0.056649 -4.44997 
402 1 0.266667 0.4 0.0566489 -4.44997 
373 1 0.283333 0.35 0.115379 -4.44985 
400 1 0.283333 0.45 0.115379 -4.44985 
403 1 0.3 0.4 -0.00141972 -3.90438 
404 1 0.316667 0.35 0.0566334 -4.44997 
405 1 0.316667 0.45 0.0566326 -4.44997 
408 1 0.35 0.35 -0.00143193 -3.90438 
426 1 0.3 0.5 -0.00142021 -3.90438 
427 1 0.35 0.45 -0.00143243 -3.90438 
562 1 0.333333 0.5 0.115367 -4.44986 
565 1 0.333333 0.4 0.115367 -4.44986 
566 1 0.366667 0.4 0.0566233 -4.44997 
567 1 0.383333 0.35 0.115361 -4.44986 
568 1 0.383333 0.45 0.11536 -4.44986 
572 1 0.416667 0.35 0.0566216 -4.44998 
593 1 0.366667 0.5 0.0566229 -4.44997 
594 1 0.4 0.5 -0.00143748 -3.90438 
595 1 0.416667 0.45 0.0566209 -4.44997 
597 1 0.4 0.4 -0.00143694 -3.90438 
598 1 0.45 0.35 -0.00143376 -3.90437 
599 1 0.45 0.45 -0.00143478 -3.90437 
727 1 0.433333 0.4 0.115361 -4.44986 
758 1 0.433333 0.5 0.11536 -4.44986 
733 1 0.483333 0.35 0.115369 -4.44985 
759 1 0.466667 0.5 0.0566249 -4.44997 
760 1 0.483333 0.45 0.115367 -4.44985 
762 1 0.466667 0.4 0.0566263 -4.44997 
763 1 0.5 0.4 -0.00142352 -3.90436 
764 1 0.516667 0.35 0.0566435 -4.44998 
765 1 0.516667 0.45 0.0566409 -4.44998 
786 1 0.5 0.5 -0.001426 -3.90436 
922 1 0.533333 0.5 0.115384 -4.44985 
925 1 0.533333 0.4 0.115387 -4.44985 
768 1 0.55 0.35 -0.00139221 -3.90435 
787 1 0.55 0.45 -0.00139611 -3.90435 
926 1 0.566667 0.4 0.0566782 -4.44998 
927 1 0.583333 0.35 0.115426 -4.44986 
928 1 0.583333 0.45 0.115421 -4.44986 
932 1 0.616667 0.35 0.0567488 -4.45019 
953 1 0.566667 0.5 0.0566723 -4.44998 
954 1 0.6 0.5 -0.00134465 -3.90419 
955 1 0.616667 0.45 0.0567422 -4.45019 
957 1 0.6 0.4 -0.00133604 -3.90419 
1087 1 0.633333 0.4 0.115477 -4.44979 
1116 1 0.633333 0.5 0.115467 -4.44982 
958 1 0.65 0.35 -0.00116235 -3.90298 
959 1 0.65 0.45 -0.00117151 -3.90299 
1093 1 0.683333 0.35 0.115442 -4.45343 
1117 1 0.666667 0.5 0.0569032 -4.44426 
1118 1 0.683333 0.45 0.115433 -4.45345 
1120 1 0.666667 0.4 0.0569178 -4.44435 
1121 1 0.7 0.4 -0.0005564 -3.46777 
1122 1 0.716667 0.35 0.0572356 -4.2869 
1123 1 0.716667 0.45 0.0572249 -4.28688 
1142 1 0.7 0.5 -0.00057759 -3.46781 
1273 1 0.733333 0.5 0.115407 -4.44255 
1276 1 0.733333 0.4 0.115418 -4.44262 
1277 1 0.766667 0.4 0.0559814 -4.17122 
1278 1 0.783333 0.35 0.115054 -4.45252 
1279 1 0.783333 0.45 0.115052 -4.45252 
1283 1 0.816667 0.35 0.0570147 -4.4262 
1304 1 0.766667 0.5 0.055978 -4.17113 
1305 1 0.8 0.5 -0.00102263 -3.46547 
1306 1 0.816667 0.45 0.0570097 -4.42625 
1308 1 0.8 0.4 -0.00101741 -3.46537 
1309 1 0.85 0.35 -0.0011826 -3.90303 
1310 1 0.85 0.45 -0.00119491 -3.90307 
1438 1 0.833333 0.4 0.115426 -4.44957 
1444 1 0.883333 0.35 0.115588 -4.45136 
1469 1 0.833333 0.5 0.115417 -4.44955 
1470 1 0.866667 0.5 0.0567599 -4.4514 
1471 1 0.883333 0.45 0.115545 -4.45089 
1473 1 0.866667 0.4 0.0567906 -4.45166 
1474 1 0.9 0.4 -0.00113895 -3.90423 
1497 1 0.9 0.5 -0.00118863 -3.90406 
1475 1 0.916667 0.35 0.0570099 -4.44997 
1476 1 0.916667 0.45 0.0569608 -4.45001 
1479 1 0.95 0.35 -0.000844098 -3.90511 
1498 1 0.95 0.45 -0.00091948 -3.90501 
1628 1 0.933333 0.5 0.115659 -4.44663 
1631 1 0.933333 0.4 0.115553 -4.4307 
1632 1 0.966667 0.4 0.0572986 -4.44963 
1633 1 0.983333 0.35 0.11655 -4.18097 
1634 1 0.983333 0.45 0.116088 -4.32323 
1653 1 0.966667 0.5 0.0571448 -4.45253 
14 1 0.0166667 0.55 0.0570459 -4.45011 
19 1 0.0166667 0.65 0.0570571 -4.45003 
21 1 0 0.6 -0.00102388 -3.90417 
22 1 0.05 0.55 -0.00106396 -3.90441 
23 1 0.05 0.65 -0.00105481 -3.90448 
71 1 0.0333333 0.6 0.11577 -4.45096 
77 1 0.0833333 0.55 0.115646 -4.45042 
93 1 0.0833333 0.65 0.115662 -4.45037 
95 1 0.0666667 0.6 0.05696 -4.45043 
96 1 0.1 0.6 -0.00118316 -3.90424 
97 1 0.116667 0.55 0.0568289 -4.44993 
98 1 0.116667 0.65 0.0568375 -4.44998 
101 1 0.15 0.55 -0.00129551 -3.90431 
112 1 0.15 0.65 -0.00128944 -3.90432 
229 1 0.133333 0.6 0.115516 -4.44989 
230 1 0.166667 0.6 0.0567347 -4.44997 
231 1 0.183333 0.55 0.115438 -4.44985 
232 1 0.183333 0.65 0.115442 -4.44985 
236 1 0.216667 0.55 0.0566782 -4.44998 
251 1 0.216667 0.65 0.0566814 -4.44998 
253 1 0.2 0.6 -0.00136083 -3.90435 
254 1 0.25 0.55 -0.00139983 -3.90437 
255 1 0.25 0.65 -0.00139761 -3.90437 
395 1 0.233333 0.6 0.115401 -4.44986 
422 1 0.266667 0.6 0.0566498 -4.44997 
401 1 0.283333 0.55 0.115379 -4.44985 
420 1 0.283333 0.65 0.11538 -4.44986 
423 1 0.3 0.6 -0.00141999 -3.90438 
424 1 0.316667 0.55 0.0566325 -4.44997 
425 1 0.316667 0.65 0.0566327 -4.44997 
428 1 0.35 0.55 -0.00143267 -3.90438 
439 1 0.35 0.65 -0.00143302 -3.90438 
589 1 0.333333 0.6 0.115366 -4.44986 
590 1 0.366667 0.6 0.0566224 -4.44997 
591 1 0.383333 0.55 0.11536 -4.44986 
592 1 0.383333 0.65 0.115359 -4.44986 
596 1 0.416667 0.55 0.0566202 -4.44997 
611 1 0.416667 0.65 0.0566195 -4.44997 
613 1 0.4 0.6 -0.00143818 -3.90438 
614 1 0.45 0.55 -0.00143584 -3.90438 
615 1 0.45 0.65 -0.00143666 -3.90438 
755 1 0.433333 0.6 0.115359 -4.44986 
761 1 0.483333 0.55 0.115366 -4.44985 
780 1 0.483333 0.65 0.115364 -4.44986 
782 1 0.466667 0.6 0.0566236 -4.44997 
783 1 0.5 0.6 -0.00142824 -3.90436 
784 1 0.516667 0.55 0.0566375 -4.44998 
785 1 0.516667 0.65 0.0566345 -4.44998 
949 1 0.533333 0.6 0.115379 -4.44985 
788 1 0.55 0.55 -0.00140177 -3.90435 
799 1 0.55 0.65 -0.0014079 -3.90435 
950 1 0.566667 0.6 0.0566641 -4.44998 
951 1 0.583333 0.55 0.115413 -4.44986 
952 1 0.583333 0.65 0.115404 -4.44986 
956 1 0.616667 0.55 0.0567284 -4.45017 
971 1 0.616667 0.65 0.0567083 -4.45015 
973 1 0.6 0.6 -0.00135959 -3.90419 
1113 1 0.633333 0.6 0.11545 -4.44971 
974 1 0.65 0.55 -0.00119363 -3.90307 
975 1 0.65 0.65 -0.0012422 -3.90141 
1119 1 0.683333 0.55 0.115415 -4.45306 
1136 1 0.683333 0.65 0.115369 -4.45337 
1138 1 0.666667 0.6 0.0568688 -4.44376 
1139 1 0.7 0.6 -0.00072067 -3.47251 
1140 1 0.716667 0.55 0.0571893 -4.28638 
1141 1 0.716667 0.65 0.0568552 -4.3072 
1300 1 0.733333 0.6 0.115375 -4.443 
1301 1 0.766667 0.6 0.0559551 -4.17552 
1302 1 0.783333 0.55 0.115054 -4.45259 
1303 1 0.783333 0.65 0.115232 -4.44942 
1307 1 0.816667 0.55 0.0570024 -4.42624 
1322 1 0.816667 0.65 0.0570184 -4.42981 
1324 1 0.8 0.6 -0.00105756 -3.46997 
1325 1 0.85 0.55 -0.0012093 -3.90315 
1326 1 0.85 0.65 -0.00119427 -3.90145 
1466 1 0.833333 0.6 0.115431 -4.44963 
1472 1 0.883333 0.55 0.115499 -4.45032 
1491 1 0.883333 0.65 0.115517 -4.45025 
1493 1 0.866667 0.6 0.0567563 -4.45126 
1494 1 0.9 0.6 -0.00121038 -3.90414 
1495 1 0.916667 0.55 0.0568878 -4.45008 
1496 1 0.916667 0.65 0.056897 -4.45001 
1499 1 0.95 0.55 -0.0010484 -3.90452 
1510 1 0.95 0.65 -0.00104442 -3.90458 
1649 1 0.933333 0.6 0.115637 -4.45012 
1650 1 0.966667 0.6 0.0570023 -4.44978 
1651 1 0.983333 0.55 0.11573 -4.44661 
1652 1 0.983333 0.65 0.115756 -4.44661 
18 1 0 0.7 -0.000934403 -3.90482 
20 1 0.0166667 0.75 0.057145 -4.44694 
27 1 0 0.8 -0.00090038 -3.90403 
28 1 0.05 0.75 -0.000970479 -3.9048 
88 1 0.0333333 0.8 0.116088 -4.32687 
91 1 0.0333333 0.7 0.115605 -4.43422 
92 1 0.0666667 0.7 0.0569958 -4.44992 
94 1 0.0833333 0.75 0.115664 -4.44656 
107 1 0.0666667 0.8 0.0570986 -4.45258 
108 1 0.1 0.8 -0.00112735 -3.90456 
109 1 0.116667 0.75 0.056854 -4.44989 
111 1 0.1 0.7 -0.00116372 -3.90424 
113 1 0.15 0.75 -0.0012821 -3.90431 
226 1 0.133333 0.7 0.115522 -4.44987 
245 1 0.133333 0.8 0.115526 -4.45002 
246 1 0.166667 0.8 0.0567401 -4.45001 
249 1 0.166667 0.7 0.0567394 -4.44997 
247 1 0.183333 0.75 0.115443 -4.44984 
250 1 0.2 0.7 -0.00135741 -3.90435 
252 1 0.216667 0.75 0.0566829 -4.44997 
261 1 0.2 0.8 -0.00135709 -3.90435 
262 1 0.25 0.75 -0.00139605 -3.90437 
415 1 0.233333 0.8 0.115403 -4.44986 
418 1 0.233333 0.7 0.115403 -4.44985 
419 1 0.266667 0.7 0.0566514 -4.44997 
434 1 0.266667 0.8 0.0566516 -4.44997 
421 1 0.283333 0.75 0.115381 -4.44986 
435 1 0.3 0.8 -0.001419 -3.90438 
436 1 0.316667 0.75 0.0566329 -4.44997 
438 1 0.3 0.7 -0.00141913 -3.90438 
440 1 0.35 0.75 -0.00143321 -3.90437 
586 1 0.333333 0.7 0.115367 -4.44986 
605 1 0.333333 0.8 0.115367 -4.44986 
606 1 0.366667 0.8 0.0566224 -4.44997 
607 1 0.383333 0.75 0.115359 -4.44986 
609 1 0.366667 0.7 0.0566221 -4.44997 
610 1 0.4 0.7 -0.00143879 -3.90438 
612 1 0.416667 0.75 0.0566194 -4.44997 
621 1 0.4 0.8 -0.00143827 -3.90438 
622 1 0.45 0.75 -0.00143666 -3.90438 
775 1 0.433333 0.8 0.115359 -4.44986 
778 1 0.433333 0.7 0.115359 -4.44986 
779 1 0.466667 0.7 0.056623 -4.44997 
781 1 0.483333 0.75 0.115364 -4.44986 
794 1 0.466667 0.8 0.0566233 -4.44997 
795 1 0.5 0.8 -0.00142933 -3.90437 
796 1 0.516667 0.75 0.0566332 -4.44998 
798 1 0.5 0.7 -0.00142955 -3.90437 
946 1 0.533333 0.7 0.115376 -4.44986 
965 1 0.533333 0.8 0.115376 -4.44986 
800 1 0.55 0.75 -0.00141102 -3.90436 
966 1 0.566667 0.8 0.0566569 -4.44998 
967 1 0.583333 0.75 0.115398 -4.44985 
969 1 0.566667 0.7 0.0566568 -4.44998 
970 1 0.6 0.7 -0.0013737 -3.90429 
972 1 0.616667 0.75 0.0566912 -4.45014 
981 1 0.6 0.8 -0.00137367 -3.90429 
1131 1 0.633333 0.8 0.115429 -4.44986 
1134 1 0.633333 0.7 0.115429 -4.44986 
982 1 0.65 0.75 -0.00130195 -3.90744 
1135 1 0.666667 0.7 0.0567785 -4.44796 
1137 1 0.683333 0.75 0.115454 -4.45067 
1148 1 0.666667 0.8 0.0567786 -4.44796 
1149 1 0.7 0.8 -0.000890015 -3.69131 
1150 1 0.716667 0.75 0.0572733 -4.41718 
1152 1 0.7 0.7 -0.000890017 -3.69131 
1153 1 0.75 0.75 -0.000922099 -3.47889 
1297 1 0.733333 0.7 0.115437 -4.44647 
1316 1 0.733333 0.8 0.115438 -4.44647 
1317 1 0.766667 0.8 0.0565612 -4.31864 
1318 1 0.783333 0.75 0.115237 -4.45537 
1320 1 0.766667 0.7 0.0565611 -4.31864 
1321 1 0.8 0.7 -0.00100925 -3.69155 
1323 1 0.816667 0.75 0.0568527 -4.44314 
1332 1 0.8 0.8 -0.00100899 -3.69154 
1333 1 0.85 0.75 -0.00123658 -3.9074 
1486 1 0.833333 0.8 0.115466 -4.44977 
1489 1 0.833333 0.7 0.115464 -4.44977 
1490 1 0.866667 0.7 0.0567933 -4.45083 
1492 1 0.883333 0.75 0.11557 -4.45052 
1505 1 0.866667 0.8 0.0568042 -4.45103 
1506 1 0.9 0.8 -0.00116474 -3.90445 
1509 1 0.9 0.7 -0.00117866 -3.90419 
1507 1 0.916667 0.75 0.0569476 -4.45001 
1511 1 0.95 0.75 -0.000980541 -3.90479 
1646 1 0.933333 0.7 0.11568 -4.4465 
1659 1 0.933333 0.8 0.11553 -4.43422 
1660 1 0.966667 0.8 0.0571173 -4.44692 
1661 1 0.983333 0.75 0.116114 -4.3269 
1663 1 0.966667 0.7 0.0571442 -4.4526 
24 1 0 0.9 -0.000976023 -3.90479 
25 1 0.0166667 0.85 0.0571215 -4.44692 
26 1 0.0166667 0.95 0.0569985 -4.44998 
29 1 0.05 0.85 -0.000988431 -3.90478 
30 1 0.05 0.95 -0.00110559 -3.90451 
103 1 0.0333333 0.9 0.115561 -4.43419 
104 1 0.0666667 0.9 0.0569647 -4.44997 
105 1 0.0833333 0.85 0.11565 -4.44658 
106 1 0.0833333 0.95 0.115624 -4.45035 
110 1 0.116667 0.85 0.0568454 -4.44988 
114 1 0.116667 0.95 0.056815 -4.45003 
115 1 0.1 0.9 -0.00118406 -3.90424 
116 1 0.15 0.85 -0.00128655 -3.90431 
117 1 0.15 0.95 -0.00130278 -3.90432 
242 1 0.133333 0.9 0.115511 -4.44988 
257 1 0.166667 0.9 0.0567329 -4.44997 
248 1 0.183333 0.85 0.115441 -4.44984 
256 1 0.183333 0.95 0.115438 -4.44986 
258 1 0.2 0.9 -0.00136123 -3.90435 
259 1 0.216667 0.85 0.0566816 -4.44998 
260 1 0.216667 0.95 0.0566792 -4.44998 
263 1 0.25 0.85 -0.00139676 -3.90437 
264 1 0.25 0.95 -0.00139748 -3.90437 
430 1 0.233333 0.9 0.115402 -4.44985 
431 1 0.266667 0.9 0.0566515 -4.44997 
432 1 0.283333 0.85 0.115381 -4.44986 
433 1 0.283333 0.95 0.115381 -4.44985 
437 1 0.316667 0.85 0.0566334 -4.44997 
441 1 0.316667 0.95 0.0566344 -4.44997 
442 1 0.3 0.9 -0.00141841 -3.90438 
443 1 0.35 0.85 -0.00143257 -3.90437 
444 1 0.35 0.95 -0.00143139 -3.90438 
602 1 0.333333 0.9 0.115368 -4.44986 
608 1 0.383333 0.85 0.11536 -4.44986 
616 1 0.383333 0.95 0.115361 -4.44986 
617 1 0.366667 0.9 0.0566234 -4.44997 
618 1 0.4 0.9 -0.00143712 -3.90438 
619 1 0.416667 0.85 0.0566204 -4.44997 
620 1 0.416667 0.95 0.0566214 -4.44997 
623 1 0.45 0.85 -0.00143594 -3.90438 
624 1 0.45 0.95 -0.00143473 -3.90438 
790 1 0.433333 0.9 0.11536 -4.44986 
791 1 0.466667 0.9 0.0566244 -4.44997 
792 1 0.483333 0.85 0.115365 -4.44986 
793 1 0.483333 0.95 0.115366 -4.44985 
797 1 0.516667 0.85 0.0566347 -4.44998 
801 1 0.516667 0.95 0.0566379 -4.44998 
802 1 0.5 0.9 -0.00142772 -3.90436 
962 1 0.533333 0.9 0.11538 -4.44986 
803 1 0.55 0.85 -0.00140772 -3.90435 
804 1 0.55 0.95 -0.00140148 -3.90435 
968 1 0.583333 0.85 0.115404 -4.44986 
976 1 0.583333 0.95 0.115413 -4.44986 
977 1 0.566667 0.9 0.0566643 -4.44998 
978 1 0.6 0.9 -0.00135941 -3.90419 
979 1 0.616667 0.85 0.0567084 -4.45014 
980 1 0.616667 0.95 0.0567286 -4.45017 
1144 1 0.633333 0.9 0.11545 -4.44971 
983 1 0.65 0.85 -0.00124214 -3.90141 
984 1 0.65 0.95 -0.00119366 -3.90307 
1145 1 0.666667 0.9 0.0568689 -4.44376 
1146 1 0.683333 0.85 0.115369 -4.45337 
1147 1 0.683333 0.95 0.115415 -4.45306 
1151 1 0.716667 0.85 0.0568551 -4.3072 
1154 1 0.716667 0.95 0.0571886 -4.28638 
1155 1 0.7 0.9 -0.000720906 -3.47252 
1313 1 0.733333 0.9 0.115374 -4.443 
1319 1 0.783333 0.85 0.115233 -4.44942 
1327 1 0.783333 0.95 0.115052 -4.45259 
1328 1 0.766667 0.9 0.0559532 -4.17552 
1329 1 0.8 0.9 -0.0010601 -3.46998 
1330 1 0.816667 0.85 0.0570191 -4.42976 
1331 1 0.816667 0.95 0.0569959 -4.42623 
1334 1 0.85 0.85 -0.00118949 -3.90142 
1335 1 0.85 0.95 -0.00122275 -3.90317 
1501 1 0.833333 0.9 0.115431 -4.44964 
1502 1 0.866667 0.9 0.0567584 -4.45133 
1503 1 0.883333 0.85 0.115553 -4.45077 
1504 1 0.883333 0.95 0.115489 -4.45037 
1513 1 0.9 0.9 -0.00120909 -3.9041 
1508 1 0.916667 0.85 0.0569299 -4.45008 
1512 1 0.916667 0.95 0.0568582 -4.45001 
1514 1 0.95 0.85 -0.00100004 -3.90479 
1515 1 0.95 0.95 -0.00109543 -3.9046 
1656 1 0.933333 0.9 0.115647 -4.44653 
1662 1 0.983333 0.85 0.116077 -4.32688 
1664 1 0.983333 0.95 0.115702 -4.44657 
1665 1 0.966667 0.9 0.0571045 -4.45258 
31 1 0 0.1 0.174488 -4.45122 
32 1 0.0166667 0.05 0.233277 -4.44724 
33 1 0.0166667 0.15 0.233229 -4.44381 
34 1 0 0 0.174472 -4.45181 
36 1 0.05 0.05 0.17446 -4.45003 
41 1 0.05 0.15 0.174439 -4.44751 
131 1 0.0666667 0.1 0.233287 -4.4527 
134 1 0.0666667 0 0.233186 -4.45045 
135 1 0.1 0 0.174351 -4.44982 
136 1 0.116667 0.05 0.233104 -4.44986 
150 1 0.116667 0.15 0.233093 -4.44997 
152 1 0.1 0.1 0.174368 -4.45006 
154 1 0.15 0.05 0.174274 -4.44997 
155 1 0.15 0.15 0.174271 -4.45005 
288 1 0.166667 0 0.233044 -4.44999 
307 1 0.166667 0.1 0.233045 -4.45002 
308 1 0.2 0.1 0.174226 -4.44999 
309 1 0.216667 0.05 0.233016 -4.45 
310 1 0.216667 0.15 0.233014 -4.45 
311 1 0.2 0 0.174227 -4.44998 
313 1 0.25 0.05 0.174203 -4.44999 
337 1 0.25 0.15 0.174202 -4.44999 
475 1 0.266667 0.1 0.233001 -4.45 
478 1 0.266667 0 0.233001 -4.45 
479 1 0.3 0 0.174188 -4.44999 
480 1 0.316667 0.05 0.232992 -4.45 
500 1 0.316667 0.15 0.232992 -4.45 
502 1 0.3 0.1 0.174188 -4.44999 
504 1 0.35 0.05 0.174179 -4.44999 
505 1 0.35 0.15 0.174179 -4.44999 
648 1 0.366667 0 0.232986 -4.45 
667 1 0.366667 0.1 0.232986 -4.45 
668 1 0.4 0.1 0.174175 -4.44999 
669 1 0.416667 0.05 0.232985 -4.45 
670 1 0.416667 0.15 0.232985 -4.45 
671 1 0.4 0 0.174175 -4.44999 
673 1 0.45 0.05 0.174177 -4.44999 
697 1 0.45 0.15 0.174177 -4.44999 
835 1 0.466667 0.1 0.232988 -4.45 
838 1 0.466667 0 0.232988 -4.45 
839 1 0.5 0 0.174184 -4.44999 
840 1 0.516667 0.05 0.232997 -4.45 
860 1 0.516667 0.15 0.232999 -4.45 
862 1 0.5 0.1 0.174186 -4.44999 
864 1 0.55 0.05 0.174204 -4.44999 
865 1 0.55 0.15 0.174207 -4.44999 
1008 1 0.566667 0 0.23301 -4.45 
1027 1 0.566667 0.1 0.233014 -4.45 
1028 1 0.6 0.1 0.174234 -4.44994 
1029 1 0.616667 0.05 0.233026 -4.45002 
1030 1 0.616667 0.15 0.23303 -4.45002 
1031 1 0.6 0 0.174228 -4.44994 
1033 1 0.65 0.05 0.174244 -4.44982 
1057 1 0.65 0.15 0.174251 -4.44981 
1186 1 0.666667 0.1 0.23302 -4.44996 
1189 1 0.666667 0 0.233013 -4.44995 
1190 1 0.7 0 0.174196 -4.45054 
1191 1 0.716667 0.05 0.232966 -4.45006 
1211 1 0.716667 0.15 0.232971 -4.45007 
1213 1 0.7 0.1 0.174205 -4.45054 
1215 1 0.75 0.05 0.17408 -4.44908 
1216 1 0.75 0.15 0.174085 -4.44908 
1359 1 0.766667 0 0.232901 -4.4499 
1378 1 0.766667 0.1 0.232902 -4.44989 
1379 1 0.8 0.1 0.174039 -4.45056 
1380 1 0.816667 0.05 0.232928 -4.45005 
1381 1 0.816667 0.15 0.23293 -4.45006 
1382 1 0.8 0 0.174041 -4.45058 
1384 1 0.85 0.05 0.174218 -4.44972 
1408 1 0.85 0.15 0.174224 -4.44979 
1546 1 0.866667 0.1 0.233045 -4.45018 
1549 1 0.866667 0 0.233031 -4.44999 
1550 1 0.9 0 0.174302 -4.44981 
1573 1 0.9 0.1 0.174311 -4.45003 
1551 1 0.916667 0.05 0.233136 -4.4501 
1571 1 0.916667 0.15 0.233106 -4.45064 
1575 1 0.95 0.05 0.174423 -4.45002 
1576 1 0.95 0.15 0.174442 -4.44752 
1689 1 0.966667 0 0.23327 -4.45313 
1708 1 0.966667 0.1 0.233224 -4.44766 
37 1 0.0166667 0.25 0.232765 -4.32309 
39 1 0 0.2 0.174462 -4.32868 
42 1 0.05 0.25 0.174359 -4.32453 
145 1 0.0666667 0.3 0.233166 -4.43108 
148 1 0.0666667 0.2 0.233112 -4.44694 
149 1 0.1 0.2 0.174337 -4.4515 
151 1 0.116667 0.25 0.233026 -4.45065 
173 1 0.1 0.3 0.174312 -4.44901 
175 1 0.15 0.25 0.174255 -4.45003 
304 1 0.166667 0.2 0.233035 -4.45001 
331 1 0.166667 0.3 0.233022 -4.45003 
332 1 0.2 0.3 0.174217 -4.45001 
333 1 0.216667 0.25 0.233011 -4.45 
335 1 0.2 0.2 0.174222 -4.44999 
338 1 0.25 0.25 0.1742 -4.44999 
495 1 0.266667 0.3 0.232999 -4.45 
498 1 0.266667 0.2 0.233001 -4.45 
499 1 0.3 0.2 0.174188 -4.44999 
501 1 0.316667 0.25 0.232991 -4.45 
530 1 0.3 0.3 0.174187 -4.44999 
532 1 0.35 0.25 0.174178 -4.44999 
664 1 0.366667 0.2 0.232986 -4.45 
691 1 0.366667 0.3 0.232986 -4.45 
692 1 0.4 0.3 0.174174 -4.44999 
693 1 0.416667 0.25 0.232984 -4.45 
695 1 0.4 0.2 0.174175 -4.44999 
698 1 0.45 0.25 0.174177 -4.44999 
855 1 0.466667 0.3 0.232989 -4.45 
858 1 0.466667 0.2 0.232989 -4.45 
859 1 0.5 0.2 0.174187 -4.44999 
861 1 0.516667 0.25 0.233 -4.45 
890 1 0.5 0.3 0.174187 -4.44999 
892 1 0.55 0.25 0.174208 -4.44999 
1024 1 0.566667 0.2 0.233016 -4.45 
1051 1 0.566667 0.3 0.233016 -4.45 
1052 1 0.6 0.3 0.174237 -4.44994 
1053 1 0.616667 0.25 0.233032 -4.45002 
1055 1 0.6 0.2 0.174237 -4.44994 
1058 1 0.65 0.25 0.174252 -4.44981 
1206 1 0.666667 0.3 0.233023 -4.44996 
1209 1 0.666667 0.2 0.233023 -4.44996 
1210 1 0.7 0.2 0.17421 -4.45054 
1212 1 0.716667 0.25 0.232972 -4.45007 
1241 1 0.7 0.3 0.17421 -4.45054 
1243 1 0.75 0.25 0.174087 -4.44908 
1375 1 0.766667 0.2 0.232904 -4.44988 
1402 1 0.766667 0.3 0.232904 -4.44988 
1403 1 0.8 0.3 0.174046 -4.45058 
1404 1 0.816667 0.25 0.232931 -4.45009 
1406 1 0.8 0.2 0.174043 -4.45056 
1409 1 0.85 0.25 0.174231 -4.44979 
1566 1 0.866667 0.3 0.233015 -4.45012 
1569 1 0.866667 0.2 0.233033 -4.45003 
1570 1 0.9 0.2 0.174315 -4.45149 
1601 1 0.9 0.3 0.174309 -4.44902 
1572 1 0.916667 0.25 0.233036 -4.44724 
1603 1 0.95 0.25 0.174438 -4.32441 
1705 1 0.966667 0.2 0.233385 -4.43753 
1726 1 0.966667 0.3 0.232952 -4.30789 
38 1 0.0166667 0.35 0.232217 -4.18064 
50 1 0 0.5 0.174451 -4.32882 
51 1 0.0166667 0.45 0.232739 -4.32314 
54 1 0.05 0.35 0.174276 -4.1808 
55 1 0.05 0.45 0.174348 -4.32455 
166 1 0.0666667 0.5 0.233092 -4.44686 
169 1 0.0666667 0.4 0.233155 -4.43107 
170 1 0.1 0.4 0.174309 -4.44901 
171 1 0.116667 0.35 0.232969 -4.45098 
172 1 0.116667 0.45 0.233016 -4.45065 
176 1 0.15 0.35 0.174243 -4.4499 
201 1 0.1 0.5 0.174332 -4.4515 
203 1 0.15 0.45 0.174253 -4.45003 
328 1 0.166667 0.4 0.233019 -4.45003 
362 1 0.166667 0.5 0.23303 -4.45001 
334 1 0.216667 0.35 0.233008 -4.44999 
363 1 0.2 0.5 0.174221 -4.44999 
364 1 0.216667 0.45 0.233008 -4.45 
366 1 0.2 0.4 0.174216 -4.45001 
368 1 0.25 0.35 0.174199 -4.44999 
369 1 0.25 0.45 0.174198 -4.44999 
523 1 0.266667 0.5 0.232998 -4.45 
526 1 0.266667 0.4 0.232998 -4.45 
527 1 0.3 0.4 0.174186 -4.44999 
528 1 0.316667 0.35 0.232991 -4.45 
529 1 0.316667 0.45 0.23299 -4.45 
533 1 0.35 0.35 0.174178 -4.44999 
561 1 0.3 0.5 0.174186 -4.44999 
563 1 0.35 0.45 0.174177 -4.44999 
688 1 0.366667 0.4 0.232985 -4.45 
694 1 0.416667 0.35 0.232984 -4.45 
722 1 0.366667 0.5 0.232985 -4.45 
723 1 0.4 0.5 0.174174 -4.44999 
724 1 0.416667 0.45 0.232984 -4.45 
726 1 0.4 0.4 0.174174 -4.44999 
728 1 0.45 0.35 0.174177 -4.44999 
729 1 0.45 0.45 0.174176 -4.44999 
883 1 0.466667 0.5 0.232987 -4.45 