ITEM: TIMESTEP
28
ITEM: NUMBER OF ATOMS
3584
ITEM: BOX BOUNDS pp pp ss
0.0000000000000000e+00 4.3111019472983898e+01
0.0000000000000000e+00 2.4890158697766498e+01
-3.6580800000000006e-03 3.4552298188307212e+01
ITEM: ATOMS id type xs ys zs c_peratom 
1 1 0 0.1 -0.00109698 -3.90428 
2 1 0.0166667 0.05 0.056943 -4.45009 
3 1 0.0166667 0.15 0.0570054 -4.45005 
4 1 0 0 -0.00110192 -3.90429 
5 1 0.05 0.05 -0.00114582 -3.90427 
10 1 0.05 0.15 -0.0011031 -3.90446 
35 1 0.0333333 0 0.115687 -4.45044 
43 1 0.0333333 0.1 0.115696 -4.45044 
44 1 0.0666667 0.1 0.0569011 -4.45013 
45 1 0.0833333 0.05 0.115589 -4.44986 
46 1 0.0833333 0.15 0.115627 -4.45041 
47 1 0.0666667 0 0.0568982 -4.45017 
48 1 0.1 0 -0.00122237 -3.90428 
49 1 0.116667 0.05 0.0567999 -4.44987 
62 1 0.116667 0.15 0.0568133 -4.44999 
64 1 0.1 0.1 -0.0012211 -3.90428 
65 1 0.15 0.05 -0.00130899 -3.90433 
66 1 0.15 0.15 -0.00130489 -3.90433 
153 1 0.133333 0.1 0.115502 -4.44988 
156 1 0.133333 0 0.1155 -4.44985 
157 1 0.166667 0 0.056726 -4.44997 
181 1 0.166667 0.1 0.0567256 -4.44998 
158 1 0.183333 0.05 0.115436 -4.44985 
179 1 0.183333 0.15 0.115435 -4.44985 
182 1 0.2 0.1 -0.00136609 -3.90435 
183 1 0.216667 0.05 0.056678 -4.44998 
184 1 0.216667 0.15 0.056677 -4.44998 
185 1 0.2 0 -0.00136551 -3.90434 
186 1 0.25 0.05 -0.0013968 -3.90438 
214 1 0.25 0.15 -0.00139731 -3.90438 
312 1 0.233333 0 0.115402 -4.44986 
339 1 0.233333 0.1 0.115401 -4.44986 
340 1 0.266667 0.1 0.0566527 -4.44997 
343 1 0.266667 0 0.0566531 -4.44997 
341 1 0.283333 0.05 0.115382 -4.44985 
342 1 0.283333 0.15 0.115382 -4.44985 
344 1 0.3 0 -0.00141643 -3.90438 
345 1 0.316667 0.05 0.0566362 -4.44997 
376 1 0.316667 0.15 0.0566357 -4.44997 
378 1 0.3 0.1 -0.00141686 -3.90438 
379 1 0.35 0.05 -0.0014294 -3.90438 
380 1 0.35 0.15 -0.00142976 -3.90438 
503 1 0.333333 0.1 0.115369 -4.44985 
506 1 0.333333 0 0.115369 -4.44985 
507 1 0.366667 0 0.0566264 -4.44998 
508 1 0.383333 0.05 0.115363 -4.44986 
536 1 0.383333 0.15 0.115363 -4.44986 
538 1 0.366667 0.1 0.0566265 -4.44997 
539 1 0.4 0.1 -0.00143302 -3.90438 
540 1 0.416667 0.05 0.0566249 -4.44997 
541 1 0.416667 0.15 0.0566255 -4.44997 
542 1 0.4 0 -0.00143379 -3.90438 
543 1 0.45 0.05 -0.00143144 -3.90437 
574 1 0.45 0.15 -0.00143038 -3.90437 
672 1 0.433333 0 0.115363 -4.44986 
699 1 0.433333 0.1 0.115364 -4.44986 
700 1 0.466667 0.1 0.0566302 -4.44997 
701 1 0.483333 0.05 0.115371 -4.44986 
702 1 0.483333 0.15 0.115372 -4.44986 
703 1 0.466667 0 0.0566285 -4.44997 
704 1 0.5 0 -0.00142103 -3.90436 
705 1 0.516667 0.05 0.0566451 -4.44998 
736 1 0.516667 0.15 0.0566474 -4.44998 
738 1 0.5 0.1 -0.00141828 -3.90436 
863 1 0.533333 0.1 0.115391 -4.44985 
866 1 0.533333 0 0.115387 -4.44985 
739 1 0.55 0.05 -0.00139278 -3.90435 
740 1 0.55 0.15 -0.00138943 -3.90434 
867 1 0.566667 0 0.0566754 -4.44997 
868 1 0.583333 0.05 0.115423 -4.44986 
896 1 0.583333 0.15 0.115427 -4.44985 
898 1 0.566667 0.1 0.0566807 -4.44997 
899 1 0.6 0.1 -0.00133377 -3.90419 
900 1 0.616667 0.05 0.0567445 -4.45019 
901 1 0.616667 0.15 0.056751 -4.45019 
902 1 0.6 0 -0.0013419 -3.90419 
1032 1 0.633333 0 0.115469 -4.44982 
1059 1 0.633333 0.1 0.115478 -4.44979 
903 1 0.65 0.05 -0.00116843 -3.90299 
934 1 0.65 0.15 -0.00115906 -3.90298 
1060 1 0.666667 0.1 0.0569188 -4.44435 
1061 1 0.683333 0.05 0.115436 -4.45346 
1062 1 0.683333 0.15 0.115445 -4.45344 
1063 1 0.666667 0 0.056905 -4.44425 
1064 1 0.7 0 -0.000575375 -3.46782 
1065 1 0.716667 0.05 0.0572252 -4.28688 
1096 1 0.716667 0.15 0.0572358 -4.28689 
1098 1 0.7 0.1 -0.000554983 -3.46778 
1214 1 0.733333 0.1 0.115419 -4.44262 
1217 1 0.733333 0 0.115408 -4.44255 
1218 1 0.766667 0 0.0559753 -4.17112 
1219 1 0.783333 0.05 0.115049 -4.45253 
1247 1 0.783333 0.15 0.115052 -4.45254 
1249 1 0.766667 0.1 0.0559765 -4.17121 
1250 1 0.8 0.1 -0.0010247 -3.46543 
1251 1 0.816667 0.05 0.0569969 -4.42628 
1252 1 0.816667 0.15 0.0570028 -4.42628 
1253 1 0.8 0 -0.00102705 -3.46552 
1254 1 0.85 0.05 -0.00123291 -3.90311 
1285 1 0.85 0.15 -0.00122084 -3.90311 
1383 1 0.833333 0 0.115409 -4.44954 
1410 1 0.833333 0.1 0.11541 -4.44955 
1411 1 0.866667 0.1 0.0567264 -4.45134 
1412 1 0.883333 0.05 0.115476 -4.4503 
1413 1 0.883333 0.15 0.115492 -4.45035 
1414 1 0.866667 0 0.0567256 -4.45134 
1415 1 0.9 0 -0.00125179 -3.9042 
1449 1 0.9 0.1 -0.00124906 -3.9042 
1416 1 0.916667 0.05 0.0568267 -4.45015 
1447 1 0.916667 0.15 0.0568657 -4.45004 
1450 1 0.95 0.05 -0.0011622 -3.90433 
1451 1 0.95 0.15 -0.00108562 -3.90455 
1574 1 0.933333 0.1 0.115599 -4.44994 
1577 1 0.933333 0 0.115595 -4.44992 
1578 1 0.966667 0 0.0569284 -4.44987 
1579 1 0.983333 0.05 0.115662 -4.44992 
1607 1 0.983333 0.15 0.115706 -4.4466 
1609 1 0.966667 0.1 0.0569333 -4.44986 
6 1 0 0.3 -0.000793421 -3.90428 
7 1 0.0166667 0.25 0.0571436 -4.44672 
9 1 0 0.2 -0.000959122 -3.9046 
11 1 0.05 0.25 -0.000983543 -3.90483 
40 1 0.0333333 0.2 0.115563 -4.43462 
56 1 0.0333333 0.3 0.115817 -4.30797 
57 1 0.0666667 0.3 0.057104 -4.45267 
58 1 0.0833333 0.25 0.115644 -4.44715 
60 1 0.0666667 0.2 0.0569671 -4.45033 
61 1 0.1 0.2 -0.00118696 -3.90419 
63 1 0.116667 0.25 0.0568364 -4.44996 
82 1 0.1 0.3 -0.00113314 -3.90437 
83 1 0.15 0.25 -0.00129676 -3.90429 
174 1 0.133333 0.3 0.115503 -4.45003 
177 1 0.133333 0.2 0.115503 -4.44989 
178 1 0.166667 0.2 0.0567263 -4.44997 
209 1 0.166667 0.3 0.0567278 -4.45 
180 1 0.183333 0.25 0.115431 -4.44984 
210 1 0.2 0.3 -0.00136707 -3.90433 
211 1 0.216667 0.25 0.0566754 -4.44998 
213 1 0.2 0.2 -0.00136758 -3.90434 
215 1 0.25 0.25 -0.00139833 -3.90437 
336 1 0.233333 0.2 0.115399 -4.44986 
370 1 0.233333 0.3 0.115397 -4.44986 
371 1 0.266667 0.3 0.0566509 -4.44997 
374 1 0.266667 0.2 0.0566519 -4.44997 
372 1 0.283333 0.25 0.115381 -4.44985 
375 1 0.3 0.2 -0.00141744 -3.90438 
377 1 0.316667 0.25 0.0566349 -4.44997 
406 1 0.3 0.3 -0.00141855 -3.90438 
407 1 0.35 0.25 -0.00143042 -3.90437 
531 1 0.333333 0.3 0.115367 -4.44985 
534 1 0.333333 0.2 0.115368 -4.44986 
535 1 0.366667 0.2 0.0566263 -4.44998 
537 1 0.383333 0.25 0.115363 -4.44986 
569 1 0.366667 0.3 0.0566258 -4.44998 
570 1 0.4 0.3 -0.00143291 -3.90438 
571 1 0.416667 0.25 0.0566256 -4.44997 
573 1 0.4 0.2 -0.00143264 -3.90438 
575 1 0.45 0.25 -0.00143009 -3.90437 
696 1 0.433333 0.2 0.115364 -4.44986 
730 1 0.433333 0.3 0.115364 -4.44986 
731 1 0.466667 0.3 0.0566309 -4.44998 
732 1 0.483333 0.25 0.115373 -4.44986 
734 1 0.466667 0.2 0.0566311 -4.44998 
735 1 0.5 0.2 -0.00141705 -3.90436 
737 1 0.516667 0.25 0.0566482 -4.44998 
766 1 0.5 0.3 -0.00141725 -3.90436 
891 1 0.533333 0.3 0.115392 -4.44985 
894 1 0.533333 0.2 0.115392 -4.44985 
767 1 0.55 0.25 -0.00138839 -3.90434 
895 1 0.566667 0.2 0.056683 -4.44998 
897 1 0.583333 0.25 0.115428 -4.44986 
929 1 0.566667 0.3 0.0566829 -4.44998 
930 1 0.6 0.3 -0.00133066 -3.90419 
931 1 0.616667 0.25 0.0567522 -4.45019 
933 1 0.6 0.2 -0.00133067 -3.90419 
1056 1 0.633333 0.2 0.115482 -4.44979 
1090 1 0.633333 0.3 0.115483 -4.44979 
935 1 0.65 0.25 -0.00115714 -3.90298 
1091 1 0.666667 0.3 0.0569245 -4.44434 
1092 1 0.683333 0.25 0.115447 -4.45343 
1094 1 0.666667 0.2 0.0569243 -4.44434 
1095 1 0.7 0.2 -0.000548167 -3.46778 
1097 1 0.716667 0.25 0.057239 -4.28689 
1124 1 0.7 0.3 -0.000547921 -3.46777 
1242 1 0.733333 0.3 0.115426 -4.44261 
1245 1 0.733333 0.2 0.115425 -4.44261 
1246 1 0.766667 0.2 0.0559817 -4.17121 
1248 1 0.783333 0.25 0.115057 -4.45253 
1280 1 0.766667 0.3 0.0559857 -4.17121 
1281 1 0.8 0.3 -0.00101226 -3.46539 
1282 1 0.816667 0.25 0.0570127 -4.42623 
1284 1 0.8 0.2 -0.00101798 -3.46542 
1286 1 0.85 0.25 -0.00119613 -3.90306 
1407 1 0.833333 0.2 0.11542 -4.44956 
1441 1 0.833333 0.3 0.11543 -4.44957 
1442 1 0.866667 0.3 0.0567905 -4.45167 
1443 1 0.883333 0.25 0.115549 -4.4509 
1445 1 0.866667 0.2 0.0567552 -4.4514 
1446 1 0.9 0.2 -0.00119653 -3.90409 
1477 1 0.9 0.3 -0.00113809 -3.90424 
1448 1 0.916667 0.25 0.0569579 -4.45001 
1478 1 0.95 0.25 -0.000928576 -3.90502 
1602 1 0.933333 0.3 0.115556 -4.4307 
1605 1 0.933333 0.2 0.115658 -4.44665 
1606 1 0.966667 0.2 0.0571274 -4.45254 
1608 1 0.983333 0.25 0.116088 -4.32319 
1635 1 0.966667 0.3 0.0572948 -4.44963 
8 1 0.0166667 0.35 0.0572481 -4.44369 
12 1 0 0.5 -0.000938738 -3.90458 
13 1 0.0166667 0.45 0.0571503 -4.44672 
15 1 0 0.4 -0.00078997 -3.90428 
16 1 0.05 0.35 -0.000895426 -3.90514 
17 1 0.05 0.45 -0.000975945 -3.90481 
53 1 0.0333333 0.4 0.115816 -4.30799 
59 1 0.0833333 0.35 0.115622 -4.44322 
74 1 0.0333333 0.5 0.115571 -4.43461 
75 1 0.0666667 0.5 0.0569798 -4.45027 
76 1 0.0833333 0.45 0.115643 -4.44713 
78 1 0.0666667 0.4 0.0571052 -4.45267 
79 1 0.1 0.4 -0.00113251 -3.90436 
80 1 0.116667 0.35 0.0568467 -4.44982 
81 1 0.116667 0.45 0.0568381 -4.44996 
84 1 0.15 0.35 -0.00129223 -3.90426 
99 1 0.1 0.5 -0.00117833 -3.90416 
100 1 0.15 0.45 -0.00129505 -3.90428 
202 1 0.133333 0.5 0.115504 -4.44988 
205 1 0.133333 0.4 0.115502 -4.45003 
206 1 0.166667 0.4 0.0567277 -4.45 
233 1 0.166667 0.5 0.0567295 -4.44997 
207 1 0.183333 0.35 0.115428 -4.44982 
208 1 0.183333 0.45 0.115431 -4.44984 
212 1 0.216667 0.35 0.0566746 -4.44998 
234 1 0.2 0.5 -0.001365 -3.90434 
235 1 0.216667 0.45 0.0566757 -4.44998 
237 1 0.2 0.4 -0.00136753 -3.90433 
238 1 0.25 0.35 -0.00139899 -3.90437 
239 1 0.25 0.45 -0.00139889 -3.90437 
367 1 0.233333 0.4 0.115397 -4.44986 
398 1 0.233333 0.5 0.115399 -4.44986 
399 1 0.266667 0.5 0.0566512 -4.44997 
402 1 0.266667 0.4 0.0566506 -4.44997 
373 1 0.283333 0.35 0.11538 -4.44985 
400 1 0.283333 0.45 0.11538 -4.44985 
403 1 0.3 0.4 -0.00141858 -3.90438 
404 1 0.316667 0.35 0.0566343 -4.44997 
405 1 0.316667 0.45 0.0566342 -4.44997 
408 1 0.35 0.35 -0.00143097 -3.90437 
426 1 0.3 0.5 -0.00141847 -3.90438 
427 1 0.35 0.45 -0.00143102 -3.90438 
562 1 0.333333 0.5 0.115367 -4.44985 
565 1 0.333333 0.4 0.115367 -4.44986 
566 1 0.366667 0.4 0.0566253 -4.44998 
567 1 0.383333 0.35 0.115362 -4.44986 
568 1 0.383333 0.45 0.115361 -4.44986 
572 1 0.416667 0.35 0.056625 -4.44997 
593 1 0.366667 0.5 0.056625 -4.44998 
594 1 0.4 0.5 -0.00143478 -3.90438 
595 1 0.416667 0.45 0.0566239 -4.44997 
597 1 0.4 0.4 -0.00143399 -3.90438 
598 1 0.45 0.35 -0.00143089 -3.90437 
599 1 0.45 0.45 -0.00143227 -3.90437 
727 1 0.433333 0.4 0.115363 -4.44986 
758 1 0.433333 0.5 0.115362 -4.44986 
733 1 0.483333 0.35 0.115372 -4.44986 
759 1 0.466667 0.5 0.0566277 -4.44998 
760 1 0.483333 0.45 0.11537 -4.44986 
762 1 0.466667 0.4 0.0566296 -4.44997 
763 1 0.5 0.4 -0.0014188 -3.90436 
764 1 0.516667 0.35 0.0566471 -4.44998 
765 1 0.516667 0.45 0.0566446 -4.44998 
786 1 0.5 0.5 -0.0014217 -3.90436 
922 1 0.533333 0.5 0.115387 -4.44985 
925 1 0.533333 0.4 0.11539 -4.44985 
768 1 0.55 0.35 -0.00138979 -3.90434 
787 1 0.55 0.45 -0.00139326 -3.90434 
926 1 0.566667 0.4 0.0566804 -4.44998 
927 1 0.583333 0.35 0.115427 -4.44985 
928 1 0.583333 0.45 0.115423 -4.44986 
932 1 0.616667 0.35 0.0567512 -4.45019 
953 1 0.566667 0.5 0.0566751 -4.44997 
954 1 0.6 0.5 -0.00134206 -3.90419 
955 1 0.616667 0.45 0.0567446 -4.45019 
957 1 0.6 0.4 -0.00133384 -3.90419 
1087 1 0.633333 0.4 0.115479 -4.44979 
1116 1 0.633333 0.5 0.115469 -4.44982 
958 1 0.65 0.35 -0.00115852 -3.90298 
959 1 0.65 0.45 -0.00116776 -3.90299 
1093 1 0.683333 0.35 0.115445 -4.45344 
1117 1 0.666667 0.5 0.0569057 -4.44425 
1118 1 0.683333 0.45 0.115437 -4.45346 
1120 1 0.666667 0.4 0.0569194 -4.44434 
1121 1 0.7 0.4 -0.000554246 -3.46776 
1122 1 0.716667 0.35 0.0572366 -4.28689 
1123 1 0.716667 0.45 0.0572262 -4.28688 
1142 1 0.7 0.5 -0.000574498 -3.46781 
1273 1 0.733333 0.5 0.11541 -4.44255 
1276 1 0.733333 0.4 0.115421 -4.44262 
1277 1 0.766667 0.4 0.0559842 -4.17121 
1278 1 0.783333 0.35 0.115058 -4.45252 
1279 1 0.783333 0.45 0.115055 -4.45252 
1283 1 0.816667 0.35 0.0570169 -4.42619 
1304 1 0.766667 0.5 0.0559808 -4.17112 
1305 1 0.8 0.5 -0.00101848 -3.46548 
1306 1 0.816667 0.45 0.0570119 -4.42624 
1308 1 0.8 0.4 -0.00101315 -3.46538 
1309 1 0.85 0.35 -0.00118272 -3.90302 
1310 1 0.85 0.45 -0.00119423 -3.90306 
1438 1 0.833333 0.4 0.115428 -4.44957 
1444 1 0.883333 0.35 0.115589 -4.45136 
1469 1 0.833333 0.5 0.11542 -4.44955 
1470 1 0.866667 0.5 0.0567606 -4.4514 
1471 1 0.883333 0.45 0.115546 -4.45089 
1473 1 0.866667 0.4 0.0567905 -4.45167 
1474 1 0.9 0.4 -0.00113668 -3.90424 
1497 1 0.9 0.5 -0.00118612 -3.90407 
1475 1 0.916667 0.35 0.0570102 -4.44996 
1476 1 0.916667 0.45 0.0569606 -4.45 
1479 1 0.95 0.35 -0.00084498 -3.90511 
1498 1 0.95 0.45 -0.000922 -3.905 
1628 1 0.933333 0.5 0.115659 -4.44663 
1631 1 0.933333 0.4 0.115553 -4.4307 
1632 1 0.966667 0.4 0.0572961 -4.44963 
1633 1 0.983333 0.35 0.116548 -4.18097 
1634 1 0.983333 0.45 0.116087 -4.32323 
1653 1 0.966667 0.5 0.0571415 -4.45254 
14 1 0.0166667 0.55 0.0570435 -4.45011 
19 1 0.0166667 0.65 0.0570542 -4.45002 
21 1 0 0.6 -0.0010248 -3.90418 
22 1 0.05 0.55 -0.00106703 -3.90441 
23 1 0.05 0.65 -0.0010587 -3.90447 
71 1 0.0333333 0.6 0.115767 -4.45096 
77 1 0.0833333 0.55 0.115643 -4.45042 
93 1 0.0833333 0.65 0.115658 -4.45037 
95 1 0.0666667 0.6 0.0569559 -4.45043 
96 1 0.1 0.6 -0.00118664 -3.90423 
97 1 0.116667 0.55 0.0568267 -4.44993 
98 1 0.116667 0.65 0.0568351 -4.44998 
101 1 0.15 0.55 -0.00129616 -3.90431 
112 1 0.15 0.65 -0.00129085 -3.90432 
229 1 0.133333 0.6 0.115514 -4.44989 
230 1 0.166667 0.6 0.0567342 -4.44997 
231 1 0.183333 0.55 0.115437 -4.44985 
232 1 0.183333 0.65 0.115441 -4.44985 
236 1 0.216667 0.55 0.0566792 -4.44998 
251 1 0.216667 0.65 0.0566819 -4.44998 
253 1 0.2 0.6 -0.00136053 -3.90435 
254 1 0.25 0.55 -0.001397 -3.90437 
255 1 0.25 0.65 -0.00139493 -3.90437 
395 1 0.233333 0.6 0.115402 -4.44986 
422 1 0.266667 0.6 0.0566527 -4.44997 
401 1 0.283333 0.55 0.115381 -4.44986 
420 1 0.283333 0.65 0.115382 -4.44985 
423 1 0.3 0.6 -0.00141789 -3.90438 
424 1 0.316667 0.55 0.0566344 -4.44997 
425 1 0.316667 0.65 0.0566352 -4.44997 
428 1 0.35 0.55 -0.00143112 -3.90438 
439 1 0.35 0.65 -0.00143103 -3.90438 
589 1 0.333333 0.6 0.115367 -4.44985 
590 1 0.366667 0.6 0.0566248 -4.44997 
591 1 0.383333 0.55 0.115361 -4.44986 
592 1 0.383333 0.65 0.115361 -4.44986 
596 1 0.416667 0.55 0.056623 -4.44997 
611 1 0.416667 0.65 0.0566222 -4.44997 
613 1 0.4 0.6 -0.00143534 -3.90438 
614 1 0.45 0.55 -0.00143381 -3.90437 
615 1 0.45 0.65 -0.00143467 -3.90437 
755 1 0.433333 0.6 0.115361 -4.44986 
761 1 0.483333 0.55 0.115368 -4.44986 
780 1 0.483333 0.65 0.115366 -4.44986 
782 1 0.466667 0.6 0.0566263 -4.44998 
783 1 0.5 0.6 -0.00142419 -3.90437 
784 1 0.516667 0.55 0.0566412 -4.44997 
785 1 0.516667 0.65 0.0566379 -4.44997 
949 1 0.533333 0.6 0.115382 -4.44985 
788 1 0.55 0.55 -0.00139868 -3.90435 
799 1 0.55 0.65 -0.00140495 -3.90435 
950 1 0.566667 0.6 0.0566665 -4.44998 
951 1 0.583333 0.55 0.115415 -4.44986 
952 1 0.583333 0.65 0.115406 -4.44986 
956 1 0.616667 0.55 0.0567312 -4.45017 
971 1 0.616667 0.65 0.0567118 -4.45014 
973 1 0.6 0.6 -0.00135707 -3.90419 
1113 1 0.633333 0.6 0.115453 -4.44971 
974 1 0.65 0.55 -0.00118908 -3.90308 
975 1 0.65 0.65 -0.00123756 -3.90142 
1119 1 0.683333 0.55 0.115419 -4.45307 
1136 1 0.683333 0.65 0.115373 -4.45337 
1138 1 0.666667 0.6 0.0568719 -4.44376 
1139 1 0.7 0.6 -0.000718185 -3.47251 
1140 1 0.716667 0.55 0.0571915 -4.28638 
1141 1 0.716667 0.65 0.0568575 -4.3072 
1300 1 0.733333 0.6 0.115377 -4.443 
1301 1 0.766667 0.6 0.0559565 -4.17552 
1302 1 0.783333 0.55 0.115058 -4.45259 
1303 1 0.783333 0.65 0.115235 -4.44942 
1307 1 0.816667 0.55 0.0570047 -4.42624 
1322 1 0.816667 0.65 0.0570202 -4.42981 
1324 1 0.8 0.6 -0.00105438 -3.46998 
1325 1 0.85 0.55 -0.00120808 -3.90315 
1326 1 0.85 0.65 -0.0011939 -3.90144 
1466 1 0.833333 0.6 0.115433 -4.44963 
1472 1 0.883333 0.55 0.1155 -4.45032 
1491 1 0.883333 0.65 0.115517 -4.45025 
1493 1 0.866667 0.6 0.0567562 -4.45126 
1494 1 0.9 0.6 -0.00120951 -3.90414 
1495 1 0.916667 0.55 0.0568877 -4.45007 
1496 1 0.916667 0.65 0.0568957 -4.45001 
1499 1 0.95 0.55 -0.00105054 -3.90452 
1510 1 0.95 0.65 -0.00104785 -3.90457 
1649 1 0.933333 0.6 0.115635 -4.45012 
1650 1 0.966667 0.6 0.056999 -4.44978 
1651 1 0.983333 0.55 0.115727 -4.44661 
1652 1 0.983333 0.65 0.115753 -4.44661 
18 1 0 0.7 -0.00093614 -3.90482 
20 1 0.0166667 0.75 0.0571421 -4.44693 
27 1 0 0.8 -0.000901914 -3.90403 
28 1 0.05 0.75 -0.000975308 -3.90479 
88 1 0.0333333 0.8 0.116086 -4.32687 
91 1 0.0333333 0.7 0.115602 -4.43421 
92 1 0.0666667 0.7 0.0569911 -4.44992 
94 1 0.0833333 0.75 0.11566 -4.44656 
107 1 0.0666667 0.8 0.0570938 -4.45258 
108 1 0.1 0.8 -0.00113114 -3.90456 
109 1 0.116667 0.75 0.0568515 -4.44989 
111 1 0.1 0.7 -0.00116613 -3.90424 
113 1 0.15 0.75 -0.00128352 -3.90431 
226 1 0.133333 0.7 0.11552 -4.44987 
245 1 0.133333 0.8 0.115524 -4.45002 
246 1 0.166667 0.8 0.0567393 -4.45 
249 1 0.166667 0.7 0.0567381 -4.44997 
247 1 0.183333 0.75 0.115441 -4.44984 
250 1 0.2 0.7 -0.0013587 -3.90434 
252 1 0.216667 0.75 0.0566829 -4.44998 
261 1 0.2 0.8 -0.00135777 -3.90435 
262 1 0.25 0.75 -0.00139377 -3.90437 
415 1 0.233333 0.8 0.115403 -4.44986 
418 1 0.233333 0.7 0.115403 -4.44985 
419 1 0.266667 0.7 0.0566543 -4.44997 
434 1 0.266667 0.8 0.0566547 -4.44997 
421 1 0.283333 0.75 0.115383 -4.44985 
435 1 0.3 0.8 -0.00141608 -3.90438 
436 1 0.316667 0.75 0.0566359 -4.44997 
438 1 0.3 0.7 -0.00141628 -3.90438 
440 1 0.35 0.75 -0.00143105 -3.90437 
586 1 0.333333 0.7 0.115368 -4.44986 
605 1 0.333333 0.8 0.115368 -4.44985 
606 1 0.366667 0.8 0.0566247 -4.44998 
607 1 0.383333 0.75 0.115361 -4.44986 
609 1 0.366667 0.7 0.0566246 -4.44998 
610 1 0.4 0.7 -0.00143609 -3.90438 
612 1 0.416667 0.75 0.0566221 -4.44997 
621 1 0.4 0.8 -0.00143582 -3.90438 
622 1 0.45 0.75 -0.00143454 -3.90438 
775 1 0.433333 0.8 0.115361 -4.44986 
778 1 0.433333 0.7 0.115361 -4.44986 
779 1 0.466667 0.7 0.0566256 -4.44997 
781 1 0.483333 0.75 0.115366 -4.44986 
794 1 0.466667 0.8 0.0566259 -4.44997 
795 1 0.5 0.8 -0.00142552 -3.90437 
796 1 0.516667 0.75 0.0566366 -4.44998 
798 1 0.5 0.7 -0.00142576 -3.90437 
946 1 0.533333 0.7 0.115379 -4.44985 
965 1 0.533333 0.8 0.115379 -4.44985 
800 1 0.55 0.75 -0.00140791 -3.90436 
966 1 0.566667 0.8 0.0566597 -4.44998 
967 1 0.583333 0.75 0.1154 -4.44985 
969 1 0.566667 0.7 0.0566597 -4.44998 
970 1 0.6 0.7 -0.00137056 -3.9043 
972 1 0.616667 0.75 0.056694 -4.45015 
981 1 0.6 0.8 -0.00137054 -3.9043 
1131 1 0.633333 0.8 0.115432 -4.44986 
1134 1 0.633333 0.7 0.115431 -4.44986 
982 1 0.65 0.75 -0.00129867 -3.90744 
1135 1 0.666667 0.7 0.0567814 -4.44796 
1137 1 0.683333 0.75 0.115457 -4.45067 
1148 1 0.666667 0.8 0.0567814 -4.44796 
1149 1 0.7 0.8 -0.000886699 -3.69131 
1150 1 0.716667 0.75 0.0572756 -4.41719 
1152 1 0.7 0.7 -0.000886563 -3.69131 
1153 1 0.75 0.75 -0.00092016 -3.47888 
1297 1 0.733333 0.7 0.11544 -4.44648 
1316 1 0.733333 0.8 0.11544 -4.44648 
1317 1 0.766667 0.8 0.0565627 -4.31864 
1318 1 0.783333 0.75 0.115239 -4.45537 
1320 1 0.766667 0.7 0.0565625 -4.31864 
1321 1 0.8 0.7 -0.00100626 -3.69155 
1323 1 0.816667 0.75 0.0568543 -4.44314 
1332 1 0.8 0.8 -0.00100599 -3.69155 
1333 1 0.85 0.75 -0.00123743 -3.9074 
1486 1 0.833333 0.8 0.115468 -4.44977 
1489 1 0.833333 0.7 0.115465 -4.44976 
1490 1 0.866667 0.7 0.0567926 -4.45084 
1492 1 0.883333 0.75 0.11557 -4.45053 
1505 1 0.866667 0.8 0.0568036 -4.45103 
1506 1 0.9 0.8 -0.00116426 -3.90445 
1509 1 0.9 0.7 -0.00117801 -3.9042 
1507 1 0.916667 0.75 0.0569458 -4.45 
1511 1 0.95 0.75 -0.000984952 -3.90478 
1646 1 0.933333 0.7 0.115678 -4.44649 
1659 1 0.933333 0.8 0.115528 -4.43421 
1660 1 0.966667 0.8 0.0571136 -4.44692 
1661 1 0.983333 0.75 0.116111 -4.3269 
1663 1 0.966667 0.7 0.0571399 -4.4526 
24 1 0 0.9 -0.000977655 -3.9048 
25 1 0.0166667 0.85 0.0571188 -4.44692 
26 1 0.0166667 0.95 0.0569969 -4.44997 
29 1 0.05 0.85 -0.000993306 -3.90477 
30 1 0.05 0.95 -0.00110786 -3.9045 
103 1 0.0333333 0.9 0.115558 -4.43419 
104 1 0.0666667 0.9 0.0569614 -4.44996 
105 1 0.0833333 0.85 0.115646 -4.44658 
106 1 0.0833333 0.95 0.115621 -4.45035 
110 1 0.116667 0.85 0.0568435 -4.44988 
114 1 0.116667 0.95 0.0568137 -4.45003 
115 1 0.1 0.9 -0.00118585 -3.90424 
116 1 0.15 0.85 -0.0012875 -3.90431 
117 1 0.15 0.95 -0.00130283 -3.90432 
242 1 0.133333 0.9 0.115509 -4.44988 
257 1 0.166667 0.9 0.0567324 -4.44997 
248 1 0.183333 0.85 0.11544 -4.44984 
256 1 0.183333 0.95 0.115438 -4.44986 
258 1 0.2 0.9 -0.00136163 -3.90434 
259 1 0.216667 0.85 0.0566821 -4.44998 
260 1 0.216667 0.95 0.0566794 -4.44998 
263 1 0.25 0.85 -0.00139422 -3.90438 
264 1 0.25 0.95 -0.00139618 -3.90437 
430 1 0.233333 0.9 0.115403 -4.44986 
431 1 0.266667 0.9 0.0566539 -4.44997 
432 1 0.283333 0.85 0.115383 -4.44986 
433 1 0.283333 0.95 0.115382 -4.44985 
437 1 0.316667 0.85 0.056636 -4.44997 
441 1 0.316667 0.95 0.0566362 -4.44997 
442 1 0.3 0.9 -0.00141627 -3.90438 
443 1 0.35 0.85 -0.00143085 -3.90437 
444 1 0.35 0.95 -0.00142983 -3.90438 
602 1 0.333333 0.9 0.115368 -4.44985 
608 1 0.383333 0.85 0.115361 -4.44986 
616 1 0.383333 0.95 0.115362 -4.44986 
617 1 0.366667 0.9 0.0566255 -4.44998 
618 1 0.4 0.9 -0.00143476 -3.90438 
619 1 0.416667 0.85 0.0566227 -4.44997 
620 1 0.416667 0.95 0.0566238 -4.44997 
623 1 0.45 0.85 -0.00143395 -3.90438 
624 1 0.45 0.95 -0.0014328 -3.90437 
790 1 0.433333 0.9 0.115362 -4.44986 
791 1 0.466667 0.9 0.0566271 -4.44997 
792 1 0.483333 0.85 0.115367 -4.44986 
793 1 0.483333 0.95 0.115369 -4.44986 
797 1 0.516667 0.85 0.0566382 -4.44997 
801 1 0.516667 0.95 0.0566418 -4.44998 
802 1 0.5 0.9 -0.00142361 -3.90437 
962 1 0.533333 0.9 0.115383 -4.44985 
803 1 0.55 0.85 -0.0014048 -3.90435 
804 1 0.55 0.95 -0.00139832 -3.90435 
968 1 0.583333 0.85 0.115406 -4.44986 
976 1 0.583333 0.95 0.115415 -4.44986 
977 1 0.566667 0.9 0.0566667 -4.44998 
978 1 0.6 0.9 -0.00135696 -3.90419 
979 1 0.616667 0.85 0.0567118 -4.45014 
980 1 0.616667 0.95 0.0567312 -4.45017 
1144 1 0.633333 0.9 0.115453 -4.44971 
983 1 0.65 0.85 -0.00123756 -3.90142 
984 1 0.65 0.95 -0.0011894 -3.90308 
1145 1 0.666667 0.9 0.0568716 -4.44376 
1146 1 0.683333 0.85 0.115372 -4.45337 
1147 1 0.683333 0.95 0.115418 -4.45307 
1151 1 0.716667 0.85 0.0568572 -4.3072 
1154 1 0.716667 0.95 0.0571906 -4.28638 
1155 1 0.7 0.9 -0.000718693 -3.47252 
1313 1 0.733333 0.9 0.115376 -4.443 
1319 1 0.783333 0.85 0.115235 -4.44942 
1327 1 0.783333 0.95 0.115055 -4.45259 
1328 1 0.766667 0.9 0.055955 -4.17552 
1329 1 0.8 0.9 -0.00105691 -3.46998 
1330 1 0.816667 0.85 0.057021 -4.42976 
1331 1 0.816667 0.95 0.0569988 -4.42623 
1334 1 0.85 0.85 -0.00118949 -3.90141 
1335 1 0.85 0.95 -0.00122123 -3.90317 
1501 1 0.833333 0.9 0.115433 -4.44963 
1502 1 0.866667 0.9 0.0567587 -4.45134 
1503 1 0.883333 0.85 0.115553 -4.45077 
1504 1 0.883333 0.95 0.115489 -4.45037 
1513 1 0.9 0.9 -0.00120837 -3.9041 
1508 1 0.916667 0.85 0.0569292 -4.45007 
1512 1 0.916667 0.95 0.0568584 -4.45001 
1514 1 0.95 0.85 -0.00100245 -3.90478 
1515 1 0.95 0.95 -0.00109752 -3.90459 
1656 1 0.933333 0.9 0.115646 -4.44653 
1662 1 0.983333 0.85 0.116075 -4.32688 
1664 1 0.983333 0.95 0.1157 -4.44658 
1665 1 0.966667 0.9 0.0571019 -4.45259 
31 1 0 0.1 0.174484 -4.45122 
32 1 0.0166667 0.05 0.233274 -4.44725 
33 1 0.0166667 0.15 0.233225 -4.44382 
34 1 0 0 0.174471 -4.45181 
36 1 0.05 0.05 0.174459 -4.45003 
41 1 0.05 0.15 0.174437 -4.44751 
131 1 0.0666667 0.1 0.233284 -4.4527 
134 1 0.0666667 0 0.233185 -4.45044 
135 1 0.1 0 0.174349 -4.44982 
136 1 0.116667 0.05 0.233102 -4.44986 
150 1 0.116667 0.15 0.233091 -4.44997 
152 1 0.1 0.1 0.174366 -4.45006 
154 1 0.15 0.05 0.174274 -4.44997 
155 1 0.15 0.15 0.174271 -4.45005 
288 1 0.166667 0 0.233044 -4.44999 
307 1 0.166667 0.1 0.233044 -4.45002 
308 1 0.2 0.1 0.174226 -4.44999 
309 1 0.216667 0.05 0.233016 -4.45 
310 1 0.216667 0.15 0.233014 -4.45 
311 1 0.2 0 0.174227 -4.44998 
313 1 0.25 0.05 0.174203 -4.44999 
337 1 0.25 0.15 0.174202 -4.44999 
475 1 0.266667 0.1 0.233002 -4.45 
478 1 0.266667 0 0.233002 -4.45 
479 1 0.3 0 0.174189 -4.44999 
480 1 0.316667 0.05 0.232993 -4.45 
500 1 0.316667 0.15 0.232992 -4.45 
502 1 0.3 0.1 0.174189 -4.44999 
504 1 0.35 0.05 0.17418 -4.44999 
505 1 0.35 0.15 0.17418 -4.44999 
648 1 0.366667 0 0.232987 -4.45 
667 1 0.366667 0.1 0.232987 -4.45 
668 1 0.4 0.1 0.174177 -4.44999 
669 1 0.416667 0.05 0.232986 -4.45 
670 1 0.416667 0.15 0.232986 -4.45 
671 1 0.4 0 0.174176 -4.44999 
673 1 0.45 0.05 0.174179 -4.44999 
697 1 0.45 0.15 0.17418 -4.44999 
835 1 0.466667 0.1 0.232991 -4.45 
838 1 0.466667 0 0.23299 -4.45 
839 1 0.5 0 0.174187 -4.44999 
840 1 0.516667 0.05 0.233 -4.45 
860 1 0.516667 0.15 0.233001 -4.45 
862 1 0.5 0.1 0.174189 -4.44999 
864 1 0.55 0.05 0.174207 -4.44999 
865 1 0.55 0.15 0.174209 -4.44999 
1008 1 0.566667 0 0.233012 -4.45 
1027 1 0.566667 0.1 0.233016 -4.44999 
1028 1 0.6 0.1 0.174236 -4.44994 
1029 1 0.616667 0.05 0.233028 -4.45002 
1030 1 0.616667 0.15 0.233032 -4.45002 
1031 1 0.6 0 0.17423 -4.44994 
1033 1 0.65 0.05 0.174246 -4.44982 
1057 1 0.65 0.15 0.174253 -4.44981 
1186 1 0.666667 0.1 0.233022 -4.44996 
1189 1 0.666667 0 0.233015 -4.44995 
1190 1 0.7 0 0.174199 -4.45054 
1191 1 0.716667 0.05 0.23297 -4.45006 
1211 1 0.716667 0.15 0.232974 -4.45007 
1213 1 0.7 0.1 0.174208 -4.45054 
1215 1 0.75 0.05 0.174083 -4.44909 
1216 1 0.75 0.15 0.174088 -4.44909 
1359 1 0.766667 0 0.232904 -4.44991 
1378 1 0.766667 0.1 0.232906 -4.44989 
1379 1 0.8 0.1 0.174042 -4.45055 
1380 1 0.816667 0.05 0.23293 -4.45005 
1381 1 0.816667 0.15 0.232932 -4.45005 
1382 1 0.8 0 0.174044 -4.45058 
1384 1 0.85 0.05 0.174221 -4.44972 
1408 1 0.85 0.15 0.174226 -4.4498 
1546 1 0.866667 0.1 0.233046 -4.45018 
1549 1 0.866667 0 0.233032 -4.44999 
1550 1 0.9 0 0.174302 -4.44981 
1573 1 0.9 0.1 0.174311 -4.45003 
1551 1 0.916667 0.05 0.233134 -4.4501 
1571 1 0.916667 0.15 0.233104 -4.45064 
1575 1 0.95 0.05 0.174422 -4.45002 
1576 1 0.95 0.15 0.17444 -4.44752 
1689 1 0.966667 0 0.233269 -4.45313 
1708 1 0.966667 0.1 0.233222 -4.44765 
37 1 0.0166667 0.25 0.232762 -4.32309 
39 1 0 0.2 0.174459 -4.32868 
42 1 0.05 0.25 0.174357 -4.32453 
145 1 0.0666667 0.3 0.233164 -4.43108 
148 1 0.0666667 0.2 0.23311 -4.44693 
149 1 0.1 0.2 0.174335 -4.4515 
151 1 0.116667 0.25 0.233024 -4.45066 
173 1 0.1 0.3 0.174311 -4.44901 
175 1 0.15 0.25 0.174256 -4.45003 
304 1 0.166667 0.2 0.233036 -4.45001 
331 1 0.166667 0.3 0.233022 -4.45002 
332 1 0.2 0.3 0.174218 -4.45001 
333 1 0.216667 0.25 0.233011 -4.45 
335 1 0.2 0.2 0.174223 -4.44999 
338 1 0.25 0.25 0.174201 -4.44999 
495 1 0.266667 0.3 0.233 -4.45 
498 1 0.266667 0.2 0.233001 -4.45 
499 1 0.3 0.2 0.174189 -4.44999 
501 1 0.316667 0.25 0.232992 -4.45 
530 1 0.3 0.3 0.174188 -4.44999 
532 1 0.35 0.25 0.174179 -4.44999 
664 1 0.366667 0.2 0.232986 -4.45 
691 1 0.366667 0.3 0.232986 -4.45 
692 1 0.4 0.3 0.174177 -4.44999 
693 1 0.416667 0.25 0.232986 -4.45 
695 1 0.4 0.2 0.174177 -4.44999 
698 1 0.45 0.25 0.174181 -4.44999 
855 1 0.466667 0.3 0.232991 -4.45 
858 1 0.466667 0.2 0.232992 -4.45 
859 1 0.5 0.2 0.174191 -4.44999 
861 1 0.516667 0.25 0.233002 -4.45 
890 1 0.5 0.3 0.17419 -4.44999 
892 1 0.55 0.25 0.17421 -4.44999 
1024 1 0.566667 0.2 0.233017 -4.45 
1051 1 0.566667 0.3 0.233017 -4.45 
1052 1 0.6 0.3 0.174238 -4.44994 
1053 1 0.616667 0.25 0.233033 -4.45002 
1055 1 0.6 0.2 0.174238 -4.44994 
1058 1 0.65 0.25 0.174254 -4.44981 
1206 1 0.666667 0.3 0.233025 -4.44996 
1209 1 0.666667 0.2 0.233025 -4.44996 
1210 1 0.7 0.2 0.174212 -4.45054 
1212 1 0.716667 0.25 0.232976 -4.45007 
1241 1 0.7 0.3 0.174213 -4.45054 
1243 1 0.75 0.25 0.17409 -4.44909 
1375 1 0.766667 0.2 0.232908 -4.44989 
1402 1 0.766667 0.3 0.232908 -4.44989 
1403 1 0.8 0.3 0.174049 -4.45057 
1404 1 0.816667 0.25 0.232933 -4.45008 
1406 1 0.8 0.2 0.174047 -4.45056 
1409 1 0.85 0.25 0.174234 -4.44979 
1566 1 0.866667 0.3 0.233016 -4.45012 
1569 1 0.866667 0.2 0.233034 -4.45003 
1570 1 0.9 0.2 0.174314 -4.45149 
1601 1 0.9 0.3 0.174309 -4.44902 
1572 1 0.916667 0.25 0.233035 -4.44724 
1603 1 0.95 0.25 0.174436 -4.32441 
1705 1 0.966667 0.2 0.233383 -4.43753 
1726 1 0.966667 0.3 0.23295 -4.30789 
38 1 0.0166667 0.35 0.232215 -4.18065 
50 1 0 0.5 0.174449 -4.32882 
51 1 0.0166667 0.45 0.232736 -4.32314 
54 1 0.05 0.35 0.174276 -4.1808 
55 1 0.05 0.45 0.174348 -4.32455 
166 1 0.0666667 0.5 0.23309 -4.44686 
169 1 0.0666667 0.4 0.233153 -4.43107 
170 1 0.1 0.4 0.174307 -4.44901 
171 1 0.116667 0.35 0.232968 -4.45098 
172 1 0.116667 0.45 0.233014 -4.45065 
176 1 0.15 0.35 0.174244 -4.4499 
201 1 0.1 0.5 0.17433 -4.4515 
203 1 0.15 0.45 0.174253 -4.45003 
328 1 0.166667 0.4 0.23302 -4.45003 
362 1 0.166667 0.5 0.23303 -4.45 
334 1 0.216667 0.35 0.233008 -4.44999 
363 1 0.2 0.5 0.174222 -4.44999 
364 1 0.216667 0.45 0.233008 -4.45 
366 1 0.2 0.4 0.174217 -4.45001 
368 1 0.25 0.35 0.1742 -4.44999 
369 1 0.25 0.45 0.174199 -4.44999 
523 1 0.266667 0.5 0.232999 -4.45 
526 1 0.266667 0.4 0.232998 -4.45 
527 1 0.3 0.4 0.174187 -4.44999 
528 1 0.316667 0.35 0.232991 -4.45 
529 1 0.316667 0.45 0.232991 -4.45 
533 1 0.35 0.35 0.174179 -4.44999 
561 1 0.3 0.5 0.174187 -4.44999 
563 1 0.35 0.45 0.174178 -4.44999 
688 1 0.366667 0.4 0.232985 -4.45 
694 1 0.416667 0.35 0.232986 -4.45 
722 1 0.366667 0.5 0.232985 -4.45 
723 1 0.4 0.5 0.174175 -4.44999 
724 1 0.416667 0.45 0.232985 -4.45 
726 1 0.4 0.4 0.174176 -4.44999 
728 1 0.45 0.35 0.17418 -4.44999 
729 1 0.45 0.45 0.174179 -4.44999 
883 1 0.466667 0.5 0.232989 -4.45 
886 1 0.466667 0.4 0.23299 -4.45 