ITEM: TIMESTEP
8
ITEM: NUMBER OF ATOMS
3584
ITEM: BOX BOUNDS pp pp ss
0.0000000000000000e+00 4.3111019472983898e+01
0.0000000000000000e+00 2.4890158697766498e+01
-3.6580800000000006e-03 3.4552298188307212e+01
ITEM: ATOMS id type xs ys zs c_peratom 
1 1 0 0.1 0.000108896 -3.90364 
2 1 0.0166667 0.05 0.059128 -4.40894 
3 1 0.0166667 0.15 0.0592141 -4.40792 
4 1 0 0 8.9326e-05 -3.90349 
5 1 0.05 0.05 3.86941e-05 -3.90352 
9 1 0 0.2 0.000384046 -3.90393 
10 1 0.05 0.15 0.000134198 -3.90356 
35 1 0.0333333 0 0.117879 -4.44999 
40 1 0.0333333 0.2 0.117936 -4.42406 
43 1 0.0333333 0.1 0.117911 -4.44912 
44 1 0.0666667 0.1 0.059092 -4.40879 
45 1 0.0833333 0.05 0.117774 -4.4492 
46 1 0.0833333 0.15 0.117814 -4.44973 
47 1 0.0666667 0 0.0590224 -4.40854 
60 1 0.0666667 0.2 0.0591136 -4.4076 
48 1 0.1 0 -2.53367e-05 -3.90337 
49 1 0.116667 0.05 0.0589845 -4.40811 
61 1 0.1 0.2 2.73928e-05 -3.90336 
62 1 0.116667 0.15 0.0589863 -4.40821 
64 1 0.1 0.1 -1.06935e-06 -3.90364 
65 1 0.15 0.05 -4.04639e-05 -3.90372 
66 1 0.15 0.15 -4.31705e-05 -3.90364 
153 1 0.133333 0.1 0.117696 -4.44907 
156 1 0.133333 0 0.117687 -4.44906 
157 1 0.166667 0 0.0589441 -4.40792 
158 1 0.183333 0.05 0.117668 -4.44902 
177 1 0.133333 0.2 0.117686 -4.44933 
178 1 0.166667 0.2 0.0589391 -4.40797 
179 1 0.183333 0.15 0.117666 -4.44901 
181 1 0.166667 0.1 0.0589467 -4.40789 
182 1 0.2 0.1 -5.02383e-05 -3.90379 
183 1 0.216667 0.05 0.0589406 -4.40791 
184 1 0.216667 0.15 0.0589404 -4.40791 
185 1 0.2 0 -5.0924e-05 -3.9038 
186 1 0.25 0.05 -5.15083e-05 -3.90383 
213 1 0.2 0.2 -5.25016e-05 -3.90379 
214 1 0.25 0.15 -5.15654e-05 -3.90383 
312 1 0.233333 0 0.117666 -4.44906 
336 1 0.233333 0.2 0.117666 -4.44906 
339 1 0.233333 0.1 0.117665 -4.44904 
340 1 0.266667 0.1 0.0589407 -4.40794 
341 1 0.283333 0.05 0.117666 -4.44906 
342 1 0.283333 0.15 0.117666 -4.44906 
343 1 0.266667 0 0.0589407 -4.40794 
374 1 0.266667 0.2 0.0589407 -4.40794 
344 1 0.3 0 -5.14396e-05 -3.90383 
345 1 0.316667 0.05 0.0589408 -4.40794 
375 1 0.3 0.2 -5.14546e-05 -3.90383 
376 1 0.316667 0.15 0.0589408 -4.40794 
378 1 0.3 0.1 -5.14314e-05 -3.90383 
379 1 0.35 0.05 -5.1442e-05 -3.90383 
380 1 0.35 0.15 -5.14423e-05 -3.90383 
503 1 0.333333 0.1 0.117666 -4.44906 
506 1 0.333333 0 0.117666 -4.44906 
507 1 0.366667 0 0.0589408 -4.40794 
508 1 0.383333 0.05 0.117666 -4.44906 
534 1 0.333333 0.2 0.117666 -4.44906 
535 1 0.366667 0.2 0.0589408 -4.40794 
536 1 0.383333 0.15 0.117666 -4.44906 
538 1 0.366667 0.1 0.0589408 -4.40794 
539 1 0.4 0.1 -5.1442e-05 -3.90383 
540 1 0.416667 0.05 0.0589407 -4.40794 
541 1 0.416667 0.15 0.0589407 -4.40794 
542 1 0.4 0 -5.14419e-05 -3.90383 
543 1 0.45 0.05 -5.14765e-05 -3.90384 
573 1 0.4 0.2 -5.14421e-05 -3.90383 
574 1 0.45 0.15 -5.14773e-05 -3.90384 
672 1 0.433333 0 0.117666 -4.44906 
696 1 0.433333 0.2 0.117666 -4.44906 
699 1 0.433333 0.1 0.117666 -4.44906 
700 1 0.466667 0.1 0.0589407 -4.40794 
701 1 0.483333 0.05 0.117666 -4.44908 
702 1 0.483333 0.15 0.117666 -4.44908 
703 1 0.466667 0 0.0589407 -4.40794 
734 1 0.466667 0.2 0.0589407 -4.40794 
704 1 0.5 0 -5.1987e-05 -3.9038 
705 1 0.516667 0.05 0.0589385 -4.40799 
735 1 0.5 0.2 -5.2037e-05 -3.9038 
736 1 0.516667 0.15 0.0589385 -4.40799 
738 1 0.5 0.1 -5.20293e-05 -3.9038 
739 1 0.55 0.05 -5.3029e-05 -3.90365 
740 1 0.55 0.15 -5.32828e-05 -3.90364 
863 1 0.533333 0.1 0.117666 -4.44912 
866 1 0.533333 0 0.117666 -4.44913 
867 1 0.566667 0 0.0589539 -4.40812 
868 1 0.583333 0.05 0.117685 -4.44931 
894 1 0.533333 0.2 0.117666 -4.44912 
895 1 0.566667 0.2 0.0589522 -4.40811 
896 1 0.583333 0.15 0.117684 -4.44929 
898 1 0.566667 0.1 0.0589523 -4.40811 
899 1 0.6 0.1 6.55503e-06 -3.90346 
900 1 0.616667 0.05 0.0590456 -4.4087 
901 1 0.616667 0.15 0.0590418 -4.40869 
902 1 0.6 0 9.30298e-06 -3.90351 
903 1 0.65 0.05 0.000284447 -3.89079 
933 1 0.6 0.2 6.11732e-06 -3.90344 
934 1 0.65 0.15 0.000281423 -3.89074 
1032 1 0.633333 0 0.117791 -4.44813 
1056 1 0.633333 0.2 0.117789 -4.44818 
1059 1 0.633333 0.1 0.11779 -4.4482 
1060 1 0.666667 0.1 0.0593028 -4.37579 
1061 1 0.683333 0.05 0.117716 -4.44889 
1062 1 0.683333 0.15 0.117716 -4.44894 
1063 1 0.666667 0 0.0592842 -4.37579 
1094 1 0.666667 0.2 0.0593003 -4.37577 
1064 1 0.7 0 0.000987138 -3.54911 
1065 1 0.716667 0.05 0.0587364 -4.25225 
1095 1 0.7 0.2 0.00102353 -3.54901 
1096 1 0.716667 0.15 0.0587483 -4.25223 
1098 1 0.7 0.1 0.00102342 -3.54907 
1214 1 0.733333 0.1 0.117588 -4.42768 
1217 1 0.733333 0 0.117554 -4.42753 
1218 1 0.766667 0 0.0576265 -4.17846 
1219 1 0.783333 0.05 0.117317 -4.44102 
1245 1 0.733333 0.2 0.117589 -4.42771 
1246 1 0.766667 0.2 0.0576608 -4.1787 
1247 1 0.783333 0.15 0.117327 -4.44118 
1249 1 0.766667 0.1 0.0576604 -4.17874 
1250 1 0.8 0.1 0.000729584 -3.54582 
1251 1 0.816667 0.05 0.0591803 -4.34788 
1252 1 0.816667 0.15 0.0592 -4.34793 
1253 1 0.8 0 0.000683372 -3.54571 
1254 1 0.85 0.05 0.000136814 -3.89113 
1284 1 0.8 0.2 0.000734595 -3.54572 
1285 1 0.85 0.15 0.000143628 -3.89105 
1383 1 0.833333 0 0.117636 -4.44636 
1407 1 0.833333 0.2 0.117673 -4.44642 
1410 1 0.833333 0.1 0.117663 -4.44639 
1411 1 0.866667 0.1 0.0589938 -4.40873 
1412 1 0.883333 0.05 0.117739 -4.44985 
1413 1 0.883333 0.15 0.117751 -4.45002 
1414 1 0.866667 0 0.0589773 -4.40875 
1445 1 0.866667 0.2 0.0590157 -4.409 
1415 1 0.9 0 -3.91265e-05 -3.9029 
1416 1 0.916667 0.05 0.0589634 -4.4084 
1446 1 0.9 0.2 2.94255e-05 -3.90262 
1447 1 0.916667 0.15 0.0589824 -4.4074 
1449 1 0.9 0.1 -4.31518e-05 -3.90276 
1450 1 0.95 0.05 -5.00668e-06 -3.90304 
1451 1 0.95 0.15 0.000109808 -3.90354 
1574 1 0.933333 0.1 0.117736 -4.44955 
1577 1 0.933333 0 0.117727 -4.4494 
1578 1 0.966667 0 0.0590678 -4.40736 
1579 1 0.983333 0.05 0.117857 -4.44906 
1605 1 0.933333 0.2 0.117733 -4.4343 
1606 1 0.966667 0.2 0.0594149 -4.40791 
1607 1 0.983333 0.15 0.117837 -4.4338 
1609 1 0.966667 0.1 0.0590912 -4.40766 
6 1 0 0.3 0.00103277 -3.9043 
7 1 0.0166667 0.25 0.0596108 -4.39722 
8 1 0.0166667 0.35 0.0600364 -4.38764 
11 1 0.05 0.25 0.000369261 -3.90374 
15 1 0 0.4 0.00103393 -3.90431 
16 1 0.05 0.35 0.000672568 -3.90482 
53 1 0.0333333 0.4 0.118769 -4.33097 
56 1 0.0333333 0.3 0.118767 -4.33094 
57 1 0.0666667 0.3 0.0593568 -4.40698 
58 1 0.0833333 0.25 0.11772 -4.43457 
59 1 0.0833333 0.35 0.117577 -4.41845 
78 1 0.0666667 0.4 0.0593568 -4.40697 
63 1 0.116667 0.25 0.0589717 -4.40735 
79 1 0.1 0.4 9.95577e-05 -3.90372 
80 1 0.116667 0.35 0.0589516 -4.40602 
82 1 0.1 0.3 9.95285e-05 -3.90374 
83 1 0.15 0.25 -5.36862e-05 -3.90346 
84 1 0.15 0.35 -6.00973e-05 -3.90327 
174 1 0.133333 0.3 0.117655 -4.4493 
180 1 0.183333 0.25 0.117655 -4.4491 
205 1 0.133333 0.4 0.117655 -4.44931 
206 1 0.166667 0.4 0.0589317 -4.40805 
207 1 0.183333 0.35 0.117647 -4.44921 
209 1 0.166667 0.3 0.0589316 -4.40804 
210 1 0.2 0.3 -5.98373e-05 -3.90379 
211 1 0.216667 0.25 0.0589375 -4.40793 
212 1 0.216667 0.35 0.058934 -4.40794 
215 1 0.25 0.25 -5.15988e-05 -3.90384 
237 1 0.2 0.4 -5.98239e-05 -3.90379 
238 1 0.25 0.35 -5.18507e-05 -3.90383 
367 1 0.233333 0.4 0.117665 -4.44906 
370 1 0.233333 0.3 0.117665 -4.44906 
371 1 0.266667 0.3 0.0589407 -4.40795 
372 1 0.283333 0.25 0.117666 -4.44907 
373 1 0.283333 0.35 0.117666 -4.44907 
402 1 0.266667 0.4 0.0589407 -4.40795 
377 1 0.316667 0.25 0.0589408 -4.40794 
403 1 0.3 0.4 -5.15114e-05 -3.90384 
404 1 0.316667 0.35 0.0589407 -4.40794 
406 1 0.3 0.3 -5.15114e-05 -3.90384 
407 1 0.35 0.25 -5.14415e-05 -3.90383 
408 1 0.35 0.35 -5.14414e-05 -3.90383 
531 1 0.333333 0.3 0.117666 -4.44906 
537 1 0.383333 0.25 0.117666 -4.44906 
565 1 0.333333 0.4 0.117666 -4.44906 
566 1 0.366667 0.4 0.0589408 -4.40794 
567 1 0.383333 0.35 0.117666 -4.44906 
569 1 0.366667 0.3 0.0589408 -4.40794 
570 1 0.4 0.3 -5.14421e-05 -3.90383 
571 1 0.416667 0.25 0.0589407 -4.40794 
572 1 0.416667 0.35 0.0589407 -4.40794 
575 1 0.45 0.25 -5.14774e-05 -3.90384 
597 1 0.4 0.4 -5.14421e-05 -3.90383 
598 1 0.45 0.35 -5.14773e-05 -3.90384 
727 1 0.433333 0.4 0.117666 -4.44906 
730 1 0.433333 0.3 0.117666 -4.44906 
731 1 0.466667 0.3 0.0589407 -4.40794 
732 1 0.483333 0.25 0.117666 -4.44908 
733 1 0.483333 0.35 0.117666 -4.44908 
762 1 0.466667 0.4 0.0589407 -4.40794 
737 1 0.516667 0.25 0.0589385 -4.40799 
763 1 0.5 0.4 -5.20293e-05 -3.9038 
764 1 0.516667 0.35 0.0589385 -4.40799 
766 1 0.5 0.3 -5.2037e-05 -3.9038 
767 1 0.55 0.25 -5.33131e-05 -3.90365 
768 1 0.55 0.35 -5.32828e-05 -3.90364 
891 1 0.533333 0.3 0.117666 -4.44912 
897 1 0.583333 0.25 0.117684 -4.4493 
925 1 0.533333 0.4 0.117666 -4.44912 
926 1 0.566667 0.4 0.0589523 -4.40811 
927 1 0.583333 0.35 0.117684 -4.44929 
929 1 0.566667 0.3 0.0589522 -4.40811 
930 1 0.6 0.3 6.1173e-06 -3.90344 
931 1 0.616667 0.25 0.0590418 -4.40868 
932 1 0.616667 0.35 0.0590418 -4.40869 
935 1 0.65 0.25 0.00028117 -3.89071 
957 1 0.6 0.4 6.55499e-06 -3.90346 
958 1 0.65 0.35 0.000281423 -3.89074 
1087 1 0.633333 0.4 0.11779 -4.4482 
1090 1 0.633333 0.3 0.117789 -4.44818 
1091 1 0.666667 0.3 0.0593003 -4.37577 
1092 1 0.683333 0.25 0.117716 -4.44893 
1093 1 0.683333 0.35 0.117716 -4.44894 
1120 1 0.666667 0.4 0.0593028 -4.37579 
1097 1 0.716667 0.25 0.0587481 -4.25224 
1121 1 0.7 0.4 0.00102342 -3.54907 
1122 1 0.716667 0.35 0.0587484 -4.25224 
1124 1 0.7 0.3 0.00102354 -3.54901 
1242 1 0.733333 0.3 0.117589 -4.42771 
1248 1 0.783333 0.25 0.117329 -4.44122 
1276 1 0.733333 0.4 0.117588 -4.42769 
1277 1 0.766667 0.4 0.0576608 -4.17872 
1278 1 0.783333 0.35 0.117331 -4.44121 
1280 1 0.766667 0.3 0.0576608 -4.1787 
1281 1 0.8 0.3 0.000737572 -3.54569 
1282 1 0.816667 0.25 0.0592081 -4.34804 
1283 1 0.816667 0.35 0.0592143 -4.34812 
1286 1 0.85 0.25 0.000155129 -3.89089 
1308 1 0.8 0.4 0.000735104 -3.54577 
1309 1 0.85 0.35 0.000164103 -3.89086 
1438 1 0.833333 0.4 0.117681 -4.44658 
1441 1 0.833333 0.3 0.117684 -4.44658 
1442 1 0.866667 0.3 0.0590451 -4.40943 
1443 1 0.883333 0.25 0.117808 -4.45027 
1444 1 0.883333 0.35 0.117864 -4.45039 
1473 1 0.866667 0.4 0.0590454 -4.4094 
1448 1 0.916667 0.25 0.0591438 -4.40604 
1474 1 0.9 0.4 0.00014423 -3.90292 
1475 1 0.916667 0.35 0.0592926 -4.40622 
1477 1 0.9 0.3 0.000144527 -3.90289 
1478 1 0.95 0.25 0.000543763 -3.9048 
1479 1 0.95 0.35 0.000872228 -3.90524 
1602 1 0.933333 0.3 0.117921 -4.40812 
1608 1 0.983333 0.25 0.118845 -4.34264 
1631 1 0.933333 0.4 0.11792 -4.40811 
1632 1 0.966667 0.4 0.0600129 -4.39898 
1633 1 0.983333 0.35 0.120327 -4.26642 
1635 1 0.966667 0.3 0.0600127 -4.39899 
12 1 0 0.5 0.000383176 -3.90379 
13 1 0.0166667 0.45 0.0596148 -4.39724 
14 1 0.0166667 0.55 0.0592236 -4.40813 
17 1 0.05 0.45 0.000372763 -3.90376 
21 1 0 0.6 0.000180167 -3.90349 
22 1 0.05 0.55 0.000139193 -3.90331 
71 1 0.0333333 0.6 0.11799 -4.44988 
74 1 0.0333333 0.5 0.117941 -4.42401 
75 1 0.0666667 0.5 0.059126 -4.4077 
76 1 0.0833333 0.45 0.117723 -4.43461 
77 1 0.0833333 0.55 0.117824 -4.44972 
95 1 0.0666667 0.6 0.0591059 -4.4091 
81 1 0.116667 0.45 0.0589716 -4.40734 
96 1 0.1 0.6 2.25049e-06 -3.90339 
97 1 0.116667 0.55 0.0589986 -4.4083 
99 1 0.1 0.5 3.2172e-05 -3.90338 
100 1 0.15 0.45 -5.36511e-05 -3.90343 
101 1 0.15 0.55 -3.97168e-05 -3.90367 
202 1 0.133333 0.5 0.117689 -4.44936 
208 1 0.183333 0.45 0.117655 -4.4491 
229 1 0.133333 0.6 0.117699 -4.449 
230 1 0.166667 0.6 0.0589504 -4.40791 
231 1 0.183333 0.55 0.117667 -4.44902 
233 1 0.166667 0.5 0.0589391 -4.40796 
234 1 0.2 0.5 -5.24948e-05 -3.90378 
235 1 0.216667 0.45 0.0589376 -4.40793 
236 1 0.216667 0.55 0.0589405 -4.40791 
239 1 0.25 0.45 -5.15944e-05 -3.90384 
253 1 0.2 0.6 -4.91606e-05 -3.9038 
254 1 0.25 0.55 -5.1558e-05 -3.90383 
395 1 0.233333 0.6 0.117665 -4.44904 
398 1 0.233333 0.5 0.117666 -4.44906 
399 1 0.266667 0.5 0.0589407 -4.40794 
400 1 0.283333 0.45 0.117666 -4.44907 
401 1 0.283333 0.55 0.117666 -4.44906 
422 1 0.266667 0.6 0.0589407 -4.40793 
405 1 0.316667 0.45 0.0589408 -4.40794 
423 1 0.3 0.6 -5.14276e-05 -3.90383 
424 1 0.316667 0.55 0.0589408 -4.40794 
426 1 0.3 0.5 -5.14544e-05 -3.90383 
427 1 0.35 0.45 -5.14415e-05 -3.90383 
428 1 0.35 0.55 -5.14423e-05 -3.90383 
562 1 0.333333 0.5 0.117666 -4.44906 
568 1 0.383333 0.45 0.117666 -4.44906 
589 1 0.333333 0.6 0.117666 -4.44906 
590 1 0.366667 0.6 0.0589408 -4.40794 
591 1 0.383333 0.55 0.117666 -4.44906 
593 1 0.366667 0.5 0.0589408 -4.40794 
594 1 0.4 0.5 -5.14419e-05 -3.90383 
595 1 0.416667 0.45 0.0589407 -4.40794 
596 1 0.416667 0.55 0.0589407 -4.40794 
599 1 0.45 0.45 -5.14765e-05 -3.90384 
613 1 0.4 0.6 -5.14419e-05 -3.90383 
614 1 0.45 0.55 -5.14738e-05 -3.90384 
755 1 0.433333 0.6 0.117666 -4.44906 
758 1 0.433333 0.5 0.117666 -4.44906 
759 1 0.466667 0.5 0.0589407 -4.40794 
760 1 0.483333 0.45 0.117666 -4.44908 
761 1 0.483333 0.55 0.117666 -4.44908 
782 1 0.466667 0.6 0.0589407 -4.40794 
765 1 0.516667 0.45 0.0589385 -4.40799 
783 1 0.5 0.6 -5.19378e-05 -3.90381 
784 1 0.516667 0.55 0.0589386 -4.40799 
786 1 0.5 0.5 -5.1987e-05 -3.9038 
787 1 0.55 0.45 -5.3029e-05 -3.90365 
788 1 0.55 0.55 -5.29096e-05 -3.90369 
922 1 0.533333 0.5 0.117666 -4.44913 
928 1 0.583333 0.45 0.117685 -4.44931 
949 1 0.533333 0.6 0.117666 -4.44911 
950 1 0.566667 0.6 0.0589525 -4.40809 
951 1 0.583333 0.55 0.117686 -4.44928 
953 1 0.566667 0.5 0.0589539 -4.40812 
954 1 0.6 0.5 9.30296e-06 -3.90351 
955 1 0.616667 0.45 0.0590456 -4.4087 
956 1 0.616667 0.55 0.059035 -4.40868 
959 1 0.65 0.45 0.000284447 -3.89079 
973 1 0.6 0.6 -1.21773e-06 -3.90359 
974 1 0.65 0.55 0.000255156 -3.89095 
1113 1 0.633333 0.6 0.117759 -4.44797 
1116 1 0.633333 0.5 0.117791 -4.44813 
1117 1 0.666667 0.5 0.0592842 -4.37579 
1118 1 0.683333 0.45 0.117716 -4.44889 
1119 1 0.683333 0.55 0.117666 -4.44861 
1138 1 0.666667 0.6 0.0592519 -4.37586 
1123 1 0.716667 0.45 0.0587364 -4.25225 
1139 1 0.7 0.6 0.00089648 -3.56307 
1140 1 0.716667 0.55 0.0586839 -4.25176 
1142 1 0.7 0.5 0.000987142 -3.54911 
1273 1 0.733333 0.5 0.117555 -4.42753 
1279 1 0.783333 0.45 0.117319 -4.44106 
1300 1 0.733333 0.6 0.11753 -4.42914 
1301 1 0.766667 0.6 0.0574565 -4.19416 
1302 1 0.783333 0.55 0.11726 -4.44217 
1304 1 0.766667 0.5 0.0576268 -4.17844 
1305 1 0.8 0.5 0.000685928 -3.54569 
1306 1 0.816667 0.45 0.0591905 -4.34801 
1307 1 0.816667 0.55 0.0591328 -4.34814 
1310 1 0.85 0.45 0.000150937 -3.89093 
1324 1 0.8 0.6 0.00058658 -3.55892 
1325 1 0.85 0.55 8.66038e-05 -3.89082 
1466 1 0.833333 0.6 0.117642 -4.44728 
1469 1 0.833333 0.5 0.117642 -4.44639 
1470 1 0.866667 0.5 0.0589938 -4.40893 
1471 1 0.883333 0.45 0.117803 -4.45023 
1472 1 0.883333 0.55 0.117729 -4.45007 
1493 1 0.866667 0.6 0.0589553 -4.40881 
1476 1 0.916667 0.45 0.05914 -4.40599 
1494 1 0.9 0.6 -4.1491e-05 -3.90245 
1495 1 0.916667 0.55 0.0589816 -4.40743 
1497 1 0.9 0.5 2.06794e-05 -3.90261 
1498 1 0.95 0.45 0.000542021 -3.90477 
1499 1 0.95 0.55 0.000114408 -3.90325 
1628 1 0.933333 0.5 0.117721 -4.43426 
1634 1 0.983333 0.45 0.118844 -4.34262 
1649 1 0.933333 0.6 0.117768 -4.44963 
1650 1 0.966667 0.6 0.0591391 -4.40677 
1651 1 0.983333 0.55 0.117849 -4.43409 
1653 1 0.966667 0.5 0.0594104 -4.40794 
18 1 0 0.7 0.000409454 -3.9043 
19 1 0.0166667 0.65 0.0592809 -4.40788 
20 1 0.0166667 0.75 0.0595912 -4.39921 
23 1 0.05 0.65 0.000158194 -3.90345 
27 1 0 0.8 0.000556078 -3.9033 
28 1 0.05 0.75 0.000360934 -3.90407 
88 1 0.0333333 0.8 0.118878 -4.35738 
91 1 0.0333333 0.7 0.118024 -4.42377 
92 1 0.0666667 0.7 0.0591634 -4.4073 
93 1 0.0833333 0.65 0.117847 -4.44987 
94 1 0.0833333 0.75 0.117779 -4.43435 
107 1 0.0666667 0.8 0.059368 -4.40909 
98 1 0.116667 0.65 0.0589857 -4.40822 
108 1 0.1 0.8 9.70208e-05 -3.90398 
109 1 0.116667 0.75 0.0589848 -4.40709 
111 1 0.1 0.7 3.75818e-05 -3.9033 
112 1 0.15 0.65 -4.41083e-05 -3.90357 
113 1 0.15 0.75 -5.03362e-05 -3.90338 
226 1 0.133333 0.7 0.117694 -4.44936 
232 1 0.183333 0.65 0.117665 -4.449 
245 1 0.133333 0.8 0.117688 -4.44908 
246 1 0.166667 0.8 0.0589387 -4.40795 
247 1 0.183333 0.75 0.117655 -4.44901 
249 1 0.166667 0.7 0.0589361 -4.40792 
250 1 0.2 0.7 -5.38794e-05 -3.90376 
251 1 0.216667 0.65 0.0589406 -4.40791 
252 1 0.216667 0.75 0.0589372 -4.40791 
255 1 0.25 0.65 -5.15057e-05 -3.90383 
261 1 0.2 0.8 -5.81943e-05 -3.90376 
262 1 0.25 0.75 -5.1664e-05 -3.90383 
415 1 0.233333 0.8 0.117665 -4.44904 
418 1 0.233333 0.7 0.117666 -4.44907 
419 1 0.266667 0.7 0.0589407 -4.40794 
420 1 0.283333 0.65 0.117666 -4.44906 
421 1 0.283333 0.75 0.117666 -4.44907 
434 1 0.266667 0.8 0.0589407 -4.40795 
425 1 0.316667 0.65 0.0589408 -4.40794 
435 1 0.3 0.8 -5.14903e-05 -3.90384 
436 1 0.316667 0.75 0.0589407 -4.40794 
438 1 0.3 0.7 -5.14604e-05 -3.90383 
439 1 0.35 0.65 -5.14421e-05 -3.90383 
440 1 0.35 0.75 -5.14415e-05 -3.90383 
586 1 0.333333 0.7 0.117666 -4.44906 
592 1 0.383333 0.65 0.117666 -4.44906 
605 1 0.333333 0.8 0.117666 -4.44906 
606 1 0.366667 0.8 0.0589408 -4.40794 
607 1 0.383333 0.75 0.117666 -4.44906 
609 1 0.366667 0.7 0.0589408 -4.40794 
610 1 0.4 0.7 -5.14422e-05 -3.90383 
611 1 0.416667 0.65 0.0589408 -4.40794 
612 1 0.416667 0.75 0.0589408 -4.40794 
615 1 0.45 0.65 -5.14705e-05 -3.90384 
621 1 0.4 0.8 -5.14423e-05 -3.90383 
622 1 0.45 0.75 -5.14698e-05 -3.90384 
775 1 0.433333 0.8 0.117666 -4.44906 
778 1 0.433333 0.7 0.117666 -4.44906 
779 1 0.466667 0.7 0.0589407 -4.40794 
780 1 0.483333 0.65 0.117666 -4.44907 
781 1 0.483333 0.75 0.117666 -4.44907 
794 1 0.466667 0.8 0.0589407 -4.40794 
785 1 0.516667 0.65 0.0589389 -4.40797 
795 1 0.5 0.8 -5.19377e-05 -3.90382 
796 1 0.516667 0.75 0.0589393 -4.40795 
798 1 0.5 0.7 -5.19377e-05 -3.90382 
799 1 0.55 0.65 -5.35487e-05 -3.90372 
800 1 0.55 0.75 -5.40612e-05 -3.90373 
946 1 0.533333 0.7 0.117665 -4.44909 
952 1 0.583333 0.65 0.117675 -4.44923 
965 1 0.533333 0.8 0.117665 -4.44909 
966 1 0.566667 0.8 0.0589416 -4.40801 
967 1 0.583333 0.75 0.117664 -4.44917 
969 1 0.566667 0.7 0.0589416 -4.40801 
970 1 0.6 0.7 -3.30075e-05 -3.90353 
971 1 0.616667 0.65 0.0589967 -4.40844 
972 1 0.616667 0.75 0.0589734 -4.40843 
975 1 0.65 0.65 0.000156498 -3.89003 
981 1 0.6 0.8 -3.30075e-05 -3.90353 
982 1 0.65 0.75 7.36796e-05 -3.90441 
1131 1 0.633333 0.8 0.11771 -4.44887 
1134 1 0.633333 0.7 0.11771 -4.44887 
1135 1 0.666667 0.7 0.0590842 -4.39246 
1136 1 0.683333 0.65 0.117638 -4.45011 
1137 1 0.683333 0.75 0.117753 -4.44841 
1148 1 0.666667 0.8 0.0590842 -4.39246 
1141 1 0.716667 0.65 0.0585189 -4.28143 
1149 1 0.7 0.8 0.000508431 -3.72368 
1150 1 0.716667 0.75 0.0592488 -4.35175 
1152 1 0.7 0.7 0.000508431 -3.72368 
1153 1 0.75 0.75 0.000958319 -3.5794 
1297 1 0.733333 0.7 0.117698 -4.43827 
1303 1 0.783333 0.65 0.117512 -4.43984 
1316 1 0.733333 0.8 0.117698 -4.43827 
1317 1 0.766667 0.8 0.0587071 -4.27846 
1318 1 0.783333 0.75 0.117623 -4.45005 
1320 1 0.766667 0.7 0.0587072 -4.27846 
1321 1 0.8 0.7 0.000686699 -3.72514 
1322 1 0.816667 0.65 0.0591722 -4.36426 
1323 1 0.816667 0.75 0.0593399 -4.37636 
1326 1 0.85 0.65 8.27716e-05 -3.89009 
1332 1 0.8 0.8 0.000687732 -3.72514 
1333 1 0.85 0.75 0.000160084 -3.90478 
1486 1 0.833333 0.8 0.117786 -4.44704 
1489 1 0.833333 0.7 0.117779 -4.44696 
1490 1 0.866667 0.7 0.0590095 -4.40886 
1491 1 0.883333 0.65 0.117738 -4.45011 
1492 1 0.883333 0.75 0.117785 -4.45012 
1505 1 0.866667 0.8 0.0590242 -4.409 
1496 1 0.916667 0.65 0.0590082 -4.40743 
1506 1 0.9 0.8 7.68231e-05 -3.90301 
1507 1 0.916667 0.75 0.059112 -4.40712 
1509 1 0.9 0.7 2.24198e-05 -3.90289 
1510 1 0.95 0.65 0.000147206 -3.90372 
1511 1 0.95 0.75 0.000354114 -3.90406 
1646 1 0.933333 0.7 0.117788 -4.43425 
1652 1 0.983333 0.65 0.117914 -4.4338 
1659 1 0.933333 0.8 0.11789 -4.42349 
1660 1 0.966667 0.8 0.0595484 -4.39898 
1661 1 0.983333 0.75 0.118937 -4.35737 
1663 1 0.966667 0.7 0.059456 -4.4094 
24 1 0 0.9 0.000346993 -3.90405 
25 1 0.0166667 0.85 0.0595344 -4.39907 
26 1 0.0166667 0.95 0.0591583 -4.40729 
29 1 0.05 0.85 0.000332206 -3.90405 
30 1 0.05 0.95 9.88631e-05 -3.90329 
103 1 0.0333333 0.9 0.117933 -4.4237 
104 1 0.0666667 0.9 0.0591108 -4.40715 
105 1 0.0833333 0.85 0.117743 -4.43395 
106 1 0.0833333 0.95 0.117786 -4.44998 
110 1 0.116667 0.85 0.0589904 -4.40707 
114 1 0.116667 0.95 0.0589536 -4.40814 
115 1 0.1 0.9 1.83881e-05 -3.9034 
116 1 0.15 0.85 -4.75207e-05 -3.90348 
117 1 0.15 0.95 -5.29373e-05 -3.90359 
242 1 0.133333 0.9 0.11768 -4.44927 
248 1 0.183333 0.85 0.117656 -4.44904 
256 1 0.183333 0.95 0.117665 -4.44903 
257 1 0.166667 0.9 0.0589378 -4.40794 
258 1 0.2 0.9 -5.29746e-05 -3.90379 
259 1 0.216667 0.85 0.058937 -4.40791 
260 1 0.216667 0.95 0.058941 -4.40793 
263 1 0.25 0.85 -5.17365e-05 -3.90383 
264 1 0.25 0.95 -5.13624e-05 -3.90384 
430 1 0.233333 0.9 0.117666 -4.44906 
431 1 0.266667 0.9 0.0589407 -4.40794 
432 1 0.283333 0.85 0.117666 -4.44907 
433 1 0.283333 0.95 0.117666 -4.44906 
437 1 0.316667 0.85 0.0589407 -4.40794 
441 1 0.316667 0.95 0.0589408 -4.40794 
442 1 0.3 0.9 -5.1457e-05 -3.90383 
443 1 0.35 0.85 -5.14418e-05 -3.90383 
444 1 0.35 0.95 -5.14416e-05 -3.90383 
602 1 0.333333 0.9 0.117666 -4.44906 
608 1 0.383333 0.85 0.117666 -4.44906 
616 1 0.383333 0.95 0.117666 -4.44906 
617 1 0.366667 0.9 0.0589408 -4.40794 
618 1 0.4 0.9 -5.14419e-05 -3.90383 
619 1 0.416667 0.85 0.0589408 -4.40794 
620 1 0.416667 0.95 0.0589407 -4.40794 
623 1 0.45 0.85 -5.14705e-05 -3.90384 
624 1 0.45 0.95 -5.14738e-05 -3.90384 
790 1 0.433333 0.9 0.117666 -4.44906 
791 1 0.466667 0.9 0.0589407 -4.40794 
792 1 0.483333 0.85 0.117666 -4.44907 
793 1 0.483333 0.95 0.117666 -4.44908 
797 1 0.516667 0.85 0.0589389 -4.40797 
801 1 0.516667 0.95 0.0589386 -4.40799 
802 1 0.5 0.9 -5.19378e-05 -3.90381 
803 1 0.55 0.85 -5.35487e-05 -3.90372 
804 1 0.55 0.95 -5.29096e-05 -3.90369 
962 1 0.533333 0.9 0.117666 -4.44911 
968 1 0.583333 0.85 0.117675 -4.44923 
976 1 0.583333 0.95 0.117686 -4.44928 
977 1 0.566667 0.9 0.0589525 -4.40809 
978 1 0.6 0.9 -1.21773e-06 -3.90359 
979 1 0.616667 0.85 0.0589967 -4.40844 
980 1 0.616667 0.95 0.059035 -4.40868 
983 1 0.65 0.85 0.000156498 -3.89003 
984 1 0.65 0.95 0.000255156 -3.89095 
1144 1 0.633333 0.9 0.117759 -4.44797 
1145 1 0.666667 0.9 0.0592519 -4.37586 
1146 1 0.683333 0.85 0.117638 -4.45011 
1147 1 0.683333 0.95 0.117666 -4.44861 
1151 1 0.716667 0.85 0.058519 -4.28143 
1154 1 0.716667 0.95 0.0586839 -4.25176 
1155 1 0.7 0.9 0.00089648 -3.56307 
1313 1 0.733333 0.9 0.11753 -4.42915 
1319 1 0.783333 0.85 0.117513 -4.43986 
1327 1 0.783333 0.95 0.117261 -4.44217 
1328 1 0.766667 0.9 0.0574564 -4.19417 
1329 1 0.8 0.9 0.00058758 -3.55891 
1330 1 0.816667 0.85 0.0591782 -4.36435 
1331 1 0.816667 0.95 0.0591326 -4.34814 
1334 1 0.85 0.85 9.21717e-05 -3.89011 
1335 1 0.85 0.95 8.80589e-05 -3.8909 
1501 1 0.833333 0.9 0.117649 -4.44728 
1502 1 0.866667 0.9 0.0589772 -4.40892 
1503 1 0.883333 0.85 0.117783 -4.45013 
1504 1 0.883333 0.95 0.117741 -4.44993 
1508 1 0.916667 0.85 0.0590994 -4.40716 
1512 1 0.916667 0.95 0.0589909 -4.40732 
1513 1 0.9 0.9 2.11783e-05 -3.90305 
1514 1 0.95 0.85 0.00032669 -3.90404 
1515 1 0.95 0.95 0.000105795 -3.90389 
1656 1 0.933333 0.9 0.117729 -4.43414 
1662 1 0.983333 0.85 0.118856 -4.35711 
1664 1 0.983333 0.95 0.117816 -4.43404 
1665 1 0.966667 0.9 0.0593705 -4.40899 
31 1 0 0.1 0.176653 -4.45014 
32 1 0.0166667 0.05 0.235525 -4.44179 
33 1 0.0166667 0.15 0.235538 -4.42671 
34 1 0 0 0.176682 -4.45172 
36 1 0.05 0.05 0.176642 -4.45054 
39 1 0 0.2 0.176639 -4.35363 
41 1 0.05 0.15 0.176696 -4.43788 
131 1 0.0666667 0.1 0.235482 -4.45135 
134 1 0.0666667 0 0.235324 -4.44918 
148 1 0.0666667 0.2 0.235307 -4.43403 
135 1 0.1 0 0.176512 -4.4508 
136 1 0.116667 0.05 0.23524 -4.44933 
149 1 0.1 0.2 0.176511 -4.45186 
150 1 0.116667 0.15 0.235228 -4.44932 
152 1 0.1 0.1 0.176548 -4.45132 
154 1 0.15 0.05 0.176456 -4.45078 
155 1 0.15 0.15 0.17645 -4.45068 
288 1 0.166667 0 0.23519 -4.45009 
304 1 0.166667 0.2 0.235185 -4.45005 
307 1 0.166667 0.1 0.235193 -4.45011 
308 1 0.2 0.1 0.176437 -4.45079 
309 1 0.216667 0.05 0.235188 -4.45002 
310 1 0.216667 0.15 0.235188 -4.45004 
311 1 0.2 0 0.176441 -4.45079 
313 1 0.25 0.05 0.176441 -4.45081 
335 1 0.2 0.2 0.176437 -4.45083 
337 1 0.25 0.15 0.176441 -4.4508 
475 1 0.266667 0.1 0.235191 -4.45005 
478 1 0.266667 0 0.235191 -4.45005 
498 1 0.266667 0.2 0.235191 -4.45004 
479 1 0.3 0 0.176441 -4.45081 
480 1 0.316667 0.05 0.235191 -4.45005 
499 1 0.3 0.2 0.176441 -4.45081 
500 1 0.316667 0.15 0.235191 -4.45005 
502 1 0.3 0.1 0.176441 -4.45082 
504 1 0.35 0.05 0.176441 -4.45081 
505 1 0.35 0.15 0.176441 -4.45081 
648 1 0.366667 0 0.235191 -4.45005 
664 1 0.366667 0.2 0.235191 -4.45005 
667 1 0.366667 0.1 0.235191 -4.45005 
668 1 0.4 0.1 0.176441 -4.45081 
669 1 0.416667 0.05 0.235191 -4.45005 
670 1 0.416667 0.15 0.235191 -4.45005 
671 1 0.4 0 0.176441 -4.45081 
673 1 0.45 0.05 0.176441 -4.45081 
695 1 0.4 0.2 0.176441 -4.45081 
697 1 0.45 0.15 0.176441 -4.45081 
835 1 0.466667 0.1 0.235191 -4.45005 
838 1 0.466667 0 0.235191 -4.45005 
858 1 0.466667 0.2 0.235191 -4.45005 
839 1 0.5 0 0.176441 -4.45083 
840 1 0.516667 0.05 0.235191 -4.45008 
859 1 0.5 0.2 0.17644 -4.45083 
860 1 0.516667 0.15 0.235191 -4.45008 
862 1 0.5 0.1 0.17644 -4.45083 
864 1 0.55 0.05 0.176442 -4.45092 
865 1 0.55 0.15 0.176442 -4.45092 
1008 1 0.566667 0 0.235192 -4.45003 
1024 1 0.566667 0.2 0.23519 -4.45005 
1027 1 0.566667 0.1 0.23519 -4.45005 
1028 1 0.6 0.1 0.176467 -4.45062 
1029 1 0.616667 0.05 0.235198 -4.45 
1030 1 0.616667 0.15 0.235196 -4.45003 
1031 1 0.6 0 0.176472 -4.45057 
1033 1 0.65 0.05 0.176497 -4.45091 
1055 1 0.6 0.2 0.176467 -4.45061 
1057 1 0.65 0.15 0.176491 -4.45096 
1186 1 0.666667 0.1 0.235199 -4.45003 
1189 1 0.666667 0 0.235194 -4.4501 
1209 1 0.666667 0.2 0.235197 -4.45006 
1190 1 0.7 0 0.176381 -4.45064 
1191 1 0.716667 0.05 0.235129 -4.44981 
1210 1 0.7 0.2 0.176408 -4.45065 
1211 1 0.716667 0.15 0.235133 -4.44978 
1213 1 0.7 0.1 0.17641 -4.45062 
1215 1 0.75 0.05 0.176305 -4.4487 
1216 1 0.75 0.15 0.176317 -4.44873 
1359 1 0.766667 0 0.23501 -4.44915 
1375 1 0.766667 0.2 0.235028 -4.44913 
1378 1 0.766667 0.1 0.235025 -4.4491 
1379 1 0.8 0.1 0.176274 -4.4513 
1380 1 0.816667 0.05 0.235104 -4.45025 
1381 1 0.816667 0.15 0.235113 -4.45019 
1382 1 0.8 0 0.17625 -4.45156 
1384 1 0.85 0.05 0.176405 -4.45081 
1406 1 0.8 0.2 0.176278 -4.45138 
1408 1 0.85 0.15 0.17642 -4.45075 
1546 1 0.866667 0.1 0.235233 -4.45058 
1549 1 0.866667 0 0.235214 -4.45047 
1569 1 0.866667 0.2 0.23523 -4.4506 
1550 1 0.9 0 0.176517 -4.4504 
1551 1 0.916667 0.05 0.235248 -4.44907 
1570 1 0.9 0.2 0.176526 -4.45168 
1571 1 0.916667 0.15 0.235212 -4.4494 
1573 1 0.9 0.1 0.176544 -4.4505 
1575 1 0.95 0.05 0.176578 -4.45046 
1576 1 0.95 0.15 0.176531 -4.43791 
1689 1 0.966667 0 0.235414 -4.4507 
1705 1 0.966667 0.2 0.235337 -4.42627 
1708 1 0.966667 0.1 0.235437 -4.44175 
37 1 0.0166667 0.25 0.234372 -4.34374 
38 1 0.0166667 0.35 0.232729 -4.26937 
42 1 0.05 0.25 0.17655 -4.33977 
54 1 0.05 0.35 0.176261 -4.24266 
145 1 0.0666667 0.3 0.235052 -4.41003 
169 1 0.0666667 0.4 0.23505 -4.40999 
151 1 0.116667 0.25 0.235153 -4.45059 
170 1 0.1 0.4 0.176333 -4.43954 
171 1 0.116667 0.35 0.235084 -4.45088 
173 1 0.1 0.3 0.176334 -4.43955 
175 1 0.15 0.25 0.176432 -4.45077 
176 1 0.15 0.35 0.176431 -4.45083 
328 1 0.166667 0.4 0.235177 -4.45009 
331 1 0.166667 0.3 0.235178 -4.45008 
332 1 0.2 0.3 0.176429 -4.45095 
333 1 0.216667 0.25 0.235189 -4.45009 
334 1 0.216667 0.35 0.235187 -4.45011 
338 1 0.25 0.25 0.176441 -4.4508 
366 1 0.2 0.4 0.176429 -4.45095 
368 1 0.25 0.35 0.176442 -4.4508 
495 1 0.266667 0.3 0.235191 -4.45004 
526 1 0.266667 0.4 0.235191 -4.45004 
501 1 0.316667 0.25 0.235191 -4.45005 
527 1 0.3 0.4 0.176441 -4.45082 
528 1 0.316667 0.35 0.235191 -4.45005 
530 1 0.3 0.3 0.176441 -4.45082 
532 1 0.35 0.25 0.176441 -4.45081 
533 1 0.35 0.35 0.176441 -4.45081 
688 1 0.366667 0.4 0.235191 -4.45005 
691 1 0.366667 0.3 0.235191 -4.45005 
692 1 0.4 0.3 0.176441 -4.45081 
693 1 0.416667 0.25 0.235191 -4.45005 
694 1 0.416667 0.35 0.235191 -4.45005 
698 1 0.45 0.25 0.176441 -4.45081 
726 1 0.4 0.4 0.176441 -4.45081 
728 1 0.45 0.35 0.176441 -4.45081 
855 1 0.466667 0.3 0.235191 -4.45005 
886 1 0.466667 0.4 0.235191 -4.45005 
861 1 0.516667 0.25 0.235191 -4.45008 
887 1 0.5 0.4 0.17644 -4.45083 
888 1 0.516667 0.35 0.235191 -4.45008 
890 1 0.5 0.3 0.17644 -4.45083 
892 1 0.55 0.25 0.176442 -4.45092 
893 1 0.55 0.35 0.176442 -4.45092 
1048 1 0.566667 0.4 0.23519 -4.45005 
1051 1 0.566667 0.3 0.23519 -4.45005 
1052 1 0.6 0.3 0.176467 -4.45061 
1053 1 0.616667 0.25 0.235196 -4.45003 
1054 1 0.616667 0.35 0.235196 -4.45003 
1058 1 0.65 0.25 0.176491 -4.45095 
1086 1 0.6 0.4 0.176467 -4.45062 
1088 1 0.65 0.35 0.176491 -4.45096 
1206 1 0.666667 0.3 0.235197 -4.45006 
1237 1 0.666667 0.4 0.235198 -4.45003 
1212 1 0.716667 0.25 0.235132 -4.4498 
1238 1 0.7 0.4 0.17641 -4.45062 
1239 1 0.716667 0.35 0.235133 -4.44979 
1241 1 0.7 0.3 0.176408 -4.45066 
1243 1 0.75 0.25 0.176317 -4.44875 
1244 1 0.75 0.35 0.176317 -4.44873 
1399 1 0.766667 0.4 0.235026 -4.44913 
1402 1 0.766667 0.3 0.235028 -4.44914 
1403 1 0.8 0.3 0.176285 -4.45146 
1404 1 0.816667 0.25 0.23512 -4.4502 
1405 1 0.816667 0.35 0.235124 -4.45022 
1409 1 0.85 0.25 0.176433 -4.45066 
1437 1 0.8 0.4 0.176283 -4.45141 
1439 1 0.85 0.35 0.17644 -4.45061 
1566 1 0.866667 0.3 0.235225 -4.45045 
1597 1 0.866667 0.4 0.23522 -4.45042 
1572 1 0.916667 0.25 0.235214 -4.43434 
1598 1 0.9 0.4 0.176606 -4.43908 
1599 1 0.916667 0.35 0.235328 -4.41964 