ITEM: TIMESTEP
20
ITEM: NUMBER OF ATOMS
3584
ITEM: BOX BOUNDS pp pp ss
0.0000000000000000e+00 4.3111019472983898e+01
0.0000000000000000e+00 2.4890158697766498e+01
-3.6580800000000006e-03 3.4552298188307212e+01
ITEM: ATOMS id type xs ys zs c_peratom 
1 1 0 0.1 -0.000963516 -3.90362 
2 1 0.0166667 0.05 0.0580375 -4.40829 
3 1 0.0166667 0.15 0.0580832 -4.40742 
4 1 0 0 -0.000958134 -3.90369 
5 1 0.05 0.05 -0.000986868 -3.90378 
9 1 0 0.2 -0.000754947 -3.90365 
10 1 0.05 0.15 -0.000955482 -3.90361 
35 1 0.0333333 0 0.116797 -4.44937 
40 1 0.0333333 0.2 0.116864 -4.42424 
43 1 0.0333333 0.1 0.116818 -4.44951 
44 1 0.0666667 0.1 0.0579905 -4.40831 
45 1 0.0833333 0.05 0.116707 -4.44922 
46 1 0.0833333 0.15 0.116727 -4.4494 
47 1 0.0666667 0 0.057989 -4.40824 
60 1 0.0666667 0.2 0.0580337 -4.40754 
48 1 0.1 0 -0.00107943 -3.90366 
49 1 0.116667 0.05 0.0578787 -4.40797 
61 1 0.1 0.2 -0.00106943 -3.90357 
62 1 0.116667 0.15 0.0578894 -4.40811 
64 1 0.1 0.1 -0.00107657 -3.90366 
65 1 0.15 0.05 -0.00117041 -3.90359 
66 1 0.15 0.15 -0.00116875 -3.90362 
153 1 0.133333 0.1 0.116606 -4.44914 
156 1 0.133333 0 0.116602 -4.4491 
157 1 0.166667 0 0.0578024 -4.40792 
158 1 0.183333 0.05 0.116536 -4.44908 
177 1 0.133333 0.2 0.11659 -4.44916 
178 1 0.166667 0.2 0.0577935 -4.40794 
179 1 0.183333 0.15 0.116532 -4.44909 
181 1 0.166667 0.1 0.0578028 -4.40795 
182 1 0.2 0.1 -0.00123571 -3.90361 
183 1 0.216667 0.05 0.0577478 -4.40793 
184 1 0.216667 0.15 0.0577429 -4.40794 
185 1 0.2 0 -0.001227 -3.90362 
186 1 0.25 0.05 -0.00127252 -3.90362 
213 1 0.2 0.2 -0.00123627 -3.9036 
214 1 0.25 0.15 -0.00127744 -3.90361 
312 1 0.233333 0 0.116494 -4.4491 
336 1 0.233333 0.2 0.116487 -4.44911 
339 1 0.233333 0.1 0.116487 -4.44909 
340 1 0.266667 0.1 0.0577125 -4.40794 
341 1 0.283333 0.05 0.116466 -4.4491 
342 1 0.283333 0.15 0.116463 -4.4491 
343 1 0.266667 0 0.0577166 -4.40794 
374 1 0.266667 0.2 0.0577101 -4.40794 
344 1 0.3 0 -0.00129442 -3.90362 
345 1 0.316667 0.05 0.0576995 -4.40795 
375 1 0.3 0.2 -0.00129727 -3.90362 
376 1 0.316667 0.15 0.0576982 -4.40794 
378 1 0.3 0.1 -0.00129525 -3.90362 
379 1 0.35 0.05 -0.00130056 -3.90362 
380 1 0.35 0.15 -0.00130052 -3.90363 
503 1 0.333333 0.1 0.116458 -4.44911 
506 1 0.333333 0 0.116458 -4.44911 
507 1 0.366667 0 0.0576978 -4.40795 
508 1 0.383333 0.05 0.116462 -4.4491 
534 1 0.333333 0.2 0.116457 -4.4491 
535 1 0.366667 0.2 0.0576981 -4.40795 
536 1 0.383333 0.15 0.116462 -4.4491 
538 1 0.366667 0.1 0.0576984 -4.40795 
539 1 0.4 0.1 -0.00129324 -3.90364 
540 1 0.416667 0.05 0.0577094 -4.40794 
541 1 0.416667 0.15 0.0577106 -4.40795 
542 1 0.4 0 -0.0012944 -3.90364 
543 1 0.45 0.05 -0.00127449 -3.90369 
573 1 0.4 0.2 -0.00129326 -3.90363 
574 1 0.45 0.15 -0.00127175 -3.90369 
672 1 0.433333 0 0.116474 -4.4491 
696 1 0.433333 0.2 0.116478 -4.4491 
699 1 0.433333 0.1 0.116476 -4.4491 
700 1 0.466667 0.1 0.0577291 -4.40793 
701 1 0.483333 0.05 0.11649 -4.4491 
702 1 0.483333 0.15 0.116494 -4.4491 
703 1 0.466667 0 0.0577251 -4.40793 
734 1 0.466667 0.2 0.0577319 -4.40793 
704 1 0.5 0 -0.0012631 -3.90367 
705 1 0.516667 0.05 0.0577378 -4.40797 
735 1 0.5 0.2 -0.00125352 -3.9037 
736 1 0.516667 0.15 0.0577423 -4.40797 
738 1 0.5 0.1 -0.00125808 -3.90368 
739 1 0.55 0.05 -0.00125204 -3.90361 
740 1 0.55 0.15 -0.00124894 -3.90362 
863 1 0.533333 0.1 0.116502 -4.44913 
866 1 0.533333 0 0.1165 -4.44912 
867 1 0.566667 0 0.0577563 -4.40806 
868 1 0.583333 0.05 0.116521 -4.44931 
894 1 0.533333 0.2 0.116505 -4.44912 
895 1 0.566667 0.2 0.0577591 -4.40806 
896 1 0.583333 0.15 0.116522 -4.44931 
898 1 0.566667 0.1 0.0577574 -4.40807 
899 1 0.6 0.1 -0.00120577 -3.90348 
900 1 0.616667 0.05 0.0578008 -4.40877 
901 1 0.616667 0.15 0.0578011 -4.40877 
902 1 0.6 0 -0.00120695 -3.9035 
903 1 0.65 0.05 -0.00107 -3.89015 
933 1 0.6 0.2 -0.0012063 -3.90347 
934 1 0.65 0.15 -0.00106879 -3.89013 
1032 1 0.633333 0 0.116555 -4.44833 
1056 1 0.633333 0.2 0.116556 -4.44833 
1059 1 0.633333 0.1 0.116558 -4.44833 
1060 1 0.666667 0.1 0.0579677 -4.37602 
1061 1 0.683333 0.05 0.116454 -4.44935 
1062 1 0.683333 0.15 0.116456 -4.44935 
1063 1 0.666667 0 0.0579609 -4.37606 
1094 1 0.666667 0.2 0.0579658 -4.37602 
1064 1 0.7 0 -0.000337903 -3.54831 
1065 1 0.716667 0.05 0.057459 -4.25279 
1095 1 0.7 0.2 -0.000325413 -3.54813 
1096 1 0.716667 0.15 0.0574649 -4.25281 
1098 1 0.7 0.1 -0.000324894 -3.54817 
1214 1 0.733333 0.1 0.116386 -4.42755 
1217 1 0.733333 0 0.116374 -4.4274 
1218 1 0.766667 0 0.0564459 -4.17758 
1219 1 0.783333 0.05 0.116115 -4.44052 
1245 1 0.733333 0.2 0.116388 -4.42755 
1246 1 0.766667 0.2 0.0564677 -4.17781 
1247 1 0.783333 0.15 0.116124 -4.44062 
1249 1 0.766667 0.1 0.0564692 -4.1778 
1250 1 0.8 0.1 -0.000393179 -3.54626 
1251 1 0.816667 0.05 0.0580592 -4.3484 
1252 1 0.816667 0.15 0.0580684 -4.34844 
1253 1 0.8 0 -0.000419762 -3.54623 
1254 1 0.85 0.05 -0.00110746 -3.89041 
1284 1 0.8 0.2 -0.000395964 -3.54612 
1285 1 0.85 0.15 -0.00110214 -3.89035 
1383 1 0.833333 0 0.116581 -4.44662 
1407 1 0.833333 0.2 0.116595 -4.4467 
1410 1 0.833333 0.1 0.116593 -4.44668 
1411 1 0.866667 0.1 0.0578084 -4.40898 
1412 1 0.883333 0.05 0.116593 -4.4499 
1413 1 0.883333 0.15 0.1166 -4.45003 
1414 1 0.866667 0 0.057803 -4.40895 
1445 1 0.866667 0.2 0.0578211 -4.40919 
1415 1 0.9 0 -0.00109222 -3.90318 
1416 1 0.916667 0.05 0.0579203 -4.40799 
1446 1 0.9 0.2 -0.00106373 -3.90295 
1447 1 0.916667 0.15 0.0579311 -4.40709 
1449 1 0.9 0.1 -0.00109262 -3.90313 
1450 1 0.95 0.05 -0.00103151 -3.9034 
1451 1 0.95 0.15 -0.000951682 -3.90386 
1574 1 0.933333 0.1 0.1167 -4.44917 
1577 1 0.933333 0 0.116699 -4.44903 
1578 1 0.966667 0 0.0579968 -4.40718 
1579 1 0.983333 0.05 0.11678 -4.44941 
1605 1 0.933333 0.2 0.116672 -4.43406 
1606 1 0.966667 0.2 0.0582414 -4.40767 
1607 1 0.983333 0.15 0.116744 -4.43454 
1609 1 0.966667 0.1 0.0579939 -4.40732 
6 1 0 0.3 -0.000409192 -3.90254 
7 1 0.0166667 0.25 0.0583605 -4.39755 
8 1 0.0166667 0.35 0.0587047 -4.38941 
11 1 0.05 0.25 -0.000781846 -3.90351 
15 1 0 0.4 -0.000397628 -3.90255 
16 1 0.05 0.35 -0.000613898 -3.90396 
53 1 0.0333333 0.4 0.117675 -4.33144 
56 1 0.0333333 0.3 0.117669 -4.33145 
57 1 0.0666667 0.3 0.0582133 -4.40754 
58 1 0.0833333 0.25 0.11665 -4.43456 
59 1 0.0833333 0.35 0.116556 -4.41917 
78 1 0.0666667 0.4 0.0582249 -4.40754 
63 1 0.116667 0.25 0.0578726 -4.40725 
79 1 0.1 0.4 -0.00101434 -3.90382 
80 1 0.116667 0.35 0.0578595 -4.40621 
82 1 0.1 0.3 -0.00102119 -3.90378 
83 1 0.15 0.25 -0.00117656 -3.90345 
84 1 0.15 0.35 -0.00118188 -3.90329 
174 1 0.133333 0.3 0.116569 -4.44925 
180 1 0.183333 0.25 0.116524 -4.44914 
205 1 0.133333 0.4 0.116574 -4.44925 
206 1 0.166667 0.4 0.057789 -4.40803 
207 1 0.183333 0.35 0.116522 -4.44916 
209 1 0.166667 0.3 0.0577898 -4.40805 
210 1 0.2 0.3 -0.00124089 -3.90363 
211 1 0.216667 0.25 0.0577411 -4.40795 
212 1 0.216667 0.35 0.057741 -4.40796 
215 1 0.25 0.25 -0.00127884 -3.90361 
237 1 0.2 0.4 -0.00123804 -3.90361 
238 1 0.25 0.35 -0.00128055 -3.90361 
367 1 0.233333 0.4 0.116486 -4.44913 
370 1 0.233333 0.3 0.116485 -4.44912 
371 1 0.266667 0.3 0.0577084 -4.40795 
372 1 0.283333 0.25 0.116461 -4.4491 
373 1 0.283333 0.35 0.116461 -4.44911 
402 1 0.266667 0.4 0.0577073 -4.40795 
377 1 0.316667 0.25 0.0576964 -4.40794 
403 1 0.3 0.4 -0.00130041 -3.90361 
404 1 0.316667 0.35 0.0576953 -4.40794 
406 1 0.3 0.3 -0.00129906 -3.90362 
407 1 0.35 0.25 -0.0013017 -3.90362 
408 1 0.35 0.35 -0.00130291 -3.90362 
531 1 0.333333 0.3 0.116455 -4.4491 
537 1 0.383333 0.25 0.116461 -4.44911 
565 1 0.333333 0.4 0.116454 -4.4491 
566 1 0.366667 0.4 0.0576965 -4.40795 
567 1 0.383333 0.35 0.116461 -4.4491 
569 1 0.366667 0.3 0.0576969 -4.40795 
570 1 0.4 0.3 -0.00129361 -3.90363 
571 1 0.416667 0.25 0.0577107 -4.40795 
572 1 0.416667 0.35 0.0577102 -4.40795 
575 1 0.45 0.25 -0.00127095 -3.90369 
597 1 0.4 0.4 -0.00129404 -3.90364 
598 1 0.45 0.35 -0.00127186 -3.90369 
727 1 0.433333 0.4 0.116476 -4.4491 
730 1 0.433333 0.3 0.116477 -4.4491 
731 1 0.466667 0.3 0.0577319 -4.40793 
732 1 0.483333 0.25 0.116496 -4.4491 
733 1 0.483333 0.35 0.116494 -4.4491 
762 1 0.466667 0.4 0.0577291 -4.40793 
737 1 0.516667 0.25 0.0577451 -4.40796 
763 1 0.5 0.4 -0.00125815 -3.90368 
764 1 0.516667 0.35 0.0577422 -4.40797 
766 1 0.5 0.3 -0.00125354 -3.9037 
767 1 0.55 0.25 -0.00124606 -3.90363 
768 1 0.55 0.35 -0.00124908 -3.90362 
891 1 0.533333 0.3 0.116505 -4.44912 
897 1 0.583333 0.25 0.116523 -4.44931 
925 1 0.533333 0.4 0.116502 -4.44913 
926 1 0.566667 0.4 0.0577574 -4.40807 
927 1 0.583333 0.35 0.116522 -4.44931 
929 1 0.566667 0.3 0.0577591 -4.40806 
930 1 0.6 0.3 -0.0012062 -3.90347 
931 1 0.616667 0.25 0.0577997 -4.40877 
932 1 0.616667 0.35 0.0578011 -4.40877 
935 1 0.65 0.25 -0.00107174 -3.89011 
957 1 0.6 0.4 -0.00120567 -3.90348 
958 1 0.65 0.35 -0.00106853 -3.89013 
1087 1 0.633333 0.4 0.116558 -4.44833 
1090 1 0.633333 0.3 0.116556 -4.44833 
1091 1 0.666667 0.3 0.057966 -4.37601 
1092 1 0.683333 0.25 0.116455 -4.44935 
1093 1 0.683333 0.35 0.116457 -4.44936 
1120 1 0.666667 0.4 0.0579681 -4.37601 
1097 1 0.716667 0.25 0.0574653 -4.25281 
1121 1 0.7 0.4 -0.000323373 -3.54815 
1122 1 0.716667 0.35 0.0574677 -4.25283 
1124 1 0.7 0.3 -0.000324611 -3.54813 
1242 1 0.733333 0.3 0.116391 -4.42756 
1248 1 0.783333 0.25 0.116124 -4.44068 
1276 1 0.733333 0.4 0.116394 -4.42756 
1277 1 0.766667 0.4 0.0564836 -4.17783 
1278 1 0.783333 0.35 0.116134 -4.44067 
1280 1 0.766667 0.3 0.0564725 -4.17782 
1281 1 0.8 0.3 -0.000391628 -3.54607 
1282 1 0.816667 0.25 0.058067 -4.34848 
1283 1 0.816667 0.35 0.0580796 -4.34852 
1286 1 0.85 0.25 -0.00109638 -3.89026 
1308 1 0.8 0.4 -0.000379287 -3.54619 
1309 1 0.85 0.35 -0.00107169 -3.89033 
1438 1 0.833333 0.4 0.116615 -4.44672 
1441 1 0.833333 0.3 0.116606 -4.44674 
1442 1 0.866667 0.3 0.0578599 -4.40946 
1443 1 0.883333 0.25 0.116644 -4.45023 
1444 1 0.883333 0.35 0.116692 -4.45043 
1473 1 0.866667 0.4 0.0578733 -4.40942 
1448 1 0.916667 0.25 0.0580216 -4.4059 
1474 1 0.9 0.4 -0.000961575 -3.90308 
1475 1 0.916667 0.35 0.0581099 -4.40623 
1477 1 0.9 0.3 -0.000981477 -3.903 
1478 1 0.95 0.25 -0.000691305 -3.90439 
1479 1 0.95 0.35 -0.000512738 -3.90381 
1602 1 0.933333 0.3 0.116812 -4.40879 
1608 1 0.983333 0.25 0.117627 -4.34307 
1631 1 0.933333 0.4 0.116824 -4.40875 
1632 1 0.966667 0.4 0.0586798 -4.40004 
1633 1 0.983333 0.35 0.119152 -4.2658 
1635 1 0.966667 0.3 0.0586657 -4.40003 
12 1 0 0.5 -0.000726133 -3.90365 
13 1 0.0166667 0.45 0.0583769 -4.39753 
14 1 0.0166667 0.55 0.058127 -4.40757 
17 1 0.05 0.45 -0.000764486 -3.90351 
21 1 0 0.6 -0.000892074 -3.9036 
22 1 0.05 0.55 -0.000922756 -3.90357 
71 1 0.0333333 0.6 0.116885 -4.44969 
74 1 0.0333333 0.5 0.116883 -4.42424 
75 1 0.0666667 0.5 0.0580483 -4.40751 
76 1 0.0833333 0.45 0.116662 -4.43455 
77 1 0.0833333 0.55 0.116748 -4.44945 
95 1 0.0666667 0.6 0.0580399 -4.40858 
81 1 0.116667 0.45 0.0578886 -4.40728 
96 1 0.1 0.6 -0.0010494 -3.90363 
97 1 0.116667 0.55 0.0579001 -4.4081 
99 1 0.1 0.5 -0.00105255 -3.90355 
100 1 0.15 0.45 -0.00116863 -3.90347 
101 1 0.15 0.55 -0.00115817 -3.9036 
202 1 0.133333 0.5 0.116604 -4.44917 
208 1 0.183333 0.45 0.11653 -4.44915 
229 1 0.133333 0.6 0.11662 -4.44915 
230 1 0.166667 0.6 0.0578093 -4.40793 
231 1 0.183333 0.55 0.11654 -4.44909 
233 1 0.166667 0.5 0.0578057 -4.40798 
234 1 0.2 0.5 -0.00123339 -3.90361 
235 1 0.216667 0.45 0.0577416 -4.40795 
236 1 0.216667 0.55 0.057747 -4.40794 
239 1 0.25 0.45 -0.00128072 -3.9036 
253 1 0.2 0.6 -0.00122958 -3.9036 
254 1 0.25 0.55 -0.00127634 -3.9036 
395 1 0.233333 0.6 0.11649 -4.44909 
398 1 0.233333 0.5 0.116488 -4.44911 
399 1 0.266667 0.5 0.0577092 -4.40794 
400 1 0.283333 0.45 0.116459 -4.4491 
401 1 0.283333 0.55 0.116462 -4.44909 
422 1 0.266667 0.6 0.0577127 -4.40793 
405 1 0.316667 0.45 0.0576944 -4.40794 
423 1 0.3 0.6 -0.0012963 -3.90362 
424 1 0.316667 0.55 0.0576963 -4.40794 
426 1 0.3 0.5 -0.00129982 -3.90361 
427 1 0.35 0.45 -0.00130273 -3.90362 
428 1 0.35 0.55 -0.00130265 -3.90363 
562 1 0.333333 0.5 0.116455 -4.4491 
568 1 0.383333 0.45 0.11646 -4.4491 
589 1 0.333333 0.6 0.116456 -4.4491 
590 1 0.366667 0.6 0.0576959 -4.40795 
591 1 0.383333 0.55 0.116459 -4.4491 
593 1 0.366667 0.5 0.0576964 -4.40795 
594 1 0.4 0.5 -0.00129492 -3.90364 
595 1 0.416667 0.45 0.0577089 -4.40794 
596 1 0.416667 0.55 0.0577069 -4.40794 
599 1 0.45 0.45 -0.00127461 -3.90369 
613 1 0.4 0.6 -0.00129636 -3.90364 
614 1 0.45 0.55 -0.00127843 -3.90368 
755 1 0.433333 0.6 0.116471 -4.4491 
758 1 0.433333 0.5 0.116473 -4.4491 
759 1 0.466667 0.5 0.057725 -4.40794 
760 1 0.483333 0.45 0.11649 -4.4491 
761 1 0.483333 0.55 0.116487 -4.4491 
782 1 0.466667 0.6 0.0577219 -4.40794 
765 1 0.516667 0.45 0.0577376 -4.40797 
783 1 0.5 0.6 -0.0012653 -3.90368 
784 1 0.516667 0.55 0.0577356 -4.40797 
786 1 0.5 0.5 -0.00126319 -3.90367 
787 1 0.55 0.45 -0.00125226 -3.90361 
788 1 0.55 0.55 -0.00125242 -3.90364 
922 1 0.533333 0.5 0.1165 -4.44912 
928 1 0.583333 0.45 0.116521 -4.44931 
949 1 0.533333 0.6 0.116498 -4.44912 
950 1 0.566667 0.6 0.0577515 -4.40805 
951 1 0.583333 0.55 0.116518 -4.44931 
953 1 0.566667 0.5 0.0577561 -4.40806 
954 1 0.6 0.5 -0.00120712 -3.9035 
955 1 0.616667 0.45 0.0578007 -4.40877 
956 1 0.616667 0.55 0.0577938 -4.40876 
959 1 0.65 0.45 -0.00106984 -3.89015 
973 1 0.6 0.6 -0.0012192 -3.90355 
974 1 0.65 0.55 -0.00107991 -3.89033 
1113 1 0.633333 0.6 0.116545 -4.44811 
1116 1 0.633333 0.5 0.116554 -4.44833 
1117 1 0.666667 0.5 0.0579609 -4.37604 
1118 1 0.683333 0.45 0.116454 -4.44936 
1119 1 0.683333 0.55 0.116444 -4.44904 
1138 1 0.666667 0.6 0.0579511 -4.37612 
1123 1 0.716667 0.45 0.0574624 -4.25282 
1139 1 0.7 0.6 -0.000410889 -3.56246 
1140 1 0.716667 0.55 0.057439 -4.25243 
1142 1 0.7 0.5 -0.000336903 -3.54827 
1273 1 0.733333 0.5 0.116382 -4.4274 
1279 1 0.783333 0.45 0.116132 -4.44054 
1300 1 0.733333 0.6 0.116338 -4.42861 
1301 1 0.766667 0.6 0.0563301 -4.19339 
1302 1 0.783333 0.55 0.116103 -4.44147 
1304 1 0.766667 0.5 0.0564642 -4.17758 
1305 1 0.8 0.5 -0.00039986 -3.54624 
1306 1 0.816667 0.45 0.0580775 -4.34845 
1307 1 0.816667 0.55 0.0580476 -4.34858 
1310 1 0.85 0.45 -0.00107599 -3.89034 
1324 1 0.8 0.6 -0.000503998 -3.55963 
1325 1 0.85 0.55 -0.00110177 -3.89034 
1466 1 0.833333 0.6 0.116594 -4.44763 
1469 1 0.833333 0.5 0.116601 -4.44664 
1470 1 0.866667 0.5 0.057837 -4.40911 
1471 1 0.883333 0.45 0.116661 -4.4502 
1472 1 0.883333 0.55 0.116615 -4.44997 
1493 1 0.866667 0.6 0.0578232 -4.40888 
1476 1 0.916667 0.45 0.0580464 -4.40583 
1494 1 0.9 0.6 -0.00107307 -3.90295 
1495 1 0.916667 0.55 0.0579591 -4.40712 
1497 1 0.9 0.5 -0.00103458 -3.90301 
1498 1 0.95 0.45 -0.000663695 -3.90446 
1499 1 0.95 0.55 -0.000905177 -3.90378 
1628 1 0.933333 0.5 0.116694 -4.43401 
1634 1 0.983333 0.45 0.117646 -4.34307 
1649 1 0.933333 0.6 0.116734 -4.44914 
1650 1 0.966667 0.6 0.0580532 -4.40638 
1651 1 0.983333 0.55 0.11678 -4.43454 
1653 1 0.966667 0.5 0.058274 -4.4077 
18 1 0 0.7 -0.000718738 -3.90391 
19 1 0.0166667 0.65 0.0581437 -4.40739 
20 1 0.0166667 0.75 0.0583672 -4.39877 
23 1 0.05 0.65 -0.000907749 -3.90363 
27 1 0 0.8 -0.000644171 -3.90256 
28 1 0.05 0.75 -0.000768701 -3.90386 
88 1 0.0333333 0.8 0.117715 -4.35802 
91 1 0.0333333 0.7 0.116926 -4.42394 
92 1 0.0666667 0.7 0.058067 -4.40721 
93 1 0.0833333 0.65 0.116763 -4.44935 
94 1 0.0833333 0.75 0.11669 -4.43431 
107 1 0.0666667 0.8 0.0582239 -4.40886 
98 1 0.116667 0.65 0.0579079 -4.4081 
108 1 0.1 0.8 -0.000994135 -3.90405 
109 1 0.116667 0.75 0.0579038 -4.40709 
111 1 0.1 0.7 -0.00104232 -3.90356 
112 1 0.15 0.65 -0.00115922 -3.90356 
113 1 0.15 0.75 -0.0011578 -3.90345 
226 1 0.133333 0.7 0.116615 -4.44913 
232 1 0.183333 0.65 0.116541 -4.44909 
245 1 0.133333 0.8 0.116608 -4.44909 
246 1 0.166667 0.8 0.057811 -4.40796 
247 1 0.183333 0.75 0.116541 -4.4491 
249 1 0.166667 0.7 0.0578095 -4.40797 
250 1 0.2 0.7 -0.00122495 -3.90361 
251 1 0.216667 0.65 0.0577516 -4.40793 
252 1 0.216667 0.75 0.0577557 -4.40793 
255 1 0.25 0.65 -0.00127005 -3.90362 
261 1 0.2 0.8 -0.00121967 -3.90364 
262 1 0.25 0.75 -0.00126625 -3.90363 
415 1 0.233333 0.8 0.1165 -4.44911 
418 1 0.233333 0.7 0.116496 -4.44909 
419 1 0.266667 0.7 0.0577182 -4.40794 
420 1 0.283333 0.65 0.116466 -4.4491 
421 1 0.283333 0.75 0.116469 -4.44911 
434 1 0.266667 0.8 0.0577197 -4.40795 
425 1 0.316667 0.65 0.0576982 -4.40795 
435 1 0.3 0.8 -0.00129381 -3.90361 
436 1 0.316667 0.75 0.0576989 -4.40794 
438 1 0.3 0.7 -0.00129438 -3.90362 
439 1 0.35 0.65 -0.00130242 -3.90362 
440 1 0.35 0.75 -0.00130237 -3.90362 
586 1 0.333333 0.7 0.116456 -4.4491 
592 1 0.383333 0.65 0.116458 -4.4491 
605 1 0.333333 0.8 0.116457 -4.4491 
606 1 0.366667 0.8 0.0576955 -4.40795 
607 1 0.383333 0.75 0.116458 -4.4491 
609 1 0.366667 0.7 0.0576958 -4.40795 
610 1 0.4 0.7 -0.00129766 -3.90363 
611 1 0.416667 0.65 0.0577049 -4.40795 
612 1 0.416667 0.75 0.057704 -4.40795 
615 1 0.45 0.65 -0.00128132 -3.90367 
621 1 0.4 0.8 -0.00129764 -3.90363 
622 1 0.45 0.75 -0.00128229 -3.90367 
775 1 0.433333 0.8 0.11647 -4.4491 
778 1 0.433333 0.7 0.11647 -4.4491 
779 1 0.466667 0.7 0.0577207 -4.40794 
780 1 0.483333 0.65 0.116485 -4.4491 
781 1 0.483333 0.75 0.116484 -4.4491 
794 1 0.466667 0.8 0.0577208 -4.40794 
785 1 0.516667 0.65 0.0577343 -4.40796 
795 1 0.5 0.8 -0.00126543 -3.90368 
796 1 0.516667 0.75 0.0577333 -4.40795 
798 1 0.5 0.7 -0.00126546 -3.90368 
799 1 0.55 0.65 -0.00125493 -3.90365 
800 1 0.55 0.75 -0.00125746 -3.90365 
946 1 0.533333 0.7 0.116495 -4.44911 
952 1 0.583333 0.65 0.11651 -4.44923 
965 1 0.533333 0.8 0.116495 -4.44911 
966 1 0.566667 0.8 0.057746 -4.408 
967 1 0.583333 0.75 0.116505 -4.4492 
969 1 0.566667 0.7 0.0577459 -4.408 
970 1 0.6 0.7 -0.00123363 -3.90354 
971 1 0.616667 0.65 0.0577755 -4.4085 
972 1 0.616667 0.75 0.0577583 -4.40844 
975 1 0.65 0.65 -0.0011323 -3.88969 
981 1 0.6 0.8 -0.00123344 -3.90354 
982 1 0.65 0.75 -0.00119966 -3.90416 
1131 1 0.633333 0.8 0.116515 -4.44889 
1134 1 0.633333 0.7 0.116514 -4.44889 
1135 1 0.666667 0.7 0.0578155 -4.39252 
1136 1 0.683333 0.65 0.116402 -4.45022 
1137 1 0.683333 0.75 0.116519 -4.44893 
1148 1 0.666667 0.8 0.0578157 -4.39252 
1141 1 0.716667 0.65 0.0572767 -4.28175 
1149 1 0.7 0.8 -0.000800448 -3.72309 
1150 1 0.716667 0.75 0.0579263 -4.35198 
1152 1 0.7 0.7 -0.000800379 -3.72308 
1153 1 0.75 0.75 -0.000379514 -3.57837 
1297 1 0.733333 0.7 0.116491 -4.43841 
1303 1 0.783333 0.65 0.116322 -4.43944 
1316 1 0.733333 0.8 0.116491 -4.43842 
1317 1 0.766667 0.8 0.0574493 -4.27881 
1318 1 0.783333 0.75 0.116374 -4.44999 
1320 1 0.766667 0.7 0.0574512 -4.27881 
1321 1 0.8 0.7 -0.000606611 -3.72431 
1322 1 0.816667 0.65 0.0579989 -4.36458 
1323 1 0.816667 0.75 0.058058 -4.37678 
1326 1 0.85 0.65 -0.00109575 -3.88976 
1332 1 0.8 0.8 -0.000611754 -3.7243 
1333 1 0.85 0.75 -0.00105271 -3.9044 
1486 1 0.833333 0.8 0.116625 -4.44749 
1489 1 0.833333 0.7 0.11663 -4.44747 
1490 1 0.866667 0.7 0.0578825 -4.4088 
1491 1 0.883333 0.65 0.116632 -4.44977 
1492 1 0.883333 0.75 0.116675 -4.44969 
1505 1 0.866667 0.8 0.057886 -4.40894 
1496 1 0.916667 0.65 0.0579671 -4.40713 
1506 1 0.9 0.8 -0.00101726 -3.90327 
1507 1 0.916667 0.75 0.0580216 -4.40712 
1509 1 0.9 0.7 -0.00103223 -3.90336 
1510 1 0.95 0.65 -0.000900582 -3.90399 
1511 1 0.95 0.75 -0.000787023 -3.90376 
1646 1 0.933333 0.7 0.116724 -4.43429 
1652 1 0.983333 0.65 0.116815 -4.43454 
1659 1 0.933333 0.8 0.116827 -4.42378 
1660 1 0.966667 0.8 0.0583225 -4.39874 
1661 1 0.983333 0.75 0.117749 -4.35819 
1663 1 0.966667 0.7 0.0582848 -4.40898 
24 1 0 0.9 -0.000776825 -3.90382 
25 1 0.0166667 0.85 0.0583285 -4.39872 
26 1 0.0166667 0.95 0.0580745 -4.40715 
29 1 0.05 0.85 -0.000796642 -3.90378 
30 1 0.05 0.95 -0.000957277 -3.90362 
103 1 0.0333333 0.9 0.116856 -4.42379 
104 1 0.0666667 0.9 0.0580263 -4.40717 
105 1 0.0833333 0.85 0.116674 -4.43441 
106 1 0.0833333 0.95 0.116713 -4.44923 
110 1 0.116667 0.85 0.0578932 -4.4071 
114 1 0.116667 0.95 0.0578897 -4.40808 
115 1 0.1 0.9 -0.00106199 -3.90357 
116 1 0.15 0.85 -0.00115722 -3.90348 
117 1 0.15 0.95 -0.00116423 -3.90361 
242 1 0.133333 0.9 0.116606 -4.44916 
248 1 0.183333 0.85 0.116543 -4.44909 
256 1 0.183333 0.95 0.116539 -4.4491 
257 1 0.166667 0.9 0.05781 -4.40798 
258 1 0.2 0.9 -0.00122076 -3.90365 
259 1 0.216667 0.85 0.0577589 -4.40794 
260 1 0.216667 0.95 0.0577549 -4.40793 
263 1 0.25 0.85 -0.00126552 -3.90363 
264 1 0.25 0.95 -0.00126739 -3.90363 
430 1 0.233333 0.9 0.1165 -4.4491 
431 1 0.266667 0.9 0.0577197 -4.40795 
432 1 0.283333 0.85 0.11647 -4.44911 
433 1 0.283333 0.95 0.116469 -4.44911 
437 1 0.316667 0.85 0.0576994 -4.40795 
441 1 0.316667 0.95 0.0576991 -4.40795 
442 1 0.3 0.9 -0.00129415 -3.90361 
443 1 0.35 0.85 -0.00130238 -3.90362 
444 1 0.35 0.95 -0.00130135 -3.90362 
602 1 0.333333 0.9 0.116457 -4.4491 
608 1 0.383333 0.85 0.116459 -4.4491 
616 1 0.383333 0.95 0.11646 -4.4491 
617 1 0.366667 0.9 0.0576964 -4.40795 
618 1 0.4 0.9 -0.00129628 -3.90363 
619 1 0.416667 0.85 0.0577049 -4.40795 
620 1 0.416667 0.95 0.0577071 -4.40794 
623 1 0.45 0.85 -0.0012813 -3.90367 
624 1 0.45 0.95 -0.00127834 -3.90367 
790 1 0.433333 0.9 0.116471 -4.4491 
791 1 0.466667 0.9 0.057722 -4.40794 
792 1 0.483333 0.85 0.116485 -4.4491 
793 1 0.483333 0.95 0.116487 -4.4491 
797 1 0.516667 0.85 0.0577344 -4.40796 
801 1 0.516667 0.95 0.0577358 -4.40797 
802 1 0.5 0.9 -0.00126522 -3.90368 
803 1 0.55 0.85 -0.0012548 -3.90365 
804 1 0.55 0.95 -0.00125221 -3.90364 
962 1 0.533333 0.9 0.116498 -4.44912 
968 1 0.583333 0.85 0.116511 -4.44923 
976 1 0.583333 0.95 0.116518 -4.44931 
977 1 0.566667 0.9 0.0577518 -4.40805 
978 1 0.6 0.9 -0.00121884 -3.90355 
979 1 0.616667 0.85 0.0577758 -4.4085 
980 1 0.616667 0.95 0.0577942 -4.40876 
983 1 0.65 0.85 -0.00113198 -3.8897 
984 1 0.65 0.95 -0.0010797 -3.89033 
1144 1 0.633333 0.9 0.116545 -4.44811 
1145 1 0.666667 0.9 0.0579514 -4.37612 
1146 1 0.683333 0.85 0.116403 -4.45022 
1147 1 0.683333 0.95 0.116444 -4.44903 
1151 1 0.716667 0.85 0.057276 -4.28174 
1154 1 0.716667 0.95 0.057437 -4.2524 
1155 1 0.7 0.9 -0.000411202 -3.56249 
1313 1 0.733333 0.9 0.116335 -4.42862 
1319 1 0.783333 0.85 0.116312 -4.43944 
1327 1 0.783333 0.95 0.116087 -4.44149 
1328 1 0.766667 0.9 0.0563181 -4.19342 
1329 1 0.8 0.9 -0.000519812 -3.55958 
1330 1 0.816667 0.85 0.0579861 -4.36458 
1331 1 0.816667 0.95 0.058028 -4.34856 
1334 1 0.85 0.85 -0.00110347 -3.88976 
1335 1 0.85 0.95 -0.00112063 -3.89038 
1501 1 0.833333 0.9 0.116578 -4.44759 
1502 1 0.866667 0.9 0.0578188 -4.40892 
1503 1 0.883333 0.85 0.116647 -4.44986 
1504 1 0.883333 0.95 0.116596 -4.44988 
1508 1 0.916667 0.85 0.0579986 -4.40714 
1512 1 0.916667 0.95 0.0579338 -4.40704 
1513 1 0.9 0.9 -0.00107153 -3.90323 
1514 1 0.95 0.85 -0.000811165 -3.90375 
1515 1 0.95 0.95 -0.000942701 -3.90416 
1656 1 0.933333 0.9 0.11668 -4.43426 
1662 1 0.983333 0.85 0.117691 -4.35791 
1664 1 0.983333 0.95 0.116735 -4.43432 
1665 1 0.966667 0.9 0.0582336 -4.40883 
31 1 0 0.1 0.175656 -4.44997 
32 1 0.0166667 0.05 0.234511 -4.44103 
33 1 0.0166667 0.15 0.234553 -4.42612 
34 1 0 0 0.175607 -4.45117 
36 1 0.05 0.05 0.175607 -4.45002 
39 1 0 0.2 0.175609 -4.35378 
41 1 0.05 0.15 0.175643 -4.4373 
131 1 0.0666667 0.1 0.234463 -4.45081 
134 1 0.0666667 0 0.234314 -4.44949 
148 1 0.0666667 0.2 0.234333 -4.4343 
135 1 0.1 0 0.175462 -4.45018 
136 1 0.116667 0.05 0.234219 -4.44924 
149 1 0.1 0.2 0.175442 -4.45128 
150 1 0.116667 0.15 0.234204 -4.44931 
152 1 0.1 0.1 0.175487 -4.45057 
154 1 0.15 0.05 0.175382 -4.45014 
155 1 0.15 0.15 0.175376 -4.45006 
288 1 0.166667 0 0.234162 -4.44998 
304 1 0.166667 0.2 0.234151 -4.44998 
307 1 0.166667 0.1 0.234161 -4.45001 
308 1 0.2 0.1 0.175325 -4.45022 
309 1 0.216667 0.05 0.234119 -4.44994 
310 1 0.216667 0.15 0.234119 -4.44996 
311 1 0.2 0 0.17533 -4.45021 
313 1 0.25 0.05 0.175293 -4.45021 
335 1 0.2 0.2 0.175323 -4.45025 
337 1 0.25 0.15 0.17529 -4.45022 
475 1 0.266667 0.1 0.234095 -4.44994 
478 1 0.266667 0 0.234101 -4.44995 
498 1 0.266667 0.2 0.234093 -4.44995 
479 1 0.3 0 0.17528 -4.45023 
480 1 0.316667 0.05 0.234093 -4.44995 
499 1 0.3 0.2 0.175275 -4.45022 
500 1 0.316667 0.15 0.234091 -4.44995 
502 1 0.3 0.1 0.175278 -4.45022 
504 1 0.35 0.05 0.175277 -4.45023 
505 1 0.35 0.15 0.175277 -4.45023 
648 1 0.366667 0 0.234094 -4.44995 
664 1 0.366667 0.2 0.234095 -4.44995 
667 1 0.366667 0.1 0.234095 -4.44995 
668 1 0.4 0.1 0.175285 -4.45022 
669 1 0.416667 0.05 0.234105 -4.44994 
670 1 0.416667 0.15 0.234106 -4.44994 
671 1 0.4 0 0.175283 -4.45022 
673 1 0.45 0.05 0.175298 -4.45022 
695 1 0.4 0.2 0.175285 -4.45022 
697 1 0.45 0.15 0.175301 -4.45022 
835 1 0.466667 0.1 0.234119 -4.44994 
838 1 0.466667 0 0.234116 -4.44994 
858 1 0.466667 0.2 0.234122 -4.44994 
839 1 0.5 0 0.175309 -4.45023 
840 1 0.516667 0.05 0.234127 -4.44995 
859 1 0.5 0.2 0.175315 -4.45022 
860 1 0.516667 0.15 0.23413 -4.44995 
862 1 0.5 0.1 0.175312 -4.45022 
864 1 0.55 0.05 0.175321 -4.45026 
865 1 0.55 0.15 0.175323 -4.45025 
1008 1 0.566667 0 0.234134 -4.44993 
1024 1 0.566667 0.2 0.234137 -4.44993 
1027 1 0.566667 0.1 0.234136 -4.44993 
1028 1 0.6 0.1 0.175337 -4.45009 
1029 1 0.616667 0.05 0.234135 -4.44992 
1030 1 0.616667 0.15 0.234135 -4.44992 
1031 1 0.6 0 0.175334 -4.45009 
1033 1 0.65 0.05 0.175319 -4.45054 
1055 1 0.6 0.2 0.175336 -4.4501 
1057 1 0.65 0.15 0.17532 -4.45054 
1186 1 0.666667 0.1 0.2341 -4.44988 
1189 1 0.666667 0 0.234097 -4.44985 
1209 1 0.666667 0.2 0.234097 -4.44987 
1190 1 0.7 0 0.17523 -4.4497 
1191 1 0.716667 0.05 0.23403 -4.45013 
1210 1 0.7 0.2 0.175234 -4.44977 
1211 1 0.716667 0.15 0.234032 -4.45015 
1213 1 0.7 0.1 0.175235 -4.44977 
1215 1 0.75 0.05 0.175132 -4.4481 
1216 1 0.75 0.15 0.175139 -4.44814 
1359 1 0.766667 0 0.233983 -4.45006 
1375 1 0.766667 0.2 0.233992 -4.45001 
1378 1 0.766667 0.1 0.23399 -4.44999 
1379 1 0.8 0.1 0.17515 -4.45064 
1380 1 0.816667 0.05 0.234056 -4.45014 
1381 1 0.816667 0.15 0.234061 -4.45012 
1382 1 0.8 0 0.17514 -4.45079 
1384 1 0.85 0.05 0.175369 -4.44978 
1406 1 0.8 0.2 0.175152 -4.45069 
1408 1 0.85 0.15 0.175372 -4.44971 
1546 1 0.866667 0.1 0.234189 -4.44996 
1549 1 0.866667 0 0.234179 -4.4499 
1569 1 0.866667 0.2 0.234179 -4.44993 
1550 1 0.9 0 0.175422 -4.45017 
1551 1 0.916667 0.05 0.234247 -4.4494 
1570 1 0.9 0.2 0.175431 -4.45145 
1571 1 0.916667 0.15 0.234232 -4.44963 
1573 1 0.9 0.1 0.175431 -4.45023 
1575 1 0.95 0.05 0.175558 -4.44981 
1576 1 0.95 0.15 0.175523 -4.43729 
1689 1 0.966667 0 0.234422 -4.45024 
1705 1 0.966667 0.2 0.23437 -4.42579 
1708 1 0.966667 0.1 0.234461 -4.44099 
37 1 0.0166667 0.25 0.233487 -4.34312 
38 1 0.0166667 0.35 0.231982 -4.26642 
42 1 0.05 0.25 0.175555 -4.33956 
54 1 0.05 0.35 0.175367 -4.24329 
145 1 0.0666667 0.3 0.234198 -4.40997 
169 1 0.0666667 0.4 0.234203 -4.40997 
151 1 0.116667 0.25 0.23416 -4.45037 
170 1 0.1 0.4 0.17537 -4.43897 
171 1 0.116667 0.35 0.234122 -4.45056 
173 1 0.1 0.3 0.175363 -4.43895 
175 1 0.15 0.25 0.175355 -4.45012 
176 1 0.15 0.35 0.175342 -4.45011 
328 1 0.166667 0.4 0.234138 -4.44995 
331 1 0.166667 0.3 0.234134 -4.44995 
332 1 0.2 0.3 0.17532 -4.45029 
333 1 0.216667 0.25 0.23412 -4.44997 
334 1 0.216667 0.35 0.23412 -4.44999 
338 1 0.25 0.25 0.175291 -4.45023 
366 1 0.2 0.4 0.175322 -4.45028 
368 1 0.25 0.35 0.17529 -4.45024 
495 1 0.266667 0.3 0.234095 -4.44997 
526 1 0.266667 0.4 0.234094 -4.44996 
501 1 0.316667 0.25 0.234088 -4.44994 
527 1 0.3 0.4 0.175273 -4.45022 
528 1 0.316667 0.35 0.234086 -4.44994 
530 1 0.3 0.3 0.175274 -4.45022 
532 1 0.35 0.25 0.175275 -4.45022 
533 1 0.35 0.35 0.175273 -4.45022 
688 1 0.366667 0.4 0.234093 -4.44995 
691 1 0.366667 0.3 0.234093 -4.44995 
692 1 0.4 0.3 0.175284 -4.45022 
693 1 0.416667 0.25 0.234106 -4.44995 
694 1 0.416667 0.35 0.234105 -4.44995 
698 1 0.45 0.25 0.175302 -4.45022 
726 1 0.4 0.4 0.175284 -4.45022 
728 1 0.45 0.35 0.1753 -4.45022 
855 1 0.466667 0.3 0.234122 -4.44994 
886 1 0.466667 0.4 0.234119 -4.44994 
861 1 0.516667 0.25 0.234131 -4.44995 
887 1 0.5 0.4 0.175312 -4.45022 
888 1 0.516667 0.35 0.234129 -4.44995 
890 1 0.5 0.3 0.175315 -4.45022 
892 1 0.55 0.25 0.175324 -4.45025 
893 1 0.55 0.35 0.175323 -4.45025 
1048 1 0.566667 0.4 0.234136 -4.44993 
1051 1 0.566667 0.3 0.234137 -4.44993 
1052 1 0.6 0.3 0.175336 -4.4501 
1053 1 0.616667 0.25 0.234135 -4.44992 
1054 1 0.616667 0.35 0.234135 -4.44992 
1058 1 0.65 0.25 0.175318 -4.45054 
1086 1 0.6 0.4 0.175337 -4.4501 
1088 1 0.65 0.35 0.17532 -4.45053 
1206 1 0.666667 0.3 0.234097 -4.44987 
1237 1 0.666667 0.4 0.234099 -4.44988 
1212 1 0.716667 0.25 0.234033 -4.45016 
1238 1 0.7 0.4 0.175238 -4.44978 
1239 1 0.716667 0.35 0.234037 -4.45015 
1241 1 0.7 0.3 0.175236 -4.44978 
1243 1 0.75 0.25 0.17514 -4.44816 
1244 1 0.75 0.35 0.175147 -4.44816 
1399 1 0.766667 0.4 0.234 -4.45001 
1402 1 0.766667 0.3 0.233997 -4.45002 
1403 1 0.8 0.3 0.175157 -4.45072 
1404 1 0.816667 0.25 0.234061 -4.45013 
1405 1 0.816667 0.35 0.234066 -4.45016 
1409 1 0.85 0.25 0.175378 -4.44961 
1437 1 0.8 0.4 0.175163 -4.45069 
1439 1 0.85 0.35 0.175392 -4.44962 
1566 1 0.866667 0.3 0.234188 -4.44991 
1597 1 0.866667 0.4 0.234194 -4.44992 
1572 1 0.916667 0.25 0.234258 -4.43465 
1598 1 0.9 0.4 0.175514 -4.43892 
1599 1 0.916667 0.35 0.234368 -4.41989 
1601 1 0.9 0.3 0.175505 -4.43892 
1603 1 0.95 0.25 0.175501 -4.33997 