ITEM: TIMESTEP
23
ITEM: NUMBER OF ATOMS
3584
ITEM: BOX BOUNDS pp pp ss
0.0000000000000000e+00 4.3111019472983898e+01
0.0000000000000000e+00 2.4890158697766498e+01
-3.6580800000000006e-03 3.4552298188307212e+01
ITEM: ATOMS id type xs ys zs c_peratom 
1 1 0 0.1 -0.000944205 -3.90375 
2 1 0.0166667 0.05 0.0580353 -4.40829 
3 1 0.0166667 0.15 0.0580765 -4.40751 
4 1 0 0 -0.000962837 -3.90371 
5 1 0.05 0.05 -0.000988854 -3.90377 
9 1 0 0.2 -0.000784942 -3.90353 
10 1 0.05 0.15 -0.000962344 -3.90356 
35 1 0.0333333 0 0.116783 -4.44941 
40 1 0.0333333 0.2 0.116845 -4.42428 
43 1 0.0333333 0.1 0.116808 -4.44948 
44 1 0.0666667 0.1 0.0579884 -4.40823 
45 1 0.0833333 0.05 0.116702 -4.44915 
46 1 0.0833333 0.15 0.116719 -4.44936 
47 1 0.0666667 0 0.0579819 -4.40824 
60 1 0.0666667 0.2 0.058022 -4.40755 
48 1 0.1 0 -0.00106757 -3.90373 
49 1 0.116667 0.05 0.0578908 -4.40793 
61 1 0.1 0.2 -0.00106108 -3.90363 
62 1 0.116667 0.15 0.0578939 -4.40807 
64 1 0.1 0.1 -0.00106372 -3.90374 
65 1 0.15 0.05 -0.00115478 -3.90366 
66 1 0.15 0.15 -0.00116149 -3.90365 
153 1 0.133333 0.1 0.116606 -4.44909 
156 1 0.133333 0 0.116607 -4.44905 
157 1 0.166667 0 0.0578116 -4.40793 
158 1 0.183333 0.05 0.11654 -4.44908 
177 1 0.133333 0.2 0.116596 -4.44912 
178 1 0.166667 0.2 0.0578038 -4.40799 
179 1 0.183333 0.15 0.116535 -4.44906 
181 1 0.166667 0.1 0.0578087 -4.4079 
182 1 0.2 0.1 -0.00121727 -3.90364 
183 1 0.216667 0.05 0.057761 -4.40793 
184 1 0.216667 0.15 0.0577578 -4.40793 
185 1 0.2 0 -0.00122042 -3.90363 
186 1 0.25 0.05 -0.00125461 -3.90365 
213 1 0.2 0.2 -0.00122588 -3.90363 
214 1 0.25 0.15 -0.00125572 -3.90365 
312 1 0.233333 0 0.116503 -4.44909 
336 1 0.233333 0.2 0.116498 -4.44909 
339 1 0.233333 0.1 0.116504 -4.4491 
340 1 0.266667 0.1 0.057732 -4.40794 
341 1 0.283333 0.05 0.11648 -4.44909 
342 1 0.283333 0.15 0.116479 -4.4491 
343 1 0.266667 0 0.0577332 -4.40793 
374 1 0.266667 0.2 0.057729 -4.40794 
344 1 0.3 0 -0.00127147 -3.90366 
345 1 0.316667 0.05 0.0577175 -4.40793 
375 1 0.3 0.2 -0.00127667 -3.90365 
376 1 0.316667 0.15 0.0577159 -4.40794 
378 1 0.3 0.1 -0.00127565 -3.90365 
379 1 0.35 0.05 -0.00127921 -3.90366 
380 1 0.35 0.15 -0.00128023 -3.90366 
503 1 0.333333 0.1 0.11647 -4.44908 
506 1 0.333333 0 0.116472 -4.44908 
507 1 0.366667 0 0.0577165 -4.40793 
508 1 0.383333 0.05 0.116474 -4.44908 
534 1 0.333333 0.2 0.116469 -4.44909 
535 1 0.366667 0.2 0.0577161 -4.40793 
536 1 0.383333 0.15 0.116474 -4.44908 
538 1 0.366667 0.1 0.0577167 -4.40793 
539 1 0.4 0.1 -0.00127192 -3.9037 
540 1 0.416667 0.05 0.0577227 -4.40793 
541 1 0.416667 0.15 0.0577245 -4.40793 
542 1 0.4 0 -0.00127386 -3.90369 
543 1 0.45 0.05 -0.00126888 -3.90368 
573 1 0.4 0.2 -0.00127083 -3.90371 
574 1 0.45 0.15 -0.00126704 -3.90369 
672 1 0.433333 0 0.116479 -4.44908 
696 1 0.433333 0.2 0.116481 -4.44908 
699 1 0.433333 0.1 0.11648 -4.44908 
700 1 0.466667 0.1 0.0577286 -4.40796 
701 1 0.483333 0.05 0.116488 -4.44909 
702 1 0.483333 0.15 0.116487 -4.4491 
703 1 0.466667 0 0.0577279 -4.40795 
734 1 0.466667 0.2 0.0577293 -4.40795 
704 1 0.5 0 -0.00125865 -3.90367 
705 1 0.516667 0.05 0.0577451 -4.40793 
735 1 0.5 0.2 -0.00126021 -3.90365 
736 1 0.516667 0.15 0.057744 -4.40794 
738 1 0.5 0.1 -0.0012593 -3.90366 
739 1 0.55 0.05 -0.00122624 -3.90372 
740 1 0.55 0.15 -0.0012265 -3.90371 
863 1 0.533333 0.1 0.116506 -4.4491 
866 1 0.533333 0 0.116504 -4.44911 
867 1 0.566667 0 0.0577678 -4.40805 
868 1 0.583333 0.05 0.116525 -4.44927 
894 1 0.533333 0.2 0.116505 -4.44911 
895 1 0.566667 0.2 0.0577717 -4.40805 
896 1 0.583333 0.15 0.116528 -4.44927 
898 1 0.566667 0.1 0.0577727 -4.40804 
899 1 0.6 0.1 -0.00120206 -3.90344 
900 1 0.616667 0.05 0.0578054 -4.4088 
901 1 0.616667 0.15 0.0578107 -4.4088 
902 1 0.6 0 -0.00120986 -3.90343 
903 1 0.65 0.05 -0.00104432 -3.89016 
933 1 0.6 0.2 -0.00120098 -3.90344 
934 1 0.65 0.15 -0.00103798 -3.89016 
1032 1 0.633333 0 0.116561 -4.4483 
1056 1 0.633333 0.2 0.116571 -4.44831 
1059 1 0.633333 0.1 0.116567 -4.4483 
1060 1 0.666667 0.1 0.0579974 -4.37592 
1061 1 0.683333 0.05 0.116481 -4.44931 
1062 1 0.683333 0.15 0.116488 -4.44931 
1063 1 0.666667 0 0.057992 -4.37595 
1094 1 0.666667 0.2 0.0580044 -4.37592 
1064 1 0.7 0 -0.000290063 -3.54847 
1065 1 0.716667 0.05 0.0575025 -4.25278 
1095 1 0.7 0.2 -0.000269195 -3.54836 
1096 1 0.716667 0.15 0.0575108 -4.25277 
1098 1 0.7 0.1 -0.000278302 -3.54833 
1214 1 0.733333 0.1 0.116425 -4.42763 
1217 1 0.733333 0 0.11642 -4.42746 
1218 1 0.766667 0 0.056486 -4.17764 
1219 1 0.783333 0.05 0.116141 -4.44062 
1245 1 0.733333 0.2 0.116433 -4.42764 
1246 1 0.766667 0.2 0.0564979 -4.17789 
1247 1 0.783333 0.15 0.116147 -4.44075 
1249 1 0.766667 0.1 0.0564851 -4.17789 
1250 1 0.8 0.1 -0.000382476 -3.54613 
1251 1 0.816667 0.05 0.0580739 -4.3483 
1252 1 0.816667 0.15 0.0580871 -4.34838 
1253 1 0.8 0 -0.000380627 -3.54639 
1254 1 0.85 0.05 -0.00110052 -3.89039 
1284 1 0.8 0.2 -0.000364409 -3.54618 
1285 1 0.85 0.15 -0.00107618 -3.89043 
1383 1 0.833333 0 0.116591 -4.44659 
1407 1 0.833333 0.2 0.116618 -4.44664 
1410 1 0.833333 0.1 0.116595 -4.44667 
1411 1 0.866667 0.1 0.0578026 -4.40905 
1412 1 0.883333 0.05 0.11657 -4.44984 
1413 1 0.883333 0.15 0.116594 -4.44993 
1414 1 0.866667 0 0.0577996 -4.40898 
1445 1 0.866667 0.2 0.0578462 -4.40915 
1415 1 0.9 0 -0.00113664 -3.90294 
1416 1 0.916667 0.05 0.057897 -4.40804 
1446 1 0.9 0.2 -0.00106589 -3.90291 
1447 1 0.916667 0.15 0.0579291 -4.40705 
1449 1 0.9 0.1 -0.00112666 -3.90295 
1450 1 0.95 0.05 -0.00100309 -3.90356 
1451 1 0.95 0.15 -0.00090975 -3.90409 
1574 1 0.933333 0.1 0.116694 -4.4491 
1577 1 0.933333 0 0.116683 -4.44904 
1578 1 0.966667 0 0.0580073 -4.40712 
1579 1 0.983333 0.05 0.116791 -4.44932 
1605 1 0.933333 0.2 0.116677 -4.43407 
1606 1 0.966667 0.2 0.0582612 -4.40769 
1607 1 0.983333 0.15 0.116758 -4.43443 
1609 1 0.966667 0.1 0.0580252 -4.4072 
6 1 0 0.3 -0.000424124 -3.90247 
7 1 0.0166667 0.25 0.0583334 -4.39772 
8 1 0.0166667 0.35 0.0586737 -4.38926 
11 1 0.05 0.25 -0.000815588 -3.90337 
15 1 0 0.4 -0.000417936 -3.90247 
16 1 0.05 0.35 -0.000619283 -3.90393 
53 1 0.0333333 0.4 0.117643 -4.33144 
56 1 0.0333333 0.3 0.117641 -4.33144 
57 1 0.0666667 0.3 0.0582048 -4.40747 
58 1 0.0833333 0.25 0.116648 -4.43454 
59 1 0.0833333 0.35 0.11655 -4.41917 
78 1 0.0666667 0.4 0.0582082 -4.40748 
63 1 0.116667 0.25 0.0578862 -4.40729 
79 1 0.1 0.4 -0.0010053 -3.90389 
80 1 0.116667 0.35 0.0578714 -4.40619 
82 1 0.1 0.3 -0.00100509 -3.9039 
83 1 0.15 0.25 -0.00117149 -3.90347 
84 1 0.15 0.35 -0.00117666 -3.9033 
174 1 0.133333 0.3 0.116582 -4.44927 
180 1 0.183333 0.25 0.116524 -4.44911 
205 1 0.133333 0.4 0.116579 -4.44923 
206 1 0.166667 0.4 0.0577949 -4.40806 
207 1 0.183333 0.35 0.11652 -4.44916 
209 1 0.166667 0.3 0.0577879 -4.40805 
210 1 0.2 0.3 -0.00123196 -3.9036 
211 1 0.216667 0.25 0.0577521 -4.40793 
212 1 0.216667 0.35 0.0577491 -4.40792 
215 1 0.25 0.25 -0.00125899 -3.90365 
237 1 0.2 0.4 -0.00122914 -3.90362 
238 1 0.25 0.35 -0.00125902 -3.90366 
367 1 0.233333 0.4 0.116496 -4.44908 
370 1 0.233333 0.3 0.116493 -4.44908 
371 1 0.266667 0.3 0.0577285 -4.40795 
372 1 0.283333 0.25 0.116478 -4.4491 
373 1 0.283333 0.35 0.116478 -4.4491 
402 1 0.266667 0.4 0.0577299 -4.40794 
377 1 0.316667 0.25 0.0577156 -4.40794 
403 1 0.3 0.4 -0.00127686 -3.90366 
404 1 0.316667 0.35 0.0577148 -4.40794 
406 1 0.3 0.3 -0.00127712 -3.90365 
407 1 0.35 0.25 -0.0012808 -3.90366 
408 1 0.35 0.35 -0.0012814 -3.90366 
531 1 0.333333 0.3 0.116469 -4.44909 
537 1 0.383333 0.25 0.116474 -4.44907 
565 1 0.333333 0.4 0.116469 -4.44909 
566 1 0.366667 0.4 0.0577144 -4.40793 
567 1 0.383333 0.35 0.116473 -4.44907 
569 1 0.366667 0.3 0.057716 -4.40793 
570 1 0.4 0.3 -0.00127156 -3.90371 
571 1 0.416667 0.25 0.057725 -4.40793 
572 1 0.416667 0.35 0.0577234 -4.40793 
575 1 0.45 0.25 -0.00126606 -3.90369 
597 1 0.4 0.4 -0.00127346 -3.9037 
598 1 0.45 0.35 -0.00126755 -3.90369 
727 1 0.433333 0.4 0.116479 -4.44908 
730 1 0.433333 0.3 0.116481 -4.44908 
731 1 0.466667 0.3 0.0577291 -4.40795 
732 1 0.483333 0.25 0.116487 -4.4491 
733 1 0.483333 0.35 0.116487 -4.4491 
762 1 0.466667 0.4 0.0577281 -4.40796 
737 1 0.516667 0.25 0.0577428 -4.40794 
763 1 0.5 0.4 -0.00125955 -3.90366 
764 1 0.516667 0.35 0.057744 -4.40794 
766 1 0.5 0.3 -0.00126032 -3.90365 
767 1 0.55 0.25 -0.00122875 -3.90369 
768 1 0.55 0.35 -0.00122646 -3.90371 
891 1 0.533333 0.3 0.116504 -4.44911 
897 1 0.583333 0.25 0.116528 -4.44927 
925 1 0.533333 0.4 0.116506 -4.4491 
926 1 0.566667 0.4 0.0577725 -4.40804 
927 1 0.583333 0.35 0.116527 -4.44927 
929 1 0.566667 0.3 0.0577716 -4.40805 
930 1 0.6 0.3 -0.00120109 -3.90344 
931 1 0.616667 0.25 0.0578121 -4.40881 
932 1 0.616667 0.35 0.0578104 -4.4088 
935 1 0.65 0.25 -0.00103413 -3.89017 
957 1 0.6 0.4 -0.0012023 -3.90344 
958 1 0.65 0.35 -0.00103759 -3.89016 
1087 1 0.633333 0.4 0.116567 -4.44831 
1090 1 0.633333 0.3 0.116571 -4.44831 
1091 1 0.666667 0.3 0.0580053 -4.37592 
1092 1 0.683333 0.25 0.116493 -4.44931 
1093 1 0.683333 0.35 0.11649 -4.44931 
1120 1 0.666667 0.4 0.0579997 -4.37592 
1097 1 0.716667 0.25 0.0575161 -4.25278 
1121 1 0.7 0.4 -0.00027457 -3.54834 
1122 1 0.716667 0.35 0.0575134 -4.25277 
1124 1 0.7 0.3 -0.000267776 -3.54836 
1242 1 0.733333 0.3 0.116433 -4.42764 
1248 1 0.783333 0.25 0.116159 -4.44073 
1276 1 0.733333 0.4 0.116427 -4.42763 
1277 1 0.766667 0.4 0.0564905 -4.17788 
1278 1 0.783333 0.35 0.116156 -4.44076 
1280 1 0.766667 0.3 0.0565006 -4.17788 
1281 1 0.8 0.3 -0.000354021 -3.54617 
1282 1 0.816667 0.25 0.0581109 -4.3484 
1283 1 0.816667 0.35 0.0581129 -4.34841 
1286 1 0.85 0.25 -0.00102992 -3.89054 
1308 1 0.8 0.4 -0.000363361 -3.54609 
1309 1 0.85 0.35 -0.00101698 -3.89054 
1438 1 0.833333 0.4 0.116631 -4.44668 
1441 1 0.833333 0.3 0.116636 -4.44669 
1442 1 0.866667 0.3 0.0578878 -4.40942 
1443 1 0.883333 0.25 0.116656 -4.45015 
1444 1 0.883333 0.35 0.116694 -4.4504 
1473 1 0.866667 0.4 0.0578817 -4.40945 
1448 1 0.916667 0.25 0.0580207 -4.40594 
1474 1 0.9 0.4 -0.00101743 -3.90278 
1475 1 0.916667 0.35 0.0580889 -4.40642 
1477 1 0.9 0.3 -0.00101069 -3.90284 
1478 1 0.95 0.25 -0.000666288 -3.90449 
1479 1 0.95 0.35 -0.000505847 -3.90385 
1602 1 0.933333 0.3 0.116816 -4.40884 
1608 1 0.983333 0.25 0.117644 -4.34311 
1631 1 0.933333 0.4 0.116814 -4.40884 
1632 1 0.966667 0.4 0.0586774 -4.39998 
1633 1 0.983333 0.35 0.119132 -4.26575 
1635 1 0.966667 0.3 0.0586741 -4.39999 
12 1 0 0.5 -0.000750866 -3.90357 
13 1 0.0166667 0.45 0.05835 -4.39771 
14 1 0.0166667 0.55 0.0581287 -4.40764 
17 1 0.05 0.45 -0.000804332 -3.90334 
21 1 0 0.6 -0.000876632 -3.90371 
22 1 0.05 0.55 -0.000912359 -3.90362 
71 1 0.0333333 0.6 0.116882 -4.44967 
74 1 0.0333333 0.5 0.116873 -4.42428 
75 1 0.0666667 0.5 0.0580439 -4.40755 
76 1 0.0833333 0.45 0.116654 -4.43453 
77 1 0.0833333 0.55 0.116753 -4.44941 
95 1 0.0666667 0.6 0.0580512 -4.40849 
81 1 0.116667 0.45 0.057892 -4.40729 
96 1 0.1 0.6 -0.00102205 -3.90377 
97 1 0.116667 0.55 0.0579129 -4.40806 
99 1 0.1 0.5 -0.00104452 -3.9036 
100 1 0.15 0.45 -0.0011674 -3.90347 
101 1 0.15 0.55 -0.00114679 -3.90363 
202 1 0.133333 0.5 0.116603 -4.44913 
208 1 0.183333 0.45 0.116527 -4.4491 
229 1 0.133333 0.6 0.116626 -4.44908 
230 1 0.166667 0.6 0.0578199 -4.40787 
231 1 0.183333 0.55 0.116538 -4.44906 
233 1 0.166667 0.5 0.0578076 -4.40796 
234 1 0.2 0.5 -0.0012195 -3.90363 
235 1 0.216667 0.45 0.0577556 -4.40793 
236 1 0.216667 0.55 0.0577621 -4.40792 
239 1 0.25 0.45 -0.00125473 -3.90366 
253 1 0.2 0.6 -0.00121259 -3.90363 
254 1 0.25 0.55 -0.00125365 -3.90365 
395 1 0.233333 0.6 0.116505 -4.4491 
398 1 0.233333 0.5 0.116503 -4.44909 
399 1 0.266667 0.5 0.0577316 -4.40794 
400 1 0.283333 0.45 0.116479 -4.4491 
401 1 0.283333 0.55 0.116481 -4.4491 
422 1 0.266667 0.6 0.0577332 -4.40795 
405 1 0.316667 0.45 0.0577159 -4.40794 
423 1 0.3 0.6 -0.00127516 -3.90365 
424 1 0.316667 0.55 0.0577155 -4.40794 
426 1 0.3 0.5 -0.00127602 -3.90365 
427 1 0.35 0.45 -0.00128271 -3.90366 
428 1 0.35 0.55 -0.00128228 -3.90366 
562 1 0.333333 0.5 0.116469 -4.44909 
568 1 0.383333 0.45 0.116471 -4.44907 
589 1 0.333333 0.6 0.116469 -4.44908 
590 1 0.366667 0.6 0.057714 -4.40793 
591 1 0.383333 0.55 0.116471 -4.44908 
593 1 0.366667 0.5 0.0577132 -4.40793 
594 1 0.4 0.5 -0.0012754 -3.90369 
595 1 0.416667 0.45 0.0577215 -4.40793 
596 1 0.416667 0.55 0.0577203 -4.40793 
599 1 0.45 0.45 -0.00126951 -3.90368 
613 1 0.4 0.6 -0.00127634 -3.90369 
614 1 0.45 0.55 -0.00126997 -3.90368 
755 1 0.433333 0.6 0.116477 -4.44908 
758 1 0.433333 0.5 0.116478 -4.44908 
759 1 0.466667 0.5 0.0577275 -4.40795 
760 1 0.483333 0.45 0.116487 -4.44909 
761 1 0.483333 0.55 0.116486 -4.44909 
782 1 0.466667 0.6 0.0577271 -4.40794 
765 1 0.516667 0.45 0.0577449 -4.40793 
783 1 0.5 0.6 -0.0012608 -3.90368 
784 1 0.516667 0.55 0.0577422 -4.40793 
786 1 0.5 0.5 -0.0012589 -3.90368 
787 1 0.55 0.45 -0.00122631 -3.90372 
788 1 0.55 0.55 -0.00123373 -3.90371 
922 1 0.533333 0.5 0.116503 -4.44911 
928 1 0.583333 0.45 0.116525 -4.44927 
949 1 0.533333 0.6 0.116499 -4.44911 
950 1 0.566667 0.6 0.0577592 -4.40804 
951 1 0.583333 0.55 0.116519 -4.44928 
953 1 0.566667 0.5 0.0577676 -4.40805 
954 1 0.6 0.5 -0.00121007 -3.90343 
955 1 0.616667 0.45 0.057805 -4.4088 
956 1 0.616667 0.55 0.0577976 -4.4088 
959 1 0.65 0.45 -0.0010439 -3.89016 
973 1 0.6 0.6 -0.00122022 -3.90349 
974 1 0.65 0.55 -0.00105155 -3.89035 
1113 1 0.633333 0.6 0.116553 -4.4481 
1116 1 0.633333 0.5 0.116562 -4.44831 
1117 1 0.666667 0.5 0.0579941 -4.37595 
1118 1 0.683333 0.45 0.116485 -4.44931 
1119 1 0.683333 0.55 0.116477 -4.44902 
1138 1 0.666667 0.6 0.0579833 -4.37603 
1123 1 0.716667 0.45 0.0575066 -4.25278 
1139 1 0.7 0.6 -0.00036097 -3.56265 
1140 1 0.716667 0.55 0.0574854 -4.25243 
1142 1 0.7 0.5 -0.000286004 -3.54847 
1273 1 0.733333 0.5 0.116425 -4.42748 
1279 1 0.783333 0.45 0.116151 -4.44063 
1300 1 0.733333 0.6 0.116383 -4.4287 
1301 1 0.766667 0.6 0.0563566 -4.19346 
1302 1 0.783333 0.55 0.11613 -4.44154 
1304 1 0.766667 0.5 0.0564925 -4.17764 
1305 1 0.8 0.5 -0.000368352 -3.54634 
1306 1 0.816667 0.45 0.058101 -4.34833 
1307 1 0.816667 0.55 0.0580762 -4.34847 
1310 1 0.85 0.45 -0.00104058 -3.89047 
1324 1 0.8 0.6 -0.000472945 -3.55968 
1325 1 0.85 0.55 -0.00106337 -3.8905 
1466 1 0.833333 0.6 0.116608 -4.44755 
1469 1 0.833333 0.5 0.116613 -4.44656 
1470 1 0.866667 0.5 0.0578478 -4.40909 
1471 1 0.883333 0.45 0.116651 -4.45014 
1472 1 0.883333 0.55 0.11661 -4.44987 
1493 1 0.866667 0.6 0.0578389 -4.40888 
1476 1 0.916667 0.45 0.0580199 -4.40595 
1494 1 0.9 0.6 -0.00107572 -3.90293 
1495 1 0.916667 0.55 0.0579512 -4.40709 
1497 1 0.9 0.5 -0.00106379 -3.90285 
1498 1 0.95 0.45 -0.00065869 -3.90445 
1499 1 0.95 0.55 -0.000881273 -3.90391 
1628 1 0.933333 0.5 0.116684 -4.43409 
1634 1 0.983333 0.45 0.117656 -4.34315 
1649 1 0.933333 0.6 0.116736 -4.4491 
1650 1 0.966667 0.6 0.0580779 -4.40632 
1651 1 0.983333 0.55 0.116794 -4.43449 
1653 1 0.966667 0.5 0.0582826 -4.40775 
18 1 0 0.7 -0.000737721 -3.90383 
19 1 0.0166667 0.65 0.0581413 -4.40743 
20 1 0.0166667 0.75 0.0583467 -4.39883 
23 1 0.05 0.65 -0.00090568 -3.90364 
27 1 0 0.8 -0.000658862 -3.90248 
28 1 0.05 0.75 -0.000779571 -3.90379 
88 1 0.0333333 0.8 0.117698 -4.35804 
91 1 0.0333333 0.7 0.11691 -4.42394 
92 1 0.0666667 0.7 0.0580685 -4.40719 
93 1 0.0833333 0.65 0.116766 -4.44928 
94 1 0.0833333 0.75 0.11669 -4.43428 
107 1 0.0666667 0.8 0.0582214 -4.40883 
98 1 0.116667 0.65 0.0579288 -4.40804 
108 1 0.1 0.8 -0.000976549 -3.90414 
109 1 0.116667 0.75 0.0579185 -4.40706 
111 1 0.1 0.7 -0.00102135 -3.90367 
112 1 0.15 0.65 -0.00113458 -3.90367 
113 1 0.15 0.75 -0.00114381 -3.90351 
226 1 0.133333 0.7 0.116625 -4.44907 
232 1 0.183333 0.65 0.116547 -4.44906 
245 1 0.133333 0.8 0.116615 -4.44909 
246 1 0.166667 0.8 0.0578124 -4.40797 
247 1 0.183333 0.75 0.116542 -4.44908 
249 1 0.166667 0.7 0.0578241 -4.40797 
250 1 0.2 0.7 -0.00121519 -3.90362 
251 1 0.216667 0.65 0.0577634 -4.40793 
252 1 0.216667 0.75 0.0577617 -4.40793 
255 1 0.25 0.65 -0.0012544 -3.90363 
261 1 0.2 0.8 -0.0012191 -3.9036 
262 1 0.25 0.75 -0.00125209 -3.90365 
415 1 0.233333 0.8 0.116501 -4.44907 
418 1 0.233333 0.7 0.116504 -4.44909 
419 1 0.266667 0.7 0.0577327 -4.40793 
420 1 0.283333 0.65 0.116481 -4.44909 
421 1 0.283333 0.75 0.116482 -4.44908 
434 1 0.266667 0.8 0.0577354 -4.40792 
425 1 0.316667 0.65 0.057717 -4.40793 
435 1 0.3 0.8 -0.00126901 -3.90368 
436 1 0.316667 0.75 0.0577203 -4.40794 
438 1 0.3 0.7 -0.00127203 -3.90366 
439 1 0.35 0.65 -0.00128111 -3.90366 
440 1 0.35 0.75 -0.00127999 -3.90366 
586 1 0.333333 0.7 0.116471 -4.44908 
592 1 0.383333 0.65 0.116471 -4.44908 
605 1 0.333333 0.8 0.116473 -4.44909 
606 1 0.366667 0.8 0.0577157 -4.40794 
607 1 0.383333 0.75 0.116472 -4.44908 
609 1 0.366667 0.7 0.0577146 -4.40794 
610 1 0.4 0.7 -0.00127636 -3.90369 
611 1 0.416667 0.65 0.0577201 -4.40793 
612 1 0.416667 0.75 0.0577202 -4.40793 
615 1 0.45 0.65 -0.00126978 -3.90369 
621 1 0.4 0.8 -0.00127612 -3.90368 
622 1 0.45 0.75 -0.00126975 -3.90369 
775 1 0.433333 0.8 0.116477 -4.44908 
778 1 0.433333 0.7 0.116477 -4.44908 
779 1 0.466667 0.7 0.0577262 -4.40794 
780 1 0.483333 0.65 0.116484 -4.44909 
781 1 0.483333 0.75 0.116483 -4.44909 
794 1 0.466667 0.8 0.0577263 -4.40794 
785 1 0.516667 0.65 0.0577378 -4.40793 
795 1 0.5 0.8 -0.00126362 -3.90367 
796 1 0.516667 0.75 0.0577361 -4.40793 
798 1 0.5 0.7 -0.00126367 -3.90367 
799 1 0.55 0.65 -0.00124186 -3.9037 
800 1 0.55 0.75 -0.0012446 -3.90369 
946 1 0.533333 0.7 0.116495 -4.44909 
952 1 0.583333 0.65 0.11651 -4.44921 
965 1 0.533333 0.8 0.116495 -4.44909 
966 1 0.566667 0.8 0.0577526 -4.40798 
967 1 0.583333 0.75 0.116505 -4.44917 
969 1 0.566667 0.7 0.0577525 -4.40798 
970 1 0.6 0.7 -0.00123116 -3.90351 
971 1 0.616667 0.65 0.057781 -4.40852 
972 1 0.616667 0.75 0.057764 -4.40847 
975 1 0.65 0.65 -0.00110746 -3.88971 
981 1 0.6 0.8 -0.00123113 -3.90351 
982 1 0.65 0.75 -0.00117918 -3.90415 
1131 1 0.633333 0.8 0.116522 -4.44887 
1134 1 0.633333 0.7 0.116522 -4.44887 
1135 1 0.666667 0.7 0.0578427 -4.39246 
1136 1 0.683333 0.65 0.116434 -4.4502 
1137 1 0.683333 0.75 0.116547 -4.44889 
1148 1 0.666667 0.8 0.0578425 -4.39247 
1141 1 0.716667 0.65 0.0573235 -4.28176 
1149 1 0.7 0.8 -0.000753144 -3.72324 
1150 1 0.716667 0.75 0.0579702 -4.35199 
1152 1 0.7 0.7 -0.000752596 -3.72324 
1153 1 0.75 0.75 -0.000345543 -3.57836 
1297 1 0.733333 0.7 0.116527 -4.43844 
1303 1 0.783333 0.65 0.116347 -4.43951 
1316 1 0.733333 0.8 0.116523 -4.43843 
1317 1 0.766667 0.8 0.0574771 -4.27875 
1318 1 0.783333 0.75 0.116401 -4.45005 
1320 1 0.766667 0.7 0.0574803 -4.27876 
1321 1 0.8 0.7 -0.000561593 -3.72445 
1322 1 0.816667 0.65 0.0580276 -4.36451 
1323 1 0.816667 0.75 0.0580918 -4.37671 
1326 1 0.85 0.65 -0.00107535 -3.88981 
1332 1 0.8 0.8 -0.000562675 -3.72445 
1333 1 0.85 0.75 -0.001048 -3.90436 
1486 1 0.833333 0.8 0.116647 -4.44745 
1489 1 0.833333 0.7 0.116644 -4.44741 
1490 1 0.866667 0.7 0.0578824 -4.40887 
1491 1 0.883333 0.65 0.116628 -4.44972 
1492 1 0.883333 0.75 0.116669 -4.44969 
1505 1 0.866667 0.8 0.0578904 -4.409 
1496 1 0.916667 0.65 0.0579686 -4.40709 
1506 1 0.9 0.8 -0.00102757 -3.90319 
1507 1 0.916667 0.75 0.058021 -4.40711 
1509 1 0.9 0.7 -0.00104002 -3.90328 
1510 1 0.95 0.65 -0.000873534 -3.90414 
1511 1 0.95 0.75 -0.000772697 -3.90384 
1646 1 0.933333 0.7 0.116722 -4.43426 
1652 1 0.983333 0.65 0.11682 -4.43444 
1659 1 0.933333 0.8 0.116827 -4.42377 
1660 1 0.966667 0.8 0.0583253 -4.39873 
1661 1 0.983333 0.75 0.117744 -4.3582 
1663 1 0.966667 0.7 0.0582924 -4.40898 
24 1 0 0.9 -0.000792606 -3.90376 
25 1 0.0166667 0.85 0.0583135 -4.39879 
26 1 0.0166667 0.95 0.0580623 -4.40726 
29 1 0.05 0.85 -0.000805728 -3.90374 
30 1 0.05 0.95 -0.000979606 -3.90352 
103 1 0.0333333 0.9 0.116845 -4.42382 
104 1 0.0666667 0.9 0.0580225 -4.40721 
105 1 0.0833333 0.85 0.116675 -4.43438 
106 1 0.0833333 0.95 0.116709 -4.44922 
110 1 0.116667 0.85 0.0579026 -4.40708 
114 1 0.116667 0.95 0.0578974 -4.40808 
115 1 0.1 0.9 -0.00105467 -3.90362 
116 1 0.15 0.85 -0.00115297 -3.90348 
117 1 0.15 0.95 -0.00115756 -3.90364 
242 1 0.133333 0.9 0.11661 -4.44916 
248 1 0.183333 0.85 0.116536 -4.44909 
256 1 0.183333 0.95 0.11654 -4.44909 
257 1 0.166667 0.9 0.0578101 -4.40799 
258 1 0.2 0.9 -0.00122093 -3.90361 
259 1 0.216667 0.85 0.0577586 -4.40791 
260 1 0.216667 0.95 0.0577597 -4.40794 
263 1 0.25 0.85 -0.00124989 -3.90366 
264 1 0.25 0.95 -0.00125201 -3.90366 
430 1 0.233333 0.9 0.1165 -4.44907 
431 1 0.266667 0.9 0.0577356 -4.40792 
432 1 0.283333 0.85 0.116484 -4.44908 
433 1 0.283333 0.95 0.116482 -4.44908 
437 1 0.316667 0.85 0.0577216 -4.40794 
441 1 0.316667 0.95 0.057721 -4.40794 
442 1 0.3 0.9 -0.00126854 -3.90368 
443 1 0.35 0.85 -0.00127882 -3.90366 
444 1 0.35 0.95 -0.00127876 -3.90367 
602 1 0.333333 0.9 0.116474 -4.44909 
608 1 0.383333 0.85 0.116473 -4.44908 
616 1 0.383333 0.95 0.116473 -4.44908 
617 1 0.366667 0.9 0.0577163 -4.40794 
618 1 0.4 0.9 -0.00127543 -3.90368 
619 1 0.416667 0.85 0.0577204 -4.40793 
620 1 0.416667 0.95 0.0577213 -4.40793 
623 1 0.45 0.85 -0.00126966 -3.90369 
624 1 0.45 0.95 -0.00126958 -3.90368 
790 1 0.433333 0.9 0.116478 -4.44908 
791 1 0.466667 0.9 0.0577273 -4.40794 
792 1 0.483333 0.85 0.116484 -4.44909 
793 1 0.483333 0.95 0.116486 -4.44909 
797 1 0.516667 0.85 0.057738 -4.40793 
801 1 0.516667 0.95 0.0577424 -4.40793 
802 1 0.5 0.9 -0.00126064 -3.90368 
803 1 0.55 0.85 -0.00124163 -3.9037 
804 1 0.55 0.95 -0.0012335 -3.90371 
962 1 0.533333 0.9 0.116499 -4.4491 
968 1 0.583333 0.85 0.11651 -4.44921 
976 1 0.583333 0.95 0.116519 -4.44928 
977 1 0.566667 0.9 0.0577593 -4.40804 
978 1 0.6 0.9 -0.00122012 -3.90349 
979 1 0.616667 0.85 0.0577812 -4.40853 
980 1 0.616667 0.95 0.0577979 -4.4088 
983 1 0.65 0.85 -0.00110767 -3.88971 
984 1 0.65 0.95 -0.00105187 -3.89036 
1144 1 0.633333 0.9 0.116553 -4.4481 
1145 1 0.666667 0.9 0.0579824 -4.37604 
1146 1 0.683333 0.85 0.116434 -4.45019 
1147 1 0.683333 0.95 0.116475 -4.44902 
1151 1 0.716667 0.85 0.0573213 -4.28174 
1154 1 0.716667 0.95 0.0574814 -4.25242 
1155 1 0.7 0.9 -0.000363225 -3.56266 
1313 1 0.733333 0.9 0.116376 -4.42868 
1319 1 0.783333 0.85 0.116345 -4.43951 
1327 1 0.783333 0.95 0.116124 -4.44154 
1328 1 0.766667 0.9 0.0563483 -4.19345 
1329 1 0.8 0.9 -0.000477671 -3.5597 
1330 1 0.816667 0.85 0.0580272 -4.36453 
1331 1 0.816667 0.95 0.0580658 -4.34846 
1334 1 0.85 0.85 -0.00107134 -3.88986 
1335 1 0.85 0.95 -0.0010846 -3.89052 
1501 1 0.833333 0.9 0.116607 -4.44755 
1502 1 0.866667 0.9 0.0578357 -4.40893 
1503 1 0.883333 0.85 0.116649 -4.44985 
1504 1 0.883333 0.95 0.116588 -4.44984 
1508 1 0.916667 0.85 0.0579953 -4.40714 
1512 1 0.916667 0.95 0.0579121 -4.40707 
1513 1 0.9 0.9 -0.00108691 -3.90314 
1514 1 0.95 0.85 -0.000801406 -3.9038 
1515 1 0.95 0.95 -0.000937748 -3.90418 
1656 1 0.933333 0.9 0.116671 -4.43429 
1662 1 0.983333 0.85 0.117694 -4.35795 
1664 1 0.983333 0.95 0.116735 -4.43432 
1665 1 0.966667 0.9 0.0582345 -4.40882 
31 1 0 0.1 0.175648 -4.44988 
32 1 0.0166667 0.05 0.234489 -4.44103 
33 1 0.0166667 0.15 0.234544 -4.42618 
34 1 0 0 0.175603 -4.45118 
36 1 0.05 0.05 0.175584 -4.44997 
39 1 0 0.2 0.175616 -4.35378 
41 1 0.05 0.15 0.175622 -4.43731 
131 1 0.0666667 0.1 0.234428 -4.45077 
134 1 0.0666667 0 0.234294 -4.44944 
148 1 0.0666667 0.2 0.234325 -4.43433 
135 1 0.1 0 0.175451 -4.45013 
136 1 0.116667 0.05 0.234191 -4.44917 
149 1 0.1 0.2 0.175438 -4.45127 
150 1 0.116667 0.15 0.234186 -4.44926 
152 1 0.1 0.1 0.175469 -4.45047 
154 1 0.15 0.05 0.175374 -4.45009 
155 1 0.15 0.15 0.175367 -4.45002 
288 1 0.166667 0 0.234155 -4.44999 
304 1 0.166667 0.2 0.234136 -4.44995 
307 1 0.166667 0.1 0.234146 -4.44999 
308 1 0.2 0.1 0.175328 -4.45023 
309 1 0.216667 0.05 0.234126 -4.44998 
310 1 0.216667 0.15 0.23412 -4.44997 
311 1 0.2 0 0.17533 -4.45024 
313 1 0.25 0.05 0.175305 -4.45022 
335 1 0.2 0.2 0.175318 -4.45023 
337 1 0.25 0.15 0.175303 -4.45022 
475 1 0.266667 0.1 0.234106 -4.44997 
478 1 0.266667 0 0.234104 -4.44995 
498 1 0.266667 0.2 0.234104 -4.44997 
479 1 0.3 0 0.175287 -4.45021 
480 1 0.316667 0.05 0.234093 -4.44995 
499 1 0.3 0.2 0.175287 -4.45022 
500 1 0.316667 0.15 0.234092 -4.44995 
502 1 0.3 0.1 0.175285 -4.45021 
504 1 0.35 0.05 0.175282 -4.4502 
505 1 0.35 0.15 0.17528 -4.4502 
648 1 0.366667 0 0.234094 -4.44995 
664 1 0.366667 0.2 0.234093 -4.44995 
667 1 0.366667 0.1 0.234093 -4.44995 
668 1 0.4 0.1 0.175287 -4.45021 
669 1 0.416667 0.05 0.2341 -4.44995 
670 1 0.416667 0.15 0.234101 -4.44995 
671 1 0.4 0 0.175286 -4.45021 
673 1 0.45 0.05 0.175293 -4.45021 
695 1 0.4 0.2 0.175287 -4.4502 
697 1 0.45 0.15 0.175293 -4.45021 
835 1 0.466667 0.1 0.234106 -4.44995 
838 1 0.466667 0 0.234106 -4.44995 
858 1 0.466667 0.2 0.234106 -4.44995 
839 1 0.5 0 0.175302 -4.45022 
840 1 0.516667 0.05 0.234116 -4.44996 
859 1 0.5 0.2 0.175302 -4.45022 
860 1 0.516667 0.15 0.234115 -4.44996 
862 1 0.5 0.1 0.175303 -4.45022 
864 1 0.55 0.05 0.175318 -4.45024 
865 1 0.55 0.15 0.175318 -4.45025 
1008 1 0.566667 0 0.234124 -4.44993 
1024 1 0.566667 0.2 0.234126 -4.44993 
1027 1 0.566667 0.1 0.234125 -4.44993 
1028 1 0.6 0.1 0.175332 -4.45007 
1029 1 0.616667 0.05 0.234122 -4.44993 
1030 1 0.616667 0.15 0.234125 -4.44993 
1031 1 0.6 0 0.175327 -4.45008 
1033 1 0.65 0.05 0.17532 -4.45052 
1055 1 0.6 0.2 0.175334 -4.45007 
1057 1 0.65 0.15 0.175326 -4.45051 
1186 1 0.666667 0.1 0.234101 -4.44987 
1189 1 0.666667 0 0.234099 -4.44983 
1209 1 0.666667 0.2 0.234107 -4.44988 
1190 1 0.7 0 0.175259 -4.44967 
1191 1 0.716667 0.05 0.234049 -4.45005 
1210 1 0.7 0.2 0.175269 -4.44975 
1211 1 0.716667 0.15 0.234053 -4.45008 
1213 1 0.7 0.1 0.175263 -4.44974 
1215 1 0.75 0.05 0.175169 -4.44808 
1216 1 0.75 0.15 0.175174 -4.44813 
1359 1 0.766667 0 0.234003 -4.44999 
1375 1 0.766667 0.2 0.234011 -4.44994 
1378 1 0.766667 0.1 0.234007 -4.44994 
1379 1 0.8 0.1 0.175163 -4.45066 
1380 1 0.816667 0.05 0.234048 -4.4501 
1381 1 0.816667 0.15 0.234056 -4.45007 
1382 1 0.8 0 0.17516 -4.45081 
1384 1 0.85 0.05 0.175348 -4.44974 
1406 1 0.8 0.2 0.175174 -4.45069 
1408 1 0.85 0.15 0.175362 -4.44966 
1546 1 0.866667 0.1 0.234152 -4.44992 
1549 1 0.866667 0 0.234148 -4.44988 
1569 1 0.866667 0.2 0.234165 -4.44991 
1550 1 0.9 0 0.175389 -4.45013 
1551 1 0.916667 0.05 0.234212 -4.44942 
1570 1 0.9 0.2 0.175421 -4.4514 
1571 1 0.916667 0.15 0.234207 -4.44963 
1573 1 0.9 0.1 0.175401 -4.45015 
1575 1 0.95 0.05 0.175545 -4.44976 
1576 1 0.95 0.15 0.17552 -4.43724 
1689 1 0.966667 0 0.234413 -4.45019 
1705 1 0.966667 0.2 0.234385 -4.42583 
1708 1 0.966667 0.1 0.234448 -4.44102 
37 1 0.0166667 0.25 0.233499 -4.3432 
38 1 0.0166667 0.35 0.231987 -4.26649 
42 1 0.05 0.25 0.175543 -4.33969 
54 1 0.05 0.35 0.175346 -4.24345 
145 1 0.0666667 0.3 0.234189 -4.41 
169 1 0.0666667 0.4 0.234188 -4.41 
151 1 0.116667 0.25 0.234166 -4.45038 
170 1 0.1 0.4 0.175367 -4.43898 
171 1 0.116667 0.35 0.23413 -4.45057 
173 1 0.1 0.3 0.175368 -4.43894 
175 1 0.15 0.25 0.175357 -4.4501 
176 1 0.15 0.35 0.175347 -4.45012 
328 1 0.166667 0.4 0.234129 -4.44997 
331 1 0.166667 0.3 0.234131 -4.44996 
332 1 0.2 0.3 0.17531 -4.45025 
333 1 0.216667 0.25 0.234108 -4.44995 
334 1 0.216667 0.35 0.234105 -4.44996 
338 1 0.25 0.25 0.175297 -4.45022 
366 1 0.2 0.4 0.175312 -4.45025 
368 1 0.25 0.35 0.175296 -4.45022 
495 1 0.266667 0.3 0.234101 -4.44997 
526 1 0.266667 0.4 0.234102 -4.44997 
501 1 0.316667 0.25 0.234093 -4.44997 
527 1 0.3 0.4 0.175287 -4.45022 
528 1 0.316667 0.35 0.234094 -4.44997 
530 1 0.3 0.3 0.175286 -4.45022 
532 1 0.35 0.25 0.17528 -4.45021 
533 1 0.35 0.35 0.175281 -4.45021 
688 1 0.366667 0.4 0.234093 -4.44995 
691 1 0.366667 0.3 0.234093 -4.44995 
692 1 0.4 0.3 0.175286 -4.4502 
693 1 0.416667 0.25 0.234101 -4.44995 
694 1 0.416667 0.35 0.234099 -4.44995 
698 1 0.45 0.25 0.175293 -4.45021 
726 1 0.4 0.4 0.175285 -4.45021 
728 1 0.45 0.35 0.175293 -4.45021 
855 1 0.466667 0.3 0.234105 -4.44995 
886 1 0.466667 0.4 0.234105 -4.44995 
861 1 0.516667 0.25 0.234114 -4.44997 
887 1 0.5 0.4 0.175302 -4.45022 
888 1 0.516667 0.35 0.234115 -4.44996 
890 1 0.5 0.3 0.175302 -4.45022 
892 1 0.55 0.25 0.175317 -4.45025 
893 1 0.55 0.35 0.175318 -4.45025 
1048 1 0.566667 0.4 0.234125 -4.44993 
1051 1 0.566667 0.3 0.234126 -4.44993 
1052 1 0.6 0.3 0.175333 -4.45007 
1053 1 0.616667 0.25 0.234126 -4.44992 
1054 1 0.616667 0.35 0.234125 -4.44993 
1058 1 0.65 0.25 0.175329 -4.45052 
1086 1 0.6 0.4 0.175332 -4.45007 
1088 1 0.65 0.35 0.175328 -4.45052 
1206 1 0.666667 0.3 0.234108 -4.44987 
1237 1 0.666667 0.4 0.234104 -4.44987 
1212 1 0.716667 0.25 0.234058 -4.45008 
1238 1 0.7 0.4 0.175265 -4.44975 
1239 1 0.716667 0.35 0.234054 -4.45009 
1241 1 0.7 0.3 0.17527 -4.44976 
1243 1 0.75 0.25 0.175179 -4.44813 
1244 1 0.75 0.35 0.175174 -4.44813 
1399 1 0.766667 0.4 0.234006 -4.44995 
1402 1 0.766667 0.3 0.23401 -4.44995 
1403 1 0.8 0.3 0.17518 -4.45071 
1404 1 0.816667 0.25 0.234068 -4.45009 
1405 1 0.816667 0.35 0.234067 -4.45012 
1409 1 0.85 0.25 0.175388 -4.44957 
1437 1 0.8 0.4 0.175175 -4.45068 
1439 1 0.85 0.35 0.1754 -4.4496 
1566 1 0.866667 0.3 0.234188 -4.44991 
1597 1 0.866667 0.4 0.234183 -4.44992 
1572 1 0.916667 0.25 0.234262 -4.43466 
1598 1 0.9 0.4 0.175502 -4.43892 
1599 1 0.916667 0.35 0.23437 -4.41995 
1601 1 0.9 0.3 0.175507 -4.4389 