ITEM: TIMESTEP
16
ITEM: NUMBER OF ATOMS
3584
ITEM: BOX BOUNDS pp pp ss
0.0000000000000000e+00 4.3111019472983898e+01
0.0000000000000000e+00 2.4890158697766498e+01
-3.6580800000000006e-03 3.4552298188307212e+01
ITEM: ATOMS id type xs ys zs c_peratom 
1 1 0 0.1 -0.000867336 -3.90382 
2 1 0.0166667 0.05 0.0581065 -4.40862 
3 1 0.0166667 0.15 0.0581215 -4.40769 
4 1 0 0 -0.00091846 -3.90356 
5 1 0.05 0.05 -0.000969512 -3.90351 
9 1 0 0.2 -0.000708621 -3.90357 
10 1 0.05 0.15 -0.000937931 -3.90326 
35 1 0.0333333 0 0.11689 -4.44975 
40 1 0.0333333 0.2 0.116917 -4.42444 
43 1 0.0333333 0.1 0.116899 -4.44982 
44 1 0.0666667 0.1 0.0580261 -4.40852 
45 1 0.0833333 0.05 0.116786 -4.44945 
46 1 0.0833333 0.15 0.116785 -4.44978 
47 1 0.0666667 0 0.0580036 -4.40888 
60 1 0.0666667 0.2 0.0580406 -4.40803 
48 1 0.1 0 -0.00104163 -3.90346 
49 1 0.116667 0.05 0.0579432 -4.4079 
61 1 0.1 0.2 -0.00103336 -3.90334 
62 1 0.116667 0.15 0.0579476 -4.40818 
64 1 0.1 0.1 -0.00100988 -3.90367 
65 1 0.15 0.05 -0.0010646 -3.90383 
66 1 0.15 0.15 -0.00109678 -3.90368 
153 1 0.133333 0.1 0.116658 -4.44899 
156 1 0.133333 0 0.116674 -4.44907 
157 1 0.166667 0 0.0578804 -4.4078 
158 1 0.183333 0.05 0.116597 -4.449 
177 1 0.133333 0.2 0.116678 -4.44939 
178 1 0.166667 0.2 0.0578554 -4.40803 
179 1 0.183333 0.15 0.116587 -4.44903 
181 1 0.166667 0.1 0.0578682 -4.40778 
182 1 0.2 0.1 -0.00115287 -3.9037 
183 1 0.216667 0.05 0.0578083 -4.40794 
184 1 0.216667 0.15 0.0577982 -4.40792 
185 1 0.2 0 -0.0011401 -3.90373 
186 1 0.25 0.05 -0.00120582 -3.90361 
213 1 0.2 0.2 -0.00115817 -3.90364 
214 1 0.25 0.15 -0.00120521 -3.90364 
312 1 0.233333 0 0.116553 -4.44916 
336 1 0.233333 0.2 0.116541 -4.44911 
339 1 0.233333 0.1 0.116547 -4.44915 
340 1 0.266667 0.1 0.0577656 -4.40796 
341 1 0.283333 0.05 0.116523 -4.44916 
342 1 0.283333 0.15 0.116524 -4.44917 
343 1 0.266667 0 0.0577654 -4.40797 
374 1 0.266667 0.2 0.0577653 -4.40795 
344 1 0.3 0 -0.00122348 -3.90364 
345 1 0.316667 0.05 0.0577563 -4.40793 
375 1 0.3 0.2 -0.00122485 -3.90366 
376 1 0.316667 0.15 0.0577554 -4.40794 
378 1 0.3 0.1 -0.00122197 -3.90365 
379 1 0.35 0.05 -0.00122344 -3.90369 
380 1 0.35 0.15 -0.00122373 -3.90369 
503 1 0.333333 0.1 0.116521 -4.44915 
506 1 0.333333 0 0.116519 -4.44914 
507 1 0.366667 0 0.0577563 -4.40795 
508 1 0.383333 0.05 0.116522 -4.44916 
534 1 0.333333 0.2 0.116519 -4.44915 
535 1 0.366667 0.2 0.0577562 -4.40795 
536 1 0.383333 0.15 0.116522 -4.44916 
538 1 0.366667 0.1 0.0577566 -4.40795 
539 1 0.4 0.1 -0.00122253 -3.90365 
540 1 0.416667 0.05 0.0577605 -4.40797 
541 1 0.416667 0.15 0.0577605 -4.40797 
542 1 0.4 0 -0.00122258 -3.90366 
543 1 0.45 0.05 -0.00120895 -3.90365 
573 1 0.4 0.2 -0.00122255 -3.90365 
574 1 0.45 0.15 -0.00120856 -3.90363 
672 1 0.433333 0 0.116531 -4.44914 
696 1 0.433333 0.2 0.116532 -4.44915 
699 1 0.433333 0.1 0.116532 -4.44914 
700 1 0.466667 0.1 0.0577887 -4.40792 
701 1 0.483333 0.05 0.116562 -4.44912 
702 1 0.483333 0.15 0.116565 -4.44912 
703 1 0.466667 0 0.0577852 -4.40791 
734 1 0.466667 0.2 0.0577889 -4.40793 
704 1 0.5 0 -0.00116255 -3.90384 
705 1 0.516667 0.05 0.0578226 -4.40785 
735 1 0.5 0.2 -0.00115182 -3.90387 
736 1 0.516667 0.15 0.0578325 -4.40786 
738 1 0.5 0.1 -0.00115388 -3.90387 
739 1 0.55 0.05 -0.00115813 -3.90372 
740 1 0.55 0.15 -0.00114182 -3.9038 
863 1 0.533333 0.1 0.116589 -4.44916 
866 1 0.533333 0 0.116578 -4.44918 
867 1 0.566667 0 0.0577978 -4.40826 
868 1 0.583333 0.05 0.116559 -4.4494 
894 1 0.533333 0.2 0.116598 -4.44917 
895 1 0.566667 0.2 0.0578187 -4.40822 
896 1 0.583333 0.15 0.116568 -4.44938 
898 1 0.566667 0.1 0.0578045 -4.40821 
899 1 0.6 0.1 -0.00121632 -3.90302 
900 1 0.616667 0.05 0.0578194 -4.40883 
901 1 0.616667 0.15 0.0578181 -4.40881 
902 1 0.6 0 -0.0012092 -3.9031 
903 1 0.65 0.05 -0.000928631 -3.8905 
933 1 0.6 0.2 -0.0011997 -3.90312 
934 1 0.65 0.15 -0.000944967 -3.89039 
1032 1 0.633333 0 0.11662 -4.4484 
1056 1 0.633333 0.2 0.116608 -4.44844 
1059 1 0.633333 0.1 0.116607 -4.44846 
1060 1 0.666667 0.1 0.058073 -4.37595 
1061 1 0.683333 0.05 0.116541 -4.44897 
1062 1 0.683333 0.15 0.116533 -4.44895 
1063 1 0.666667 0 0.0580843 -4.37597 
1094 1 0.666667 0.2 0.0580665 -4.37593 
1064 1 0.7 0 -0.000235683 -3.54904 
1065 1 0.716667 0.05 0.0575306 -4.25267 
1095 1 0.7 0.2 -0.00024127 -3.5487 
1096 1 0.716667 0.15 0.0575226 -4.25258 
1098 1 0.7 0.1 -0.000228311 -3.54882 
1214 1 0.733333 0.1 0.116367 -4.42764 
1217 1 0.733333 0 0.116373 -4.42742 
1218 1 0.766667 0 0.0564083 -4.17731 
1219 1 0.783333 0.05 0.1161 -4.44043 
1245 1 0.733333 0.2 0.116355 -4.42757 
1246 1 0.766667 0.2 0.0563954 -4.17754 
1247 1 0.783333 0.15 0.116088 -4.44069 
1249 1 0.766667 0.1 0.0564011 -4.17769 
1250 1 0.8 0.1 -0.000377999 -3.54571 
1251 1 0.816667 0.05 0.0581831 -4.3482 
1252 1 0.816667 0.15 0.0581759 -4.34833 
1253 1 0.8 0 -0.000374336 -3.54616 
1254 1 0.85 0.05 -0.000783104 -3.89178 
1284 1 0.8 0.2 -0.000371363 -3.54572 
1285 1 0.85 0.15 -0.000812211 -3.89161 
1383 1 0.833333 0 0.116723 -4.44633 
1407 1 0.833333 0.2 0.116729 -4.44633 
1410 1 0.833333 0.1 0.116732 -4.44628 
1411 1 0.866667 0.1 0.0579982 -4.40888 
1412 1 0.883333 0.05 0.116724 -4.44983 
1413 1 0.883333 0.15 0.116702 -4.44996 
1414 1 0.866667 0 0.0579957 -4.40869 
1445 1 0.866667 0.2 0.0579766 -4.40915 
1415 1 0.9 0 -0.00108955 -3.90285 
1416 1 0.916667 0.05 0.0579091 -4.40838 
1446 1 0.9 0.2 -0.00114697 -3.90208 
1447 1 0.916667 0.15 0.0578678 -4.40737 
1449 1 0.9 0.1 -0.0011191 -3.90265 
1450 1 0.95 0.05 -0.000984097 -3.90316 
1451 1 0.95 0.15 -0.000925417 -3.90342 
1574 1 0.933333 0.1 0.116704 -4.44955 
1577 1 0.933333 0 0.116721 -4.44939 
1578 1 0.966667 0 0.058038 -4.40712 
1579 1 0.983333 0.05 0.116874 -4.44945 
1605 1 0.933333 0.2 0.116622 -4.43464 
1606 1 0.966667 0.2 0.0582685 -4.4072 
1607 1 0.983333 0.15 0.116795 -4.43458 
1609 1 0.966667 0.1 0.0580457 -4.40694 
6 1 0 0.3 2.36167e-05 -3.90459 
7 1 0.0166667 0.25 0.0584953 -4.39711 
8 1 0.0166667 0.35 0.0590247 -4.38733 
11 1 0.05 0.25 -0.000753909 -3.90332 
15 1 0 0.4 3.34819e-05 -3.90463 
16 1 0.05 0.35 -0.000354445 -3.90489 
53 1 0.0333333 0.4 0.117722 -4.33064 
56 1 0.0333333 0.3 0.117699 -4.33071 
57 1 0.0666667 0.3 0.0582681 -4.40684 
58 1 0.0833333 0.25 0.116681 -4.43469 
59 1 0.0833333 0.35 0.116548 -4.41865 
78 1 0.0666667 0.4 0.058287 -4.40682 
63 1 0.116667 0.25 0.0579312 -4.40738 
79 1 0.1 0.4 -0.000933444 -3.90376 
80 1 0.116667 0.35 0.0579237 -4.40591 
82 1 0.1 0.3 -0.000931838 -3.90375 
83 1 0.15 0.25 -0.00108838 -3.90356 
84 1 0.15 0.35 -0.00109004 -3.90341 
174 1 0.133333 0.3 0.116645 -4.44941 
180 1 0.183333 0.25 0.116595 -4.44922 
205 1 0.133333 0.4 0.116655 -4.44946 
206 1 0.166667 0.4 0.0578569 -4.40808 
207 1 0.183333 0.35 0.116597 -4.44925 
209 1 0.166667 0.3 0.0578717 -4.40805 
210 1 0.2 0.3 -0.00115993 -3.90371 
211 1 0.216667 0.25 0.0577942 -4.40793 
212 1 0.216667 0.35 0.0577976 -4.40799 
215 1 0.25 0.25 -0.00120936 -3.90361 
237 1 0.2 0.4 -0.00116172 -3.90363 
238 1 0.25 0.35 -0.00121411 -3.90361 
367 1 0.233333 0.4 0.116538 -4.44911 
370 1 0.233333 0.3 0.116541 -4.4491 
371 1 0.266667 0.3 0.0577571 -4.40794 
372 1 0.283333 0.25 0.116519 -4.44916 
373 1 0.283333 0.35 0.116513 -4.44914 
402 1 0.266667 0.4 0.0577572 -4.40794 
377 1 0.316667 0.25 0.0577532 -4.40794 
403 1 0.3 0.4 -0.00122836 -3.90365 
404 1 0.316667 0.35 0.0577526 -4.40793 
406 1 0.3 0.3 -0.00122798 -3.90364 
407 1 0.35 0.25 -0.00122481 -3.90369 
408 1 0.35 0.35 -0.00122533 -3.90369 
531 1 0.333333 0.3 0.116518 -4.44915 
537 1 0.383333 0.25 0.116522 -4.44916 
565 1 0.333333 0.4 0.116517 -4.44915 
566 1 0.366667 0.4 0.0577554 -4.40795 
567 1 0.383333 0.35 0.116522 -4.44916 
569 1 0.366667 0.3 0.0577555 -4.40795 
570 1 0.4 0.3 -0.00122259 -3.90365 
571 1 0.416667 0.25 0.0577605 -4.40797 
572 1 0.416667 0.35 0.0577605 -4.40797 
575 1 0.45 0.25 -0.0012086 -3.90362 
597 1 0.4 0.4 -0.00122261 -3.90365 
598 1 0.45 0.35 -0.00120858 -3.90363 
727 1 0.433333 0.4 0.116532 -4.44915 
730 1 0.433333 0.3 0.116532 -4.44915 
731 1 0.466667 0.3 0.0577889 -4.40793 
732 1 0.483333 0.25 0.116566 -4.44913 
733 1 0.483333 0.35 0.116565 -4.44912 
762 1 0.466667 0.4 0.0577887 -4.40792 
737 1 0.516667 0.25 0.0578349 -4.40787 
763 1 0.5 0.4 -0.00115389 -3.90387 
764 1 0.516667 0.35 0.0578325 -4.40786 
766 1 0.5 0.3 -0.00115183 -3.90387 
767 1 0.55 0.25 -0.00113623 -3.90383 
768 1 0.55 0.35 -0.00114189 -3.9038 
891 1 0.533333 0.3 0.116598 -4.44917 
897 1 0.583333 0.25 0.116578 -4.44936 
925 1 0.533333 0.4 0.116589 -4.44916 
926 1 0.566667 0.4 0.0578044 -4.40821 
927 1 0.583333 0.35 0.116567 -4.44939 
929 1 0.566667 0.3 0.0578187 -4.40822 
930 1 0.6 0.3 -0.00119978 -3.90311 
931 1 0.616667 0.25 0.0578276 -4.40878 
932 1 0.616667 0.35 0.0578177 -4.40881 
935 1 0.65 0.25 -0.000935107 -3.89043 
957 1 0.6 0.4 -0.00121655 -3.90302 
958 1 0.65 0.35 -0.000944709 -3.89039 
1087 1 0.633333 0.4 0.116608 -4.44846 
1090 1 0.633333 0.3 0.116608 -4.44844 
1091 1 0.666667 0.3 0.0580677 -4.37593 
1092 1 0.683333 0.25 0.116529 -4.44898 
1093 1 0.683333 0.35 0.116533 -4.44898 
1120 1 0.666667 0.4 0.0580751 -4.37594 
1097 1 0.716667 0.25 0.0575137 -4.25258 
1121 1 0.7 0.4 -0.000225193 -3.54879 
1122 1 0.716667 0.35 0.0575234 -4.25259 
1124 1 0.7 0.3 -0.00023955 -3.54869 
1242 1 0.733333 0.3 0.116358 -4.42753 
1248 1 0.783333 0.25 0.116096 -4.44063 
1276 1 0.733333 0.4 0.116371 -4.42757 
1277 1 0.766667 0.4 0.0564295 -4.1776 
1278 1 0.783333 0.35 0.116108 -4.44062 
1280 1 0.766667 0.3 0.0564112 -4.17751 
1281 1 0.8 0.3 -0.000353491 -3.54586 
1282 1 0.816667 0.25 0.0581851 -4.3483 
1283 1 0.816667 0.35 0.0581907 -4.34833 
1286 1 0.85 0.25 -0.000824996 -3.89141 
1308 1 0.8 0.4 -0.000338433 -3.54596 
1309 1 0.85 0.35 -0.000842339 -3.89118 
1438 1 0.833333 0.4 0.116758 -4.4466 
1441 1 0.833333 0.3 0.116738 -4.44657 
1442 1 0.866667 0.3 0.0579541 -4.40975 
1443 1 0.883333 0.25 0.116689 -4.45037 
1444 1 0.883333 0.35 0.116726 -4.45077 
1473 1 0.866667 0.4 0.057975 -4.40972 
1448 1 0.916667 0.25 0.0579164 -4.40623 
1474 1 0.9 0.4 -0.00116943 -3.90158 
1475 1 0.916667 0.35 0.0580192 -4.40694 
1477 1 0.9 0.3 -0.00117457 -3.90161 
1478 1 0.95 0.25 -0.000588292 -3.90425 
1479 1 0.95 0.35 -0.000275602 -3.90458 
1602 1 0.933333 0.3 0.116788 -4.40875 
1608 1 0.983333 0.25 0.117746 -4.34303 
1631 1 0.933333 0.4 0.116814 -4.40869 
1632 1 0.966667 0.4 0.0589262 -4.39888 
1633 1 0.983333 0.35 0.11937 -4.26617 
1635 1 0.966667 0.3 0.0589064 -4.39866 
12 1 0 0.5 -0.000719339 -3.90333 
13 1 0.0166667 0.45 0.0585245 -4.39731 
14 1 0.0166667 0.55 0.0581195 -4.40825 
17 1 0.05 0.45 -0.000737515 -3.90338 
21 1 0 0.6 -0.000907906 -3.90313 
22 1 0.05 0.55 -0.000959746 -3.90288 
71 1 0.0333333 0.6 0.116933 -4.45039 
74 1 0.0333333 0.5 0.116965 -4.42459 
75 1 0.0666667 0.5 0.0580626 -4.40819 
76 1 0.0833333 0.45 0.116696 -4.43463 
77 1 0.0833333 0.55 0.116835 -4.45011 
95 1 0.0666667 0.6 0.0580134 -4.40913 
81 1 0.116667 0.45 0.0579491 -4.40732 
96 1 0.1 0.6 -0.00102657 -3.90336 
97 1 0.116667 0.55 0.0579597 -4.40824 
99 1 0.1 0.5 -0.00101064 -3.9034 
100 1 0.15 0.45 -0.00108956 -3.90353 
101 1 0.15 0.55 -0.00107226 -3.90378 
202 1 0.133333 0.5 0.11668 -4.44928 
208 1 0.183333 0.45 0.116596 -4.44921 
229 1 0.133333 0.6 0.116687 -4.44914 
230 1 0.166667 0.6 0.0578814 -4.40774 
231 1 0.183333 0.55 0.116594 -4.44895 
233 1 0.166667 0.5 0.0578708 -4.40795 
234 1 0.2 0.5 -0.00116087 -3.90364 
235 1 0.216667 0.45 0.0577875 -4.40794 
236 1 0.216667 0.55 0.0578018 -4.40791 
239 1 0.25 0.45 -0.00121141 -3.9036 
253 1 0.2 0.6 -0.00113611 -3.90376 
254 1 0.25 0.55 -0.00120995 -3.9036 
395 1 0.233333 0.6 0.116553 -4.44914 
398 1 0.233333 0.5 0.116535 -4.44909 
399 1 0.266667 0.5 0.0577612 -4.40794 
400 1 0.283333 0.45 0.116517 -4.44917 
401 1 0.283333 0.55 0.116518 -4.44916 
422 1 0.266667 0.6 0.0577625 -4.40797 
405 1 0.316667 0.45 0.0577523 -4.40794 
423 1 0.3 0.6 -0.0012258 -3.90363 
424 1 0.316667 0.55 0.0577532 -4.40793 
426 1 0.3 0.5 -0.0012264 -3.90366 
427 1 0.35 0.45 -0.00122514 -3.90369 
428 1 0.35 0.55 -0.00122448 -3.90369 
562 1 0.333333 0.5 0.116517 -4.44915 
568 1 0.383333 0.45 0.116522 -4.44916 
589 1 0.333333 0.6 0.116518 -4.44914 
590 1 0.366667 0.6 0.0577556 -4.40794 
591 1 0.383333 0.55 0.116522 -4.44915 
593 1 0.366667 0.5 0.0577557 -4.40795 
594 1 0.4 0.5 -0.00122271 -3.90366 
595 1 0.416667 0.45 0.0577605 -4.40797 
596 1 0.416667 0.55 0.0577599 -4.40797 
599 1 0.45 0.45 -0.00120898 -3.90365 
613 1 0.4 0.6 -0.00122306 -3.90367 
614 1 0.45 0.55 -0.00121103 -3.90365 
755 1 0.433333 0.6 0.116528 -4.44914 
758 1 0.433333 0.5 0.116531 -4.44914 
759 1 0.466667 0.5 0.0577852 -4.40791 
760 1 0.483333 0.45 0.116562 -4.44912 
761 1 0.483333 0.55 0.116555 -4.44913 
782 1 0.466667 0.6 0.0577787 -4.40792 
765 1 0.516667 0.45 0.0578226 -4.40785 
783 1 0.5 0.6 -0.00117448 -3.90379 
784 1 0.516667 0.55 0.0578116 -4.40789 
786 1 0.5 0.5 -0.00116257 -3.90384 
787 1 0.55 0.45 -0.00115823 -3.90372 
788 1 0.55 0.55 -0.00116873 -3.90369 
922 1 0.533333 0.5 0.116578 -4.44918 
928 1 0.583333 0.45 0.116558 -4.44941 
949 1 0.533333 0.6 0.116574 -4.44918 
950 1 0.566667 0.6 0.057806 -4.40821 
951 1 0.583333 0.55 0.116569 -4.44938 
953 1 0.566667 0.5 0.0577977 -4.40826 
954 1 0.6 0.5 -0.00120947 -3.9031 
955 1 0.616667 0.45 0.0578189 -4.40883 
956 1 0.616667 0.55 0.0578382 -4.40875 
959 1 0.65 0.45 -0.000928572 -3.8905 
973 1 0.6 0.6 -0.00118293 -3.90335 
974 1 0.65 0.55 -0.000915911 -3.8908 
1113 1 0.633333 0.6 0.116614 -4.44817 
1116 1 0.633333 0.5 0.11662 -4.44839 
1117 1 0.666667 0.5 0.0580848 -4.37597 
1118 1 0.683333 0.45 0.116542 -4.449 
1119 1 0.683333 0.55 0.116531 -4.44861 
1138 1 0.666667 0.6 0.058057 -4.37603 
1123 1 0.716667 0.45 0.0575318 -4.25269 
1139 1 0.7 0.6 -0.000341367 -3.56293 
1140 1 0.716667 0.55 0.0574926 -4.25208 
1142 1 0.7 0.5 -0.000234467 -3.54901 
1273 1 0.733333 0.5 0.116375 -4.4274 
1279 1 0.783333 0.45 0.116127 -4.44035 
1300 1 0.733333 0.6 0.116267 -4.42881 
1301 1 0.766667 0.6 0.0561378 -4.19318 
1302 1 0.783333 0.55 0.116037 -4.44164 
1304 1 0.766667 0.5 0.0564257 -4.17724 
1305 1 0.8 0.5 -0.000338569 -3.5463 
1306 1 0.816667 0.45 0.0582183 -4.34819 
1307 1 0.816667 0.55 0.0581424 -4.3486 
1310 1 0.85 0.45 -0.000772649 -3.89159 
1324 1 0.8 0.6 -0.000586982 -3.55798 
1325 1 0.85 0.55 -0.000798656 -3.8917 
1466 1 0.833333 0.6 0.116715 -4.4474 
1469 1 0.833333 0.5 0.116763 -4.44634 
1470 1 0.866667 0.5 0.058023 -4.40892 
1471 1 0.883333 0.45 0.116739 -4.45041 
1472 1 0.883333 0.55 0.11675 -4.45004 
1493 1 0.866667 0.6 0.0579863 -4.40897 
1476 1 0.916667 0.45 0.0579551 -4.40649 
1494 1 0.9 0.6 -0.00106564 -3.90265 
1495 1 0.916667 0.55 0.0579258 -4.40747 
1497 1 0.9 0.5 -0.00109695 -3.90227 
1498 1 0.95 0.45 -0.000588049 -3.90418 
1499 1 0.95 0.55 -0.000940369 -3.90302 
1628 1 0.933333 0.5 0.116683 -4.43459 
1634 1 0.983333 0.45 0.117789 -4.343 
1649 1 0.933333 0.6 0.116767 -4.44962 
1650 1 0.966667 0.6 0.0580615 -4.40639 
1651 1 0.983333 0.55 0.116831 -4.43485 
1653 1 0.966667 0.5 0.0582935 -4.4077 
18 1 0 0.7 -0.000633765 -3.9041 
19 1 0.0166667 0.65 0.0581571 -4.40784 
20 1 0.0166667 0.75 0.0585011 -4.39854 
23 1 0.05 0.65 -0.000975929 -3.90289 
27 1 0 0.8 -0.000387319 -3.90377 
28 1 0.05 0.75 -0.00071509 -3.9038 
88 1 0.0333333 0.8 0.117794 -4.35775 
91 1 0.0333333 0.7 0.117002 -4.42403 
92 1 0.0666667 0.7 0.0580673 -4.40772 
93 1 0.0833333 0.65 0.116809 -4.4498 
94 1 0.0833333 0.75 0.116731 -4.4344 
107 1 0.0666667 0.8 0.058277 -4.40857 
98 1 0.116667 0.65 0.0579404 -4.40822 
108 1 0.1 0.8 -0.000921391 -3.90399 
109 1 0.116667 0.75 0.0579437 -4.40706 
111 1 0.1 0.7 -0.00104713 -3.90317 
112 1 0.15 0.65 -0.00106216 -3.90376 
113 1 0.15 0.75 -0.00106823 -3.90359 
226 1 0.133333 0.7 0.116674 -4.44918 
232 1 0.183333 0.65 0.116606 -4.44899 
245 1 0.133333 0.8 0.116669 -4.44911 
246 1 0.166667 0.8 0.0578914 -4.40787 
247 1 0.183333 0.75 0.116618 -4.44911 
249 1 0.166667 0.7 0.0578882 -4.40787 
250 1 0.2 0.7 -0.00112587 -3.9038 
251 1 0.216667 0.65 0.0578195 -4.4079 
252 1 0.216667 0.75 0.0578208 -4.40795 
255 1 0.25 0.65 -0.00120141 -3.90363 
261 1 0.2 0.8 -0.00113086 -3.90375 
262 1 0.25 0.75 -0.00119696 -3.90362 
415 1 0.233333 0.8 0.116562 -4.44914 
418 1 0.233333 0.7 0.116558 -4.44913 
419 1 0.266667 0.7 0.0577683 -4.40796 
420 1 0.283333 0.65 0.116522 -4.44916 
421 1 0.283333 0.75 0.116523 -4.44916 
434 1 0.266667 0.8 0.0577663 -4.40796 
425 1 0.316667 0.65 0.0577529 -4.40793 
435 1 0.3 0.8 -0.00122585 -3.90362 
436 1 0.316667 0.75 0.0577526 -4.40793 
438 1 0.3 0.7 -0.00122536 -3.90363 
439 1 0.35 0.65 -0.00122501 -3.90369 
440 1 0.35 0.75 -0.00122572 -3.90368 
586 1 0.333333 0.7 0.116516 -4.44914 
592 1 0.383333 0.65 0.116521 -4.44915 
605 1 0.333333 0.8 0.116517 -4.44914 
606 1 0.366667 0.8 0.0577549 -4.40794 
607 1 0.383333 0.75 0.116521 -4.44915 
609 1 0.366667 0.7 0.0577551 -4.40794 
610 1 0.4 0.7 -0.00122337 -3.90367 
611 1 0.416667 0.65 0.0577586 -4.40796 
612 1 0.416667 0.75 0.0577577 -4.40796 
615 1 0.45 0.65 -0.00121469 -3.90364 
621 1 0.4 0.8 -0.00122338 -3.90367 
622 1 0.45 0.75 -0.00121672 -3.90363 
775 1 0.433333 0.8 0.116527 -4.44915 
778 1 0.433333 0.7 0.116527 -4.44915 
779 1 0.466667 0.7 0.0577747 -4.40794 
780 1 0.483333 0.65 0.116549 -4.44914 
781 1 0.483333 0.75 0.116547 -4.44914 
794 1 0.466667 0.8 0.0577747 -4.40794 
785 1 0.516667 0.65 0.0578083 -4.40791 
795 1 0.5 0.8 -0.00118075 -3.90376 
796 1 0.516667 0.75 0.0578083 -4.4079 
798 1 0.5 0.7 -0.00118076 -3.90376 
799 1 0.55 0.65 -0.00116069 -3.90376 
800 1 0.55 0.75 -0.00115278 -3.90381 
946 1 0.533333 0.7 0.116577 -4.44915 
952 1 0.583333 0.65 0.116573 -4.44927 
965 1 0.533333 0.8 0.116577 -4.44915 
966 1 0.566667 0.8 0.0578121 -4.40805 
967 1 0.583333 0.75 0.116567 -4.44925 
969 1 0.566667 0.7 0.0578121 -4.40805 
970 1 0.6 0.7 -0.00118747 -3.90338 
971 1 0.616667 0.65 0.0578229 -4.40848 
972 1 0.616667 0.75 0.0577959 -4.40848 
975 1 0.65 0.65 -0.0010141 -3.88995 
981 1 0.6 0.8 -0.00118739 -3.90338 
982 1 0.65 0.75 -0.00111967 -3.90421 
1131 1 0.633333 0.8 0.116573 -4.44901 
1134 1 0.633333 0.7 0.116572 -4.44901 
1135 1 0.666667 0.7 0.05789 -4.39257 
1136 1 0.683333 0.65 0.116465 -4.44998 
1137 1 0.683333 0.75 0.116589 -4.44896 
1148 1 0.666667 0.8 0.0578908 -4.39257 
1141 1 0.716667 0.65 0.0573075 -4.28155 
1149 1 0.7 0.8 -0.000729157 -3.72326 
1150 1 0.716667 0.75 0.0579783 -4.3523 
1152 1 0.7 0.7 -0.000730126 -3.72325 
1153 1 0.75 0.75 -0.000311707 -3.57891 
1297 1 0.733333 0.7 0.116517 -4.43826 
1303 1 0.783333 0.65 0.116284 -4.43936 
1316 1 0.733333 0.8 0.116517 -4.43825 
1317 1 0.766667 0.8 0.0575349 -4.27841 
1318 1 0.783333 0.75 0.116443 -4.44921 
1320 1 0.766667 0.7 0.0575356 -4.2784 
1321 1 0.8 0.7 -0.000437363 -3.72527 
1322 1 0.816667 0.65 0.0580763 -4.36452 
1323 1 0.816667 0.75 0.0581983 -4.3762 
1326 1 0.85 0.65 -0.000933731 -3.89032 
1332 1 0.8 0.8 -0.000445168 -3.72526 
1333 1 0.85 0.75 -0.000956817 -3.90448 
1486 1 0.833333 0.8 0.116727 -4.44741 
1489 1 0.833333 0.7 0.116726 -4.44728 
1490 1 0.866667 0.7 0.0579274 -4.40913 
1491 1 0.883333 0.65 0.116727 -4.45 
1492 1 0.883333 0.75 0.116698 -4.45006 
1505 1 0.866667 0.8 0.0579099 -4.40931 
1496 1 0.916667 0.65 0.0579525 -4.40754 
1506 1 0.9 0.8 -0.00111021 -3.90236 
1507 1 0.916667 0.75 0.0579922 -4.40755 
1509 1 0.9 0.7 -0.00111384 -3.9025 
1510 1 0.95 0.65 -0.000864825 -3.9037 
1511 1 0.95 0.75 -0.00065971 -3.90405 
1646 1 0.933333 0.7 0.116765 -4.43456 
1652 1 0.983333 0.65 0.116895 -4.43465 
1659 1 0.933333 0.8 0.116868 -4.42372 
1660 1 0.966667 0.8 0.0584985 -4.39809 
1661 1 0.983333 0.75 0.117878 -4.3579 
1663 1 0.966667 0.7 0.0583719 -4.40875 
24 1 0 0.9 -0.000650878 -3.90418 
25 1 0.0166667 0.85 0.0584855 -4.39826 
26 1 0.0166667 0.95 0.0581221 -4.40765 
29 1 0.05 0.85 -0.000688938 -3.90396 
30 1 0.05 0.95 -0.000993504 -3.90301 
103 1 0.0333333 0.9 0.116935 -4.42382 
104 1 0.0666667 0.9 0.0580521 -4.40737 
105 1 0.0833333 0.85 0.116716 -4.43449 
106 1 0.0833333 0.95 0.116765 -4.44961 
110 1 0.116667 0.85 0.0579524 -4.40689 
114 1 0.116667 0.95 0.0579424 -4.40815 
115 1 0.1 0.9 -0.00101274 -3.9034 
116 1 0.15 0.85 -0.0010534 -3.90368 
117 1 0.15 0.95 -0.00106286 -3.9038 
242 1 0.133333 0.9 0.11668 -4.44923 
248 1 0.183333 0.85 0.116621 -4.44909 
256 1 0.183333 0.95 0.116615 -4.44911 
257 1 0.166667 0.9 0.0578953 -4.40791 
258 1 0.2 0.9 -0.00113236 -3.90376 
259 1 0.216667 0.85 0.0578202 -4.40797 
260 1 0.216667 0.95 0.0578127 -4.40795 
263 1 0.25 0.85 -0.00120191 -3.9036 
264 1 0.25 0.95 -0.00120359 -3.90359 
430 1 0.233333 0.9 0.116557 -4.44914 
431 1 0.266667 0.9 0.0577649 -4.40795 
432 1 0.283333 0.85 0.116519 -4.44915 
433 1 0.283333 0.95 0.116523 -4.44916 
437 1 0.316667 0.85 0.057753 -4.40792 
441 1 0.316667 0.95 0.0577539 -4.40793 
442 1 0.3 0.9 -0.00122573 -3.90362 
443 1 0.35 0.85 -0.00122519 -3.90369 
444 1 0.35 0.95 -0.00122432 -3.90369 
602 1 0.333333 0.9 0.116517 -4.44914 
608 1 0.383333 0.85 0.116521 -4.44915 
616 1 0.383333 0.95 0.116522 -4.44915 
617 1 0.366667 0.9 0.0577556 -4.40794 
618 1 0.4 0.9 -0.00122295 -3.90367 
619 1 0.416667 0.85 0.0577587 -4.40796 
620 1 0.416667 0.95 0.05776 -4.40797 
623 1 0.45 0.85 -0.00121468 -3.90364 
624 1 0.45 0.95 -0.00121101 -3.90365 
790 1 0.433333 0.9 0.116528 -4.44914 
791 1 0.466667 0.9 0.0577787 -4.40792 
792 1 0.483333 0.85 0.116549 -4.44914 
793 1 0.483333 0.95 0.116555 -4.44913 
797 1 0.516667 0.85 0.0578083 -4.40791 
801 1 0.516667 0.95 0.0578117 -4.40789 
802 1 0.5 0.9 -0.00117446 -3.90379 
803 1 0.55 0.85 -0.00116064 -3.90376 
804 1 0.55 0.95 -0.00116865 -3.90369 
962 1 0.533333 0.9 0.116574 -4.44918 
968 1 0.583333 0.85 0.116573 -4.44928 
976 1 0.583333 0.95 0.116569 -4.44938 
977 1 0.566667 0.9 0.0578062 -4.40821 
978 1 0.6 0.9 -0.00118271 -3.90335 
979 1 0.616667 0.85 0.0578231 -4.40848 
980 1 0.616667 0.95 0.0578386 -4.40875 
983 1 0.65 0.85 -0.0010137 -3.88995 
984 1 0.65 0.95 -0.000915564 -3.8908 
1144 1 0.633333 0.9 0.116615 -4.44817 
1145 1 0.666667 0.9 0.0580581 -4.37604 
1146 1 0.683333 0.85 0.116466 -4.44998 
1147 1 0.683333 0.95 0.116532 -4.4486 
1151 1 0.716667 0.85 0.0573075 -4.28153 
1154 1 0.716667 0.95 0.0574924 -4.25207 
1155 1 0.7 0.9 -0.000340241 -3.56296 
1313 1 0.733333 0.9 0.116267 -4.42879 
1319 1 0.783333 0.85 0.116279 -4.43938 
1327 1 0.783333 0.95 0.116022 -4.4417 
1328 1 0.766667 0.9 0.0561327 -4.19322 
1329 1 0.8 0.9 -0.000608524 -3.55795 
1330 1 0.816667 0.85 0.0580583 -4.36464 
1331 1 0.816667 0.95 0.058105 -4.34866 
1334 1 0.85 0.85 -0.000975234 -3.8901 
1335 1 0.85 0.95 -0.000854598 -3.89149 
1501 1 0.833333 0.9 0.116692 -4.44754 
1502 1 0.866667 0.9 0.0579413 -4.40906 
1503 1 0.883333 0.85 0.116699 -4.45013 
1504 1 0.883333 0.95 0.116703 -4.44992 
1508 1 0.916667 0.85 0.0579914 -4.40747 
1512 1 0.916667 0.95 0.0579239 -4.40738 
1513 1 0.9 0.9 -0.00108259 -3.9028 
1514 1 0.95 0.85 -0.000681387 -3.90406 
1515 1 0.95 0.95 -0.000909021 -3.9038 
1656 1 0.933333 0.9 0.116706 -4.43443 
1662 1 0.983333 0.85 0.117806 -4.35748 
1664 1 0.983333 0.95 0.116811 -4.4343 
1665 1 0.966667 0.9 0.0583229 -4.4085 
31 1 0 0.1 0.175759 -4.4504 
32 1 0.0166667 0.05 0.234669 -4.44127 
33 1 0.0166667 0.15 0.234697 -4.42666 
34 1 0 0 0.175711 -4.45111 
36 1 0.05 0.05 0.17571 -4.45006 
39 1 0 0.2 0.175675 -4.35373 
41 1 0.05 0.15 0.175721 -4.43757 
131 1 0.0666667 0.1 0.234552 -4.45089 
134 1 0.0666667 0 0.234365 -4.44938 
148 1 0.0666667 0.2 0.234371 -4.43455 
135 1 0.1 0 0.175518 -4.44995 
136 1 0.116667 0.05 0.234229 -4.44909 
149 1 0.1 0.2 0.175513 -4.45123 
150 1 0.116667 0.15 0.234243 -4.44918 
152 1 0.1 0.1 0.175535 -4.45044 
154 1 0.15 0.05 0.175398 -4.44985 
155 1 0.15 0.15 0.17541 -4.4498 
288 1 0.166667 0 0.234166 -4.44998 
304 1 0.166667 0.2 0.234167 -4.44991 
307 1 0.166667 0.1 0.234141 -4.44993 
308 1 0.2 0.1 0.175345 -4.45 
309 1 0.216667 0.05 0.23413 -4.45 
310 1 0.216667 0.15 0.234113 -4.44998 
311 1 0.2 0 0.175362 -4.45002 
313 1 0.25 0.05 0.175325 -4.45011 
335 1 0.2 0.2 0.175334 -4.45001 
337 1 0.25 0.15 0.175324 -4.45008 
475 1 0.266667 0.1 0.234115 -4.45 
478 1 0.266667 0 0.234116 -4.45 
498 1 0.266667 0.2 0.23411 -4.44998 
479 1 0.3 0 0.17531 -4.45009 
480 1 0.316667 0.05 0.23411 -4.44999 
499 1 0.3 0.2 0.175311 -4.4501 
500 1 0.316667 0.15 0.234111 -4.45 
502 1 0.3 0.1 0.175312 -4.4501 
504 1 0.35 0.05 0.175313 -4.45008 
505 1 0.35 0.15 0.175313 -4.45008 
648 1 0.366667 0 0.234114 -4.44999 
664 1 0.366667 0.2 0.234114 -4.45 
667 1 0.366667 0.1 0.234114 -4.44999 
668 1 0.4 0.1 0.175317 -4.45009 
669 1 0.416667 0.05 0.23412 -4.44999 
670 1 0.416667 0.15 0.23412 -4.45 
671 1 0.4 0 0.175316 -4.45009 
673 1 0.45 0.05 0.175331 -4.45007 
695 1 0.4 0.2 0.175317 -4.45009 
697 1 0.45 0.15 0.175332 -4.45007 
835 1 0.466667 0.1 0.234137 -4.44995 
838 1 0.466667 0 0.234134 -4.44996 
858 1 0.466667 0.2 0.234138 -4.44996 
839 1 0.5 0 0.175356 -4.45004 
840 1 0.516667 0.05 0.234159 -4.44998 
859 1 0.5 0.2 0.175368 -4.45004 
860 1 0.516667 0.15 0.234166 -4.44997 
862 1 0.5 0.1 0.175365 -4.45003 
864 1 0.55 0.05 0.175363 -4.45014 
865 1 0.55 0.15 0.175373 -4.45014 
1008 1 0.566667 0 0.234157 -4.45 
1024 1 0.566667 0.2 0.234173 -4.45 
1027 1 0.566667 0.1 0.234163 -4.44999 
1028 1 0.6 0.1 0.175352 -4.45003 
1029 1 0.616667 0.05 0.234141 -4.44997 
1030 1 0.616667 0.15 0.234143 -4.44991 
1031 1 0.6 0 0.175354 -4.45 
1033 1 0.65 0.05 0.175355 -4.45031 
1055 1 0.6 0.2 0.175358 -4.45002 
1057 1 0.65 0.15 0.175354 -4.45031 
1186 1 0.666667 0.1 0.234112 -4.45 
1189 1 0.666667 0 0.234119 -4.44987 
1209 1 0.666667 0.2 0.234109 -4.44995 
1190 1 0.7 0 0.175253 -4.44947 
1191 1 0.716667 0.05 0.234013 -4.45008 
1210 1 0.7 0.2 0.175235 -4.44962 
1211 1 0.716667 0.15 0.234003 -4.4502 
1213 1 0.7 0.1 0.175242 -4.44962 
1215 1 0.75 0.05 0.175119 -4.44822 
1216 1 0.75 0.15 0.1751 -4.44833 
1359 1 0.766667 0 0.233952 -4.44998 
1375 1 0.766667 0.2 0.233935 -4.44982 
1378 1 0.766667 0.1 0.233943 -4.44979 
1379 1 0.8 0.1 0.175155 -4.45051 
1380 1 0.816667 0.05 0.234075 -4.45015 
1381 1 0.816667 0.15 0.234073 -4.45004 
1382 1 0.8 0 0.175149 -4.4508 
1384 1 0.85 0.05 0.17546 -4.44922 
1406 1 0.8 0.2 0.17516 -4.45058 
1408 1 0.85 0.15 0.175449 -4.44917 
1546 1 0.866667 0.1 0.234226 -4.4498 
1549 1 0.866667 0 0.234221 -4.44967 
1569 1 0.866667 0.2 0.234211 -4.44998 
1550 1 0.9 0 0.175486 -4.45001 
1551 1 0.916667 0.05 0.234303 -4.44934 
1570 1 0.9 0.2 0.175442 -4.45147 
1571 1 0.916667 0.15 0.234252 -4.44994 
1573 1 0.9 0.1 0.175491 -4.45011 
1575 1 0.95 0.05 0.175614 -4.45002 
1576 1 0.95 0.15 0.17552 -4.43766 
1689 1 0.966667 0 0.234474 -4.45034 
1705 1 0.966667 0.2 0.234386 -4.42607 
1708 1 0.966667 0.1 0.234558 -4.44147 
37 1 0.0166667 0.25 0.23344 -4.3428 
38 1 0.0166667 0.35 0.231573 -4.26708 
42 1 0.05 0.25 0.175524 -4.33938 
54 1 0.05 0.35 0.17519 -4.24105 
145 1 0.0666667 0.3 0.234041 -4.41003 
169 1 0.0666667 0.4 0.234062 -4.40996 
151 1 0.116667 0.25 0.234222 -4.45052 
170 1 0.1 0.4 0.17537 -4.43895 
171 1 0.116667 0.35 0.234157 -4.45102 
173 1 0.1 0.3 0.175348 -4.43891 
175 1 0.15 0.25 0.175439 -4.45011 
176 1 0.15 0.35 0.175427 -4.45026 
328 1 0.166667 0.4 0.234207 -4.45008 
331 1 0.166667 0.3 0.23421 -4.45009 
332 1 0.2 0.3 0.175357 -4.4502 
333 1 0.216667 0.25 0.234115 -4.44997 
334 1 0.216667 0.35 0.234124 -4.44999 
338 1 0.25 0.25 0.175314 -4.45002 
366 1 0.2 0.4 0.175348 -4.45014 
368 1 0.25 0.35 0.175303 -4.45001 
495 1 0.266667 0.3 0.234095 -4.44996 
526 1 0.266667 0.4 0.234092 -4.44996 
501 1 0.316667 0.25 0.234108 -4.44998 
527 1 0.3 0.4 0.175307 -4.45007 
528 1 0.316667 0.35 0.234107 -4.44997 
530 1 0.3 0.3 0.175308 -4.45007 
532 1 0.35 0.25 0.175311 -4.45009 
533 1 0.35 0.35 0.17531 -4.4501 
688 1 0.366667 0.4 0.234113 -4.45001 
691 1 0.366667 0.3 0.234114 -4.45001 
692 1 0.4 0.3 0.175317 -4.45009 
693 1 0.416667 0.25 0.23412 -4.45 
694 1 0.416667 0.35 0.23412 -4.45 
698 1 0.45 0.25 0.175331 -4.45008 
726 1 0.4 0.4 0.175317 -4.45009 
728 1 0.45 0.35 0.175332 -4.45008 
855 1 0.466667 0.3 0.234138 -4.44996 
886 1 0.466667 0.4 0.234137 -4.44995 
861 1 0.516667 0.25 0.234169 -4.44997 
887 1 0.5 0.4 0.175365 -4.45003 
888 1 0.516667 0.35 0.234166 -4.44997 
890 1 0.5 0.3 0.175368 -4.45004 
892 1 0.55 0.25 0.175383 -4.45012 
893 1 0.55 0.35 0.175373 -4.45014 
1048 1 0.566667 0.4 0.234163 -4.44999 
1051 1 0.566667 0.3 0.234173 -4.45 
1052 1 0.6 0.3 0.175357 -4.45002 
1053 1 0.616667 0.25 0.23415 -4.44994 
1054 1 0.616667 0.35 0.234143 -4.44991 
1058 1 0.65 0.25 0.175352 -4.45033 
1086 1 0.6 0.4 0.175352 -4.45003 
1088 1 0.65 0.35 0.175355 -4.45031 
1206 1 0.666667 0.3 0.234109 -4.44996 
1237 1 0.666667 0.4 0.234112 -4.45 
1212 1 0.716667 0.25 0.233997 -4.4502 
1238 1 0.7 0.4 0.175243 -4.44963 
1239 1 0.716667 0.35 0.234002 -4.45018 
1241 1 0.7 0.3 0.175235 -4.44962 
1243 1 0.75 0.25 0.175091 -4.44829 
1244 1 0.75 0.35 0.175102 -4.44831 
1399 1 0.766667 0.4 0.233953 -4.44983 
1402 1 0.766667 0.3 0.23394 -4.44985 
1403 1 0.8 0.3 0.175172 -4.45063 
1404 1 0.816667 0.25 0.234088 -4.45009 
1405 1 0.816667 0.35 0.234116 -4.45015 
1409 1 0.85 0.25 0.175452 -4.44927 
1437 1 0.8 0.4 0.17519 -4.45057 
1439 1 0.85 0.35 0.175484 -4.44936 
1566 1 0.866667 0.3 0.234232 -4.44998 
1597 1 0.866667 0.4 0.234251 -4.44991 
1572 1 0.916667 0.25 0.234232 -4.43492 
1598 1 0.9 0.4 0.175521 -4.43896 
1599 1 0.916667 0.35 0.234308 -4.41989 
1601 1 0.9 0.3 0.175493 -4.43902 