ITEM: TIMESTEP
9
ITEM: NUMBER OF ATOMS
3584
ITEM: BOX BOUNDS pp pp ss
0.0000000000000000e+00 4.3111019472983898e+01
0.0000000000000000e+00 2.4890158697766498e+01
-3.6580800000000006e-03 3.4552298188307212e+01
ITEM: ATOMS id type xs ys zs c_peratom 
1 1 0 0.1 0.000237438 -3.90425 
2 1 0.0166667 0.05 0.0591395 -4.40737 
3 1 0.0166667 0.15 0.0591642 -4.40589 
4 1 0 0 0.000196226 -3.90398 
5 1 0.05 0.05 9.82837e-05 -3.90412 
9 1 0 0.2 0.00045116 -3.90412 
10 1 0.05 0.15 0.000234792 -3.904 
35 1 0.0333333 0 0.117887 -4.45017 
40 1 0.0333333 0.2 0.117942 -4.42482 
43 1 0.0333333 0.1 0.117789 -4.44973 
44 1 0.0666667 0.1 0.0590933 -4.40774 
45 1 0.0833333 0.05 0.117732 -4.44953 
46 1 0.0833333 0.15 0.117786 -4.45009 
47 1 0.0666667 0 0.0590791 -4.40866 
60 1 0.0666667 0.2 0.0591154 -4.40706 
48 1 0.1 0 -2.42684e-05 -3.90359 
49 1 0.116667 0.05 0.0589679 -4.40795 
61 1 0.1 0.2 5.38256e-05 -3.9037 
62 1 0.116667 0.15 0.0589959 -4.40809 
64 1 0.1 0.1 2.91488e-05 -3.90385 
65 1 0.15 0.05 -4.32061e-05 -3.9037 
66 1 0.15 0.15 -5.03734e-05 -3.90372 
153 1 0.133333 0.1 0.117678 -4.44971 
156 1 0.133333 0 0.117667 -4.4495 
157 1 0.166667 0 0.0589253 -4.40782 
158 1 0.183333 0.05 0.117639 -4.44957 
177 1 0.133333 0.2 0.117672 -4.44958 
178 1 0.166667 0.2 0.0589216 -4.40791 
179 1 0.183333 0.15 0.117635 -4.44954 
181 1 0.166667 0.1 0.0589284 -4.40778 
182 1 0.2 0.1 -6.40776e-05 -3.90383 
183 1 0.216667 0.05 0.0589187 -4.40778 
184 1 0.216667 0.15 0.0589181 -4.40777 
185 1 0.2 0 -6.52032e-05 -3.90383 
186 1 0.25 0.05 -6.65247e-05 -3.90389 
213 1 0.2 0.2 -6.83993e-05 -3.9038 
214 1 0.25 0.15 -6.66463e-05 -3.9039 
312 1 0.233333 0 0.117633 -4.44953 
336 1 0.233333 0.2 0.117631 -4.44954 
339 1 0.233333 0.1 0.117632 -4.44953 
340 1 0.266667 0.1 0.0589179 -4.4078 
341 1 0.283333 0.05 0.117633 -4.44954 
342 1 0.283333 0.15 0.117633 -4.44954 
343 1 0.266667 0 0.0589182 -4.40781 
374 1 0.266667 0.2 0.0589181 -4.40781 
344 1 0.3 0 -6.64158e-05 -3.9039 
345 1 0.316667 0.05 0.0589182 -4.40781 
375 1 0.3 0.2 -6.64566e-05 -3.9039 
376 1 0.316667 0.15 0.0589182 -4.40781 
378 1 0.3 0.1 -6.64047e-05 -3.9039 
379 1 0.35 0.05 -6.64161e-05 -3.9039 
380 1 0.35 0.15 -6.64164e-05 -3.9039 
503 1 0.333333 0.1 0.117633 -4.44954 
506 1 0.333333 0 0.117633 -4.44954 
507 1 0.366667 0 0.0589182 -4.40781 
508 1 0.383333 0.05 0.117633 -4.44954 
534 1 0.333333 0.2 0.117633 -4.44954 
535 1 0.366667 0.2 0.0589182 -4.40781 
536 1 0.383333 0.15 0.117633 -4.44954 
538 1 0.366667 0.1 0.0589182 -4.40781 
539 1 0.4 0.1 -6.64228e-05 -3.9039 
540 1 0.416667 0.05 0.0589182 -4.40781 
541 1 0.416667 0.15 0.0589182 -4.40781 
542 1 0.4 0 -6.64227e-05 -3.9039 
543 1 0.45 0.05 -6.64374e-05 -3.9039 
573 1 0.4 0.2 -6.64232e-05 -3.9039 
574 1 0.45 0.15 -6.64423e-05 -3.9039 
672 1 0.433333 0 0.117633 -4.44954 
696 1 0.433333 0.2 0.117633 -4.44954 
699 1 0.433333 0.1 0.117633 -4.44954 
700 1 0.466667 0.1 0.0589179 -4.40781 
701 1 0.483333 0.05 0.117632 -4.44957 
702 1 0.483333 0.15 0.117632 -4.44957 
703 1 0.466667 0 0.0589179 -4.40781 
734 1 0.466667 0.2 0.0589179 -4.40781 
704 1 0.5 0 -6.79763e-05 -3.90385 
705 1 0.516667 0.05 0.0589172 -4.40787 
735 1 0.5 0.2 -6.80366e-05 -3.90385 
736 1 0.516667 0.15 0.0589171 -4.40786 
738 1 0.5 0.1 -6.80134e-05 -3.90385 
739 1 0.55 0.05 -5.93129e-05 -3.90369 
740 1 0.55 0.15 -5.98706e-05 -3.90367 
863 1 0.533333 0.1 0.117637 -4.44961 
866 1 0.533333 0 0.117637 -4.4496 
867 1 0.566667 0 0.0589426 -4.40794 
868 1 0.583333 0.05 0.117674 -4.44962 
894 1 0.533333 0.2 0.117637 -4.44961 
895 1 0.566667 0.2 0.0589409 -4.40794 
896 1 0.583333 0.15 0.117671 -4.44963 
898 1 0.566667 0.1 0.0589412 -4.40796 
899 1 0.6 0.1 2.19488e-05 -3.90382 
900 1 0.616667 0.05 0.0590584 -4.40832 
901 1 0.616667 0.15 0.059055 -4.40838 
902 1 0.6 0 2.13559e-05 -3.90386 
903 1 0.65 0.05 0.000246837 -3.8905 
933 1 0.6 0.2 2.08162e-05 -3.90378 
934 1 0.65 0.15 0.000249013 -3.8905 
1032 1 0.633333 0 0.117745 -4.449 
1056 1 0.633333 0.2 0.117758 -4.44897 
1059 1 0.633333 0.1 0.117761 -4.44897 
1060 1 0.666667 0.1 0.0592136 -4.3761 
1061 1 0.683333 0.05 0.117686 -4.4495 
1062 1 0.683333 0.15 0.117701 -4.44948 
1063 1 0.666667 0 0.059177 -4.37621 
1094 1 0.666667 0.2 0.0592115 -4.37613 
1064 1 0.7 0 0.000810041 -3.54795 
1065 1 0.716667 0.05 0.0587369 -4.25375 
1095 1 0.7 0.2 0.000857296 -3.54796 
1096 1 0.716667 0.15 0.05876 -4.25371 
1098 1 0.7 0.1 0.000854389 -3.54801 
1214 1 0.733333 0.1 0.117596 -4.42717 
1217 1 0.733333 0 0.117573 -4.42698 
1218 1 0.766667 0 0.0576522 -4.1786 
1219 1 0.783333 0.05 0.117291 -4.44112 
1245 1 0.733333 0.2 0.117602 -4.42715 
1246 1 0.766667 0.2 0.0577052 -4.17886 
1247 1 0.783333 0.15 0.117314 -4.44119 
1249 1 0.766667 0.1 0.0577021 -4.17886 
1250 1 0.8 0.1 0.000661532 -3.54563 
1251 1 0.816667 0.05 0.0591363 -4.3485 
1252 1 0.816667 0.15 0.0591597 -4.34853 
1253 1 0.8 0 0.000620157 -3.5454 
1254 1 0.85 0.05 1.79656e-05 -3.89041 
1284 1 0.8 0.2 0.000673425 -3.5455 
1285 1 0.85 0.15 3.53791e-05 -3.89044 
1383 1 0.833333 0 0.117618 -4.44687 
1407 1 0.833333 0.2 0.117652 -4.44691 
1410 1 0.833333 0.1 0.117633 -4.44696 
1411 1 0.866667 0.1 0.0589293 -4.4089 
1412 1 0.883333 0.05 0.117705 -4.45039 
1413 1 0.883333 0.15 0.11772 -4.45048 
1414 1 0.866667 0 0.0589086 -4.40894 
1445 1 0.866667 0.2 0.0589748 -4.40899 
1415 1 0.9 0 7.75805e-06 -3.90331 
1416 1 0.916667 0.05 0.059022 -4.40808 
1446 1 0.9 0.2 0.000119595 -3.90326 
1447 1 0.916667 0.15 0.0590553 -4.40708 
1449 1 0.9 0.1 7.48728e-06 -3.90322 
1450 1 0.95 0.05 7.99001e-05 -3.90362 
1451 1 0.95 0.15 0.000188043 -3.9041 
1574 1 0.933333 0.1 0.117742 -4.44969 
1577 1 0.933333 0 0.117734 -4.44966 
1578 1 0.966667 0 0.0590646 -4.40649 
1579 1 0.983333 0.05 0.117757 -4.44971 
1605 1 0.933333 0.2 0.117771 -4.43474 
1606 1 0.966667 0.2 0.0593927 -4.40743 
1607 1 0.983333 0.15 0.11774 -4.43487 
1609 1 0.966667 0.1 0.0590696 -4.40616 
6 1 0 0.3 0.000772459 -3.90328 
7 1 0.0166667 0.25 0.0595626 -4.39784 
8 1 0.0166667 0.35 0.0599315 -4.38963 
11 1 0.05 0.25 0.000379382 -3.9037 
15 1 0 0.4 0.000774671 -3.90326 
16 1 0.05 0.35 0.00050226 -3.90392 
53 1 0.0333333 0.4 0.118812 -4.33173 
56 1 0.0333333 0.3 0.118809 -4.33164 
57 1 0.0666667 0.3 0.0593064 -4.40755 
58 1 0.0833333 0.25 0.117715 -4.43504 
59 1 0.0833333 0.35 0.117609 -4.41975 
78 1 0.0666667 0.4 0.0593079 -4.40756 
63 1 0.116667 0.25 0.0589903 -4.40711 
79 1 0.1 0.4 0.000102305 -3.90386 
80 1 0.116667 0.35 0.0589565 -4.40579 
82 1 0.1 0.3 0.000102527 -3.90387 
83 1 0.15 0.25 -6.02026e-05 -3.90361 
84 1 0.15 0.35 -6.20345e-05 -3.90347 
174 1 0.133333 0.3 0.11761 -4.44961 
180 1 0.183333 0.25 0.117626 -4.44958 
205 1 0.133333 0.4 0.117609 -4.4496 
206 1 0.166667 0.4 0.0589156 -4.40787 
207 1 0.183333 0.35 0.117628 -4.44964 
209 1 0.166667 0.3 0.0589155 -4.40787 
210 1 0.2 0.3 -7.61391e-05 -3.90378 
211 1 0.216667 0.25 0.0589118 -4.40781 
212 1 0.216667 0.35 0.0589067 -4.40786 
215 1 0.25 0.25 -6.72343e-05 -3.9039 
237 1 0.2 0.4 -7.60807e-05 -3.90378 
238 1 0.25 0.35 -6.822e-05 -3.90389 
367 1 0.233333 0.4 0.117628 -4.44957 
370 1 0.233333 0.3 0.117628 -4.44957 
371 1 0.266667 0.3 0.0589181 -4.4078 
372 1 0.283333 0.25 0.117633 -4.44955 
373 1 0.283333 0.35 0.117633 -4.44955 
402 1 0.266667 0.4 0.0589181 -4.4078 
377 1 0.316667 0.25 0.0589182 -4.40781 
403 1 0.3 0.4 -6.65366e-05 -3.90391 
404 1 0.316667 0.35 0.0589181 -4.40781 
406 1 0.3 0.3 -6.65364e-05 -3.90391 
407 1 0.35 0.25 -6.64142e-05 -3.9039 
408 1 0.35 0.35 -6.64163e-05 -3.9039 
531 1 0.333333 0.3 0.117633 -4.44954 
537 1 0.383333 0.25 0.117633 -4.44954 
565 1 0.333333 0.4 0.117633 -4.44954 
566 1 0.366667 0.4 0.0589182 -4.40781 
567 1 0.383333 0.35 0.117633 -4.44954 
569 1 0.366667 0.3 0.0589182 -4.40781 
570 1 0.4 0.3 -6.64237e-05 -3.9039 
571 1 0.416667 0.25 0.0589182 -4.40781 
572 1 0.416667 0.35 0.0589182 -4.40781 
575 1 0.45 0.25 -6.64427e-05 -3.9039 
597 1 0.4 0.4 -6.64236e-05 -3.9039 
598 1 0.45 0.35 -6.64423e-05 -3.9039 
727 1 0.433333 0.4 0.117633 -4.44954 
730 1 0.433333 0.3 0.117633 -4.44954 
731 1 0.466667 0.3 0.0589179 -4.40781 
732 1 0.483333 0.25 0.117632 -4.44957 
733 1 0.483333 0.35 0.117632 -4.44957 
762 1 0.466667 0.4 0.0589179 -4.40781 
737 1 0.516667 0.25 0.058917 -4.40786 
763 1 0.5 0.4 -6.80134e-05 -3.90385 
764 1 0.516667 0.35 0.0589171 -4.40786 
766 1 0.5 0.3 -6.80366e-05 -3.90385 
767 1 0.55 0.25 -5.99075e-05 -3.90367 
768 1 0.55 0.35 -5.98706e-05 -3.90367 
891 1 0.533333 0.3 0.117637 -4.44961 
897 1 0.583333 0.25 0.117672 -4.44963 
925 1 0.533333 0.4 0.117637 -4.44961 
926 1 0.566667 0.4 0.0589412 -4.40796 
927 1 0.583333 0.35 0.117671 -4.44963 
929 1 0.566667 0.3 0.0589409 -4.40794 
930 1 0.6 0.3 2.08162e-05 -3.90378 
931 1 0.616667 0.25 0.0590548 -4.40835 
932 1 0.616667 0.35 0.059055 -4.40838 
935 1 0.65 0.25 0.000248387 -3.89046 
957 1 0.6 0.4 2.19488e-05 -3.90382 
958 1 0.65 0.35 0.000249011 -3.8905 
1087 1 0.633333 0.4 0.117761 -4.44897 
1090 1 0.633333 0.3 0.117758 -4.44897 
1091 1 0.666667 0.3 0.0592115 -4.37613 
1092 1 0.683333 0.25 0.1177 -4.44949 
1093 1 0.683333 0.35 0.117701 -4.44948 
1120 1 0.666667 0.4 0.0592136 -4.3761 
1097 1 0.716667 0.25 0.0587603 -4.25372 
1121 1 0.7 0.4 0.000854452 -3.54801 
1122 1 0.716667 0.35 0.0587602 -4.25372 
1124 1 0.7 0.3 0.000857333 -3.54796 
1242 1 0.733333 0.3 0.117602 -4.42715 
1248 1 0.783333 0.25 0.117319 -4.44131 
1276 1 0.733333 0.4 0.117596 -4.42716 
1277 1 0.766667 0.4 0.0577049 -4.17884 
1278 1 0.783333 0.35 0.117323 -4.44132 
1280 1 0.766667 0.3 0.0577065 -4.17885 
1281 1 0.8 0.3 0.000680007 -3.54544 
1282 1 0.816667 0.25 0.0591678 -4.34867 
1283 1 0.816667 0.35 0.0591712 -4.34878 
1286 1 0.85 0.25 4.73062e-05 -3.89043 
1308 1 0.8 0.4 0.000672998 -3.54551 
1309 1 0.85 0.35 5.48902e-05 -3.89048 
1438 1 0.833333 0.4 0.117652 -4.44687 
1441 1 0.833333 0.3 0.11766 -4.44687 
1442 1 0.866667 0.3 0.0590363 -4.40921 
1443 1 0.883333 0.25 0.117778 -4.45076 
1444 1 0.883333 0.35 0.117845 -4.45094 
1473 1 0.866667 0.4 0.059034 -4.40916 
1448 1 0.916667 0.25 0.0591839 -4.40537 
1474 1 0.9 0.4 0.000290968 -3.90363 
1475 1 0.916667 0.35 0.0592877 -4.40516 
1477 1 0.9 0.3 0.000291794 -3.90361 
1478 1 0.95 0.25 0.000519029 -3.90478 
1479 1 0.95 0.35 0.000765069 -3.9047 
1602 1 0.933333 0.3 0.117925 -4.40909 
1608 1 0.983333 0.25 0.118815 -4.34337 
1631 1 0.933333 0.4 0.117923 -4.40911 
1632 1 0.966667 0.4 0.0598867 -4.39974 
1633 1 0.983333 0.35 0.12018 -4.26587 
1635 1 0.966667 0.3 0.059887 -4.39975 
12 1 0 0.5 0.000448157 -3.90403 
13 1 0.0166667 0.45 0.059564 -4.39783 
14 1 0.0166667 0.55 0.0592115 -4.40629 
17 1 0.05 0.45 0.000387079 -3.90365 
21 1 0 0.6 0.000358316 -3.90423 
22 1 0.05 0.55 0.000233303 -3.90395 
71 1 0.0333333 0.6 0.117912 -4.45023 
74 1 0.0333333 0.5 0.117941 -4.42473 
75 1 0.0666667 0.5 0.0591215 -4.40709 
76 1 0.0833333 0.45 0.117723 -4.43518 
77 1 0.0833333 0.55 0.117779 -4.44985 
95 1 0.0666667 0.6 0.0591694 -4.40832 
81 1 0.116667 0.45 0.0589923 -4.40713 
96 1 0.1 0.6 2.38088e-05 -3.90378 
97 1 0.116667 0.55 0.0590011 -4.40811 
99 1 0.1 0.5 6.50857e-05 -3.90365 
100 1 0.15 0.45 -6.03946e-05 -3.9036 
101 1 0.15 0.55 -4.27091e-05 -3.90367 
202 1 0.133333 0.5 0.117681 -4.44972 
208 1 0.183333 0.45 0.117626 -4.44957 
229 1 0.133333 0.6 0.117671 -4.44951 
230 1 0.166667 0.6 0.0589282 -4.40776 
231 1 0.183333 0.55 0.117637 -4.44959 
233 1 0.166667 0.5 0.0589231 -4.40792 
234 1 0.2 0.5 -6.84422e-05 -3.90379 
235 1 0.216667 0.45 0.0589118 -4.40781 
236 1 0.216667 0.55 0.0589186 -4.40777 
239 1 0.25 0.45 -6.72195e-05 -3.9039 
253 1 0.2 0.6 -6.20432e-05 -3.90381 
254 1 0.25 0.55 -6.66277e-05 -3.9039 
395 1 0.233333 0.6 0.117632 -4.44953 
398 1 0.233333 0.5 0.117631 -4.44953 
399 1 0.266667 0.5 0.0589181 -4.4078 
400 1 0.283333 0.45 0.117633 -4.44955 
401 1 0.283333 0.55 0.117633 -4.44954 
422 1 0.266667 0.6 0.0589178 -4.4078 
405 1 0.316667 0.45 0.0589182 -4.40781 
423 1 0.3 0.6 -6.63994e-05 -3.9039 
424 1 0.316667 0.55 0.0589182 -4.40781 
426 1 0.3 0.5 -6.64558e-05 -3.9039 
427 1 0.35 0.45 -6.64142e-05 -3.9039 
428 1 0.35 0.55 -6.64167e-05 -3.9039 
562 1 0.333333 0.5 0.117633 -4.44954 
568 1 0.383333 0.45 0.117633 -4.44954 
589 1 0.333333 0.6 0.117633 -4.44954 
590 1 0.366667 0.6 0.0589182 -4.40781 
591 1 0.383333 0.55 0.117633 -4.44954 
593 1 0.366667 0.5 0.0589182 -4.40781 
594 1 0.4 0.5 -6.64229e-05 -3.9039 
595 1 0.416667 0.45 0.0589182 -4.40781 
596 1 0.416667 0.55 0.0589182 -4.40781 
599 1 0.45 0.45 -6.64374e-05 -3.9039 
613 1 0.4 0.6 -6.64216e-05 -3.9039 
614 1 0.45 0.55 -6.64291e-05 -3.9039 
755 1 0.433333 0.6 0.117633 -4.44954 
758 1 0.433333 0.5 0.117633 -4.44954 
759 1 0.466667 0.5 0.0589179 -4.40781 
760 1 0.483333 0.45 0.117632 -4.44957 
761 1 0.483333 0.55 0.117632 -4.44957 
782 1 0.466667 0.6 0.058918 -4.40781 
765 1 0.516667 0.45 0.0589172 -4.40787 
783 1 0.5 0.6 -6.78736e-05 -3.90386 
784 1 0.516667 0.55 0.0589173 -4.40787 
786 1 0.5 0.5 -6.79763e-05 -3.90385 
787 1 0.55 0.45 -5.9313e-05 -3.90369 
788 1 0.55 0.55 -5.92659e-05 -3.90373 
922 1 0.533333 0.5 0.117637 -4.4496 
928 1 0.583333 0.45 0.117674 -4.44962 
949 1 0.533333 0.6 0.117637 -4.44958 
950 1 0.566667 0.6 0.0589379 -4.40791 
951 1 0.583333 0.55 0.117668 -4.44964 
953 1 0.566667 0.5 0.0589426 -4.40794 
954 1 0.6 0.5 2.13558e-05 -3.90386 
955 1 0.616667 0.45 0.0590584 -4.40832 
956 1 0.616667 0.55 0.0590362 -4.4084 
959 1 0.65 0.45 0.000246835 -3.8905 
973 1 0.6 0.6 1.76379e-06 -3.90383 
974 1 0.65 0.55 0.000207609 -3.89055 
1113 1 0.633333 0.6 0.11773 -4.4487 
1116 1 0.633333 0.5 0.117745 -4.449 
1117 1 0.666667 0.5 0.059177 -4.37621 
1118 1 0.683333 0.45 0.117686 -4.4495 
1119 1 0.683333 0.55 0.117674 -4.44909 
1138 1 0.666667 0.6 0.0591737 -4.37619 
1123 1 0.716667 0.45 0.058737 -4.25375 
1139 1 0.7 0.6 0.00076678 -3.56243 
1140 1 0.716667 0.55 0.0587258 -4.25336 
1142 1 0.7 0.5 0.00081007 -3.54795 
1273 1 0.733333 0.5 0.117573 -4.42697 
1279 1 0.783333 0.45 0.117297 -4.44122 
1300 1 0.733333 0.6 0.117523 -4.42837 
1301 1 0.766667 0.6 0.0575593 -4.19409 
1302 1 0.783333 0.55 0.117265 -4.44202 
1304 1 0.766667 0.5 0.0576535 -4.17859 
1305 1 0.8 0.5 0.00062515 -3.54534 
1306 1 0.816667 0.45 0.0591449 -4.34867 
1307 1 0.816667 0.55 0.0591248 -4.34868 
1310 1 0.85 0.45 3.36457e-05 -3.89039 
1324 1 0.8 0.6 0.000609864 -3.55952 
1325 1 0.85 0.55 -2.39447e-05 -3.89013 
1466 1 0.833333 0.6 0.117641 -4.44781 
1469 1 0.833333 0.5 0.117625 -4.44683 
1470 1 0.866667 0.5 0.0589428 -4.40902 
1471 1 0.883333 0.45 0.117764 -4.45081 
1472 1 0.883333 0.55 0.117699 -4.45055 
1493 1 0.866667 0.6 0.0589067 -4.40897 
1476 1 0.916667 0.45 0.059176 -4.40532 
1494 1 0.9 0.6 1.68082e-05 -3.90295 
1495 1 0.916667 0.55 0.0590662 -4.40712 
1497 1 0.9 0.5 0.000107124 -3.90318 
1498 1 0.95 0.45 0.000515659 -3.9047 
1499 1 0.95 0.55 0.000209241 -3.90398 
1628 1 0.933333 0.5 0.117767 -4.43477 
1634 1 0.983333 0.45 0.118812 -4.34343 
1649 1 0.933333 0.6 0.117763 -4.44973 
1650 1 0.966667 0.6 0.0591384 -4.4051 
1651 1 0.983333 0.55 0.117775 -4.43502 
1653 1 0.966667 0.5 0.0593936 -4.40754 
18 1 0 0.7 0.000474467 -3.90452 
19 1 0.0166667 0.65 0.0592411 -4.40585 
20 1 0.0166667 0.75 0.0595423 -4.3988 
23 1 0.05 0.65 0.000287161 -3.90408 
27 1 0 0.8 0.000463871 -3.90313 
28 1 0.05 0.75 0.000374307 -3.9041 
88 1 0.0333333 0.8 0.118817 -4.35793 
91 1 0.0333333 0.7 0.117988 -4.4247 
92 1 0.0666667 0.7 0.0591491 -4.40692 
93 1 0.0833333 0.65 0.117855 -4.45001 
94 1 0.0833333 0.75 0.117785 -4.43506 
107 1 0.0666667 0.8 0.059339 -4.40883 
98 1 0.116667 0.65 0.0590102 -4.40827 
108 1 0.1 0.8 0.00011143 -3.90417 
109 1 0.116667 0.75 0.059008 -4.40706 
111 1 0.1 0.7 9.00941e-05 -3.90359 
112 1 0.15 0.65 -5.19539e-05 -3.90361 
113 1 0.15 0.75 -5.00375e-05 -3.90354 
226 1 0.133333 0.7 0.117699 -4.44967 
232 1 0.183333 0.65 0.117633 -4.44954 
245 1 0.133333 0.8 0.117657 -4.44953 
246 1 0.166667 0.8 0.0589281 -4.40781 
247 1 0.183333 0.75 0.117628 -4.4495 
249 1 0.166667 0.7 0.0589253 -4.4079 
250 1 0.2 0.7 -7.05571e-05 -3.90376 
251 1 0.216667 0.65 0.0589177 -4.40777 
252 1 0.216667 0.75 0.0589116 -4.40778 
255 1 0.25 0.65 -6.65445e-05 -3.90389 
261 1 0.2 0.8 -7.25865e-05 -3.90378 
262 1 0.25 0.75 -6.73441e-05 -3.90388 
415 1 0.233333 0.8 0.117628 -4.44955 
418 1 0.233333 0.7 0.117631 -4.44953 
419 1 0.266667 0.7 0.0589181 -4.40781 
420 1 0.283333 0.65 0.117633 -4.44954 
421 1 0.283333 0.75 0.117633 -4.44955 
434 1 0.266667 0.8 0.0589179 -4.4078 
425 1 0.316667 0.65 0.0589182 -4.40781 
435 1 0.3 0.8 -6.64946e-05 -3.90391 
436 1 0.316667 0.75 0.0589182 -4.40781 
438 1 0.3 0.7 -6.64739e-05 -3.9039 
439 1 0.35 0.65 -6.64158e-05 -3.9039 
440 1 0.35 0.75 -6.64167e-05 -3.9039 
586 1 0.333333 0.7 0.117633 -4.44954 
592 1 0.383333 0.65 0.117633 -4.44954 
605 1 0.333333 0.8 0.117633 -4.44954 
606 1 0.366667 0.8 0.0589182 -4.40781 
607 1 0.383333 0.75 0.117633 -4.44954 
609 1 0.366667 0.7 0.0589182 -4.40781 
610 1 0.4 0.7 -6.642e-05 -3.9039 
611 1 0.416667 0.65 0.0589182 -4.40781 
612 1 0.416667 0.75 0.0589182 -4.40781 
615 1 0.45 0.65 -6.6443e-05 -3.9039 
621 1 0.4 0.8 -6.64202e-05 -3.9039 
622 1 0.45 0.75 -6.64614e-05 -3.9039 
775 1 0.433333 0.8 0.117633 -4.44954 
778 1 0.433333 0.7 0.117633 -4.44954 
779 1 0.466667 0.7 0.058918 -4.40781 
780 1 0.483333 0.65 0.117632 -4.44956 
781 1 0.483333 0.75 0.117633 -4.44955 
794 1 0.466667 0.8 0.058918 -4.40781 
785 1 0.516667 0.65 0.0589169 -4.40784 
795 1 0.5 0.8 -6.76487e-05 -3.90387 
796 1 0.516667 0.75 0.0589167 -4.40782 
798 1 0.5 0.7 -6.76487e-05 -3.90387 
799 1 0.55 0.65 -6.30947e-05 -3.90375 
800 1 0.55 0.75 -6.65033e-05 -3.90374 
946 1 0.533333 0.7 0.117632 -4.44958 
952 1 0.583333 0.65 0.117651 -4.44961 
965 1 0.533333 0.8 0.117632 -4.44958 
966 1 0.566667 0.8 0.0589231 -4.40788 
967 1 0.583333 0.75 0.117647 -4.44956 
969 1 0.566667 0.7 0.0589231 -4.40788 
970 1 0.6 0.7 -3.16218e-05 -3.90374 
971 1 0.616667 0.65 0.0589952 -4.40819 
972 1 0.616667 0.75 0.0589802 -4.40819 
975 1 0.65 0.65 0.000129308 -3.88994 
981 1 0.6 0.8 -3.16217e-05 -3.90374 
982 1 0.65 0.75 7.40762e-05 -3.90447 
1131 1 0.633333 0.8 0.117681 -4.44946 
1134 1 0.633333 0.7 0.117681 -4.44946 
1135 1 0.666667 0.7 0.0590474 -4.39243 
1136 1 0.683333 0.65 0.117603 -4.45057 
1137 1 0.683333 0.75 0.117758 -4.44934 
1148 1 0.666667 0.8 0.0590474 -4.39243 
1141 1 0.716667 0.65 0.058545 -4.28226 
1149 1 0.7 0.8 0.00043056 -3.72322 
1150 1 0.716667 0.75 0.0591838 -4.35246 
1152 1 0.7 0.7 0.000430544 -3.72322 
1153 1 0.75 0.75 0.000859652 -3.57872 
1297 1 0.733333 0.7 0.117709 -4.43825 
1303 1 0.783333 0.65 0.117492 -4.43973 
1316 1 0.733333 0.8 0.117709 -4.43825 
1317 1 0.766667 0.8 0.0586912 -4.2793 
1318 1 0.783333 0.75 0.117565 -4.45048 
1320 1 0.766667 0.7 0.0586908 -4.2793 
1321 1 0.8 0.7 0.000538385 -3.72423 
1322 1 0.816667 0.65 0.0591414 -4.36461 
1323 1 0.816667 0.75 0.0592037 -4.37666 
1326 1 0.85 0.65 2.09406e-05 -3.88979 
1332 1 0.8 0.8 0.000541044 -3.72422 
1333 1 0.85 0.75 0.000142713 -3.9048 
1486 1 0.833333 0.8 0.117744 -4.4478 
1489 1 0.833333 0.7 0.117741 -4.44786 
1490 1 0.866667 0.7 0.0590441 -4.40894 
1491 1 0.883333 0.65 0.117737 -4.45029 
1492 1 0.883333 0.75 0.117806 -4.45028 
1505 1 0.866667 0.8 0.0590716 -4.40896 
1496 1 0.916667 0.65 0.0590696 -4.40711 
1506 1 0.9 0.8 0.00015915 -3.90348 
1507 1 0.916667 0.75 0.0591006 -4.40663 
1509 1 0.9 0.7 9.45248e-05 -3.90341 
1510 1 0.95 0.65 0.000243278 -3.9043 
1511 1 0.95 0.75 0.000376545 -3.90406 
1646 1 0.933333 0.7 0.117784 -4.43504 
1652 1 0.983333 0.65 0.117806 -4.43507 
1659 1 0.933333 0.8 0.117872 -4.4244 
1660 1 0.966667 0.8 0.0594908 -4.39871 
1661 1 0.983333 0.75 0.118838 -4.35826 
1663 1 0.966667 0.7 0.0593996 -4.40822 
24 1 0 0.9 0.000348203 -3.90403 
25 1 0.0166667 0.85 0.0594945 -4.39899 
26 1 0.0166667 0.95 0.0591418 -4.40678 
29 1 0.05 0.85 0.00031991 -3.90402 
30 1 0.05 0.95 0.00017403 -3.9036 
103 1 0.0333333 0.9 0.117916 -4.42439 
104 1 0.0666667 0.9 0.0590957 -4.40692 
105 1 0.0833333 0.85 0.117705 -4.43489 
106 1 0.0833333 0.95 0.117828 -4.45005 
110 1 0.116667 0.85 0.0589904 -4.40673 
114 1 0.116667 0.95 0.058985 -4.40836 
115 1 0.1 0.9 5.29788e-05 -3.90361 
116 1 0.15 0.85 -4.42284e-05 -3.90359 
117 1 0.15 0.95 -6.98105e-05 -3.90366 
242 1 0.133333 0.9 0.117668 -4.44965 
248 1 0.183333 0.85 0.117632 -4.44955 
256 1 0.183333 0.95 0.11763 -4.44953 
257 1 0.166667 0.9 0.0589199 -4.40785 
258 1 0.2 0.9 -6.90031e-05 -3.90379 
259 1 0.216667 0.85 0.0589122 -4.40779 
260 1 0.216667 0.95 0.0589177 -4.40779 
263 1 0.25 0.85 -6.749e-05 -3.90389 
264 1 0.25 0.95 -6.62642e-05 -3.9039 
430 1 0.233333 0.9 0.117631 -4.44954 
431 1 0.266667 0.9 0.0589181 -4.40781 
432 1 0.283333 0.85 0.117633 -4.44954 
433 1 0.283333 0.95 0.117633 -4.44954 
437 1 0.316667 0.85 0.0589182 -4.40781 
441 1 0.316667 0.95 0.0589182 -4.40781 
442 1 0.3 0.9 -6.64602e-05 -3.9039 
443 1 0.35 0.85 -6.64174e-05 -3.9039 
444 1 0.35 0.95 -6.64119e-05 -3.9039 
602 1 0.333333 0.9 0.117633 -4.44954 
608 1 0.383333 0.85 0.117633 -4.44954 
616 1 0.383333 0.95 0.117633 -4.44954 
617 1 0.366667 0.9 0.0589182 -4.40781 
618 1 0.4 0.9 -6.64219e-05 -3.9039 
619 1 0.416667 0.85 0.0589182 -4.40781 
620 1 0.416667 0.95 0.0589182 -4.40781 
623 1 0.45 0.85 -6.6443e-05 -3.9039 
624 1 0.45 0.95 -6.64291e-05 -3.9039 
790 1 0.433333 0.9 0.117633 -4.44954 
791 1 0.466667 0.9 0.058918 -4.40781 
792 1 0.483333 0.85 0.117632 -4.44956 
793 1 0.483333 0.95 0.117632 -4.44957 
797 1 0.516667 0.85 0.0589169 -4.40784 
801 1 0.516667 0.95 0.0589173 -4.40787 
802 1 0.5 0.9 -6.78736e-05 -3.90386 
803 1 0.55 0.85 -6.30947e-05 -3.90375 
804 1 0.55 0.95 -5.92659e-05 -3.90373 
962 1 0.533333 0.9 0.117637 -4.44958 
968 1 0.583333 0.85 0.117651 -4.44961 
976 1 0.583333 0.95 0.117668 -4.44964 
977 1 0.566667 0.9 0.0589379 -4.40791 
978 1 0.6 0.9 1.76388e-06 -3.90383 
979 1 0.616667 0.85 0.0589952 -4.40819 
980 1 0.616667 0.95 0.0590362 -4.4084 
983 1 0.65 0.85 0.000129307 -3.88994 
984 1 0.65 0.95 0.00020761 -3.89055 
1144 1 0.633333 0.9 0.11773 -4.4487 
1145 1 0.666667 0.9 0.0591737 -4.37619 
1146 1 0.683333 0.85 0.117603 -4.45057 
1147 1 0.683333 0.95 0.117674 -4.44909 
1151 1 0.716667 0.85 0.0585451 -4.28227 
1154 1 0.716667 0.95 0.0587258 -4.25336 
1155 1 0.7 0.9 0.000766793 -3.56243 
1313 1 0.733333 0.9 0.117523 -4.42837 
1319 1 0.783333 0.85 0.117496 -4.43978 
1327 1 0.783333 0.95 0.117265 -4.44202 
1328 1 0.766667 0.9 0.0575597 -4.19409 
1329 1 0.8 0.9 0.000612308 -3.5595 
1330 1 0.816667 0.85 0.0591464 -4.36471 
1331 1 0.816667 0.95 0.0591246 -4.34868 
1334 1 0.85 0.85 3.06479e-05 -3.88996 
1335 1 0.85 0.95 -2.2016e-05 -3.8903 
1501 1 0.833333 0.9 0.117651 -4.4477 
1502 1 0.866667 0.9 0.0589433 -4.40891 
1503 1 0.883333 0.85 0.117773 -4.45048 
1504 1 0.883333 0.95 0.117694 -4.45049 
1508 1 0.916667 0.85 0.0590931 -4.40654 
1512 1 0.916667 0.95 0.0590402 -4.40687 
1513 1 0.9 0.9 8.98605e-05 -3.90342 
1514 1 0.95 0.85 0.000326752 -3.90402 
1515 1 0.95 0.95 0.000153784 -3.90424 
1656 1 0.933333 0.9 0.117732 -4.43496 
1662 1 0.983333 0.85 0.118784 -4.35773 
1664 1 0.983333 0.95 0.117778 -4.43502 
1665 1 0.966667 0.9 0.0593308 -4.40867 
31 1 0 0.1 0.176616 -4.45142 
32 1 0.0166667 0.05 0.235397 -4.44007 
33 1 0.0166667 0.15 0.235403 -4.42504 
34 1 0 0 0.176638 -4.45158 
36 1 0.05 0.05 0.176613 -4.4511 
39 1 0 0.2 0.176655 -4.3536 
41 1 0.05 0.15 0.176648 -4.43793 
131 1 0.0666667 0.1 0.235328 -4.44987 
134 1 0.0666667 0 0.235177 -4.44807 
148 1 0.0666667 0.2 0.235123 -4.43295 
135 1 0.1 0 0.176499 -4.45071 
136 1 0.116667 0.05 0.235095 -4.44799 
149 1 0.1 0.2 0.176475 -4.45158 
150 1 0.116667 0.15 0.235094 -4.44813 
152 1 0.1 0.1 0.176534 -4.45143 
154 1 0.15 0.05 0.176444 -4.45075 
155 1 0.15 0.15 0.176437 -4.45069 
288 1 0.166667 0 0.235048 -4.44889 
304 1 0.166667 0.2 0.235044 -4.44886 
307 1 0.166667 0.1 0.235063 -4.4489 
308 1 0.2 0.1 0.176418 -4.45079 
309 1 0.216667 0.05 0.235043 -4.44883 
310 1 0.216667 0.15 0.235042 -4.44885 
311 1 0.2 0 0.176417 -4.45076 
313 1 0.25 0.05 0.176417 -4.45076 
335 1 0.2 0.2 0.176411 -4.45077 
337 1 0.25 0.15 0.176416 -4.45077 
475 1 0.266667 0.1 0.235048 -4.44882 
478 1 0.266667 0 0.235047 -4.44883 
498 1 0.266667 0.2 0.235048 -4.44882 
479 1 0.3 0 0.176418 -4.45078 
480 1 0.316667 0.05 0.235048 -4.44884 
499 1 0.3 0.2 0.176418 -4.45078 
500 1 0.316667 0.15 0.235048 -4.44884 
502 1 0.3 0.1 0.176418 -4.45078 
504 1 0.35 0.05 0.176418 -4.45078 
505 1 0.35 0.15 0.176418 -4.45078 
648 1 0.366667 0 0.235048 -4.44883 
664 1 0.366667 0.2 0.235048 -4.44883 
667 1 0.366667 0.1 0.235048 -4.44883 
668 1 0.4 0.1 0.176418 -4.45078 
669 1 0.416667 0.05 0.235048 -4.44883 
670 1 0.416667 0.15 0.235048 -4.44883 
671 1 0.4 0 0.176418 -4.45078 
673 1 0.45 0.05 0.176417 -4.45078 
695 1 0.4 0.2 0.176418 -4.45078 
697 1 0.45 0.15 0.176417 -4.45078 
835 1 0.466667 0.1 0.235047 -4.44884 
838 1 0.466667 0 0.235047 -4.44884 
858 1 0.466667 0.2 0.235047 -4.44884 
839 1 0.5 0 0.176417 -4.45081 
840 1 0.516667 0.05 0.235047 -4.44888 
859 1 0.5 0.2 0.176417 -4.45081 
860 1 0.516667 0.15 0.235047 -4.44888 
862 1 0.5 0.1 0.176417 -4.45081 
864 1 0.55 0.05 0.176422 -4.45084 
865 1 0.55 0.15 0.176421 -4.45084 
1008 1 0.566667 0 0.235056 -4.44879 
1024 1 0.566667 0.2 0.235054 -4.44881 
1027 1 0.566667 0.1 0.235054 -4.44882 
1028 1 0.6 0.1 0.176463 -4.45068 
1029 1 0.616667 0.05 0.235075 -4.44853 
1030 1 0.616667 0.15 0.23507 -4.44859 
1031 1 0.6 0 0.176465 -4.45065 
1033 1 0.65 0.05 0.176499 -4.45067 
1055 1 0.6 0.2 0.176462 -4.45067 
1057 1 0.65 0.15 0.176497 -4.4507 
1186 1 0.666667 0.1 0.235056 -4.44891 
1189 1 0.666667 0 0.235032 -4.44907 
1209 1 0.666667 0.2 0.235052 -4.44896 
1190 1 0.7 0 0.176338 -4.45 
1191 1 0.716667 0.05 0.235003 -4.44975 
1210 1 0.7 0.2 0.176373 -4.4501 
1211 1 0.716667 0.15 0.23502 -4.44968 
1213 1 0.7 0.1 0.176373 -4.45007 
1215 1 0.75 0.05 0.176279 -4.44914 
1216 1 0.75 0.15 0.176296 -4.44918 
1359 1 0.766667 0 0.235005 -4.44904 
1375 1 0.766667 0.2 0.235018 -4.44902 
1378 1 0.766667 0.1 0.235012 -4.449 
1379 1 0.8 0.1 0.17627 -4.45149 
1380 1 0.816667 0.05 0.234946 -4.44953 
1381 1 0.816667 0.15 0.234962 -4.44944 
1382 1 0.8 0 0.176245 -4.45162 
1384 1 0.85 0.05 0.176349 -4.45012 
1406 1 0.8 0.2 0.176279 -4.45149 
1408 1 0.85 0.15 0.176367 -4.45013 
1546 1 0.866667 0.1 0.235051 -4.44936 
1549 1 0.866667 0 0.23502 -4.44923 
1569 1 0.866667 0.2 0.235043 -4.4492 
1550 1 0.9 0 0.176522 -4.45056 
1551 1 0.916667 0.05 0.235135 -4.4476 
1570 1 0.9 0.2 0.17655 -4.45165 
1571 1 0.916667 0.15 0.235097 -4.44816 
1573 1 0.9 0.1 0.176534 -4.45037 
1575 1 0.95 0.05 0.176553 -4.45095 
1576 1 0.95 0.15 0.176518 -4.43797 
1689 1 0.966667 0 0.235281 -4.44946 
1705 1 0.966667 0.2 0.235226 -4.42533 
1708 1 0.966667 0.1 0.235301 -4.44033 
37 1 0.0166667 0.25 0.234317 -4.3433 
38 1 0.0166667 0.35 0.232992 -4.26899 
42 1 0.05 0.25 0.176561 -4.33919 
54 1 0.05 0.35 0.176432 -4.2442 
145 1 0.0666667 0.3 0.235024 -4.40857 
169 1 0.0666667 0.4 0.235019 -4.40854 
151 1 0.116667 0.25 0.235012 -4.44928 
170 1 0.1 0.4 0.176351 -4.43926 
171 1 0.116667 0.35 0.234904 -4.44924 
173 1 0.1 0.3 0.176352 -4.4393 
175 1 0.15 0.25 0.176415 -4.45085 
176 1 0.15 0.35 0.176403 -4.45081 
328 1 0.166667 0.4 0.23504 -4.44875 
331 1 0.166667 0.3 0.235042 -4.44874 
332 1 0.2 0.3 0.176403 -4.45088 
333 1 0.216667 0.25 0.235041 -4.44894 
334 1 0.216667 0.35 0.235037 -4.44901 
338 1 0.25 0.25 0.176417 -4.45078 
366 1 0.2 0.4 0.176402 -4.45089 
368 1 0.25 0.35 0.176417 -4.45077 
495 1 0.266667 0.3 0.235048 -4.44881 
526 1 0.266667 0.4 0.235048 -4.44881 
501 1 0.316667 0.25 0.235048 -4.44884 
527 1 0.3 0.4 0.176417 -4.45079 
528 1 0.316667 0.35 0.235048 -4.44884 
530 1 0.3 0.3 0.176418 -4.45078 
532 1 0.35 0.25 0.176418 -4.45078 
533 1 0.35 0.35 0.176418 -4.45078 
688 1 0.366667 0.4 0.235048 -4.44883 
691 1 0.366667 0.3 0.235048 -4.44883 
692 1 0.4 0.3 0.176418 -4.45078 
693 1 0.416667 0.25 0.235048 -4.44883 
694 1 0.416667 0.35 0.235048 -4.44883 
698 1 0.45 0.25 0.176417 -4.45078 
726 1 0.4 0.4 0.176418 -4.45078 
728 1 0.45 0.35 0.176417 -4.45078 
855 1 0.466667 0.3 0.235047 -4.44884 
886 1 0.466667 0.4 0.235047 -4.44884 
861 1 0.516667 0.25 0.235047 -4.44888 
887 1 0.5 0.4 0.176417 -4.45081 
888 1 0.516667 0.35 0.235047 -4.44888 
890 1 0.5 0.3 0.176417 -4.45081 
892 1 0.55 0.25 0.176421 -4.45084 
893 1 0.55 0.35 0.176421 -4.45084 
1048 1 0.566667 0.4 0.235054 -4.44882 
1051 1 0.566667 0.3 0.235054 -4.44881 
1052 1 0.6 0.3 0.176462 -4.45067 
1053 1 0.616667 0.25 0.23507 -4.44858 
1054 1 0.616667 0.35 0.23507 -4.44859 
1058 1 0.65 0.25 0.176496 -4.4507 
1086 1 0.6 0.4 0.176463 -4.45068 
1088 1 0.65 0.35 0.176497 -4.4507 
1206 1 0.666667 0.3 0.235052 -4.44896 
1237 1 0.666667 0.4 0.235056 -4.44891 
1212 1 0.716667 0.25 0.235018 -4.44971 
1238 1 0.7 0.4 0.176373 -4.45008 
1239 1 0.716667 0.35 0.235019 -4.44968 
1241 1 0.7 0.3 0.176373 -4.4501 
1243 1 0.75 0.25 0.176297 -4.4492 
1244 1 0.75 0.35 0.176296 -4.44919 
1399 1 0.766667 0.4 0.235015 -4.44901 
1402 1 0.766667 0.3 0.235021 -4.44901 
1403 1 0.8 0.3 0.176287 -4.45155 
1404 1 0.816667 0.25 0.234967 -4.44951 
1405 1 0.816667 0.35 0.234964 -4.44955 
1409 1 0.85 0.25 0.176376 -4.45008 
1437 1 0.8 0.4 0.176281 -4.45155 
1439 1 0.85 0.35 0.176377 -4.44993 
1566 1 0.866667 0.3 0.23504 -4.44905 
1597 1 0.866667 0.4 0.235029 -4.44903 
1572 1 0.916667 0.25 0.235174 -4.43281 
1598 1 0.9 0.4 0.176634 -4.43892 
1599 1 0.916667 0.35 0.235218 -4.41806 
1601 1 0.9 0.3 0.176638 -4.43897 