ITEM: TIMESTEP
11
ITEM: NUMBER OF ATOMS
3584
ITEM: BOX BOUNDS pp pp ss
0.0000000000000000e+00 4.3111019472983898e+01
0.0000000000000000e+00 2.4890158697766498e+01
-3.6580800000000006e-03 3.4552298188307212e+01
ITEM: ATOMS id type xs ys zs c_peratom 
1 1 0 0.1 0.000170816 -3.90433 
2 1 0.0166667 0.05 0.0591282 -4.40822 
3 1 0.0166667 0.15 0.0592102 -4.40756 
4 1 0 0 0.000174384 -3.90453 
5 1 0.05 0.05 0.000157742 -3.90444 
9 1 0 0.2 0.000363158 -3.90433 
10 1 0.05 0.15 0.0001603 -3.90437 
35 1 0.0333333 0 0.117712 -4.4481 
40 1 0.0333333 0.2 0.11782 -4.42324 
43 1 0.0333333 0.1 0.117773 -4.44868 
44 1 0.0666667 0.1 0.0590648 -4.40849 
45 1 0.0833333 0.05 0.117683 -4.44866 
46 1 0.0833333 0.15 0.117666 -4.44836 
47 1 0.0666667 0 0.059095 -4.40813 
60 1 0.0666667 0.2 0.0591532 -4.40751 
48 1 0.1 0 3.78505e-05 -3.9043 
49 1 0.116667 0.05 0.0589598 -4.40849 
61 1 0.1 0.2 5.15291e-05 -3.90431 
62 1 0.116667 0.15 0.0589756 -4.40836 
64 1 0.1 0.1 2.40092e-05 -3.90415 
65 1 0.15 0.05 -8.97825e-05 -3.904 
66 1 0.15 0.15 -7.22594e-05 -3.90412 
153 1 0.133333 0.1 0.11757 -4.44853 
156 1 0.133333 0 0.117571 -4.44858 
157 1 0.166667 0 0.0588822 -4.40837 
158 1 0.183333 0.05 0.117511 -4.44848 
177 1 0.133333 0.2 0.117554 -4.44849 
178 1 0.166667 0.2 0.058886 -4.40833 
179 1 0.183333 0.15 0.117511 -4.44851 
181 1 0.166667 0.1 0.0588913 -4.40839 
182 1 0.2 0.1 -0.000121075 -3.90411 
183 1 0.216667 0.05 0.0588609 -4.4083 
184 1 0.216667 0.15 0.0588573 -4.4083 
185 1 0.2 0 -0.000124061 -3.90407 
186 1 0.25 0.05 -0.000128881 -3.90419 
213 1 0.2 0.2 -0.000127704 -3.9041 
214 1 0.25 0.15 -0.000129742 -3.90418 
312 1 0.233333 0 0.117493 -4.44848 
336 1 0.233333 0.2 0.11749 -4.44848 
339 1 0.233333 0.1 0.117496 -4.44848 
340 1 0.266667 0.1 0.0588564 -4.4083 
341 1 0.283333 0.05 0.117494 -4.44847 
342 1 0.283333 0.15 0.117493 -4.44847 
343 1 0.266667 0 0.0588565 -4.40829 
374 1 0.266667 0.2 0.0588551 -4.40829 
344 1 0.3 0 -0.000129325 -3.90422 
345 1 0.316667 0.05 0.0588566 -4.40831 
375 1 0.3 0.2 -0.000129571 -3.90422 
376 1 0.316667 0.15 0.0588565 -4.40831 
378 1 0.3 0.1 -0.000129576 -3.90422 
379 1 0.35 0.05 -0.000129316 -3.90422 
380 1 0.35 0.15 -0.000129326 -3.90422 
503 1 0.333333 0.1 0.117494 -4.44848 
506 1 0.333333 0 0.117494 -4.44848 
507 1 0.366667 0 0.0588567 -4.40831 
508 1 0.383333 0.05 0.117494 -4.44848 
534 1 0.333333 0.2 0.117494 -4.44848 
535 1 0.366667 0.2 0.0588567 -4.40831 
536 1 0.383333 0.15 0.117494 -4.44848 
538 1 0.366667 0.1 0.0588567 -4.40831 
539 1 0.4 0.1 -0.000129341 -3.90422 
540 1 0.416667 0.05 0.0588566 -4.40831 
541 1 0.416667 0.15 0.0588566 -4.40831 
542 1 0.4 0 -0.000129336 -3.90422 
543 1 0.45 0.05 -0.000129877 -3.9042 
573 1 0.4 0.2 -0.00012934 -3.90422 
574 1 0.45 0.15 -0.000129895 -3.9042 
672 1 0.433333 0 0.117494 -4.44849 
696 1 0.433333 0.2 0.117494 -4.44848 
699 1 0.433333 0.1 0.117494 -4.44848 
700 1 0.466667 0.1 0.0588557 -4.40833 
701 1 0.483333 0.05 0.117495 -4.44851 
702 1 0.483333 0.15 0.117495 -4.44851 
703 1 0.466667 0 0.0588557 -4.40833 
734 1 0.466667 0.2 0.0588556 -4.40833 
704 1 0.5 0 -0.000128431 -3.90411 
705 1 0.516667 0.05 0.0588653 -4.40836 
735 1 0.5 0.2 -0.000128663 -3.90409 
736 1 0.516667 0.15 0.0588649 -4.40836 
738 1 0.5 0.1 -0.000128539 -3.90409 
739 1 0.55 0.05 -9.2786e-05 -3.9042 
740 1 0.55 0.15 -9.32379e-05 -3.90417 
863 1 0.533333 0.1 0.117512 -4.44846 
866 1 0.533333 0 0.117512 -4.44845 
867 1 0.566667 0 0.0589204 -4.40829 
868 1 0.583333 0.05 0.117567 -4.44864 
894 1 0.533333 0.2 0.117512 -4.44846 
895 1 0.566667 0.2 0.0589237 -4.40829 
896 1 0.583333 0.15 0.11757 -4.44866 
898 1 0.566667 0.1 0.0589252 -4.40829 
899 1 0.6 0.1 9.99299e-06 -3.90427 
900 1 0.616667 0.05 0.0589714 -4.40912 
901 1 0.616667 0.15 0.0589848 -4.40912 
902 1 0.6 0 -4.00248e-06 -3.90422 
903 1 0.65 0.05 6.27013e-05 -3.89062 
933 1 0.6 0.2 9.31687e-06 -3.90425 
934 1 0.65 0.15 8.38618e-05 -3.89068 
1032 1 0.633333 0 0.117597 -4.44752 
1056 1 0.633333 0.2 0.117622 -4.44753 
1059 1 0.633333 0.1 0.117617 -4.44749 
1060 1 0.666667 0.1 0.0591072 -4.37641 
1061 1 0.683333 0.05 0.117468 -4.44903 
1062 1 0.683333 0.15 0.117491 -4.44901 
1063 1 0.666667 0 0.0590932 -4.37642 
1094 1 0.666667 0.2 0.0591204 -4.37642 
1064 1 0.7 0 0.000786937 -3.54842 
1065 1 0.716667 0.05 0.0585402 -4.25337 
1095 1 0.7 0.2 0.00081648 -3.5484 
1096 1 0.716667 0.15 0.0585622 -4.25347 
1098 1 0.7 0.1 0.000801096 -3.54836 
1214 1 0.733333 0.1 0.117472 -4.42775 
1217 1 0.733333 0 0.117464 -4.42769 
1218 1 0.766667 0 0.0575575 -4.17851 
1219 1 0.783333 0.05 0.117121 -4.44046 
1245 1 0.733333 0.2 0.117489 -4.42776 
1246 1 0.766667 0.2 0.0575972 -4.1788 
1247 1 0.783333 0.15 0.117146 -4.44046 
1249 1 0.766667 0.1 0.057574 -4.17871 
1250 1 0.8 0.1 0.000703336 -3.54678 
1251 1 0.816667 0.05 0.0591 -4.34885 
1252 1 0.816667 0.15 0.0591251 -4.34889 
1253 1 0.8 0 0.000695442 -3.54683 
1254 1 0.85 0.05 -0.000159364 -3.89005 
1284 1 0.8 0.2 0.000722476 -3.5468 
1285 1 0.85 0.15 -0.000111527 -3.89017 
1383 1 0.833333 0 0.117544 -4.44619 
1407 1 0.833333 0.2 0.117573 -4.44628 
1410 1 0.833333 0.1 0.117548 -4.44629 
1411 1 0.866667 0.1 0.0588177 -4.40939 
1412 1 0.883333 0.05 0.11749 -4.44933 
1413 1 0.883333 0.15 0.117541 -4.44935 
1414 1 0.866667 0 0.0588052 -4.40941 
1445 1 0.866667 0.2 0.0588766 -4.40945 
1415 1 0.9 0 2.52894e-05 -3.90376 
1416 1 0.916667 0.05 0.059039 -4.40799 
1446 1 0.9 0.2 0.000141644 -3.90406 
1447 1 0.916667 0.15 0.0591036 -4.40705 
1449 1 0.9 0.1 5.40787e-05 -3.90391 
1450 1 0.95 0.05 0.000118503 -3.90424 
1451 1 0.95 0.15 0.000233175 -3.90492 
1574 1 0.933333 0.1 0.117698 -4.44819 
1577 1 0.933333 0 0.117698 -4.44813 
1578 1 0.966667 0 0.059112 -4.40753 
1579 1 0.983333 0.05 0.117741 -4.44869 
1605 1 0.933333 0.2 0.117729 -4.43292 
1606 1 0.966667 0.2 0.0593685 -4.40806 
1607 1 0.983333 0.15 0.117733 -4.43368 
1609 1 0.966667 0.1 0.0591248 -4.40755 
6 1 0 0.3 0.000472105 -3.90146 
7 1 0.0166667 0.25 0.0593944 -4.39801 
8 1 0.0166667 0.35 0.0595808 -4.39074 
11 1 0.05 0.25 0.000299061 -3.90405 
15 1 0 0.4 0.00047128 -3.90141 
16 1 0.05 0.35 0.000316138 -3.90351 
53 1 0.0333333 0.4 0.118673 -4.33253 
56 1 0.0333333 0.3 0.118676 -4.33255 
57 1 0.0666667 0.3 0.0592821 -4.40846 
58 1 0.0833333 0.25 0.117609 -4.43358 
59 1 0.0833333 0.35 0.117568 -4.41863 
78 1 0.0666667 0.4 0.0592877 -4.40849 
63 1 0.116667 0.25 0.0589497 -4.40744 
79 1 0.1 0.4 6.62391e-05 -3.90438 
80 1 0.116667 0.35 0.0589432 -4.40688 
82 1 0.1 0.3 6.22311e-05 -3.90433 
83 1 0.15 0.25 -7.95656e-05 -3.9039 
84 1 0.15 0.35 -9.75668e-05 -3.90373 
174 1 0.133333 0.3 0.117543 -4.44847 
180 1 0.183333 0.25 0.117496 -4.44856 
205 1 0.133333 0.4 0.117545 -4.44851 
206 1 0.166667 0.4 0.0588667 -4.40841 
207 1 0.183333 0.35 0.11748 -4.4485 
209 1 0.166667 0.3 0.0588675 -4.40842 
210 1 0.2 0.3 -0.000135086 -3.9041 
211 1 0.216667 0.25 0.0588523 -4.4083 
212 1 0.216667 0.35 0.0588524 -4.40828 
215 1 0.25 0.25 -0.000133231 -3.90418 
237 1 0.2 0.4 -0.000135188 -3.90408 
238 1 0.25 0.35 -0.000135493 -3.90418 
367 1 0.233333 0.4 0.117487 -4.4485 
370 1 0.233333 0.3 0.117488 -4.4485 
371 1 0.266667 0.3 0.0588522 -4.40832 
372 1 0.283333 0.25 0.117493 -4.44847 
373 1 0.283333 0.35 0.117493 -4.44847 
402 1 0.266667 0.4 0.0588522 -4.40832 
377 1 0.316667 0.25 0.0588566 -4.40831 
403 1 0.3 0.4 -0.000129854 -3.90422 
404 1 0.316667 0.35 0.0588567 -4.40831 
406 1 0.3 0.3 -0.000129847 -3.90422 
407 1 0.35 0.25 -0.000129369 -3.90422 
408 1 0.35 0.35 -0.000129394 -3.90422 
531 1 0.333333 0.3 0.117494 -4.44848 
537 1 0.383333 0.25 0.117494 -4.44848 
565 1 0.333333 0.4 0.117494 -4.44848 
566 1 0.366667 0.4 0.0588567 -4.40831 
567 1 0.383333 0.35 0.117494 -4.44848 
569 1 0.366667 0.3 0.0588567 -4.40831 
570 1 0.4 0.3 -0.000129339 -3.90422 
571 1 0.416667 0.25 0.0588566 -4.40831 
572 1 0.416667 0.35 0.0588566 -4.40831 
575 1 0.45 0.25 -0.000129901 -3.9042 
597 1 0.4 0.4 -0.000129339 -3.90422 
598 1 0.45 0.35 -0.000129896 -3.9042 
727 1 0.433333 0.4 0.117494 -4.44848 
730 1 0.433333 0.3 0.117494 -4.44848 
731 1 0.466667 0.3 0.0588556 -4.40833 
732 1 0.483333 0.25 0.117495 -4.44851 
733 1 0.483333 0.35 0.117495 -4.44851 
762 1 0.466667 0.4 0.0588557 -4.40833 
737 1 0.516667 0.25 0.0588648 -4.40835 
763 1 0.5 0.4 -0.000128539 -3.90409 
764 1 0.516667 0.35 0.0588649 -4.40836 
766 1 0.5 0.3 -0.000128663 -3.90409 
767 1 0.55 0.25 -9.35057e-05 -3.90415 
768 1 0.55 0.35 -9.32383e-05 -3.90417 
891 1 0.533333 0.3 0.117512 -4.44846 
897 1 0.583333 0.25 0.117569 -4.44865 
925 1 0.533333 0.4 0.117512 -4.44846 
926 1 0.566667 0.4 0.0589252 -4.40829 
927 1 0.583333 0.35 0.11757 -4.44866 
929 1 0.566667 0.3 0.0589237 -4.40829 
930 1 0.6 0.3 9.31578e-06 -3.90425 
931 1 0.616667 0.25 0.0589829 -4.40913 
932 1 0.616667 0.35 0.0589847 -4.40912 
935 1 0.65 0.25 8.39341e-05 -3.89067 
957 1 0.6 0.4 9.99052e-06 -3.90427 
958 1 0.65 0.35 8.3861e-05 -3.89068 
1087 1 0.633333 0.4 0.117617 -4.44749 
1090 1 0.633333 0.3 0.117622 -4.44753 
1091 1 0.666667 0.3 0.0591204 -4.37641 
1092 1 0.683333 0.25 0.117494 -4.44904 
1093 1 0.683333 0.35 0.117491 -4.44902 
1120 1 0.666667 0.4 0.0591073 -4.37641 
1097 1 0.716667 0.25 0.0585673 -4.25347 
1121 1 0.7 0.4 0.000801099 -3.54833 
1122 1 0.716667 0.35 0.058562 -4.25349 
1124 1 0.7 0.3 0.00081648 -3.54839 
1242 1 0.733333 0.3 0.117491 -4.42777 
1248 1 0.783333 0.25 0.117157 -4.44048 
1276 1 0.733333 0.4 0.117476 -4.42777 
1277 1 0.766667 0.4 0.0575873 -4.17879 
1278 1 0.783333 0.35 0.117151 -4.44047 
1280 1 0.766667 0.3 0.0576051 -4.17885 
1281 1 0.8 0.3 0.000727993 -3.54674 
1282 1 0.816667 0.25 0.0591456 -4.34892 
1283 1 0.816667 0.35 0.0591459 -4.34893 
1286 1 0.85 0.25 -5.2956e-05 -3.89032 
1308 1 0.8 0.4 0.000713806 -3.54667 
1309 1 0.85 0.35 -2.56127e-05 -3.89042 
1438 1 0.833333 0.4 0.11758 -4.44627 
1441 1 0.833333 0.3 0.117596 -4.44627 
1442 1 0.866667 0.3 0.0589436 -4.40948 
1443 1 0.883333 0.25 0.117628 -4.44932 
1444 1 0.883333 0.35 0.11766 -4.44935 
1473 1 0.866667 0.4 0.0589271 -4.40948 
1448 1 0.916667 0.25 0.0592272 -4.40601 
1474 1 0.9 0.4 0.000242989 -3.90427 
1475 1 0.916667 0.35 0.0592955 -4.40641 
1477 1 0.9 0.3 0.000249968 -3.90431 
1478 1 0.95 0.25 0.000411274 -3.90501 
1479 1 0.95 0.35 0.000476157 -3.90365 
1602 1 0.933333 0.3 0.117856 -4.40797 
1608 1 0.983333 0.25 0.118594 -4.34381 
1631 1 0.933333 0.4 0.117843 -4.40787 
1632 1 0.966667 0.4 0.0596354 -4.40099 
1633 1 0.983333 0.35 0.120107 -4.26796 
1635 1 0.966667 0.3 0.0596391 -4.40102 
12 1 0 0.5 0.000397728 -3.90437 
13 1 0.0166667 0.45 0.0593978 -4.39806 
14 1 0.0166667 0.55 0.0592735 -4.40744 
17 1 0.05 0.45 0.000300264 -3.90398 
21 1 0 0.6 0.0002769 -3.90469 
22 1 0.05 0.55 0.000237489 -3.90451 
71 1 0.0333333 0.6 0.117818 -4.44835 
74 1 0.0333333 0.5 0.117842 -4.42323 
75 1 0.0666667 0.5 0.0591621 -4.4076 
76 1 0.0833333 0.45 0.117601 -4.43344 
77 1 0.0833333 0.55 0.117715 -4.44857 
95 1 0.0666667 0.6 0.0591461 -4.40828 
81 1 0.116667 0.45 0.0589578 -4.40745 
96 1 0.1 0.6 9.87102e-05 -3.90428 
97 1 0.116667 0.55 0.0589817 -4.40843 
99 1 0.1 0.5 5.28893e-05 -3.90419 
100 1 0.15 0.45 -7.56121e-05 -3.90393 
101 1 0.15 0.55 -7.3267e-05 -3.90401 
202 1 0.133333 0.5 0.117546 -4.4484 
208 1 0.183333 0.45 0.117497 -4.44859 
229 1 0.133333 0.6 0.117601 -4.44867 
230 1 0.166667 0.6 0.0588916 -4.40842 
231 1 0.183333 0.55 0.117507 -4.44848 
233 1 0.166667 0.5 0.058891 -4.40833 
234 1 0.2 0.5 -0.000125626 -3.90411 
235 1 0.216667 0.45 0.058852 -4.4083 
236 1 0.216667 0.55 0.0588581 -4.4083 
239 1 0.25 0.45 -0.000133274 -3.90417 
253 1 0.2 0.6 -0.000123282 -3.90405 
254 1 0.25 0.55 -0.000129338 -3.90418 
395 1 0.233333 0.6 0.117494 -4.44849 
398 1 0.233333 0.5 0.11749 -4.44848 
399 1 0.266667 0.5 0.058855 -4.40829 
400 1 0.283333 0.45 0.117493 -4.44847 
401 1 0.283333 0.55 0.117493 -4.44847 
422 1 0.266667 0.6 0.0588561 -4.4083 
405 1 0.316667 0.45 0.0588566 -4.40831 
423 1 0.3 0.6 -0.000129634 -3.90422 
424 1 0.316667 0.55 0.0588565 -4.40831 
426 1 0.3 0.5 -0.000129584 -3.90422 
427 1 0.35 0.45 -0.000129373 -3.90422 
428 1 0.35 0.55 -0.00012933 -3.90422 
562 1 0.333333 0.5 0.117494 -4.44848 
568 1 0.383333 0.45 0.117494 -4.44848 
589 1 0.333333 0.6 0.117494 -4.44848 
590 1 0.366667 0.6 0.0588567 -4.40831 
591 1 0.383333 0.55 0.117494 -4.44848 
593 1 0.366667 0.5 0.0588567 -4.40831 
594 1 0.4 0.5 -0.000129337 -3.90422 
595 1 0.416667 0.45 0.0588566 -4.40831 
596 1 0.416667 0.55 0.0588566 -4.40831 
599 1 0.45 0.45 -0.000129878 -3.9042 
613 1 0.4 0.6 -0.000129339 -3.90422 
614 1 0.45 0.55 -0.000129853 -3.9042 
755 1 0.433333 0.6 0.117494 -4.44848 
758 1 0.433333 0.5 0.117494 -4.44849 
759 1 0.466667 0.5 0.0588557 -4.40833 
760 1 0.483333 0.45 0.117495 -4.44851 
761 1 0.483333 0.55 0.117496 -4.4485 
782 1 0.466667 0.6 0.0588557 -4.40833 
765 1 0.516667 0.45 0.0588653 -4.40836 
783 1 0.5 0.6 -0.000128968 -3.90413 
784 1 0.516667 0.55 0.0588651 -4.40834 
786 1 0.5 0.5 -0.000128431 -3.90411 
787 1 0.55 0.45 -9.27864e-05 -3.9042 
788 1 0.55 0.55 -9.65446e-05 -3.9042 
922 1 0.533333 0.5 0.117512 -4.44845 
928 1 0.583333 0.45 0.117567 -4.44864 
949 1 0.533333 0.6 0.117506 -4.44846 
950 1 0.566667 0.6 0.0589021 -4.4083 
951 1 0.583333 0.55 0.117553 -4.44866 
953 1 0.566667 0.5 0.0589204 -4.40829 
954 1 0.6 0.5 -4.00497e-06 -3.90422 
955 1 0.616667 0.45 0.0589714 -4.40912 
956 1 0.616667 0.55 0.0589501 -4.40912 
959 1 0.65 0.45 6.26948e-05 -3.89062 
973 1 0.6 0.6 -3.65607e-05 -3.90418 
974 1 0.65 0.55 4.17286e-05 -3.89072 
1113 1 0.633333 0.6 0.117582 -4.4474 
1116 1 0.633333 0.5 0.117597 -4.44752 
1117 1 0.666667 0.5 0.0590932 -4.37642 
1118 1 0.683333 0.45 0.117468 -4.44904 
1119 1 0.683333 0.55 0.117473 -4.44887 
1138 1 0.666667 0.6 0.0590925 -4.37652 
1123 1 0.716667 0.45 0.0585402 -4.25338 
1139 1 0.7 0.6 0.000745756 -3.56283 
1140 1 0.716667 0.55 0.0585367 -4.25319 
1142 1 0.7 0.5 0.000786935 -3.54841 
1273 1 0.733333 0.5 0.117465 -4.4277 
1279 1 0.783333 0.45 0.117127 -4.44046 
1300 1 0.733333 0.6 0.117455 -4.42853 
1301 1 0.766667 0.6 0.0575224 -4.19439 
1302 1 0.783333 0.55 0.117137 -4.44122 
1304 1 0.766667 0.5 0.057563 -4.17855 
1305 1 0.8 0.5 0.000700405 -3.54674 
1306 1 0.816667 0.45 0.0591199 -4.34887 
1307 1 0.816667 0.55 0.0591271 -4.3488 
1310 1 0.85 0.45 -8.52666e-05 -3.89015 
1324 1 0.8 0.6 0.000682736 -3.56098 
1325 1 0.85 0.55 -0.000112652 -3.89019 
1466 1 0.833333 0.6 0.117571 -4.44722 
1469 1 0.833333 0.5 0.117554 -4.44621 
1470 1 0.866667 0.5 0.0588545 -4.40946 
1471 1 0.883333 0.45 0.117602 -4.44928 
1472 1 0.883333 0.55 0.117534 -4.44922 
1493 1 0.866667 0.6 0.058875 -4.40916 
1476 1 0.916667 0.45 0.059219 -4.40601 
1494 1 0.9 0.6 8.65281e-05 -3.90379 
1495 1 0.916667 0.55 0.0591109 -4.40717 
1497 1 0.9 0.5 0.000129394 -3.9039 
1498 1 0.95 0.45 0.000410174 -3.90499 
1499 1 0.95 0.55 0.000284473 -3.90487 
1628 1 0.933333 0.5 0.117722 -4.43276 
1634 1 0.983333 0.45 0.118587 -4.34373 
1649 1 0.933333 0.6 0.117735 -4.44796 
1650 1 0.966667 0.6 0.0592065 -4.40662 
1651 1 0.983333 0.55 0.117768 -4.43338 
1653 1 0.966667 0.5 0.0593928 -4.40813 
18 1 0 0.7 0.000373809 -3.90437 
19 1 0.0166667 0.65 0.059284 -4.40742 
20 1 0.0166667 0.75 0.0593794 -4.39891 
23 1 0.05 0.65 0.00026819 -3.90475 
27 1 0 0.8 0.000373778 -3.9022 
28 1 0.05 0.75 0.00031602 -3.90438 
88 1 0.0333333 0.8 0.118666 -4.35925 
91 1 0.0333333 0.7 0.117872 -4.42288 
92 1 0.0666667 0.7 0.0592188 -4.40729 
93 1 0.0833333 0.65 0.117711 -4.44828 
94 1 0.0833333 0.75 0.117651 -4.4332 
107 1 0.0666667 0.8 0.0592877 -4.40944 
98 1 0.116667 0.65 0.0590156 -4.40829 
108 1 0.1 0.8 0.000111099 -3.90461 
109 1 0.116667 0.75 0.059012 -4.40744 
111 1 0.1 0.7 0.00010165 -3.90452 
112 1 0.15 0.65 -5.79178e-05 -3.90403 
113 1 0.15 0.75 -5.14978e-05 -3.90396 
226 1 0.133333 0.7 0.117587 -4.44842 
232 1 0.183333 0.65 0.117513 -4.44851 
245 1 0.133333 0.8 0.117594 -4.44847 
246 1 0.166667 0.8 0.0588903 -4.40841 
247 1 0.183333 0.75 0.117512 -4.44856 
249 1 0.166667 0.7 0.0589003 -4.40837 
250 1 0.2 0.7 -0.00012359 -3.90404 
251 1 0.216667 0.65 0.0588571 -4.40829 
252 1 0.216667 0.75 0.0588559 -4.40829 
255 1 0.25 0.65 -0.000130051 -3.90417 
261 1 0.2 0.8 -0.000124806 -3.90405 
262 1 0.25 0.75 -0.000133246 -3.90416 
415 1 0.233333 0.8 0.11749 -4.44847 
418 1 0.233333 0.7 0.117488 -4.44846 
419 1 0.266667 0.7 0.0588545 -4.40828 
420 1 0.283333 0.65 0.117493 -4.44847 
421 1 0.283333 0.75 0.117492 -4.44847 
434 1 0.266667 0.8 0.058853 -4.4083 
425 1 0.316667 0.65 0.0588565 -4.40831 
435 1 0.3 0.8 -0.000129905 -3.90422 
436 1 0.316667 0.75 0.0588565 -4.40831 
438 1 0.3 0.7 -0.000129595 -3.90422 
439 1 0.35 0.65 -0.000129341 -3.90422 
440 1 0.35 0.75 -0.000129375 -3.90422 
586 1 0.333333 0.7 0.117494 -4.44848 
592 1 0.383333 0.65 0.117494 -4.44848 
605 1 0.333333 0.8 0.117494 -4.44848 
606 1 0.366667 0.8 0.0588567 -4.40831 
607 1 0.383333 0.75 0.117494 -4.44848 
609 1 0.366667 0.7 0.0588567 -4.40831 
610 1 0.4 0.7 -0.000129341 -3.90422 
611 1 0.416667 0.65 0.0588566 -4.40831 
612 1 0.416667 0.75 0.0588566 -4.40831 
615 1 0.45 0.65 -0.000129816 -3.90421 
621 1 0.4 0.8 -0.000129342 -3.90422 
622 1 0.45 0.75 -0.000129791 -3.90421 
775 1 0.433333 0.8 0.117494 -4.44848 
778 1 0.433333 0.7 0.117494 -4.44848 
779 1 0.466667 0.7 0.0588558 -4.40832 
780 1 0.483333 0.65 0.117495 -4.44849 
781 1 0.483333 0.75 0.117493 -4.44849 
794 1 0.466667 0.8 0.0588558 -4.40832 
785 1 0.516667 0.65 0.0588608 -4.40833 
795 1 0.5 0.8 -0.000129968 -3.90414 
796 1 0.516667 0.75 0.058857 -4.40833 
798 1 0.5 0.7 -0.000129968 -3.90414 
799 1 0.55 0.65 -0.000108806 -3.90416 
800 1 0.55 0.75 -0.000117145 -3.90414 
946 1 0.533333 0.7 0.117501 -4.44846 
952 1 0.583333 0.65 0.117537 -4.4486 
965 1 0.533333 0.8 0.117501 -4.44846 
966 1 0.566667 0.8 0.0588909 -4.40829 
967 1 0.583333 0.75 0.117527 -4.44858 
969 1 0.566667 0.7 0.0588909 -4.40829 
970 1 0.6 0.7 -5.43477e-05 -3.90417 
971 1 0.616667 0.65 0.0589366 -4.4089 
972 1 0.616667 0.75 0.0589239 -4.40878 
975 1 0.65 0.65 2.35633e-05 -3.89023 
981 1 0.6 0.8 -5.43472e-05 -3.90417 
982 1 0.65 0.75 -1.36696e-05 -3.90484 
1131 1 0.633333 0.8 0.117571 -4.44813 
1134 1 0.633333 0.7 0.117571 -4.44813 
1135 1 0.666667 0.7 0.0589846 -4.39285 
1136 1 0.683333 0.65 0.117457 -4.44975 
1137 1 0.683333 0.75 0.117553 -4.44825 
1148 1 0.666667 0.8 0.0589847 -4.39285 
1141 1 0.716667 0.65 0.058414 -4.28248 
1149 1 0.7 0.8 0.000363082 -3.72366 
1150 1 0.716667 0.75 0.0590586 -4.35212 
1152 1 0.7 0.7 0.000363066 -3.72366 
1153 1 0.75 0.75 0.000738848 -3.57851 
1297 1 0.733333 0.7 0.117545 -4.43833 
1303 1 0.783333 0.65 0.117357 -4.43912 
1316 1 0.733333 0.8 0.117546 -4.43834 
1317 1 0.766667 0.8 0.0585274 -4.27969 
1318 1 0.783333 0.75 0.117356 -4.44994 
1320 1 0.766667 0.7 0.0585245 -4.27966 
1321 1 0.8 0.7 0.000413252 -3.72411 
1322 1 0.816667 0.65 0.0590667 -4.365 
1323 1 0.816667 0.75 0.0590997 -4.37756 
1326 1 0.85 0.65 -3.37251e-05 -3.88996 
1332 1 0.8 0.8 0.000415676 -3.72413 
1333 1 0.85 0.75 5.1096e-05 -3.9048 
1486 1 0.833333 0.8 0.117611 -4.44711 
1489 1 0.833333 0.7 0.117603 -4.44708 
1490 1 0.866667 0.7 0.058975 -4.40884 
1491 1 0.883333 0.65 0.117579 -4.4489 
1492 1 0.883333 0.75 0.117647 -4.44866 
1505 1 0.866667 0.8 0.0589849 -4.40891 
1496 1 0.916667 0.65 0.0591138 -4.40712 
1506 1 0.9 0.8 0.000148253 -3.90434 
1507 1 0.916667 0.75 0.0591875 -4.40737 
1509 1 0.9 0.7 0.000146033 -3.90443 
1510 1 0.95 0.65 0.00026296 -3.90491 
1511 1 0.95 0.75 0.000296879 -3.9042 
1646 1 0.933333 0.7 0.117705 -4.43311 
1652 1 0.983333 0.65 0.117783 -4.43339 
1659 1 0.933333 0.8 0.117827 -4.42305 
1660 1 0.966667 0.8 0.0593259 -4.39902 
1661 1 0.983333 0.75 0.118684 -4.35936 
1663 1 0.966667 0.7 0.0593702 -4.40941 
24 1 0 0.9 0.000285466 -3.90414 
25 1 0.0166667 0.85 0.0593205 -4.39894 
26 1 0.0166667 0.95 0.059193 -4.40731 
29 1 0.05 0.85 0.000264836 -3.90403 
30 1 0.05 0.95 0.000168222 -3.9046 
103 1 0.0333333 0.9 0.117814 -4.42306 
104 1 0.0666667 0.9 0.0591383 -4.40755 
105 1 0.0833333 0.85 0.117668 -4.43372 
106 1 0.0833333 0.95 0.117643 -4.44814 
110 1 0.116667 0.85 0.0589792 -4.40769 
114 1 0.116667 0.95 0.0589774 -4.40829 
115 1 0.1 0.9 4.51502e-05 -3.90424 
116 1 0.15 0.85 -7.34311e-05 -3.90388 
117 1 0.15 0.95 -7.41875e-05 -3.90403 
242 1 0.133333 0.9 0.117574 -4.44853 
248 1 0.183333 0.85 0.117503 -4.4485 
256 1 0.183333 0.95 0.117507 -4.44854 
257 1 0.166667 0.9 0.0588878 -4.4084 
258 1 0.2 0.9 -0.00012824 -3.90407 
259 1 0.216667 0.85 0.0588566 -4.40829 
260 1 0.216667 0.95 0.0588554 -4.40828 
263 1 0.25 0.85 -0.000132575 -3.90417 
264 1 0.25 0.95 -0.000130006 -3.90418 
430 1 0.233333 0.9 0.11749 -4.44847 
431 1 0.266667 0.9 0.0588549 -4.4083 
432 1 0.283333 0.85 0.117492 -4.44847 
433 1 0.283333 0.95 0.117494 -4.44848 
437 1 0.316667 0.85 0.0588566 -4.40831 
441 1 0.316667 0.95 0.0588566 -4.40831 
442 1 0.3 0.9 -0.000129552 -3.90422 
443 1 0.35 0.85 -0.000129365 -3.90422 
444 1 0.35 0.95 -0.000129336 -3.90422 
602 1 0.333333 0.9 0.117494 -4.44848 
608 1 0.383333 0.85 0.117494 -4.44848 
616 1 0.383333 0.95 0.117494 -4.44848 
617 1 0.366667 0.9 0.0588567 -4.40831 
618 1 0.4 0.9 -0.000129336 -3.90422 
619 1 0.416667 0.85 0.0588566 -4.40831 
620 1 0.416667 0.95 0.0588567 -4.40831 
623 1 0.45 0.85 -0.000129817 -3.90421 
624 1 0.45 0.95 -0.000129853 -3.9042 
790 1 0.433333 0.9 0.117494 -4.44848 
791 1 0.466667 0.9 0.0588557 -4.40833 
792 1 0.483333 0.85 0.117495 -4.44849 
793 1 0.483333 0.95 0.117496 -4.4485 
797 1 0.516667 0.85 0.0588608 -4.40833 
801 1 0.516667 0.95 0.0588651 -4.40834 
802 1 0.5 0.9 -0.000128968 -3.90413 
803 1 0.55 0.85 -0.000108806 -3.90416 
804 1 0.55 0.95 -9.65443e-05 -3.9042 
962 1 0.533333 0.9 0.117506 -4.44846 
968 1 0.583333 0.85 0.117537 -4.4486 
976 1 0.583333 0.95 0.117553 -4.44866 
977 1 0.566667 0.9 0.0589021 -4.4083 
978 1 0.6 0.9 -3.6559e-05 -3.90418 
979 1 0.616667 0.85 0.0589366 -4.4089 
980 1 0.616667 0.95 0.0589501 -4.40912 
983 1 0.65 0.85 2.35725e-05 -3.89023 
984 1 0.65 0.95 4.17395e-05 -3.89072 
1144 1 0.633333 0.9 0.117582 -4.4474 
1145 1 0.666667 0.9 0.0590925 -4.37652 
1146 1 0.683333 0.85 0.117457 -4.44975 
1147 1 0.683333 0.95 0.117473 -4.44887 
1151 1 0.716667 0.85 0.058414 -4.28248 
1154 1 0.716667 0.95 0.0585368 -4.25319 
1155 1 0.7 0.9 0.000745769 -3.56283 
1313 1 0.733333 0.9 0.117456 -4.42854 
1319 1 0.783333 0.85 0.117359 -4.4391 
1327 1 0.783333 0.95 0.117138 -4.4412 
1328 1 0.766667 0.9 0.0575257 -4.1944 
1329 1 0.8 0.9 0.000684991 -3.56104 
1330 1 0.816667 0.85 0.0590749 -4.36496 
1331 1 0.816667 0.95 0.0591279 -4.3488 
1334 1 0.85 0.85 -6.16194e-06 -3.89011 
1335 1 0.85 0.95 -0.000116367 -3.89032 
1501 1 0.833333 0.9 0.117576 -4.44719 
1502 1 0.866667 0.9 0.0588782 -4.40908 
1503 1 0.883333 0.85 0.117599 -4.44885 
1504 1 0.883333 0.95 0.117516 -4.44915 
1508 1 0.916667 0.85 0.0591446 -4.4075 
1512 1 0.916667 0.95 0.0590494 -4.40729 
1513 1 0.9 0.9 6.13249e-05 -3.90402 
1514 1 0.95 0.85 0.000263196 -3.90409 
1515 1 0.95 0.95 0.000176426 -3.90488 
1656 1 0.933333 0.9 0.117684 -4.43326 
1662 1 0.983333 0.85 0.118634 -4.35925 
1664 1 0.983333 0.95 0.117688 -4.43338 
1665 1 0.966667 0.9 0.0592998 -4.40941 
31 1 0 0.1 0.176347 -4.44914 
32 1 0.0166667 0.05 0.234914 -4.44076 
33 1 0.0166667 0.15 0.235008 -4.42542 
34 1 0 0 0.176263 -4.45073 
36 1 0.05 0.05 0.176289 -4.44904 
39 1 0 0.2 0.176349 -4.35326 
41 1 0.05 0.15 0.176315 -4.43663 
131 1 0.0666667 0.1 0.234888 -4.45061 
134 1 0.0666667 0 0.234753 -4.44903 
148 1 0.0666667 0.2 0.234818 -4.43346 
135 1 0.1 0 0.176175 -4.44954 
136 1 0.116667 0.05 0.234699 -4.44868 
149 1 0.1 0.2 0.176131 -4.45083 
150 1 0.116667 0.15 0.234671 -4.44877 
152 1 0.1 0.1 0.176176 -4.44979 
154 1 0.15 0.05 0.176103 -4.44964 
155 1 0.15 0.15 0.176107 -4.44956 
288 1 0.166667 0 0.234668 -4.44944 
304 1 0.166667 0.2 0.234655 -4.44943 
307 1 0.166667 0.1 0.234668 -4.44947 
308 1 0.2 0.1 0.176074 -4.44975 
309 1 0.216667 0.05 0.234647 -4.44945 
310 1 0.216667 0.15 0.234646 -4.44944 
311 1 0.2 0 0.176068 -4.44975 
313 1 0.25 0.05 0.176064 -4.4497 
335 1 0.2 0.2 0.176066 -4.44979 
337 1 0.25 0.15 0.176063 -4.4497 
475 1 0.266667 0.1 0.234643 -4.44941 
478 1 0.266667 0 0.234644 -4.44942 
498 1 0.266667 0.2 0.234644 -4.44943 
479 1 0.3 0 0.176065 -4.4497 
480 1 0.316667 0.05 0.234647 -4.44942 
499 1 0.3 0.2 0.176065 -4.4497 
500 1 0.316667 0.15 0.234647 -4.44941 
502 1 0.3 0.1 0.176065 -4.44969 
504 1 0.35 0.05 0.176066 -4.4497 
505 1 0.35 0.15 0.176066 -4.4497 
648 1 0.366667 0 0.234647 -4.44942 
664 1 0.366667 0.2 0.234647 -4.44942 
667 1 0.366667 0.1 0.234647 -4.44942 
668 1 0.4 0.1 0.176066 -4.4497 
669 1 0.416667 0.05 0.234647 -4.44942 
670 1 0.416667 0.15 0.234647 -4.44942 
671 1 0.4 0 0.176066 -4.4497 
673 1 0.45 0.05 0.176065 -4.44971 
695 1 0.4 0.2 0.176066 -4.4497 
697 1 0.45 0.15 0.176065 -4.44971 
835 1 0.466667 0.1 0.234647 -4.44944 
838 1 0.466667 0 0.234647 -4.44944 
858 1 0.466667 0.2 0.234647 -4.44944 
839 1 0.5 0 0.176068 -4.44973 
840 1 0.516667 0.05 0.234652 -4.44942 
859 1 0.5 0.2 0.176067 -4.44973 
860 1 0.516667 0.15 0.234651 -4.44943 
862 1 0.5 0.1 0.176068 -4.44973 
864 1 0.55 0.05 0.176094 -4.44969 
865 1 0.55 0.15 0.176093 -4.44971 
1008 1 0.566667 0 0.234668 -4.44935 
1024 1 0.566667 0.2 0.234671 -4.44933 
1027 1 0.566667 0.1 0.234673 -4.44931 
1028 1 0.6 0.1 0.176144 -4.44938 
1029 1 0.616667 0.05 0.234692 -4.44949 
1030 1 0.616667 0.15 0.234702 -4.44941 
1031 1 0.6 0 0.176125 -4.44944 
1033 1 0.65 0.05 0.176103 -4.45015 
1055 1 0.6 0.2 0.17614 -4.44942 
1057 1 0.65 0.15 0.17613 -4.45007 
1186 1 0.666667 0.1 0.234684 -4.44927 
1189 1 0.666667 0 0.23468 -4.44908 
1209 1 0.666667 0.2 0.234693 -4.4492 
1190 1 0.7 0 0.176081 -4.44925 
1191 1 0.716667 0.05 0.234632 -4.44905 
1210 1 0.7 0.2 0.176088 -4.44926 
1211 1 0.716667 0.15 0.234641 -4.44915 
1213 1 0.7 0.1 0.176071 -4.44929 
1215 1 0.75 0.05 0.175993 -4.44741 
1216 1 0.75 0.15 0.176009 -4.44742 
1359 1 0.766667 0 0.234574 -4.44955 
1375 1 0.766667 0.2 0.234595 -4.44945 
1378 1 0.766667 0.1 0.234581 -4.44947 
1379 1 0.8 0.1 0.175901 -4.45031 
1380 1 0.816667 0.05 0.234577 -4.44962 
1381 1 0.816667 0.15 0.23459 -4.44965 
1382 1 0.8 0 0.175903 -4.4504 
1384 1 0.85 0.05 0.176091 -4.44928 
1406 1 0.8 0.2 0.175924 -4.45033 
1408 1 0.85 0.15 0.176106 -4.44909 
1546 1 0.866667 0.1 0.234644 -4.44909 
1549 1 0.866667 0 0.234645 -4.44906 
1569 1 0.866667 0.2 0.234663 -4.44913 
1550 1 0.9 0 0.176094 -4.44964 
1551 1 0.916667 0.05 0.234712 -4.44919 
1570 1 0.9 0.2 0.176168 -4.45095 
1571 1 0.916667 0.15 0.234741 -4.4491 
1573 1 0.9 0.1 0.176107 -4.44977 
1575 1 0.95 0.05 0.176287 -4.44882 
1576 1 0.95 0.15 0.176298 -4.43668 
1689 1 0.966667 0 0.23488 -4.44988 
1705 1 0.966667 0.2 0.234936 -4.42498 
1708 1 0.966667 0.1 0.234926 -4.4404 
37 1 0.0166667 0.25 0.234006 -4.34399 
38 1 0.0166667 0.35 0.232659 -4.26909 
42 1 0.05 0.25 0.176319 -4.33889 
54 1 0.05 0.35 0.176252 -4.2429 
145 1 0.0666667 0.3 0.234798 -4.40908 
169 1 0.0666667 0.4 0.234789 -4.40905 
151 1 0.116667 0.25 0.234637 -4.44976 
170 1 0.1 0.4 0.176107 -4.43849 
171 1 0.116667 0.35 0.234618 -4.44993 
173 1 0.1 0.3 0.176106 -4.4384 
175 1 0.15 0.25 0.176073 -4.44941 
176 1 0.15 0.35 0.17603 -4.44927 
328 1 0.166667 0.4 0.234605 -4.44939 
331 1 0.166667 0.3 0.234607 -4.44941 
332 1 0.2 0.3 0.176064 -4.44977 
333 1 0.216667 0.25 0.23464 -4.4494 
334 1 0.216667 0.35 0.234643 -4.4494 
338 1 0.25 0.25 0.176059 -4.44973 
366 1 0.2 0.4 0.176062 -4.44976 
368 1 0.25 0.35 0.176056 -4.44977 
495 1 0.266667 0.3 0.234643 -4.44947 
526 1 0.266667 0.4 0.234642 -4.44947 
501 1 0.316667 0.25 0.234647 -4.44941 
527 1 0.3 0.4 0.176066 -4.44969 
528 1 0.316667 0.35 0.234647 -4.44941 
530 1 0.3 0.3 0.176066 -4.44969 
532 1 0.35 0.25 0.176066 -4.4497 
533 1 0.35 0.35 0.176066 -4.44971 
688 1 0.366667 0.4 0.234647 -4.44942 
691 1 0.366667 0.3 0.234647 -4.44942 
692 1 0.4 0.3 0.176066 -4.4497 
693 1 0.416667 0.25 0.234647 -4.44942 
694 1 0.416667 0.35 0.234647 -4.44942 
698 1 0.45 0.25 0.176065 -4.44971 
726 1 0.4 0.4 0.176066 -4.4497 
728 1 0.45 0.35 0.176065 -4.44971 
855 1 0.466667 0.3 0.234647 -4.44944 
886 1 0.466667 0.4 0.234647 -4.44944 
861 1 0.516667 0.25 0.234651 -4.44942 
887 1 0.5 0.4 0.176068 -4.44973 
888 1 0.516667 0.35 0.234651 -4.44943 
890 1 0.5 0.3 0.176067 -4.44973 
892 1 0.55 0.25 0.176093 -4.4497 
893 1 0.55 0.35 0.176093 -4.44971 
1048 1 0.566667 0.4 0.234673 -4.44931 
1051 1 0.566667 0.3 0.234671 -4.44933 
1052 1 0.6 0.3 0.17614 -4.44942 
1053 1 0.616667 0.25 0.234699 -4.44943 
1054 1 0.616667 0.35 0.234702 -4.4494 
1058 1 0.65 0.25 0.176127 -4.45011 
1086 1 0.6 0.4 0.176143 -4.44938 
1088 1 0.65 0.35 0.176129 -4.45008 
1206 1 0.666667 0.3 0.234693 -4.4492 
1237 1 0.666667 0.4 0.234683 -4.44927 
1212 1 0.716667 0.25 0.234646 -4.44913 
1238 1 0.7 0.4 0.176071 -4.4493 
1239 1 0.716667 0.35 0.234642 -4.44915 
1241 1 0.7 0.3 0.176088 -4.44925 
1243 1 0.75 0.25 0.176016 -4.44743 
1244 1 0.75 0.35 0.176014 -4.44745 
1399 1 0.766667 0.4 0.234582 -4.44951 
1402 1 0.766667 0.3 0.234595 -4.44948 
1403 1 0.8 0.3 0.175925 -4.45033 
1404 1 0.816667 0.25 0.234595 -4.4496 
1405 1 0.816667 0.35 0.234588 -4.44958 
1409 1 0.85 0.25 0.17613 -4.4489 
1437 1 0.8 0.4 0.175907 -4.45034 
1439 1 0.85 0.35 0.176141 -4.44893 
1566 1 0.866667 0.3 0.234681 -4.4491 
1597 1 0.866667 0.4 0.234662 -4.44908 
1572 1 0.916667 0.25 0.234829 -4.43396 
1598 1 0.9 0.4 0.176216 -4.43848 
1599 1 0.916667 0.35 0.234927 -4.41916 