ITEM: TIMESTEP
17
ITEM: NUMBER OF ATOMS
3584
ITEM: BOX BOUNDS pp pp ss
0.0000000000000000e+00 4.3111019472983898e+01
0.0000000000000000e+00 2.4890158697766498e+01
-3.6580800000000006e-03 3.4552298188307212e+01
ITEM: ATOMS id type xs ys zs c_peratom 
1 1 0 0.1 -0.000940781 -3.90361 
2 1 0.0166667 0.05 0.0580698 -4.40863 
3 1 0.0166667 0.15 0.0581121 -4.40801 
4 1 0 0 -0.000951325 -3.90352 
5 1 0.05 0.05 -0.000995752 -3.90356 
9 1 0 0.2 -0.000747109 -3.90351 
10 1 0.05 0.15 -0.000980349 -3.90327 
35 1 0.0333333 0 0.11684 -4.44982 
40 1 0.0333333 0.2 0.116905 -4.42449 
43 1 0.0333333 0.1 0.116886 -4.44964 
44 1 0.0666667 0.1 0.0580224 -4.40871 
45 1 0.0833333 0.05 0.116749 -4.44927 
46 1 0.0833333 0.15 0.116757 -4.44974 
47 1 0.0666667 0 0.0579676 -4.40844 
60 1 0.0666667 0.2 0.0580093 -4.40781 
48 1 0.1 0 -0.00107202 -3.90345 
49 1 0.116667 0.05 0.0579239 -4.40812 
61 1 0.1 0.2 -0.00105836 -3.9033 
62 1 0.116667 0.15 0.0579023 -4.40818 
64 1 0.1 0.1 -0.00107036 -3.90362 
65 1 0.15 0.05 -0.00113436 -3.90368 
66 1 0.15 0.15 -0.00114115 -3.90357 
153 1 0.133333 0.1 0.11664 -4.44909 
156 1 0.133333 0 0.116646 -4.4491 
157 1 0.166667 0 0.0578463 -4.40796 
158 1 0.183333 0.05 0.116567 -4.44907 
177 1 0.133333 0.2 0.11664 -4.44935 
178 1 0.166667 0.2 0.0578293 -4.4081 
179 1 0.183333 0.15 0.116563 -4.44911 
181 1 0.166667 0.1 0.0578268 -4.40793 
182 1 0.2 0.1 -0.00120489 -3.90359 
183 1 0.216667 0.05 0.057775 -4.408 
184 1 0.216667 0.15 0.0577679 -4.408 
185 1 0.2 0 -0.00119528 -3.90365 
186 1 0.25 0.05 -0.00125448 -3.90355 
213 1 0.2 0.2 -0.00121446 -3.90359 
214 1 0.25 0.15 -0.00125658 -3.90356 
312 1 0.233333 0 0.116525 -4.44917 
336 1 0.233333 0.2 0.11651 -4.44915 
339 1 0.233333 0.1 0.116519 -4.44917 
340 1 0.266667 0.1 0.0577351 -4.40804 
341 1 0.283333 0.05 0.116496 -4.44919 
342 1 0.283333 0.15 0.116497 -4.44918 
343 1 0.266667 0 0.0577357 -4.40804 
374 1 0.266667 0.2 0.057732 -4.40801 
344 1 0.3 0 -0.00127531 -3.90356 
345 1 0.316667 0.05 0.057723 -4.40802 
375 1 0.3 0.2 -0.00127598 -3.90357 
376 1 0.316667 0.15 0.0577229 -4.40803 
378 1 0.3 0.1 -0.00127438 -3.90357 
379 1 0.35 0.05 -0.00127666 -3.9036 
380 1 0.35 0.15 -0.00127701 -3.9036 
503 1 0.333333 0.1 0.116492 -4.44918 
506 1 0.333333 0 0.11649 -4.44917 
507 1 0.366667 0 0.057723 -4.40803 
508 1 0.383333 0.05 0.116494 -4.44918 
534 1 0.333333 0.2 0.11649 -4.44918 
535 1 0.366667 0.2 0.0577229 -4.40803 
536 1 0.383333 0.15 0.116494 -4.44918 
538 1 0.366667 0.1 0.0577235 -4.40803 
539 1 0.4 0.1 -0.00127451 -3.90357 
540 1 0.416667 0.05 0.0577294 -4.40805 
541 1 0.416667 0.15 0.0577296 -4.40805 
542 1 0.4 0 -0.00127466 -3.90358 
543 1 0.45 0.05 -0.00125693 -3.90359 
573 1 0.4 0.2 -0.00127455 -3.90357 
574 1 0.45 0.15 -0.00125599 -3.90358 
672 1 0.433333 0 0.116505 -4.44917 
696 1 0.433333 0.2 0.116507 -4.44917 
699 1 0.433333 0.1 0.116506 -4.44917 
700 1 0.466667 0.1 0.0577575 -4.408 
701 1 0.483333 0.05 0.116532 -4.44915 
702 1 0.483333 0.15 0.116537 -4.44915 
703 1 0.466667 0 0.0577535 -4.408 
734 1 0.466667 0.2 0.0577586 -4.40801 
704 1 0.5 0 -0.00122029 -3.90373 
705 1 0.516667 0.05 0.0577828 -4.40797 
735 1 0.5 0.2 -0.00120806 -3.90377 
736 1 0.516667 0.15 0.057792 -4.40797 
738 1 0.5 0.1 -0.00121154 -3.90377 
739 1 0.55 0.05 -0.0012222 -3.90358 
740 1 0.55 0.15 -0.00120914 -3.90365 
863 1 0.533333 0.1 0.11655 -4.4492 
866 1 0.533333 0 0.116543 -4.44922 
867 1 0.566667 0 0.0577688 -4.40828 
868 1 0.583333 0.05 0.116539 -4.44943 
894 1 0.533333 0.2 0.116559 -4.44921 
895 1 0.566667 0.2 0.0577837 -4.40825 
896 1 0.583333 0.15 0.116546 -4.44941 
898 1 0.566667 0.1 0.0577721 -4.40826 
899 1 0.6 0.1 -0.00123826 -3.90313 
900 1 0.616667 0.05 0.0578047 -4.40887 
901 1 0.616667 0.15 0.0578021 -4.40887 
902 1 0.6 0 -0.00123095 -3.9032 
903 1 0.65 0.05 -0.00100108 -3.89034 
933 1 0.6 0.2 -0.00122741 -3.90318 
934 1 0.65 0.15 -0.00101152 -3.89026 
1032 1 0.633333 0 0.116592 -4.44842 
1056 1 0.633333 0.2 0.116584 -4.44845 
1059 1 0.633333 0.1 0.116581 -4.44847 
1060 1 0.666667 0.1 0.058019 -4.37605 
1061 1 0.683333 0.05 0.116506 -4.4492 
1062 1 0.683333 0.15 0.116496 -4.4492 
1063 1 0.666667 0 0.058025 -4.37609 
1094 1 0.666667 0.2 0.0580136 -4.37603 
1064 1 0.7 0 -0.000295667 -3.54867 
1065 1 0.716667 0.05 0.0574862 -4.25277 
1095 1 0.7 0.2 -0.000298661 -3.54837 
1096 1 0.716667 0.15 0.0574805 -4.25273 
1098 1 0.7 0.1 -0.000288486 -3.54847 
1214 1 0.733333 0.1 0.116368 -4.42757 
1217 1 0.733333 0 0.116359 -4.42738 
1218 1 0.766667 0 0.0564041 -4.17745 
1219 1 0.783333 0.05 0.116101 -4.4404 
1245 1 0.733333 0.2 0.116358 -4.42754 
1246 1 0.766667 0.2 0.0564062 -4.17771 
1247 1 0.783333 0.15 0.116098 -4.44063 
1249 1 0.766667 0.1 0.0564097 -4.17777 
1250 1 0.8 0.1 -0.000403845 -3.54582 
1251 1 0.816667 0.05 0.0581225 -4.3484 
1252 1 0.816667 0.15 0.0581161 -4.34846 
1253 1 0.8 0 -0.00041777 -3.54604 
1254 1 0.85 0.05 -0.000916681 -3.8913 
1284 1 0.8 0.2 -0.000405538 -3.54575 
1285 1 0.85 0.15 -0.000934428 -3.89115 
1383 1 0.833333 0 0.116667 -4.44658 
1407 1 0.833333 0.2 0.11667 -4.44661 
1410 1 0.833333 0.1 0.116679 -4.44655 
1411 1 0.866667 0.1 0.0579294 -4.40891 
1412 1 0.883333 0.05 0.116678 -4.44987 
1413 1 0.883333 0.15 0.116657 -4.45003 
1414 1 0.866667 0 0.0579222 -4.4088 
1445 1 0.866667 0.2 0.0579094 -4.40913 
1415 1 0.9 0 -0.00109832 -3.90298 
1416 1 0.916667 0.05 0.0579003 -4.40829 
1446 1 0.9 0.2 -0.00114105 -3.90234 
1447 1 0.916667 0.15 0.057875 -4.40737 
1449 1 0.9 0.1 -0.00112094 -3.9028 
1450 1 0.95 0.05 -0.00104307 -3.90309 
1451 1 0.95 0.15 -0.000983215 -3.90336 
1574 1 0.933333 0.1 0.116701 -4.44952 
1577 1 0.933333 0 0.116707 -4.44927 
1578 1 0.966667 0 0.0580155 -4.40731 
1579 1 0.983333 0.05 0.11684 -4.44946 
1605 1 0.933333 0.2 0.116638 -4.43447 
1606 1 0.966667 0.2 0.0582507 -4.40772 
1607 1 0.983333 0.15 0.116797 -4.4346 
1609 1 0.966667 0.1 0.0580147 -4.40745 
6 1 0 0.3 -0.000146509 -3.90382 
7 1 0.0166667 0.25 0.0584412 -4.39738 
8 1 0.0166667 0.35 0.0589143 -4.38833 
11 1 0.05 0.25 -0.000772398 -3.90329 
15 1 0 0.4 -0.000131732 -3.90386 
16 1 0.05 0.35 -0.000480546 -3.90447 
53 1 0.0333333 0.4 0.117718 -4.33097 
56 1 0.0333333 0.3 0.117701 -4.331 
57 1 0.0666667 0.3 0.0582463 -4.40728 
58 1 0.0833333 0.25 0.116662 -4.43477 
59 1 0.0833333 0.35 0.116551 -4.41879 
78 1 0.0666667 0.4 0.0582501 -4.40723 
63 1 0.116667 0.25 0.0578981 -4.40734 
79 1 0.1 0.4 -0.00098333 -3.90365 
80 1 0.116667 0.35 0.0578962 -4.40616 
82 1 0.1 0.3 -0.000997231 -3.90371 
83 1 0.15 0.25 -0.00114108 -3.90348 
84 1 0.15 0.35 -0.00114825 -3.90332 
174 1 0.133333 0.3 0.116608 -4.44935 
180 1 0.183333 0.25 0.116572 -4.44922 
205 1 0.133333 0.4 0.116623 -4.44942 
206 1 0.166667 0.4 0.0578293 -4.40817 
207 1 0.183333 0.35 0.116566 -4.44926 
209 1 0.166667 0.3 0.0578265 -4.40813 
210 1 0.2 0.3 -0.00120924 -3.90359 
211 1 0.216667 0.25 0.0577658 -4.40804 
212 1 0.216667 0.35 0.0577633 -4.40804 
215 1 0.25 0.25 -0.00126069 -3.90355 
237 1 0.2 0.4 -0.00121635 -3.90358 
238 1 0.25 0.35 -0.00126295 -3.90354 
367 1 0.233333 0.4 0.11651 -4.44917 
370 1 0.233333 0.3 0.116515 -4.44919 
371 1 0.266667 0.3 0.0577285 -4.40801 
372 1 0.283333 0.25 0.116492 -4.44917 
373 1 0.283333 0.35 0.116486 -4.44917 
402 1 0.266667 0.4 0.0577272 -4.40801 
377 1 0.316667 0.25 0.0577206 -4.40803 
403 1 0.3 0.4 -0.00128015 -3.90357 
404 1 0.316667 0.35 0.0577184 -4.40802 
406 1 0.3 0.3 -0.00127987 -3.90357 
407 1 0.35 0.25 -0.0012782 -3.9036 
408 1 0.35 0.35 -0.00127865 -3.9036 
531 1 0.333333 0.3 0.11649 -4.44917 
537 1 0.383333 0.25 0.116494 -4.44919 
565 1 0.333333 0.4 0.116489 -4.44917 
566 1 0.366667 0.4 0.0577221 -4.40803 
567 1 0.383333 0.35 0.116493 -4.44919 
569 1 0.366667 0.3 0.0577223 -4.40804 
570 1 0.4 0.3 -0.0012747 -3.90357 
571 1 0.416667 0.25 0.0577297 -4.40805 
572 1 0.416667 0.35 0.0577296 -4.40805 
575 1 0.45 0.25 -0.00125596 -3.90357 
597 1 0.4 0.4 -0.00127476 -3.90357 
598 1 0.45 0.35 -0.00125599 -3.90358 
727 1 0.433333 0.4 0.116506 -4.44917 
730 1 0.433333 0.3 0.116507 -4.44917 
731 1 0.466667 0.3 0.0577586 -4.40801 
732 1 0.483333 0.25 0.116538 -4.44915 
733 1 0.483333 0.35 0.116537 -4.44915 
762 1 0.466667 0.4 0.0577575 -4.408 
737 1 0.516667 0.25 0.0577951 -4.40798 
763 1 0.5 0.4 -0.00121157 -3.90377 
764 1 0.516667 0.35 0.057792 -4.40797 
766 1 0.5 0.3 -0.00120807 -3.90377 
767 1 0.55 0.25 -0.00120324 -3.90368 
768 1 0.55 0.35 -0.00120921 -3.90365 
891 1 0.533333 0.3 0.116559 -4.44921 
897 1 0.583333 0.25 0.11655 -4.44941 
925 1 0.533333 0.4 0.11655 -4.4492 
926 1 0.566667 0.4 0.057772 -4.40826 
927 1 0.583333 0.35 0.116545 -4.44941 
929 1 0.566667 0.3 0.0577836 -4.40825 
930 1 0.6 0.3 -0.00122756 -3.90318 
931 1 0.616667 0.25 0.0578073 -4.40885 
932 1 0.616667 0.35 0.0578021 -4.40887 
935 1 0.65 0.25 -0.00100766 -3.89027 
957 1 0.6 0.4 -0.00123861 -3.90313 
958 1 0.65 0.35 -0.00101064 -3.89026 
1087 1 0.633333 0.4 0.116582 -4.44847 
1090 1 0.633333 0.3 0.116584 -4.44845 
1091 1 0.666667 0.3 0.058014 -4.37603 
1092 1 0.683333 0.25 0.116491 -4.44921 
1093 1 0.683333 0.35 0.116497 -4.44922 
1120 1 0.666667 0.4 0.0580198 -4.37604 
1097 1 0.716667 0.25 0.0574726 -4.25271 
1121 1 0.7 0.4 -0.000287013 -3.54843 
1122 1 0.716667 0.35 0.0574827 -4.25275 
1124 1 0.7 0.3 -0.000297937 -3.54834 
1242 1 0.733333 0.3 0.116362 -4.42753 
1248 1 0.783333 0.25 0.116103 -4.4406 
1276 1 0.733333 0.4 0.116373 -4.42753 
1277 1 0.766667 0.4 0.0564371 -4.17774 
1278 1 0.783333 0.35 0.116116 -4.44057 
1280 1 0.766667 0.3 0.0564198 -4.1777 
1281 1 0.8 0.3 -0.00039436 -3.54582 
1282 1 0.816667 0.25 0.0581174 -4.34846 
1283 1 0.816667 0.35 0.0581301 -4.34852 
1286 1 0.85 0.25 -0.000947951 -3.89092 
1308 1 0.8 0.4 -0.000375241 -3.54597 
1309 1 0.85 0.35 -0.000951942 -3.89077 
1438 1 0.833333 0.4 0.116699 -4.44676 
1441 1 0.833333 0.3 0.116677 -4.44678 
1442 1 0.866667 0.3 0.0579003 -4.40964 
1443 1 0.883333 0.25 0.116663 -4.4504 
1444 1 0.883333 0.35 0.11671 -4.45076 
1473 1 0.866667 0.4 0.0579228 -4.40963 
1448 1 0.916667 0.25 0.0579468 -4.40633 
1474 1 0.9 0.4 -0.00110494 -3.90212 
1475 1 0.916667 0.35 0.0580472 -4.40687 
1477 1 0.9 0.3 -0.00112238 -3.90207 
1478 1 0.95 0.25 -0.000668869 -3.90416 
1479 1 0.95 0.35 -0.000388652 -3.90421 
1602 1 0.933333 0.3 0.116804 -4.40874 
1608 1 0.983333 0.25 0.117705 -4.34293 
1631 1 0.933333 0.4 0.116822 -4.40874 
1632 1 0.966667 0.4 0.0588301 -4.39948 
1633 1 0.983333 0.35 0.11931 -4.26602 
1635 1 0.966667 0.3 0.0588168 -4.39942 
12 1 0 0.5 -0.000736285 -3.90337 
13 1 0.0166667 0.45 0.0584682 -4.39745 
14 1 0.0166667 0.55 0.0581087 -4.40825 
17 1 0.05 0.45 -0.000755963 -3.90337 
21 1 0 0.6 -0.000940998 -3.90313 
22 1 0.05 0.55 -0.000979035 -3.90303 
71 1 0.0333333 0.6 0.116922 -4.45025 
74 1 0.0333333 0.5 0.116938 -4.42452 
75 1 0.0666667 0.5 0.058048 -4.408 
76 1 0.0833333 0.45 0.116682 -4.43482 
77 1 0.0833333 0.55 0.116794 -4.44978 
95 1 0.0666667 0.6 0.0580078 -4.40903 
81 1 0.116667 0.45 0.0578974 -4.40727 
96 1 0.1 0.6 -0.00106859 -3.90341 
97 1 0.116667 0.55 0.0579397 -4.40837 
99 1 0.1 0.5 -0.00104919 -3.90338 
100 1 0.15 0.45 -0.00113238 -3.90341 
101 1 0.15 0.55 -0.00113167 -3.90365 
202 1 0.133333 0.5 0.116649 -4.44934 
208 1 0.183333 0.45 0.116574 -4.44922 
229 1 0.133333 0.6 0.116665 -4.44906 
230 1 0.166667 0.6 0.0578486 -4.40798 
231 1 0.183333 0.55 0.116571 -4.44908 
233 1 0.166667 0.5 0.0578289 -4.40802 
234 1 0.2 0.5 -0.00121012 -3.90355 
235 1 0.216667 0.45 0.0577641 -4.40804 
236 1 0.216667 0.55 0.05777 -4.40798 
239 1 0.25 0.45 -0.0012643 -3.90354 
253 1 0.2 0.6 -0.00119501 -3.90364 
254 1 0.25 0.55 -0.00125891 -3.90354 
395 1 0.233333 0.6 0.116523 -4.44914 
398 1 0.233333 0.5 0.116507 -4.44916 
399 1 0.266667 0.5 0.0577281 -4.40801 
400 1 0.283333 0.45 0.116489 -4.44917 
401 1 0.283333 0.55 0.116492 -4.44918 
422 1 0.266667 0.6 0.0577346 -4.40804 
405 1 0.316667 0.45 0.0577195 -4.40803 
423 1 0.3 0.6 -0.001278 -3.90356 
424 1 0.316667 0.55 0.0577198 -4.40802 
426 1 0.3 0.5 -0.0012782 -3.90357 
427 1 0.35 0.45 -0.00127868 -3.9036 
428 1 0.35 0.55 -0.00127807 -3.9036 
562 1 0.333333 0.5 0.116489 -4.44918 
568 1 0.383333 0.45 0.116493 -4.44919 
589 1 0.333333 0.6 0.116489 -4.44917 
590 1 0.366667 0.6 0.0577222 -4.40803 
591 1 0.383333 0.55 0.116493 -4.44918 
593 1 0.366667 0.5 0.0577223 -4.40803 
594 1 0.4 0.5 -0.00127486 -3.90358 
595 1 0.416667 0.45 0.0577294 -4.40805 
596 1 0.416667 0.55 0.0577283 -4.40804 
599 1 0.45 0.45 -0.00125696 -3.90359 
613 1 0.4 0.6 -0.00127543 -3.90358 
614 1 0.45 0.55 -0.00126003 -3.90359 
755 1 0.433333 0.6 0.116502 -4.44917 
758 1 0.433333 0.5 0.116505 -4.44917 
759 1 0.466667 0.5 0.0577534 -4.408 
760 1 0.483333 0.45 0.116532 -4.44915 
761 1 0.483333 0.55 0.116526 -4.44916 
782 1 0.466667 0.6 0.0577476 -4.40801 
765 1 0.516667 0.45 0.0577828 -4.40797 
783 1 0.5 0.6 -0.0012295 -3.90369 
784 1 0.516667 0.55 0.057774 -4.408 
786 1 0.5 0.5 -0.00122033 -3.90373 
787 1 0.55 0.45 -0.00122231 -3.90358 
788 1 0.55 0.55 -0.00122751 -3.90359 
922 1 0.533333 0.5 0.116543 -4.44921 
928 1 0.583333 0.45 0.116539 -4.44943 
949 1 0.533333 0.6 0.11654 -4.44921 
950 1 0.566667 0.6 0.0577751 -4.40823 
951 1 0.583333 0.55 0.116544 -4.44941 
953 1 0.566667 0.5 0.0577686 -4.40828 
954 1 0.6 0.5 -0.00123131 -3.9032 
955 1 0.616667 0.45 0.0578046 -4.40887 
956 1 0.616667 0.55 0.0578131 -4.40883 
959 1 0.65 0.45 -0.00100048 -3.89034 
973 1 0.6 0.6 -0.00121904 -3.90337 
974 1 0.65 0.55 -0.000998096 -3.89059 
1113 1 0.633333 0.6 0.116585 -4.44819 
1116 1 0.633333 0.5 0.116592 -4.44842 
1117 1 0.666667 0.5 0.0580251 -4.37609 
1118 1 0.683333 0.45 0.116506 -4.44922 
1119 1 0.683333 0.55 0.116491 -4.44884 
1138 1 0.666667 0.6 0.0580042 -4.37615 
1123 1 0.716667 0.45 0.0574881 -4.25279 
1139 1 0.7 0.6 -0.000391323 -3.56265 
1140 1 0.716667 0.55 0.0574463 -4.25218 
1142 1 0.7 0.5 -0.000295002 -3.54862 
1273 1 0.733333 0.5 0.116362 -4.42736 
1279 1 0.783333 0.45 0.116128 -4.44035 
1300 1 0.733333 0.6 0.116284 -4.42872 
1301 1 0.766667 0.6 0.0561943 -4.19336 
1302 1 0.783333 0.55 0.116055 -4.44153 
1304 1 0.766667 0.5 0.0564252 -4.1774 
1305 1 0.8 0.5 -0.000385663 -3.54615 
1306 1 0.816667 0.45 0.0581511 -4.34842 
1307 1 0.816667 0.55 0.0580819 -4.34876 
1310 1 0.85 0.45 -0.000904832 -3.89109 
1324 1 0.8 0.6 -0.000594146 -3.55839 
1325 1 0.85 0.55 -0.000932269 -3.89116 
1466 1 0.833333 0.6 0.11667 -4.44759 
1469 1 0.833333 0.5 0.1167 -4.44659 
1470 1 0.866667 0.5 0.0579489 -4.40903 
1471 1 0.883333 0.45 0.116708 -4.45041 
1472 1 0.883333 0.55 0.116699 -4.45005 
1493 1 0.866667 0.6 0.0579221 -4.40899 
1476 1 0.916667 0.45 0.0579809 -4.40635 
1494 1 0.9 0.6 -0.00108402 -3.90273 
1495 1 0.916667 0.55 0.05792 -4.40733 
1497 1 0.9 0.5 -0.0010878 -3.90252 
1498 1 0.95 0.45 -0.000647453 -3.90417 
1499 1 0.95 0.55 -0.000965278 -3.90314 
1628 1 0.933333 0.5 0.11668 -4.43445 
1634 1 0.983333 0.45 0.117736 -4.34299 
1649 1 0.933333 0.6 0.11674 -4.44956 
1650 1 0.966667 0.6 0.058049 -4.40665 
1651 1 0.983333 0.55 0.116821 -4.43484 
1653 1 0.966667 0.5 0.058271 -4.40784 
18 1 0 0.7 -0.000690387 -3.90395 
19 1 0.0166667 0.65 0.0581448 -4.40793 
20 1 0.0166667 0.75 0.0584533 -4.39888 
23 1 0.05 0.65 -0.000972526 -3.90304 
27 1 0 0.8 -0.000501471 -3.90327 
28 1 0.05 0.75 -0.000758175 -3.90371 
88 1 0.0333333 0.8 0.117784 -4.35773 
91 1 0.0333333 0.7 0.116979 -4.42412 
92 1 0.0666667 0.7 0.0580423 -4.40745 
93 1 0.0833333 0.65 0.116776 -4.44976 
94 1 0.0833333 0.75 0.116709 -4.43449 
107 1 0.0666667 0.8 0.0582566 -4.40899 
98 1 0.116667 0.65 0.057912 -4.40821 
108 1 0.1 0.8 -0.000983112 -3.90392 
109 1 0.116667 0.75 0.0579071 -4.40707 
111 1 0.1 0.7 -0.00106264 -3.90319 
112 1 0.15 0.65 -0.00112486 -3.90361 
113 1 0.15 0.75 -0.00112016 -3.90346 
226 1 0.133333 0.7 0.116643 -4.44928 
232 1 0.183333 0.65 0.116579 -4.44907 
245 1 0.133333 0.8 0.116643 -4.44909 
246 1 0.166667 0.8 0.0578539 -4.40801 
247 1 0.183333 0.75 0.11659 -4.44913 
249 1 0.166667 0.7 0.0578456 -4.40796 
250 1 0.2 0.7 -0.00118321 -3.90368 
251 1 0.216667 0.65 0.0577837 -4.40798 
252 1 0.216667 0.75 0.0577895 -4.40803 
255 1 0.25 0.65 -0.00124999 -3.90357 
261 1 0.2 0.8 -0.00118554 -3.90365 
262 1 0.25 0.75 -0.00124758 -3.90357 
415 1 0.233333 0.8 0.116534 -4.44918 
418 1 0.233333 0.7 0.11653 -4.44918 
419 1 0.266667 0.7 0.0577373 -4.40802 
420 1 0.283333 0.65 0.116495 -4.44919 
421 1 0.283333 0.75 0.116496 -4.44918 
434 1 0.266667 0.8 0.0577386 -4.40803 
425 1 0.316667 0.65 0.0577206 -4.40802 
435 1 0.3 0.8 -0.0012771 -3.90355 
436 1 0.316667 0.75 0.0577207 -4.40802 
438 1 0.3 0.7 -0.00127609 -3.90355 
439 1 0.35 0.65 -0.00127855 -3.9036 
440 1 0.35 0.75 -0.00127908 -3.90359 
586 1 0.333333 0.7 0.116488 -4.44917 
592 1 0.383333 0.65 0.116492 -4.44918 
605 1 0.333333 0.8 0.116489 -4.44916 
606 1 0.366667 0.8 0.0577214 -4.40802 
607 1 0.383333 0.75 0.116491 -4.44918 
609 1 0.366667 0.7 0.0577213 -4.40802 
610 1 0.4 0.7 -0.00127614 -3.90359 
611 1 0.416667 0.65 0.0577267 -4.40804 
612 1 0.416667 0.75 0.0577259 -4.40804 
615 1 0.45 0.65 -0.00126401 -3.90358 
621 1 0.4 0.8 -0.00127619 -3.90359 
622 1 0.45 0.75 -0.00126583 -3.90357 
775 1 0.433333 0.8 0.1165 -4.44918 
778 1 0.433333 0.7 0.1165 -4.44918 
779 1 0.466667 0.7 0.0577438 -4.40802 
780 1 0.483333 0.65 0.116522 -4.44916 
781 1 0.483333 0.75 0.116521 -4.44916 
794 1 0.466667 0.8 0.0577438 -4.40802 
785 1 0.516667 0.65 0.0577724 -4.408 
795 1 0.5 0.8 -0.00123346 -3.90368 
796 1 0.516667 0.75 0.0577735 -4.40799 
798 1 0.5 0.7 -0.00123346 -3.90368 
799 1 0.55 0.65 -0.00122059 -3.90365 
800 1 0.55 0.75 -0.00121561 -3.90368 
946 1 0.533333 0.7 0.116542 -4.44919 
952 1 0.583333 0.65 0.116545 -4.44932 
965 1 0.533333 0.8 0.116542 -4.44919 
966 1 0.566667 0.8 0.0577753 -4.40811 
967 1 0.583333 0.75 0.116539 -4.44928 
969 1 0.566667 0.7 0.0577752 -4.40811 
970 1 0.6 0.7 -0.00123022 -3.90338 
971 1 0.616667 0.65 0.0577959 -4.40857 
972 1 0.616667 0.75 0.0577749 -4.40855 
975 1 0.65 0.65 -0.00107845 -3.8898 
981 1 0.6 0.8 -0.00123015 -3.90338 
982 1 0.65 0.75 -0.00116805 -3.90414 
1131 1 0.633333 0.8 0.116547 -4.44903 
1134 1 0.633333 0.7 0.116547 -4.44903 
1135 1 0.666667 0.7 0.0578456 -4.39262 
1136 1 0.683333 0.65 0.116434 -4.45015 
1137 1 0.683333 0.75 0.116551 -4.44902 
1148 1 0.666667 0.8 0.057846 -4.39262 
1141 1 0.716667 0.65 0.0572789 -4.28169 
1149 1 0.7 0.8 -0.000788572 -3.72311 
1150 1 0.716667 0.75 0.0579473 -4.35224 
1152 1 0.7 0.7 -0.000789027 -3.7231 
1153 1 0.75 0.75 -0.00034029 -3.57865 
1297 1 0.733333 0.7 0.1165 -4.43837 
1303 1 0.783333 0.65 0.116291 -4.43941 
1316 1 0.733333 0.8 0.116501 -4.43838 
1317 1 0.766667 0.8 0.0574721 -4.27853 
1318 1 0.783333 0.75 0.11642 -4.44964 
1320 1 0.766667 0.7 0.0574752 -4.27853 
1321 1 0.8 0.7 -0.000528463 -3.72481 
1322 1 0.816667 0.65 0.0580319 -4.36475 
1323 1 0.816667 0.75 0.0581484 -4.37662 
1326 1 0.85 0.65 -0.00101302 -3.89009 
1332 1 0.8 0.8 -0.000536443 -3.7248 
1333 1 0.85 0.75 -0.00100411 -3.90447 
1486 1 0.833333 0.8 0.116682 -4.4474 
1489 1 0.833333 0.7 0.11669 -4.44733 
1490 1 0.866667 0.7 0.0578974 -4.40894 
1491 1 0.883333 0.65 0.116682 -4.45001 
1492 1 0.883333 0.75 0.116677 -4.45009 
1505 1 0.866667 0.8 0.0578808 -4.40909 
1496 1 0.916667 0.65 0.0579376 -4.40737 
1506 1 0.9 0.8 -0.00109753 -3.9026 
1507 1 0.916667 0.75 0.0579886 -4.40749 
1509 1 0.9 0.7 -0.00110287 -3.90273 
1510 1 0.95 0.65 -0.000916134 -3.90367 
1511 1 0.95 0.75 -0.000740945 -3.90382 
1646 1 0.933333 0.7 0.11675 -4.43453 
1652 1 0.983333 0.65 0.116879 -4.4346 
1659 1 0.933333 0.8 0.116859 -4.4238 
1660 1 0.966667 0.8 0.0584305 -4.39862 
1661 1 0.983333 0.75 0.117848 -4.35789 
1663 1 0.966667 0.7 0.0583384 -4.40917 
24 1 0 0.9 -0.000714223 -3.90396 
25 1 0.0166667 0.85 0.0584291 -4.3987 
26 1 0.0166667 0.95 0.058089 -4.4074 
29 1 0.05 0.85 -0.000759513 -3.90382 
30 1 0.05 0.95 -0.000987691 -3.90314 
103 1 0.0333333 0.9 0.116913 -4.4239 
104 1 0.0666667 0.9 0.058034 -4.40742 
105 1 0.0833333 0.85 0.116709 -4.43434 
106 1 0.0833333 0.95 0.116733 -4.4497 
110 1 0.116667 0.85 0.0579326 -4.40719 
114 1 0.116667 0.95 0.0578942 -4.40808 
115 1 0.1 0.9 -0.00105625 -3.90337 
116 1 0.15 0.85 -0.00111902 -3.90356 
117 1 0.15 0.95 -0.00111567 -3.90365 
242 1 0.133333 0.9 0.116648 -4.44926 
248 1 0.183333 0.85 0.116591 -4.44913 
256 1 0.183333 0.95 0.116589 -4.44916 
257 1 0.166667 0.9 0.0578527 -4.40801 
258 1 0.2 0.9 -0.00118535 -3.90366 
259 1 0.216667 0.85 0.0577871 -4.40803 
260 1 0.216667 0.95 0.0577838 -4.40803 
263 1 0.25 0.85 -0.00124996 -3.90354 
264 1 0.25 0.95 -0.0012527 -3.90354 
430 1 0.233333 0.9 0.11653 -4.4492 
431 1 0.266667 0.9 0.0577361 -4.40803 
432 1 0.283333 0.85 0.116494 -4.44918 
433 1 0.283333 0.95 0.116496 -4.44918 
437 1 0.316667 0.85 0.0577199 -4.40801 
441 1 0.316667 0.95 0.0577217 -4.40802 
442 1 0.3 0.9 -0.00127698 -3.90354 
443 1 0.35 0.85 -0.00127858 -3.90359 
444 1 0.35 0.95 -0.00127786 -3.9036 
602 1 0.333333 0.9 0.116489 -4.44917 
608 1 0.383333 0.85 0.116492 -4.44918 
616 1 0.383333 0.95 0.116493 -4.44918 
617 1 0.366667 0.9 0.0577221 -4.40803 
618 1 0.4 0.9 -0.00127534 -3.90358 
619 1 0.416667 0.85 0.0577268 -4.40804 
620 1 0.416667 0.95 0.0577284 -4.40804 
623 1 0.45 0.85 -0.00126399 -3.90358 
624 1 0.45 0.95 -0.00126001 -3.90359 
790 1 0.433333 0.9 0.116502 -4.44917 
791 1 0.466667 0.9 0.0577476 -4.40801 
792 1 0.483333 0.85 0.116522 -4.44916 
793 1 0.483333 0.95 0.116526 -4.44916 
797 1 0.516667 0.85 0.0577724 -4.408 
801 1 0.516667 0.95 0.0577741 -4.408 
802 1 0.5 0.9 -0.00122947 -3.90369 
803 1 0.55 0.85 -0.00122052 -3.90365 
804 1 0.55 0.95 -0.00122739 -3.90359 
962 1 0.533333 0.9 0.116541 -4.44921 
968 1 0.583333 0.85 0.116545 -4.44932 
976 1 0.583333 0.95 0.116544 -4.44941 
977 1 0.566667 0.9 0.0577753 -4.40823 
978 1 0.6 0.9 -0.0012188 -3.90337 
979 1 0.616667 0.85 0.0577963 -4.40857 
980 1 0.616667 0.95 0.0578135 -4.40883 
983 1 0.65 0.85 -0.00107779 -3.88981 
984 1 0.65 0.95 -0.000997768 -3.89059 
1144 1 0.633333 0.9 0.116586 -4.44819 
1145 1 0.666667 0.9 0.058005 -4.37615 
1146 1 0.683333 0.85 0.116434 -4.45014 
1147 1 0.683333 0.95 0.116491 -4.44883 
1151 1 0.716667 0.85 0.0572794 -4.28168 
1154 1 0.716667 0.95 0.057446 -4.25216 
1155 1 0.7 0.9 -0.000390826 -3.56268 
1313 1 0.733333 0.9 0.116283 -4.42872 
1319 1 0.783333 0.85 0.116287 -4.43944 
1327 1 0.783333 0.95 0.11604 -4.44158 
1328 1 0.766667 0.9 0.056184 -4.19341 
1329 1 0.8 0.9 -0.000616588 -3.55835 
1330 1 0.816667 0.85 0.0580187 -4.36482 
1331 1 0.816667 0.95 0.0580513 -4.34878 
1334 1 0.85 0.85 -0.00104136 -3.88991 
1335 1 0.85 0.95 -0.000972856 -3.89102 
1501 1 0.833333 0.9 0.116643 -4.44764 
1502 1 0.866667 0.9 0.057881 -4.40903 
1503 1 0.883333 0.85 0.116673 -4.45015 
1504 1 0.883333 0.95 0.116664 -4.44999 
1508 1 0.916667 0.85 0.0579838 -4.40747 
1512 1 0.916667 0.95 0.0579207 -4.40734 
1513 1 0.9 0.9 -0.00109657 -3.90291 
1514 1 0.95 0.85 -0.000758413 -3.90384 
1515 1 0.95 0.95 -0.00095568 -3.90383 
1656 1 0.933333 0.9 0.116693 -4.43438 
1662 1 0.983333 0.85 0.117772 -4.35757 
1664 1 0.983333 0.95 0.116787 -4.43436 
1665 1 0.966667 0.9 0.0582816 -4.4088 
31 1 0 0.1 0.17573 -4.44995 
32 1 0.0166667 0.05 0.2346 -4.44114 
33 1 0.0166667 0.15 0.234619 -4.42634 
34 1 0 0 0.175676 -4.45113 
36 1 0.05 0.05 0.175669 -4.45009 
39 1 0 0.2 0.175643 -4.35347 
41 1 0.05 0.15 0.17571 -4.43737 
131 1 0.0666667 0.1 0.234526 -4.45074 
134 1 0.0666667 0 0.234353 -4.44929 
148 1 0.0666667 0.2 0.234356 -4.43421 
135 1 0.1 0 0.175492 -4.45011 
136 1 0.116667 0.05 0.234225 -4.44905 
149 1 0.1 0.2 0.175481 -4.45128 
150 1 0.116667 0.15 0.234226 -4.44915 
152 1 0.1 0.1 0.175529 -4.45056 
154 1 0.15 0.05 0.175401 -4.44993 
155 1 0.15 0.15 0.1754 -4.44988 
288 1 0.166667 0 0.23416 -4.44983 
304 1 0.166667 0.2 0.234166 -4.44986 
307 1 0.166667 0.1 0.234143 -4.44981 
308 1 0.2 0.1 0.175339 -4.45007 
309 1 0.216667 0.05 0.234117 -4.44981 
310 1 0.216667 0.15 0.234103 -4.4498 
311 1 0.2 0 0.175354 -4.45009 
313 1 0.25 0.05 0.175318 -4.45015 
335 1 0.2 0.2 0.175341 -4.4501 
337 1 0.25 0.15 0.175311 -4.45013 
475 1 0.266667 0.1 0.234101 -4.44985 
478 1 0.266667 0 0.234104 -4.44985 
498 1 0.266667 0.2 0.234096 -4.44982 
479 1 0.3 0 0.175303 -4.45013 
480 1 0.316667 0.05 0.234097 -4.44985 
499 1 0.3 0.2 0.175302 -4.45014 
500 1 0.316667 0.15 0.234098 -4.44985 
502 1 0.3 0.1 0.175303 -4.45014 
504 1 0.35 0.05 0.175303 -4.45013 
505 1 0.35 0.15 0.175303 -4.45013 
648 1 0.366667 0 0.2341 -4.44984 
664 1 0.366667 0.2 0.234101 -4.44985 
667 1 0.366667 0.1 0.234101 -4.44985 
668 1 0.4 0.1 0.175308 -4.45013 
669 1 0.416667 0.05 0.234108 -4.44985 
670 1 0.416667 0.15 0.234109 -4.44985 
671 1 0.4 0 0.175308 -4.45013 
673 1 0.45 0.05 0.175323 -4.45012 
695 1 0.4 0.2 0.175308 -4.45013 
697 1 0.45 0.15 0.175325 -4.45012 
835 1 0.466667 0.1 0.234127 -4.44982 
838 1 0.466667 0 0.234123 -4.44982 
858 1 0.466667 0.2 0.234128 -4.44982 
839 1 0.5 0 0.175344 -4.45011 
840 1 0.516667 0.05 0.234142 -4.44982 
859 1 0.5 0.2 0.175355 -4.45011 
860 1 0.516667 0.15 0.234149 -4.44982 
862 1 0.5 0.1 0.175351 -4.45011 
864 1 0.55 0.05 0.175352 -4.45017 
865 1 0.55 0.15 0.175361 -4.45016 
1008 1 0.566667 0 0.23414 -4.44984 
1024 1 0.566667 0.2 0.23415 -4.44985 
1027 1 0.566667 0.1 0.234145 -4.44985 
1028 1 0.6 0.1 0.175349 -4.45006 
1029 1 0.616667 0.05 0.234133 -4.4498 
1030 1 0.616667 0.15 0.234138 -4.4498 
1031 1 0.6 0 0.175353 -4.45002 
1033 1 0.65 0.05 0.175349 -4.45035 
1055 1 0.6 0.2 0.175354 -4.45003 
1057 1 0.65 0.15 0.175344 -4.45039 
1186 1 0.666667 0.1 0.234097 -4.44976 
1189 1 0.666667 0 0.234106 -4.44976 
1209 1 0.666667 0.2 0.234098 -4.44977 
1190 1 0.7 0 0.175239 -4.44961 
1191 1 0.716667 0.05 0.234024 -4.45012 
1210 1 0.7 0.2 0.175231 -4.4497 
1211 1 0.716667 0.15 0.234012 -4.45015 
1213 1 0.7 0.1 0.175238 -4.44969 
1215 1 0.75 0.05 0.175105 -4.44822 
1216 1 0.75 0.15 0.175095 -4.44826 
1359 1 0.766667 0 0.233955 -4.45006 
1375 1 0.766667 0.2 0.23395 -4.44997 
1378 1 0.766667 0.1 0.233955 -4.44993 
1379 1 0.8 0.1 0.175145 -4.45045 
1380 1 0.816667 0.05 0.23406 -4.45001 
1381 1 0.816667 0.15 0.234055 -4.44997 
1382 1 0.8 0 0.175133 -4.45073 
1384 1 0.85 0.05 0.175443 -4.44948 
1406 1 0.8 0.2 0.175143 -4.45049 
1408 1 0.85 0.15 0.175436 -4.44949 
1546 1 0.866667 0.1 0.234225 -4.44978 
1549 1 0.866667 0 0.234217 -4.44961 
1569 1 0.866667 0.2 0.234219 -4.44977 
1550 1 0.9 0 0.175466 -4.45005 
1551 1 0.916667 0.05 0.234275 -4.44932 
1570 1 0.9 0.2 0.175441 -4.45155 
1571 1 0.916667 0.15 0.234231 -4.44963 
1573 1 0.9 0.1 0.17547 -4.45017 
1575 1 0.95 0.05 0.175596 -4.44991 
1576 1 0.95 0.15 0.175539 -4.43734 
1689 1 0.966667 0 0.234455 -4.45014 
1705 1 0.966667 0.2 0.234362 -4.42581 
1708 1 0.966667 0.1 0.234511 -4.4411 
37 1 0.0166667 0.25 0.233429 -4.34284 
38 1 0.0166667 0.35 0.231693 -4.26692 
42 1 0.05 0.25 0.175546 -4.33935 
54 1 0.05 0.35 0.175251 -4.24167 
145 1 0.0666667 0.3 0.234099 -4.40986 
169 1 0.0666667 0.4 0.234112 -4.40987 
151 1 0.116667 0.25 0.234186 -4.45035 
170 1 0.1 0.4 0.175366 -4.43892 
171 1 0.116667 0.35 0.234135 -4.45063 
173 1 0.1 0.3 0.175356 -4.43901 
175 1 0.15 0.25 0.175408 -4.45012 
176 1 0.15 0.35 0.175403 -4.45025 
328 1 0.166667 0.4 0.234184 -4.44994 
331 1 0.166667 0.3 0.234181 -4.44991 
332 1 0.2 0.3 0.175349 -4.4502 
333 1 0.216667 0.25 0.23411 -4.44986 
334 1 0.216667 0.35 0.234119 -4.4499 
338 1 0.25 0.25 0.175307 -4.45009 
366 1 0.2 0.4 0.175346 -4.4502 
368 1 0.25 0.35 0.175307 -4.45009 
495 1 0.266667 0.3 0.234085 -4.44979 
526 1 0.266667 0.4 0.234083 -4.4498 
501 1 0.316667 0.25 0.234096 -4.44984 
527 1 0.3 0.4 0.175295 -4.45013 
528 1 0.316667 0.35 0.234094 -4.44983 
530 1 0.3 0.3 0.175296 -4.45013 
532 1 0.35 0.25 0.175302 -4.45013 
533 1 0.35 0.35 0.175301 -4.45014 
688 1 0.366667 0.4 0.234099 -4.44986 
691 1 0.366667 0.3 0.2341 -4.44986 
692 1 0.4 0.3 0.175308 -4.45013 
693 1 0.416667 0.25 0.234109 -4.44985 
694 1 0.416667 0.35 0.234109 -4.44985 
698 1 0.45 0.25 0.175325 -4.45012 
726 1 0.4 0.4 0.175308 -4.45013 
728 1 0.45 0.35 0.175324 -4.45012 
855 1 0.466667 0.3 0.234128 -4.44982 
886 1 0.466667 0.4 0.234127 -4.44982 
861 1 0.516667 0.25 0.234153 -4.44981 
887 1 0.5 0.4 0.175351 -4.45011 
888 1 0.516667 0.35 0.234149 -4.44982 
890 1 0.5 0.3 0.175355 -4.45011 
892 1 0.55 0.25 0.175367 -4.45015 
893 1 0.55 0.35 0.175361 -4.45016 
1048 1 0.566667 0.4 0.234144 -4.44985 
1051 1 0.566667 0.3 0.23415 -4.44985 
1052 1 0.6 0.3 0.175354 -4.45003 
1053 1 0.616667 0.25 0.234135 -4.44982 
1054 1 0.616667 0.35 0.234139 -4.4498 
1058 1 0.65 0.25 0.175342 -4.45039 
1086 1 0.6 0.4 0.175348 -4.45006 
1088 1 0.65 0.35 0.175344 -4.4504 
1206 1 0.666667 0.3 0.234098 -4.44977 
1237 1 0.666667 0.4 0.234097 -4.44977 
1212 1 0.716667 0.25 0.234005 -4.45014 
1238 1 0.7 0.4 0.175239 -4.44968 
1239 1 0.716667 0.35 0.23401 -4.45014 
1241 1 0.7 0.3 0.175231 -4.44969 
1243 1 0.75 0.25 0.175092 -4.44823 
1244 1 0.75 0.35 0.175101 -4.44825 
1399 1 0.766667 0.4 0.233971 -4.44995 
1402 1 0.766667 0.3 0.233955 -4.44999 
1403 1 0.8 0.3 0.175155 -4.45055 
1404 1 0.816667 0.25 0.234063 -4.45006 
1405 1 0.816667 0.35 0.234088 -4.45009 
1409 1 0.85 0.25 0.175436 -4.44955 
1437 1 0.8 0.4 0.175172 -4.45053 
1439 1 0.85 0.35 0.175457 -4.44957 
1566 1 0.866667 0.3 0.234227 -4.44977 
1597 1 0.866667 0.4 0.234244 -4.44972 
1572 1 0.916667 0.25 0.234219 -4.43461 
1598 1 0.9 0.4 0.175523 -4.4389 
1599 1 0.916667 0.35 0.234304 -4.41964 
1601 1 0.9 0.3 0.1755 -4.43895 