ITEM: TIMESTEP
25
ITEM: NUMBER OF ATOMS
3584
ITEM: BOX BOUNDS pp pp ss
0.0000000000000000e+00 4.3111019472983898e+01
0.0000000000000000e+00 2.4890158697766498e+01
-3.6580800000000006e-03 3.4552298188307212e+01
ITEM: ATOMS id type xs ys zs c_peratom 
1 1 0 0.1 -0.00109668 -3.90425 
2 1 0.0166667 0.05 0.0569478 -4.4501 
3 1 0.0166667 0.15 0.0570121 -4.45005 
4 1 0 0 -0.00109994 -3.90428 
5 1 0.05 0.05 -0.00113721 -3.90428 
10 1 0.05 0.15 -0.00109357 -3.90448 
35 1 0.0333333 0 0.115694 -4.45044 
43 1 0.0333333 0.1 0.115706 -4.45044 
44 1 0.0666667 0.1 0.0569111 -4.45013 
45 1 0.0833333 0.05 0.115599 -4.44985 
46 1 0.0833333 0.15 0.115636 -4.45041 
47 1 0.0666667 0 0.0569061 -4.45016 
48 1 0.1 0 -0.00121719 -3.90427 
49 1 0.116667 0.05 0.0568046 -4.44988 
62 1 0.116667 0.15 0.0568158 -4.44999 
64 1 0.1 0.1 -0.00121674 -3.90427 
65 1 0.15 0.05 -0.00130641 -3.90433 
66 1 0.15 0.15 -0.00130284 -3.90433 
153 1 0.133333 0.1 0.115506 -4.44988 
156 1 0.133333 0 0.115504 -4.44985 
157 1 0.166667 0 0.0567297 -4.44997 
181 1 0.166667 0.1 0.0567281 -4.44998 
158 1 0.183333 0.05 0.11544 -4.44985 
179 1 0.183333 0.15 0.115439 -4.44986 
182 1 0.2 0.1 -0.00136425 -3.90435 
183 1 0.216667 0.05 0.0566788 -4.44997 
184 1 0.216667 0.15 0.0566782 -4.44997 
185 1 0.2 0 -0.00136286 -3.90435 
186 1 0.25 0.05 -0.00140181 -3.90436 
214 1 0.25 0.15 -0.00140195 -3.90436 
312 1 0.233333 0 0.115401 -4.44985 
339 1 0.233333 0.1 0.115401 -4.44985 
340 1 0.266667 0.1 0.056648 -4.44998 
343 1 0.266667 0 0.0566474 -4.44998 
341 1 0.283333 0.05 0.115378 -4.44986 
342 1 0.283333 0.15 0.115379 -4.44986 
344 1 0.3 0 -0.00142288 -3.90438 
345 1 0.316667 0.05 0.056632 -4.44998 
376 1 0.316667 0.15 0.0566327 -4.44997 
378 1 0.3 0.1 -0.0014214 -3.90438 
379 1 0.35 0.05 -0.00143329 -3.90438 
380 1 0.35 0.15 -0.00143277 -3.90438 
503 1 0.333333 0.1 0.115368 -4.44986 
506 1 0.333333 0 0.115366 -4.44986 
507 1 0.366667 0 0.0566223 -4.44997 
508 1 0.383333 0.05 0.11536 -4.44986 
536 1 0.383333 0.15 0.11536 -4.44986 
538 1 0.366667 0.1 0.0566228 -4.44997 
539 1 0.4 0.1 -0.00144089 -3.90437 
540 1 0.416667 0.05 0.056618 -4.44998 
541 1 0.416667 0.15 0.0566173 -4.44998 
542 1 0.4 0 -0.00144055 -3.90437 
543 1 0.45 0.05 -0.00143895 -3.90437 
574 1 0.45 0.15 -0.00143917 -3.90437 
672 1 0.433333 0 0.115358 -4.44986 
699 1 0.433333 0.1 0.115358 -4.44986 
700 1 0.466667 0.1 0.0566225 -4.44998 
701 1 0.483333 0.05 0.115365 -4.44986 
702 1 0.483333 0.15 0.115366 -4.44985 
703 1 0.466667 0 0.056622 -4.44998 
704 1 0.5 0 -0.00142912 -3.90436 
705 1 0.516667 0.05 0.0566372 -4.44998 
736 1 0.516667 0.15 0.0566394 -4.44998 
738 1 0.5 0.1 -0.00142752 -3.90436 
863 1 0.533333 0.1 0.115385 -4.44986 
866 1 0.533333 0 0.115381 -4.44985 
739 1 0.55 0.05 -0.00140051 -3.90434 
740 1 0.55 0.15 -0.0013963 -3.90435 
867 1 0.566667 0 0.0566682 -4.44998 
868 1 0.583333 0.05 0.115418 -4.44986 
896 1 0.583333 0.15 0.115423 -4.44986 
898 1 0.566667 0.1 0.0566745 -4.44998 
899 1 0.6 0.1 -0.00134097 -3.90419 
900 1 0.616667 0.05 0.0567376 -4.45019 
901 1 0.616667 0.15 0.0567449 -4.45019 
902 1 0.6 0 -0.00135048 -3.90419 
1032 1 0.633333 0 0.115463 -4.44982 
1059 1 0.633333 0.1 0.115472 -4.44979 
903 1 0.65 0.05 -0.00117779 -3.90298 
934 1 0.65 0.15 -0.00116923 -3.90297 
1060 1 0.666667 0.1 0.0569096 -4.44434 
1061 1 0.683333 0.05 0.115427 -4.45346 
1062 1 0.683333 0.15 0.115435 -4.45343 
1063 1 0.666667 0 0.0568946 -4.44426 
1064 1 0.7 0 -0.000586027 -3.46781 
1065 1 0.716667 0.05 0.057216 -4.28688 
1096 1 0.716667 0.15 0.0572273 -4.28689 
1098 1 0.7 0.1 -0.000564073 -3.46778 
1214 1 0.733333 0.1 0.11541 -4.44261 
1217 1 0.733333 0 0.115399 -4.44254 
1218 1 0.766667 0 0.0559656 -4.17112 
1219 1 0.783333 0.05 0.115042 -4.45254 
1247 1 0.783333 0.15 0.115045 -4.45255 
1249 1 0.766667 0.1 0.0559673 -4.17121 
1250 1 0.8 0.1 -0.001036 -3.46541 
1251 1 0.816667 0.05 0.0569883 -4.42628 
1252 1 0.816667 0.15 0.0569929 -4.42628 
1253 1 0.8 0 -0.00103794 -3.4655 
1254 1 0.85 0.05 -0.00123313 -3.90314 
1285 1 0.85 0.15 -0.0012223 -3.90313 
1383 1 0.833333 0 0.1154 -4.44954 
1410 1 0.833333 0.1 0.115401 -4.44954 
1411 1 0.866667 0.1 0.0567255 -4.45134 
1412 1 0.883333 0.05 0.115476 -4.4503 
1413 1 0.883333 0.15 0.115492 -4.45034 
1414 1 0.866667 0 0.0567243 -4.45134 
1415 1 0.9 0 -0.00125624 -3.90418 
1449 1 0.9 0.1 -0.00125324 -3.90418 
1416 1 0.916667 0.05 0.0568236 -4.45015 
1447 1 0.916667 0.15 0.0568636 -4.45004 
1450 1 0.95 0.05 -0.00116055 -3.90433 
1451 1 0.95 0.15 -0.00108197 -3.90456 
1574 1 0.933333 0.1 0.115598 -4.44994 
1577 1 0.933333 0 0.115594 -4.44992 
1578 1 0.966667 0 0.0569323 -4.44988 
1579 1 0.983333 0.05 0.11567 -4.44993 
1607 1 0.983333 0.15 0.115716 -4.4466 
1609 1 0.966667 0.1 0.056937 -4.44986 
6 1 0 0.3 -0.000786366 -3.90428 
7 1 0.0166667 0.25 0.0571514 -4.44672 
9 1 0 0.2 -0.000953329 -3.90459 
11 1 0.05 0.25 -0.000972109 -3.90485 
40 1 0.0333333 0.2 0.115571 -4.43462 
56 1 0.0333333 0.3 0.115822 -4.30797 
57 1 0.0666667 0.3 0.0571134 -4.45266 
58 1 0.0833333 0.25 0.11565 -4.44714 
60 1 0.0666667 0.2 0.0569755 -4.45032 
61 1 0.1 0.2 -0.00118548 -3.90417 
63 1 0.116667 0.25 0.0568376 -4.44996 
82 1 0.1 0.3 -0.00113047 -3.90435 
83 1 0.15 0.25 -0.00129501 -3.90429 
174 1 0.133333 0.3 0.115505 -4.45003 
177 1 0.133333 0.2 0.115504 -4.44988 
178 1 0.166667 0.2 0.0567297 -4.44997 
209 1 0.166667 0.3 0.0567294 -4.45 
180 1 0.183333 0.25 0.115435 -4.44985 
210 1 0.2 0.3 -0.00136561 -3.90434 
211 1 0.216667 0.25 0.0566766 -4.44997 
213 1 0.2 0.2 -0.00136355 -3.90435 
215 1 0.25 0.25 -0.00140332 -3.90436 
336 1 0.233333 0.2 0.1154 -4.44985 
370 1 0.233333 0.3 0.115397 -4.44985 
371 1 0.266667 0.3 0.0566458 -4.44998 
374 1 0.266667 0.2 0.0566473 -4.44998 
372 1 0.283333 0.25 0.115378 -4.44986 
375 1 0.3 0.2 -0.00142145 -3.90438 
377 1 0.316667 0.25 0.0566323 -4.44997 
406 1 0.3 0.3 -0.00142241 -3.90438 
407 1 0.35 0.25 -0.00143307 -3.90438 
531 1 0.333333 0.3 0.115367 -4.44986 
534 1 0.333333 0.2 0.115367 -4.44986 
535 1 0.366667 0.2 0.0566225 -4.44997 
537 1 0.383333 0.25 0.115359 -4.44986 
569 1 0.366667 0.3 0.0566219 -4.44997 
570 1 0.4 0.3 -0.00144236 -3.90437 
571 1 0.416667 0.25 0.0566165 -4.44998 
573 1 0.4 0.2 -0.00144179 -3.90437 
575 1 0.45 0.25 -0.00143957 -3.90437 
696 1 0.433333 0.2 0.115357 -4.44986 
730 1 0.433333 0.3 0.115357 -4.44986 
731 1 0.466667 0.3 0.0566224 -4.44998 
732 1 0.483333 0.25 0.115366 -4.44985 
734 1 0.466667 0.2 0.0566226 -4.44998 
735 1 0.5 0.2 -0.00142643 -3.90436 
737 1 0.516667 0.25 0.0566402 -4.44998 
766 1 0.5 0.3 -0.00142655 -3.90436 
891 1 0.533333 0.3 0.115386 -4.44985 
894 1 0.533333 0.2 0.115387 -4.44985 
767 1 0.55 0.25 -0.00139503 -3.90434 
895 1 0.566667 0.2 0.0566778 -4.44998 
897 1 0.583333 0.25 0.115425 -4.44986 
929 1 0.566667 0.3 0.0566777 -4.44998 
930 1 0.6 0.3 -0.00133634 -3.90419 
931 1 0.616667 0.25 0.0567476 -4.45019 
933 1 0.6 0.2 -0.00133615 -3.90419 
1056 1 0.633333 0.2 0.115477 -4.44979 
1090 1 0.633333 0.3 0.115477 -4.44979 
935 1 0.65 0.25 -0.00116562 -3.90297 
1091 1 0.666667 0.3 0.0569149 -4.44434 
1092 1 0.683333 0.25 0.115438 -4.45344 
1094 1 0.666667 0.2 0.0569149 -4.44434 
1095 1 0.7 0.2 -0.000557836 -3.46778 
1097 1 0.716667 0.25 0.0572302 -4.28689 
1124 1 0.7 0.3 -0.000557478 -3.46778 
1242 1 0.733333 0.3 0.115416 -4.4426 
1245 1 0.733333 0.2 0.115415 -4.4426 
1246 1 0.766667 0.2 0.0559714 -4.17121 
1248 1 0.783333 0.25 0.115049 -4.45254 
1280 1 0.766667 0.3 0.0559744 -4.17121 
1281 1 0.8 0.3 -0.00102549 -3.46536 
1282 1 0.816667 0.25 0.0570022 -4.42623 
1284 1 0.8 0.2 -0.00103067 -3.46539 
1286 1 0.85 0.25 -0.00119806 -3.90309 
1407 1 0.833333 0.2 0.11541 -4.44955 
1441 1 0.833333 0.3 0.115421 -4.44957 
1442 1 0.866667 0.3 0.056789 -4.45166 
1443 1 0.883333 0.25 0.115549 -4.45089 
1445 1 0.866667 0.2 0.0567532 -4.4514 
1446 1 0.9 0.2 -0.00120094 -3.90407 
1477 1 0.9 0.3 -0.00114186 -3.90422 
1448 1 0.916667 0.25 0.0569572 -4.45 
1478 1 0.95 0.25 -0.000922226 -3.90504 
1602 1 0.933333 0.3 0.115556 -4.43071 
1605 1 0.933333 0.2 0.115659 -4.44665 
1606 1 0.966667 0.2 0.0571348 -4.45254 
1608 1 0.983333 0.25 0.116097 -4.32319 
1635 1 0.966667 0.3 0.0573013 -4.44963 
8 1 0.0166667 0.35 0.0572545 -4.44368 
12 1 0 0.5 -0.000935961 -3.90457 
13 1 0.0166667 0.45 0.0571549 -4.44672 
15 1 0 0.4 -0.000786233 -3.90427 
16 1 0.05 0.35 -0.000882737 -3.90517 
17 1 0.05 0.45 -0.000968355 -3.90482 
53 1 0.0333333 0.4 0.11582 -4.308 
59 1 0.0833333 0.35 0.115629 -4.44321 
74 1 0.0333333 0.5 0.115577 -4.43461 
75 1 0.0666667 0.5 0.0569872 -4.45027 
76 1 0.0833333 0.45 0.11565 -4.44713 
78 1 0.0666667 0.4 0.0571136 -4.45266 
79 1 0.1 0.4 -0.00112926 -3.90434 
80 1 0.116667 0.35 0.0568491 -4.44982 
81 1 0.116667 0.45 0.0568408 -4.44996 
84 1 0.15 0.35 -0.00129148 -3.90426 
99 1 0.1 0.5 -0.00117512 -3.90414 
100 1 0.15 0.45 -0.00129277 -3.90428 
202 1 0.133333 0.5 0.115508 -4.44988 
205 1 0.133333 0.4 0.115505 -4.45003 
206 1 0.166667 0.4 0.0567302 -4.45 
233 1 0.166667 0.5 0.0567319 -4.44997 
207 1 0.183333 0.35 0.115431 -4.44983 
208 1 0.183333 0.45 0.115433 -4.44984 
212 1 0.216667 0.35 0.0566747 -4.44997 
234 1 0.2 0.5 -0.00136433 -3.90434 
235 1 0.216667 0.45 0.0566752 -4.44997 
237 1 0.2 0.4 -0.00136526 -3.90434 
238 1 0.25 0.35 -0.00140523 -3.90435 
239 1 0.25 0.45 -0.00140568 -3.90435 
367 1 0.233333 0.4 0.115396 -4.44985 
398 1 0.233333 0.5 0.115397 -4.44985 
399 1 0.266667 0.5 0.0566435 -4.44998 
402 1 0.266667 0.4 0.0566442 -4.44998 
373 1 0.283333 0.35 0.115376 -4.44986 
400 1 0.283333 0.45 0.115375 -4.44986 
403 1 0.3 0.4 -0.00142462 -3.90438 
404 1 0.316667 0.35 0.0566308 -4.44997 
405 1 0.316667 0.45 0.0566292 -4.44998 
408 1 0.35 0.35 -0.00143397 -3.90438 
426 1 0.3 0.5 -0.00142583 -3.90437 
427 1 0.35 0.45 -0.00143536 -3.90438 
562 1 0.333333 0.5 0.115364 -4.44986 
565 1 0.333333 0.4 0.115365 -4.44986 
566 1 0.366667 0.4 0.0566213 -4.44997 
567 1 0.383333 0.35 0.115359 -4.44986 
568 1 0.383333 0.45 0.115359 -4.44985 
572 1 0.416667 0.35 0.0566165 -4.44998 
593 1 0.366667 0.5 0.0566204 -4.44997 
594 1 0.4 0.5 -0.00144227 -3.90437 
595 1 0.416667 0.45 0.0566167 -4.44998 
597 1 0.4 0.4 -0.00144211 -3.90437 
598 1 0.45 0.35 -0.00143973 -3.90437 
599 1 0.45 0.45 -0.0014399 -3.90437 
727 1 0.433333 0.4 0.115357 -4.44986 
758 1 0.433333 0.5 0.115357 -4.44986 
733 1 0.483333 0.35 0.115365 -4.44985 
759 1 0.466667 0.5 0.0566213 -4.44998 
760 1 0.483333 0.45 0.115365 -4.44986 
762 1 0.466667 0.4 0.0566219 -4.44998 
763 1 0.5 0.4 -0.00142785 -3.90436 
764 1 0.516667 0.35 0.0566393 -4.44998 
765 1 0.516667 0.45 0.0566369 -4.44998 
786 1 0.5 0.5 -0.00142953 -3.90436 
922 1 0.533333 0.5 0.115381 -4.44985 
925 1 0.533333 0.4 0.115385 -4.44985 
768 1 0.55 0.35 -0.00139629 -3.90435 
787 1 0.55 0.45 -0.0014006 -3.90434 
926 1 0.566667 0.4 0.0566743 -4.44998 
927 1 0.583333 0.35 0.115423 -4.44986 
928 1 0.583333 0.45 0.115418 -4.44986 
932 1 0.616667 0.35 0.0567446 -4.45019 
953 1 0.566667 0.5 0.056668 -4.44998 
954 1 0.6 0.5 -0.00135081 -3.90419 
955 1 0.616667 0.45 0.0567372 -4.4502 
957 1 0.6 0.4 -0.00134135 -3.90419 
1087 1 0.633333 0.4 0.115472 -4.44979 
1116 1 0.633333 0.5 0.115462 -4.44982 
958 1 0.65 0.35 -0.00116954 -3.90297 
959 1 0.65 0.45 -0.00117836 -3.90298 
1093 1 0.683333 0.35 0.115435 -4.45343 
1117 1 0.666667 0.5 0.0568943 -4.44426 
1118 1 0.683333 0.45 0.115427 -4.45346 
1120 1 0.666667 0.4 0.0569095 -4.44434 
1121 1 0.7 0.4 -0.000563497 -3.46777 
1122 1 0.716667 0.35 0.0572282 -4.28689 
1123 1 0.716667 0.45 0.0572168 -4.28688 
1142 1 0.7 0.5 -0.000585871 -3.4678 
1273 1 0.733333 0.5 0.1154 -4.44255 
1276 1 0.733333 0.4 0.115412 -4.44262 
1277 1 0.766667 0.4 0.0559744 -4.17122 
1278 1 0.783333 0.35 0.115051 -4.45253 
1279 1 0.783333 0.45 0.115048 -4.45252 
1283 1 0.816667 0.35 0.0570076 -4.42619 
1304 1 0.766667 0.5 0.0559712 -4.17112 
1305 1 0.8 0.5 -0.00102898 -3.46547 
1306 1 0.816667 0.45 0.0570036 -4.42624 
1308 1 0.8 0.4 -0.00102452 -3.46536 
1309 1 0.85 0.35 -0.00118325 -3.90305 
1310 1 0.85 0.45 -0.00119508 -3.90309 
1438 1 0.833333 0.4 0.11542 -4.44957 
1444 1 0.883333 0.35 0.115588 -4.45136 
1469 1 0.833333 0.5 0.115412 -4.44954 
1470 1 0.866667 0.5 0.0567591 -4.4514 
1471 1 0.883333 0.45 0.115546 -4.45089 
1473 1 0.866667 0.4 0.0567891 -4.45166 
1474 1 0.9 0.4 -0.00114146 -3.90422 
1497 1 0.9 0.5 -0.0011911 -3.90405 
1475 1 0.916667 0.35 0.0570079 -4.44997 
1476 1 0.916667 0.45 0.0569586 -4.45001 
1479 1 0.95 0.35 -0.000841518 -3.90512 
1498 1 0.95 0.45 -0.000917822 -3.90501 
1628 1 0.933333 0.5 0.115659 -4.44664 
1631 1 0.933333 0.4 0.115552 -4.43071 
1632 1 0.966667 0.4 0.0573005 -4.44962 
1633 1 0.983333 0.35 0.116554 -4.18096 
1634 1 0.983333 0.45 0.116093 -4.32322 
1653 1 0.966667 0.5 0.0571465 -4.45254 
14 1 0.0166667 0.55 0.0570489 -4.45012 
19 1 0.0166667 0.65 0.0570619 -4.45004 
21 1 0 0.6 -0.00102284 -3.90416 
22 1 0.05 0.55 -0.00105993 -3.90441 
23 1 0.05 0.65 -0.00104994 -3.90448 
71 1 0.0333333 0.6 0.115777 -4.45097 
77 1 0.0833333 0.55 0.115653 -4.45042 
93 1 0.0833333 0.65 0.115668 -4.45037 
95 1 0.0666667 0.6 0.0569648 -4.45043 
96 1 0.1 0.6 -0.00118165 -3.90423 
97 1 0.116667 0.55 0.0568312 -4.44994 
98 1 0.116667 0.65 0.0568403 -4.44998 
101 1 0.15 0.55 -0.0012937 -3.90432 
112 1 0.15 0.65 -0.00128571 -3.90433 
229 1 0.133333 0.6 0.115519 -4.44989 
230 1 0.166667 0.6 0.0567373 -4.44998 
231 1 0.183333 0.55 0.11544 -4.44986 
232 1 0.183333 0.65 0.115445 -4.44985 
236 1 0.216667 0.55 0.0566768 -4.44998 
251 1 0.216667 0.65 0.05668 -4.44998 
253 1 0.2 0.6 -0.00136161 -3.90435 
254 1 0.25 0.55 -0.00140565 -3.90435 
255 1 0.25 0.65 -0.00140436 -3.90435 
395 1 0.233333 0.6 0.115399 -4.44985 
422 1 0.266667 0.6 0.0566439 -4.44998 
401 1 0.283333 0.55 0.115374 -4.44986 
420 1 0.283333 0.65 0.115374 -4.44986 
423 1 0.3 0.6 -0.00142634 -3.90437 
424 1 0.316667 0.55 0.0566282 -4.44998 
425 1 0.316667 0.65 0.0566274 -4.44998 
428 1 0.35 0.55 -0.00143634 -3.90438 
439 1 0.35 0.65 -0.00143708 -3.90438 
589 1 0.333333 0.6 0.115364 -4.44986 
590 1 0.366667 0.6 0.0566197 -4.44997 
591 1 0.383333 0.55 0.115358 -4.44986 
592 1 0.383333 0.65 0.115358 -4.44986 
596 1 0.416667 0.55 0.0566164 -4.44998 
611 1 0.416667 0.65 0.056616 -4.44998 
613 1 0.4 0.6 -0.00144281 -3.90437 
614 1 0.45 0.55 -0.00144029 -3.90437 
615 1 0.45 0.65 -0.00144117 -3.90437 
755 1 0.433333 0.6 0.115357 -4.44986 
761 1 0.483333 0.55 0.115363 -4.44986 
780 1 0.483333 0.65 0.115361 -4.44985 
782 1 0.466667 0.6 0.0566201 -4.44998 
783 1 0.5 0.6 -0.00143217 -3.90436 
784 1 0.516667 0.55 0.0566338 -4.44998 
785 1 0.516667 0.65 0.0566306 -4.44998 
949 1 0.533333 0.6 0.115377 -4.44985 
788 1 0.55 0.55 -0.00140669 -3.90435 
799 1 0.55 0.65 -0.00141232 -3.90435 
950 1 0.566667 0.6 0.0566602 -4.44998 
951 1 0.583333 0.55 0.11541 -4.44986 
952 1 0.583333 0.65 0.1154 -4.44986 
956 1 0.616667 0.55 0.0567236 -4.45018 
971 1 0.616667 0.65 0.0567036 -4.45015 
973 1 0.6 0.6 -0.00136359 -3.9042 
1113 1 0.633333 0.6 0.115445 -4.44971 
974 1 0.65 0.55 -0.00120122 -3.90307 
975 1 0.65 0.65 -0.0012506 -3.90141 
1119 1 0.683333 0.55 0.115408 -4.45306 
1136 1 0.683333 0.65 0.115362 -4.45337 
1138 1 0.666667 0.6 0.0568606 -4.44377 
1139 1 0.7 0.6 -0.000728204 -3.47252 
1140 1 0.716667 0.55 0.0571817 -4.28638 
1141 1 0.716667 0.65 0.056847 -4.3072 
1300 1 0.733333 0.6 0.115367 -4.443 
1301 1 0.766667 0.6 0.055946 -4.17552 
1302 1 0.783333 0.55 0.115051 -4.45259 
1303 1 0.783333 0.65 0.115228 -4.44942 
1307 1 0.816667 0.55 0.056997 -4.42624 
1322 1 0.816667 0.65 0.0570138 -4.42981 
1324 1 0.8 0.6 -0.00106407 -3.46995 
1325 1 0.85 0.55 -0.00120934 -3.90317 
1326 1 0.85 0.65 -0.00119543 -3.90146 
1466 1 0.833333 0.6 0.115427 -4.44962 
1472 1 0.883333 0.55 0.115501 -4.45032 
1491 1 0.883333 0.65 0.115519 -4.45025 
1493 1 0.866667 0.6 0.056756 -4.45126 
1494 1 0.9 0.6 -0.00121043 -3.90413 
1495 1 0.916667 0.55 0.0568869 -4.45008 
1496 1 0.916667 0.65 0.0568968 -4.45001 
1499 1 0.95 0.55 -0.00104794 -3.90452 
1510 1 0.95 0.65 -0.00104337 -3.90458 
1649 1 0.933333 0.6 0.115638 -4.45012 
1650 1 0.966667 0.6 0.0570043 -4.44979 
1651 1 0.983333 0.55 0.115736 -4.44661 
1652 1 0.983333 0.65 0.115765 -4.44661 
18 1 0 0.7 -0.000931228 -3.90482 
20 1 0.0166667 0.75 0.0571512 -4.44694 
27 1 0 0.8 -0.000896975 -3.90402 
28 1 0.05 0.75 -0.000963487 -3.90481 
88 1 0.0333333 0.8 0.116097 -4.32687 
91 1 0.0333333 0.7 0.115614 -4.43422 
92 1 0.0666667 0.7 0.0570015 -4.44992 
94 1 0.0833333 0.75 0.11567 -4.44656 
107 1 0.0666667 0.8 0.0571052 -4.45258 
108 1 0.1 0.8 -0.00112504 -3.90455 
109 1 0.116667 0.75 0.0568572 -4.44989 
111 1 0.1 0.7 -0.00116091 -3.90423 
113 1 0.15 0.75 -0.00127726 -3.90432 
226 1 0.133333 0.7 0.115525 -4.44987 
245 1 0.133333 0.8 0.11553 -4.45003 
246 1 0.166667 0.8 0.056744 -4.45001 
249 1 0.166667 0.7 0.0567436 -4.44997 
247 1 0.183333 0.75 0.115447 -4.44984 
250 1 0.2 0.7 -0.0013566 -3.90435 
252 1 0.216667 0.75 0.0566818 -4.44997 
261 1 0.2 0.8 -0.0013568 -3.90435 
262 1 0.25 0.75 -0.0014035 -3.90435 
415 1 0.233333 0.8 0.115401 -4.44985 
418 1 0.233333 0.7 0.115401 -4.44985 
419 1 0.266667 0.7 0.0566443 -4.44998 
434 1 0.266667 0.8 0.0566448 -4.44998 
421 1 0.283333 0.75 0.115374 -4.44986 
435 1 0.3 0.8 -0.00142674 -3.90437 
436 1 0.316667 0.75 0.0566274 -4.44998 
438 1 0.3 0.7 -0.00142724 -3.90437 
440 1 0.35 0.75 -0.00143686 -3.90438 
586 1 0.333333 0.7 0.115363 -4.44986 
605 1 0.333333 0.8 0.115364 -4.44986 
606 1 0.366667 0.8 0.0566204 -4.44997 
607 1 0.383333 0.75 0.115358 -4.44986 
609 1 0.366667 0.7 0.0566196 -4.44997 
610 1 0.4 0.7 -0.00144259 -3.90437 
612 1 0.416667 0.75 0.0566162 -4.44998 
621 1 0.4 0.8 -0.00144197 -3.90438 
622 1 0.45 0.75 -0.00144162 -3.90437 
775 1 0.433333 0.8 0.115357 -4.44986 
778 1 0.433333 0.7 0.115356 -4.44986 
779 1 0.466667 0.7 0.0566191 -4.44998 
781 1 0.483333 0.75 0.115361 -4.44986 
794 1 0.466667 0.8 0.0566193 -4.44998 
795 1 0.5 0.8 -0.00143382 -3.90436 
796 1 0.516667 0.75 0.0566293 -4.44998 
798 1 0.5 0.7 -0.00143393 -3.90436 
946 1 0.533333 0.7 0.115373 -4.44986 
965 1 0.533333 0.8 0.115373 -4.44986 
800 1 0.55 0.75 -0.00141475 -3.90436 
966 1 0.566667 0.8 0.056653 -4.44998 
967 1 0.583333 0.75 0.115395 -4.44985 
969 1 0.566667 0.7 0.0566529 -4.44998 
970 1 0.6 0.7 -0.00137913 -3.9043 
972 1 0.616667 0.75 0.0566866 -4.45015 
981 1 0.6 0.8 -0.00137906 -3.9043 
1131 1 0.633333 0.8 0.115424 -4.44986 
1134 1 0.633333 0.7 0.115424 -4.44986 
982 1 0.65 0.75 -0.00130846 -3.90744 
1135 1 0.666667 0.7 0.0567703 -4.44796 
1137 1 0.683333 0.75 0.115448 -4.45068 
1148 1 0.666667 0.8 0.0567704 -4.44796 
1149 1 0.7 0.8 -0.000898801 -3.6913 
1150 1 0.716667 0.75 0.0572651 -4.41718 
1152 1 0.7 0.7 -0.000898966 -3.6913 
1153 1 0.75 0.75 -0.000927934 -3.47889 
1297 1 0.733333 0.7 0.11543 -4.44647 
1316 1 0.733333 0.8 0.11543 -4.44647 
1317 1 0.766667 0.8 0.0565548 -4.31863 
1318 1 0.783333 0.75 0.115232 -4.45537 
1320 1 0.766667 0.7 0.0565547 -4.31863 
1321 1 0.8 0.7 -0.00101474 -3.69155 
1323 1 0.816667 0.75 0.0568485 -4.44315 
1332 1 0.8 0.8 -0.00101483 -3.69154 
1333 1 0.85 0.75 -0.00123814 -3.90741 
1486 1 0.833333 0.8 0.115465 -4.44977 
1489 1 0.833333 0.7 0.115462 -4.44976 
1490 1 0.866667 0.7 0.056792 -4.45083 
1492 1 0.883333 0.75 0.11557 -4.45052 
1505 1 0.866667 0.8 0.0568033 -4.45103 
1506 1 0.9 0.8 -0.00116521 -3.90444 
1509 1 0.9 0.7 -0.00117986 -3.90418 
1507 1 0.916667 0.75 0.0569483 -4.45 
1511 1 0.95 0.75 -0.000976754 -3.9048 
1646 1 0.933333 0.7 0.115684 -4.4465 
1659 1 0.933333 0.8 0.115533 -4.43422 
1660 1 0.966667 0.8 0.057121 -4.44692 
1661 1 0.983333 0.75 0.116123 -4.32689 
1663 1 0.966667 0.7 0.057149 -4.4526 
24 1 0 0.9 -0.000972427 -3.90479 
25 1 0.0166667 0.85 0.0571264 -4.44692 
26 1 0.0166667 0.95 0.0570028 -4.44998 
29 1 0.05 0.85 -0.000983331 -3.90478 
30 1 0.05 0.95 -0.00110034 -3.90451 
103 1 0.0333333 0.9 0.115567 -4.43419 
104 1 0.0666667 0.9 0.056969 -4.44996 
105 1 0.0833333 0.85 0.115656 -4.44657 
106 1 0.0833333 0.95 0.115628 -4.45035 
110 1 0.116667 0.85 0.0568486 -4.44989 
114 1 0.116667 0.95 0.0568175 -4.45002 
115 1 0.1 0.9 -0.00118281 -3.90423 
116 1 0.15 0.85 -0.00128358 -3.90432 
117 1 0.15 0.95 -0.00129854 -3.90433 
242 1 0.133333 0.9 0.115515 -4.44988 
257 1 0.166667 0.9 0.0567367 -4.44997 
248 1 0.183333 0.85 0.115445 -4.44984 
256 1 0.183333 0.95 0.115442 -4.44986 
258 1 0.2 0.9 -0.00135993 -3.90435 
259 1 0.216667 0.85 0.0566806 -4.44997 
260 1 0.216667 0.95 0.0566798 -4.44997 
263 1 0.25 0.85 -0.00140337 -3.90435 
264 1 0.25 0.95 -0.00140213 -3.90436 
430 1 0.233333 0.9 0.115401 -4.44985 
431 1 0.266667 0.9 0.056646 -4.44998 
432 1 0.283333 0.85 0.115375 -4.44985 
433 1 0.283333 0.95 0.115377 -4.44986 
437 1 0.316667 0.85 0.0566286 -4.44998 
441 1 0.316667 0.95 0.0566303 -4.44998 
442 1 0.3 0.9 -0.001425 -3.90437 
443 1 0.35 0.85 -0.00143561 -3.90438 
444 1 0.35 0.95 -0.00143446 -3.90438 
602 1 0.333333 0.9 0.115365 -4.44986 
608 1 0.383333 0.85 0.115359 -4.44986 
616 1 0.383333 0.95 0.11536 -4.44986 
617 1 0.366667 0.9 0.0566214 -4.44997 
618 1 0.4 0.9 -0.00144112 -3.90437 
619 1 0.416667 0.85 0.0566169 -4.44998 
620 1 0.416667 0.95 0.0566178 -4.44998 
623 1 0.45 0.85 -0.00144063 -3.90437 
624 1 0.45 0.95 -0.00143941 -3.90437 
790 1 0.433333 0.9 0.115358 -4.44986 
791 1 0.466667 0.9 0.0566207 -4.44998 
792 1 0.483333 0.85 0.115362 -4.44986 
793 1 0.483333 0.95 0.115363 -4.44986 
797 1 0.516667 0.85 0.0566309 -4.44998 
801 1 0.516667 0.95 0.0566341 -4.44998 
802 1 0.5 0.9 -0.00143186 -3.90436 
962 1 0.533333 0.9 0.115377 -4.44985 
803 1 0.55 0.85 -0.00141212 -3.90435 
804 1 0.55 0.95 -0.00140647 -3.90435 
968 1 0.583333 0.85 0.115401 -4.44986 
976 1 0.583333 0.95 0.11541 -4.44986 
977 1 0.566667 0.9 0.0566603 -4.44998 
978 1 0.6 0.9 -0.00136338 -3.9042 
979 1 0.616667 0.85 0.0567037 -4.45015 
980 1 0.616667 0.95 0.0567239 -4.45018 
1144 1 0.633333 0.9 0.115445 -4.44971 
983 1 0.65 0.85 -0.0012504 -3.90141 
984 1 0.65 0.95 -0.00120073 -3.90307 
1145 1 0.666667 0.9 0.0568609 -4.44376 
1146 1 0.683333 0.85 0.115363 -4.45337 
1147 1 0.683333 0.95 0.115408 -4.45306 
1151 1 0.716667 0.85 0.0568473 -4.3072 
1154 1 0.716667 0.95 0.0571816 -4.28638 
1155 1 0.7 0.9 -0.000727991 -3.47252 
1313 1 0.733333 0.9 0.115367 -4.443 
1319 1 0.783333 0.85 0.115228 -4.44942 
1327 1 0.783333 0.95 0.115047 -4.4526 
1328 1 0.766667 0.9 0.0559445 -4.17552 
1329 1 0.8 0.9 -0.00106667 -3.46996 
1330 1 0.816667 0.85 0.0570149 -4.42977 
1331 1 0.816667 0.95 0.0569908 -4.42623 
1334 1 0.85 0.85 -0.00119069 -3.90143 
1335 1 0.85 0.95 -0.00122311 -3.90318 
1501 1 0.833333 0.9 0.115427 -4.44963 
1502 1 0.866667 0.9 0.0567579 -4.45133 
1503 1 0.883333 0.85 0.115553 -4.45077 
1504 1 0.883333 0.95 0.115491 -4.45037 
1513 1 0.9 0.9 -0.0012093 -3.90409 
1508 1 0.916667 0.85 0.0569304 -4.45008 
1512 1 0.916667 0.95 0.0568576 -4.45001 
1514 1 0.95 0.85 -0.000998527 -3.90479 
1515 1 0.95 0.95 -0.00109507 -3.90459 
1656 1 0.933333 0.9 0.115649 -4.44653 
1662 1 0.983333 0.85 0.116084 -4.32687 
1664 1 0.983333 0.95 0.115708 -4.44657 
1665 1 0.966667 0.9 0.0571076 -4.45259 
31 1 0 0.1 0.174496 -4.45121 
32 1 0.0166667 0.05 0.233282 -4.44724 
33 1 0.0166667 0.15 0.233235 -4.44381 
34 1 0 0 0.17448 -4.45181 
36 1 0.05 0.05 0.174466 -4.45002 
41 1 0.05 0.15 0.174447 -4.44752 
131 1 0.0666667 0.1 0.233292 -4.4527 
134 1 0.0666667 0 0.233191 -4.45045 
135 1 0.1 0 0.174356 -4.44982 
136 1 0.116667 0.05 0.233108 -4.44986 
150 1 0.116667 0.15 0.233096 -4.44997 
152 1 0.1 0.1 0.174374 -4.45006 
154 1 0.15 0.05 0.174277 -4.44998 
155 1 0.15 0.15 0.174273 -4.45005 
288 1 0.166667 0 0.233045 -4.44999 
307 1 0.166667 0.1 0.233045 -4.45002 
308 1 0.2 0.1 0.174229 -4.44999 
309 1 0.216667 0.05 0.233016 -4.45 
310 1 0.216667 0.15 0.233015 -4.45 
311 1 0.2 0 0.17423 -4.44998 
313 1 0.25 0.05 0.174202 -4.44999 
337 1 0.25 0.15 0.174201 -4.44999 
475 1 0.266667 0.1 0.232998 -4.45 
478 1 0.266667 0 0.232998 -4.45 
479 1 0.3 0 0.174186 -4.44999 
480 1 0.316667 0.05 0.232989 -4.45 
500 1 0.316667 0.15 0.23299 -4.45 
502 1 0.3 0.1 0.174187 -4.44999 
504 1 0.35 0.05 0.174179 -4.44999 
505 1 0.35 0.15 0.174179 -4.44999 
648 1 0.366667 0 0.232985 -4.45 
667 1 0.366667 0.1 0.232985 -4.45 
668 1 0.4 0.1 0.174174 -4.44999 
669 1 0.416667 0.05 0.232983 -4.45 
670 1 0.416667 0.15 0.232982 -4.45 
671 1 0.4 0 0.174174 -4.44999 
673 1 0.45 0.05 0.174175 -4.44999 
697 1 0.45 0.15 0.174174 -4.44999 
835 1 0.466667 0.1 0.232985 -4.45 
838 1 0.466667 0 0.232984 -4.45 
839 1 0.5 0 0.174182 -4.44999 
840 1 0.516667 0.05 0.232994 -4.45 
860 1 0.516667 0.15 0.232995 -4.45 
862 1 0.5 0.1 0.174184 -4.44999 
864 1 0.55 0.05 0.174202 -4.44999 
865 1 0.55 0.15 0.174205 -4.44999 
1008 1 0.566667 0 0.233007 -4.45 
1027 1 0.566667 0.1 0.233011 -4.45 
1028 1 0.6 0.1 0.174232 -4.44994 
1029 1 0.616667 0.05 0.233023 -4.45001 
1030 1 0.616667 0.15 0.233027 -4.45001 
1031 1 0.6 0 0.174226 -4.44994 
1033 1 0.65 0.05 0.17424 -4.44981 
1057 1 0.65 0.15 0.174246 -4.44981 
1186 1 0.666667 0.1 0.233015 -4.44996 
1189 1 0.666667 0 0.233009 -4.44995 
1190 1 0.7 0 0.17419 -4.45055 
1191 1 0.716667 0.05 0.232961 -4.45006 
1211 1 0.716667 0.15 0.232965 -4.45007 
1213 1 0.7 0.1 0.174199 -4.45054 
1215 1 0.75 0.05 0.174074 -4.44908 
1216 1 0.75 0.15 0.174078 -4.44908 
1359 1 0.766667 0 0.232893 -4.4499 
1378 1 0.766667 0.1 0.232895 -4.44988 
1379 1 0.8 0.1 0.174037 -4.45055 
1380 1 0.816667 0.05 0.232925 -4.45005 
1381 1 0.816667 0.15 0.232928 -4.45005 
1382 1 0.8 0 0.174037 -4.45058 
1384 1 0.85 0.05 0.174214 -4.44973 
1408 1 0.85 0.15 0.174219 -4.4498 
1546 1 0.866667 0.1 0.233042 -4.45019 
1549 1 0.866667 0 0.23303 -4.45 
1550 1 0.9 0 0.174304 -4.4498 
1573 1 0.9 0.1 0.174312 -4.45002 
1551 1 0.916667 0.05 0.233135 -4.45009 
1571 1 0.916667 0.15 0.233105 -4.45063 
1575 1 0.95 0.05 0.174425 -4.45003 
1576 1 0.95 0.15 0.174444 -4.44753 
1689 1 0.966667 0 0.233272 -4.45313 
1708 1 0.966667 0.1 0.233228 -4.44766 
37 1 0.0166667 0.25 0.23277 -4.32309 
39 1 0 0.2 0.174469 -4.32867 
42 1 0.05 0.25 0.174363 -4.32454 
145 1 0.0666667 0.3 0.233169 -4.43108 
148 1 0.0666667 0.2 0.233116 -4.44694 
149 1 0.1 0.2 0.17434 -4.4515 
151 1 0.116667 0.25 0.233027 -4.45065 
173 1 0.1 0.3 0.174316 -4.449 
175 1 0.15 0.25 0.174258 -4.45003 
304 1 0.166667 0.2 0.233036 -4.45001 
331 1 0.166667 0.3 0.233023 -4.45003 
332 1 0.2 0.3 0.174221 -4.45001 
333 1 0.216667 0.25 0.233012 -4.45 
335 1 0.2 0.2 0.174226 -4.44999 
338 1 0.25 0.25 0.1742 -4.44999 
495 1 0.266667 0.3 0.232996 -4.45 
498 1 0.266667 0.2 0.232998 -4.45 
499 1 0.3 0.2 0.174186 -4.44999 
501 1 0.316667 0.25 0.232989 -4.45 
530 1 0.3 0.3 0.174185 -4.44999 
532 1 0.35 0.25 0.174179 -4.44999 
664 1 0.366667 0.2 0.232985 -4.45 
691 1 0.366667 0.3 0.232984 -4.45 
692 1 0.4 0.3 0.174173 -4.44999 
693 1 0.416667 0.25 0.232982 -4.45 
695 1 0.4 0.2 0.174173 -4.44999 
698 1 0.45 0.25 0.174174 -4.44999 
855 1 0.466667 0.3 0.232984 -4.45 
858 1 0.466667 0.2 0.232984 -4.45 
859 1 0.5 0.2 0.174184 -4.44999 
861 1 0.516667 0.25 0.232996 -4.45 
890 1 0.5 0.3 0.174184 -4.44999 
892 1 0.55 0.25 0.174206 -4.44999 
1024 1 0.566667 0.2 0.233014 -4.45 
1051 1 0.566667 0.3 0.233014 -4.45 
1052 1 0.6 0.3 0.174236 -4.44994 
1053 1 0.616667 0.25 0.233029 -4.45001 
1055 1 0.6 0.2 0.174236 -4.44994 
1058 1 0.65 0.25 0.174249 -4.44981 
1206 1 0.666667 0.3 0.233018 -4.44996 
1209 1 0.666667 0.2 0.233018 -4.44996 
1210 1 0.7 0.2 0.174203 -4.45054 
1212 1 0.716667 0.25 0.232967 -4.45007 
1241 1 0.7 0.3 0.174204 -4.45054 
1243 1 0.75 0.25 0.174081 -4.44908 
1375 1 0.766667 0.2 0.232897 -4.44988 
1402 1 0.766667 0.3 0.232897 -4.44988 
1403 1 0.8 0.3 0.174043 -4.45057 
1404 1 0.816667 0.25 0.232929 -4.45008 
1406 1 0.8 0.2 0.17404 -4.45056 
1409 1 0.85 0.25 0.174227 -4.4498 
1566 1 0.866667 0.3 0.233013 -4.45013 
1569 1 0.866667 0.2 0.233032 -4.45004 
1570 1 0.9 0.2 0.174317 -4.45147 
1601 1 0.9 0.3 0.174309 -4.44901 
1572 1 0.916667 0.25 0.233036 -4.44723 
1603 1 0.95 0.25 0.174439 -4.32441 
1705 1 0.966667 0.2 0.233389 -4.43753 
1726 1 0.966667 0.3 0.232954 -4.3079 
38 1 0.0166667 0.35 0.23222 -4.18064 
50 1 0 0.5 0.174458 -4.32882 
51 1 0.0166667 0.45 0.232743 -4.32314 
54 1 0.05 0.35 0.174281 -4.1808 
55 1 0.05 0.45 0.174354 -4.32456 
166 1 0.0666667 0.5 0.233097 -4.44686 
169 1 0.0666667 0.4 0.233158 -4.43108 
170 1 0.1 0.4 0.174312 -4.449 
171 1 0.116667 0.35 0.232971 -4.45098 
172 1 0.116667 0.45 0.233017 -4.45065 
176 1 0.15 0.35 0.174246 -4.44991 
201 1 0.1 0.5 0.174339 -4.4515 
203 1 0.15 0.45 0.174254 -4.45003 
328 1 0.166667 0.4 0.233019 -4.45003 
362 1 0.166667 0.5 0.233029 -4.45001 
334 1 0.216667 0.35 0.233008 -4.44999 
363 1 0.2 0.5 0.174222 -4.44999 
364 1 0.216667 0.45 0.233007 -4.44999 
366 1 0.2 0.4 0.174219 -4.45001 
368 1 0.25 0.35 0.174197 -4.44998 
369 1 0.25 0.45 0.174197 -4.44999 
523 1 0.266667 0.5 0.232994 -4.45 
526 1 0.266667 0.4 0.232994 -4.45 
527 1 0.3 0.4 0.174184 -4.44999 
528 1 0.316667 0.35 0.232988 -4.45 
529 1 0.316667 0.45 0.232987 -4.45 
533 1 0.35 0.35 0.174178 -4.44999 
561 1 0.3 0.5 0.174183 -4.44999 
563 1 0.35 0.45 0.174177 -4.44999 
688 1 0.366667 0.4 0.232984 -4.45 
694 1 0.416667 0.35 0.232981 -4.45 
722 1 0.366667 0.5 0.232983 -4.45 
723 1 0.4 0.5 0.174173 -4.44999 
724 1 0.416667 0.45 0.232981 -4.45 
726 1 0.4 0.4 0.174173 -4.44999 
728 1 0.45 0.35 0.174174 -4.44999 
729 1 0.45 0.45 0.174174 -4.44999 
883 1 0.466667 0.5 0.232984 -4.45 
886 1 0.466667 0.4 0.232984 -4.45 