ITEM: TIMESTEP
3
ITEM: NUMBER OF ATOMS
3584
ITEM: BOX BOUNDS pp pp ss
0.0000000000000000e+00 4.3111019472983898e+01
0.0000000000000000e+00 2.4890158697766498e+01
-3.6580800000000006e-03 3.4552298188307212e+01
ITEM: ATOMS id type xs ys zs c_peratom 
1 1 0 0.1 -1.35524e-05 -3.90367 
2 1 0.0166667 0.05 0.0590226 -4.40836 
3 1 0.0166667 0.15 0.059013 -4.4073 
4 1 0 0 -1.36602e-05 -3.90363 
5 1 0.05 0.05 -1.40318e-05 -3.90368 
9 1 0 0.2 -2.09254e-05 -3.9027 
10 1 0.05 0.15 -7.36421e-06 -3.90344 
35 1 0.0333333 0 0.11777 -4.44895 
40 1 0.0333333 0.2 0.117765 -4.42398 
43 1 0.0333333 0.1 0.117764 -4.44837 
44 1 0.0666667 0.1 0.0590214 -4.40837 
45 1 0.0833333 0.05 0.117756 -4.44869 
46 1 0.0833333 0.15 0.117771 -4.44896 
47 1 0.0666667 0 0.0590212 -4.40839 
60 1 0.0666667 0.2 0.0590153 -4.40742 
48 1 0.1 0 -1.45271e-05 -3.90365 
49 1 0.116667 0.05 0.0590167 -4.40825 
61 1 0.1 0.2 -1.32565e-05 -3.90361 
62 1 0.116667 0.15 0.0590195 -4.40831 
64 1 0.1 0.1 -1.45339e-05 -3.90365 
65 1 0.15 0.05 -1.5042e-05 -3.90363 
66 1 0.15 0.15 -1.48614e-05 -3.90365 
153 1 0.133333 0.1 0.117757 -4.44885 
156 1 0.133333 0 0.117757 -4.4488 
157 1 0.166667 0 0.0590166 -4.40826 
158 1 0.183333 0.05 0.117757 -4.44884 
177 1 0.133333 0.2 0.117758 -4.44892 
178 1 0.166667 0.2 0.0590168 -4.40831 
179 1 0.183333 0.15 0.117757 -4.44883 
181 1 0.166667 0.1 0.0590166 -4.40826 
182 1 0.2 0.1 -1.5033e-05 -3.90364 
183 1 0.216667 0.05 0.0590166 -4.40826 
184 1 0.216667 0.15 0.0590166 -4.40826 
185 1 0.2 0 -1.50331e-05 -3.90364 
186 1 0.25 0.05 -1.50351e-05 -3.90364 
213 1 0.2 0.2 -1.50399e-05 -3.90365 
214 1 0.25 0.15 -1.5035e-05 -3.90364 
312 1 0.233333 0 0.117757 -4.44884 
336 1 0.233333 0.2 0.117757 -4.44885 
339 1 0.233333 0.1 0.117757 -4.44885 
340 1 0.266667 0.1 0.0590166 -4.40826 
341 1 0.283333 0.05 0.117757 -4.44884 
342 1 0.283333 0.15 0.117757 -4.44884 
343 1 0.266667 0 0.0590166 -4.40826 
374 1 0.266667 0.2 0.0590166 -4.40826 
344 1 0.3 0 -1.50351e-05 -3.90364 
345 1 0.316667 0.05 0.0590166 -4.40826 
375 1 0.3 0.2 -1.50351e-05 -3.90364 
376 1 0.316667 0.15 0.0590166 -4.40826 
378 1 0.3 0.1 -1.50351e-05 -3.90364 
379 1 0.35 0.05 -1.50351e-05 -3.90364 
380 1 0.35 0.15 -1.50351e-05 -3.90364 
503 1 0.333333 0.1 0.117757 -4.44884 
506 1 0.333333 0 0.117757 -4.44884 
507 1 0.366667 0 0.0590166 -4.40826 
508 1 0.383333 0.05 0.117757 -4.44884 
534 1 0.333333 0.2 0.117757 -4.44884 
535 1 0.366667 0.2 0.0590166 -4.40826 
536 1 0.383333 0.15 0.117757 -4.44884 
538 1 0.366667 0.1 0.0590166 -4.40826 
539 1 0.4 0.1 -1.50351e-05 -3.90364 
540 1 0.416667 0.05 0.0590166 -4.40826 
541 1 0.416667 0.15 0.0590166 -4.40826 
542 1 0.4 0 -1.50351e-05 -3.90364 
543 1 0.45 0.05 -1.5035e-05 -3.90364 
573 1 0.4 0.2 -1.50351e-05 -3.90364 
574 1 0.45 0.15 -1.5035e-05 -3.90364 
672 1 0.433333 0 0.117757 -4.44884 
696 1 0.433333 0.2 0.117757 -4.44884 
699 1 0.433333 0.1 0.117757 -4.44884 
700 1 0.466667 0.1 0.0590166 -4.40826 
701 1 0.483333 0.05 0.117757 -4.44884 
702 1 0.483333 0.15 0.117757 -4.44884 
703 1 0.466667 0 0.0590166 -4.40826 
734 1 0.466667 0.2 0.0590166 -4.40826 
704 1 0.5 0 -1.50385e-05 -3.90364 
705 1 0.516667 0.05 0.0590166 -4.40826 
735 1 0.5 0.2 -1.50385e-05 -3.90364 
736 1 0.516667 0.15 0.0590166 -4.40826 
738 1 0.5 0.1 -1.50385e-05 -3.90364 
739 1 0.55 0.05 -1.49495e-05 -3.90367 
740 1 0.55 0.15 -1.49494e-05 -3.90367 
863 1 0.533333 0.1 0.117757 -4.44883 
866 1 0.533333 0 0.117757 -4.44883 
867 1 0.566667 0 0.0590164 -4.40832 
868 1 0.583333 0.05 0.117755 -4.44906 
894 1 0.533333 0.2 0.117757 -4.44883 
895 1 0.566667 0.2 0.0590164 -4.40832 
896 1 0.583333 0.15 0.117755 -4.44906 
898 1 0.566667 0.1 0.0590164 -4.40832 
899 1 0.6 0.1 -1.9587e-05 -3.90336 
900 1 0.616667 0.05 0.0590031 -4.40946 
901 1 0.616667 0.15 0.0590031 -4.40947 
902 1 0.6 0 -1.95741e-05 -3.90333 
903 1 0.65 0.05 2.83222e-05 -3.89 
933 1 0.6 0.2 -1.95905e-05 -3.90336 
934 1 0.65 0.15 2.82344e-05 -3.89003 
1032 1 0.633333 0 0.117755 -4.44788 
1056 1 0.633333 0.2 0.117755 -4.44788 
1059 1 0.633333 0.1 0.117755 -4.44788 
1060 1 0.666667 0.1 0.0591445 -4.37554 
1061 1 0.683333 0.05 0.117589 -4.44987 
1062 1 0.683333 0.15 0.117589 -4.44985 
1063 1 0.666667 0 0.0591453 -4.37556 
1094 1 0.666667 0.2 0.0591444 -4.37554 
1064 1 0.7 0 0.000923506 -3.54837 
1065 1 0.716667 0.05 0.0585175 -4.25153 
1095 1 0.7 0.2 0.000923086 -3.54815 
1096 1 0.716667 0.15 0.0585176 -4.25151 
1098 1 0.7 0.1 0.000923096 -3.54814 
1214 1 0.733333 0.1 0.117695 -4.43003 
1217 1 0.733333 0 0.117697 -4.4299 
1218 1 0.766667 0 0.0575977 -4.17617 
1219 1 0.783333 0.05 0.117479 -4.44218 
1245 1 0.733333 0.2 0.117695 -4.43002 
1246 1 0.766667 0.2 0.0575963 -4.17631 
1247 1 0.783333 0.15 0.117479 -4.44228 
1249 1 0.766667 0.1 0.0575963 -4.17632 
1250 1 0.8 0.1 0.00102094 -3.5474 
1251 1 0.816667 0.05 0.0593438 -4.34728 
1252 1 0.816667 0.15 0.0593438 -4.34732 
1253 1 0.8 0 0.00102281 -3.54771 
1254 1 0.85 0.05 -8.42674e-06 -3.89044 
1284 1 0.8 0.2 0.00102094 -3.5474 
1285 1 0.85 0.15 -8.15887e-06 -3.89045 
1383 1 0.833333 0 0.117746 -4.44598 
1407 1 0.833333 0.2 0.117745 -4.44611 
1410 1 0.833333 0.1 0.117745 -4.44617 
1411 1 0.866667 0.1 0.0589354 -4.40959 
1412 1 0.883333 0.05 0.117731 -4.44977 
1413 1 0.883333 0.15 0.117732 -4.44987 
1414 1 0.866667 0 0.0589354 -4.40955 
1445 1 0.866667 0.2 0.0589384 -4.40965 
1415 1 0.9 0 -2.66581e-05 -3.90304 
1416 1 0.916667 0.05 0.0590163 -4.40851 
1446 1 0.9 0.2 -2.53162e-05 -3.90298 
1447 1 0.916667 0.15 0.0590007 -4.40741 
1449 1 0.9 0.1 -2.66653e-05 -3.90307 
1450 1 0.95 0.05 -1.57864e-05 -3.90356 
1451 1 0.95 0.15 -8.6262e-06 -3.904 
1574 1 0.933333 0.1 0.117754 -4.44864 
1577 1 0.933333 0 0.117756 -4.44868 
1578 1 0.966667 0 0.0590023 -4.40731 
1579 1 0.983333 0.05 0.117751 -4.44847 
1605 1 0.933333 0.2 0.117657 -4.43367 
1606 1 0.966667 0.2 0.0591353 -4.40878 
1607 1 0.983333 0.15 0.11765 -4.43344 
1609 1 0.966667 0.1 0.0590022 -4.40742 
6 1 0 0.3 -8.23752e-05 -3.89866 
7 1 0.0166667 0.25 0.0590988 -4.39994 
8 1 0.0166667 0.35 0.0591977 -4.39306 
11 1 0.05 0.25 -1.45277e-05 -3.90249 
15 1 0 0.4 -8.23734e-05 -3.89866 
16 1 0.05 0.35 -2.82543e-05 -3.90178 
53 1 0.0333333 0.4 0.118712 -4.33228 
56 1 0.0333333 0.3 0.118712 -4.33228 
57 1 0.0666667 0.3 0.0591469 -4.40875 
58 1 0.0833333 0.25 0.117676 -4.4342 
59 1 0.0833333 0.35 0.117568 -4.41904 
78 1 0.0666667 0.4 0.0591469 -4.40875 
63 1 0.116667 0.25 0.0590051 -4.40737 
79 1 0.1 0.4 -6.37302e-06 -3.90394 
80 1 0.116667 0.35 0.0589883 -4.40635 
82 1 0.1 0.3 -6.37365e-06 -3.90394 
83 1 0.15 0.25 -1.51057e-05 -3.90355 
84 1 0.15 0.35 -1.5496e-05 -3.90343 
174 1 0.133333 0.3 0.117758 -4.44892 
180 1 0.183333 0.25 0.117757 -4.44886 
205 1 0.133333 0.4 0.117758 -4.44892 
206 1 0.166667 0.4 0.0590175 -4.40845 
207 1 0.183333 0.35 0.117757 -4.44888 
209 1 0.166667 0.3 0.0590175 -4.40845 
210 1 0.2 0.3 -1.50577e-05 -3.90367 
211 1 0.216667 0.25 0.0590166 -4.40826 
212 1 0.216667 0.35 0.0590166 -4.40826 
215 1 0.25 0.25 -1.50341e-05 -3.90364 
237 1 0.2 0.4 -1.50577e-05 -3.90367 
238 1 0.25 0.35 -1.50332e-05 -3.90364 
367 1 0.233333 0.4 0.117757 -4.44885 
370 1 0.233333 0.3 0.117757 -4.44885 
371 1 0.266667 0.3 0.0590166 -4.40826 
372 1 0.283333 0.25 0.117757 -4.44884 
373 1 0.283333 0.35 0.117757 -4.44885 
402 1 0.266667 0.4 0.0590166 -4.40826 
377 1 0.316667 0.25 0.0590166 -4.40826 
403 1 0.3 0.4 -1.50351e-05 -3.90364 
404 1 0.316667 0.35 0.0590166 -4.40826 
406 1 0.3 0.3 -1.50351e-05 -3.90364 
407 1 0.35 0.25 -1.50351e-05 -3.90364 
408 1 0.35 0.35 -1.50351e-05 -3.90364 
531 1 0.333333 0.3 0.117757 -4.44884 
537 1 0.383333 0.25 0.117757 -4.44884 
565 1 0.333333 0.4 0.117757 -4.44884 
566 1 0.366667 0.4 0.0590166 -4.40826 
567 1 0.383333 0.35 0.117757 -4.44884 
569 1 0.366667 0.3 0.0590166 -4.40826 
570 1 0.4 0.3 -1.50351e-05 -3.90364 
571 1 0.416667 0.25 0.0590166 -4.40826 
572 1 0.416667 0.35 0.0590166 -4.40826 
575 1 0.45 0.25 -1.5035e-05 -3.90364 
597 1 0.4 0.4 -1.50351e-05 -3.90364 
598 1 0.45 0.35 -1.5035e-05 -3.90364 
727 1 0.433333 0.4 0.117757 -4.44884 
730 1 0.433333 0.3 0.117757 -4.44884 
731 1 0.466667 0.3 0.0590166 -4.40826 
732 1 0.483333 0.25 0.117757 -4.44884 
733 1 0.483333 0.35 0.117757 -4.44884 
762 1 0.466667 0.4 0.0590166 -4.40826 
737 1 0.516667 0.25 0.0590166 -4.40826 
763 1 0.5 0.4 -1.50385e-05 -3.90364 
764 1 0.516667 0.35 0.0590166 -4.40826 
766 1 0.5 0.3 -1.50385e-05 -3.90364 
767 1 0.55 0.25 -1.49493e-05 -3.90367 
768 1 0.55 0.35 -1.49494e-05 -3.90367 
891 1 0.533333 0.3 0.117757 -4.44883 
897 1 0.583333 0.25 0.117755 -4.44906 
925 1 0.533333 0.4 0.117757 -4.44883 
926 1 0.566667 0.4 0.0590164 -4.40832 
927 1 0.583333 0.35 0.117755 -4.44906 
929 1 0.566667 0.3 0.0590164 -4.40832 
930 1 0.6 0.3 -1.95905e-05 -3.90336 
931 1 0.616667 0.25 0.0590031 -4.40947 
932 1 0.616667 0.35 0.0590031 -4.40947 
935 1 0.65 0.25 2.82341e-05 -3.89003 
957 1 0.6 0.4 -1.9587e-05 -3.90336 
958 1 0.65 0.35 2.82344e-05 -3.89003 
1087 1 0.633333 0.4 0.117755 -4.44788 
1090 1 0.633333 0.3 0.117755 -4.44788 
1091 1 0.666667 0.3 0.0591444 -4.37554 
1092 1 0.683333 0.25 0.117589 -4.44985 
1093 1 0.683333 0.35 0.117589 -4.44985 
1120 1 0.666667 0.4 0.0591445 -4.37554 
1097 1 0.716667 0.25 0.0585176 -4.25152 
1121 1 0.7 0.4 0.000923096 -3.54814 
1122 1 0.716667 0.35 0.0585176 -4.25151 
1124 1 0.7 0.3 0.000923086 -3.54815 
1242 1 0.733333 0.3 0.117695 -4.43002 
1248 1 0.783333 0.25 0.117479 -4.44229 
1276 1 0.733333 0.4 0.117695 -4.43003 
1277 1 0.766667 0.4 0.0575963 -4.17632 
1278 1 0.783333 0.35 0.117479 -4.44229 
1280 1 0.766667 0.3 0.0575963 -4.17631 
1281 1 0.8 0.3 0.00102094 -3.54739 
1282 1 0.816667 0.25 0.0593437 -4.34731 
1283 1 0.816667 0.35 0.0593437 -4.34732 
1286 1 0.85 0.25 -7.6148e-06 -3.89045 
1308 1 0.8 0.4 0.00102093 -3.54739 
1309 1 0.85 0.35 -7.26746e-06 -3.89045 
1438 1 0.833333 0.4 0.117745 -4.4461 
1441 1 0.833333 0.3 0.117745 -4.4461 
1442 1 0.866667 0.3 0.0589431 -4.40975 
1443 1 0.883333 0.25 0.117747 -4.45007 
1444 1 0.883333 0.35 0.117764 -4.45017 
1473 1 0.866667 0.4 0.0589431 -4.40975 
1448 1 0.916667 0.25 0.0589952 -4.40612 
1474 1 0.9 0.4 -1.69065e-05 -3.90286 
1475 1 0.916667 0.35 0.0590092 -4.40639 
1477 1 0.9 0.3 -1.69086e-05 -3.90286 
1478 1 0.95 0.25 -1.40656e-05 -3.90318 
1479 1 0.95 0.35 -2.73885e-05 -3.90153 
1602 1 0.933333 0.3 0.117661 -4.40896 
1608 1 0.983333 0.25 0.118605 -4.34301 
1631 1 0.933333 0.4 0.117661 -4.40896 
1632 1 0.966667 0.4 0.0592509 -4.40228 
1633 1 0.983333 0.35 0.119982 -4.26418 
1635 1 0.966667 0.3 0.0592509 -4.40228 
12 1 0 0.5 -2.07483e-05 -3.90271 
13 1 0.0166667 0.45 0.0590988 -4.39993 
14 1 0.0166667 0.55 0.0590159 -4.40737 
17 1 0.05 0.45 -1.45309e-05 -3.90249 
21 1 0 0.6 -1.25181e-05 -3.90361 
22 1 0.05 0.55 -6.85176e-06 -3.90346 
71 1 0.0333333 0.6 0.117779 -4.4487 
74 1 0.0333333 0.5 0.117765 -4.42392 
75 1 0.0666667 0.5 0.0590153 -4.40741 
76 1 0.0833333 0.45 0.117676 -4.4342 
77 1 0.0833333 0.55 0.117771 -4.44892 
95 1 0.0666667 0.6 0.0590259 -4.40852 
81 1 0.116667 0.45 0.0590051 -4.40737 
96 1 0.1 0.6 -1.40241e-05 -3.90366 
97 1 0.116667 0.55 0.0590195 -4.40831 
99 1 0.1 0.5 -1.32575e-05 -3.90361 
100 1 0.15 0.45 -1.51051e-05 -3.90355 
101 1 0.15 0.55 -1.48652e-05 -3.90365 
202 1 0.133333 0.5 0.117758 -4.44892 
208 1 0.183333 0.45 0.117757 -4.44886 
229 1 0.133333 0.6 0.117757 -4.44879 
230 1 0.166667 0.6 0.0590166 -4.40825 
231 1 0.183333 0.55 0.117757 -4.44883 
233 1 0.166667 0.5 0.0590168 -4.40832 
234 1 0.2 0.5 -1.50398e-05 -3.90365 
235 1 0.216667 0.45 0.0590166 -4.40826 
236 1 0.216667 0.55 0.0590166 -4.40826 
239 1 0.25 0.45 -1.50341e-05 -3.90364 
253 1 0.2 0.6 -1.50312e-05 -3.90364 
254 1 0.25 0.55 -1.5035e-05 -3.90364 
395 1 0.233333 0.6 0.117757 -4.44885 
398 1 0.233333 0.5 0.117757 -4.44885 
399 1 0.266667 0.5 0.0590166 -4.40826 
400 1 0.283333 0.45 0.117757 -4.44884 
401 1 0.283333 0.55 0.117757 -4.44884 
422 1 0.266667 0.6 0.0590166 -4.40826 
405 1 0.316667 0.45 0.0590166 -4.40826 
423 1 0.3 0.6 -1.50351e-05 -3.90364 
424 1 0.316667 0.55 0.0590166 -4.40826 
426 1 0.3 0.5 -1.50351e-05 -3.90364 
427 1 0.35 0.45 -1.50351e-05 -3.90364 
428 1 0.35 0.55 -1.50351e-05 -3.90364 
562 1 0.333333 0.5 0.117757 -4.44884 
568 1 0.383333 0.45 0.117757 -4.44884 
589 1 0.333333 0.6 0.117757 -4.44884 
590 1 0.366667 0.6 0.0590166 -4.40826 
591 1 0.383333 0.55 0.117757 -4.44884 
593 1 0.366667 0.5 0.0590166 -4.40826 
594 1 0.4 0.5 -1.50351e-05 -3.90364 
595 1 0.416667 0.45 0.0590166 -4.40826 
596 1 0.416667 0.55 0.0590166 -4.40826 
599 1 0.45 0.45 -1.5035e-05 -3.90364 
613 1 0.4 0.6 -1.50351e-05 -3.90364 
614 1 0.45 0.55 -1.5035e-05 -3.90364 
755 1 0.433333 0.6 0.117757 -4.44884 
758 1 0.433333 0.5 0.117757 -4.44884 
759 1 0.466667 0.5 0.0590166 -4.40826 
760 1 0.483333 0.45 0.117757 -4.44884 
761 1 0.483333 0.55 0.117757 -4.44884 
782 1 0.466667 0.6 0.0590166 -4.40826 
765 1 0.516667 0.45 0.0590166 -4.40826 
783 1 0.5 0.6 -1.50381e-05 -3.90364 
784 1 0.516667 0.55 0.0590166 -4.40826 
786 1 0.5 0.5 -1.50385e-05 -3.90364 
787 1 0.55 0.45 -1.49495e-05 -3.90367 
788 1 0.55 0.55 -1.49427e-05 -3.90367 
922 1 0.533333 0.5 0.117757 -4.44883 
928 1 0.583333 0.45 0.117755 -4.44906 
949 1 0.533333 0.6 0.117757 -4.44883 
950 1 0.566667 0.6 0.0590165 -4.40832 
951 1 0.583333 0.55 0.117755 -4.44908 
953 1 0.566667 0.5 0.0590164 -4.40832 
954 1 0.6 0.5 -1.95741e-05 -3.90333 
955 1 0.616667 0.45 0.0590031 -4.40946 
956 1 0.616667 0.55 0.0590033 -4.40946 
959 1 0.65 0.45 2.83222e-05 -3.89 
973 1 0.6 0.6 -1.91334e-05 -3.90341 
974 1 0.65 0.55 3.27666e-05 -3.89028 
1113 1 0.633333 0.6 0.117761 -4.44763 
1116 1 0.633333 0.5 0.117755 -4.44788 
1117 1 0.666667 0.5 0.0591453 -4.37556 
1118 1 0.683333 0.45 0.117589 -4.44987 
1119 1 0.683333 0.55 0.117597 -4.44954 
1138 1 0.666667 0.6 0.0591763 -4.3757 
1123 1 0.716667 0.45 0.0585175 -4.25153 
1139 1 0.7 0.6 0.000896739 -3.56271 
1140 1 0.716667 0.55 0.0585244 -4.25124 
1142 1 0.7 0.5 0.000923506 -3.54837 
1273 1 0.733333 0.5 0.117697 -4.4299 
1279 1 0.783333 0.45 0.117479 -4.44218 
1300 1 0.733333 0.6 0.117674 -4.4312 
1301 1 0.766667 0.6 0.0574358 -4.19161 
1302 1 0.783333 0.55 0.11746 -4.44303 
1304 1 0.766667 0.5 0.0575977 -4.17617 
1305 1 0.8 0.5 0.0010228 -3.5477 
1306 1 0.816667 0.45 0.0593437 -4.34727 
1307 1 0.816667 0.55 0.0593439 -4.34722 
1310 1 0.85 0.45 -7.68982e-06 -3.89045 
1324 1 0.8 0.6 0.000946277 -3.56122 
1325 1 0.85 0.55 -7.0202e-06 -3.89063 
1466 1 0.833333 0.6 0.117736 -4.44707 
1469 1 0.833333 0.5 0.117746 -4.44593 
1470 1 0.866667 0.5 0.0589383 -4.40961 
1471 1 0.883333 0.45 0.117747 -4.45007 
1472 1 0.883333 0.55 0.117733 -4.44981 
1493 1 0.866667 0.6 0.0589389 -4.40931 
1476 1 0.916667 0.45 0.0589952 -4.40612 
1494 1 0.9 0.6 -2.64877e-05 -3.90301 
1495 1 0.916667 0.55 0.0590014 -4.40754 
1497 1 0.9 0.5 -2.53576e-05 -3.903 
1498 1 0.95 0.45 -1.40723e-05 -3.90319 
1499 1 0.95 0.55 -8.88769e-06 -3.90388 
1628 1 0.933333 0.5 0.117657 -4.43368 
1634 1 0.983333 0.45 0.118605 -4.343 
1649 1 0.933333 0.6 0.117754 -4.44865 
1650 1 0.966667 0.6 0.0589873 -4.40636 
1651 1 0.983333 0.55 0.117651 -4.43358 
1653 1 0.966667 0.5 0.0591354 -4.40884 
18 1 0 0.7 -2.18846e-05 -3.90272 
19 1 0.0166667 0.65 0.0590141 -4.4073 
20 1 0.0166667 0.75 0.0591108 -4.40103 
23 1 0.05 0.65 -7.29904e-06 -3.90343 
27 1 0 0.8 -7.55907e-05 -3.89989 
28 1 0.05 0.75 -2.20557e-05 -3.90268 
88 1 0.0333333 0.8 0.118744 -4.35803 
91 1 0.0333333 0.7 0.117753 -4.4236 
92 1 0.0666667 0.7 0.059011 -4.40725 
93 1 0.0833333 0.65 0.117772 -4.44899 
94 1 0.0833333 0.75 0.117658 -4.43381 
107 1 0.0666667 0.8 0.0591535 -4.40995 
98 1 0.116667 0.65 0.0590195 -4.40831 
108 1 0.1 0.8 -8.02668e-06 -3.90398 
109 1 0.116667 0.75 0.0590018 -4.40727 
111 1 0.1 0.7 -1.38228e-05 -3.90359 
112 1 0.15 0.65 -1.48599e-05 -3.90365 
113 1 0.15 0.75 -1.53099e-05 -3.90353 
226 1 0.133333 0.7 0.117758 -4.44899 
232 1 0.183333 0.65 0.117757 -4.44883 
245 1 0.133333 0.8 0.117757 -4.44885 
246 1 0.166667 0.8 0.0590173 -4.40839 
247 1 0.183333 0.75 0.117757 -4.44886 
249 1 0.166667 0.7 0.0590168 -4.40833 
250 1 0.2 0.7 -1.50419e-05 -3.90365 
251 1 0.216667 0.65 0.0590166 -4.40826 
252 1 0.216667 0.75 0.0590166 -4.40826 
255 1 0.25 0.65 -1.5035e-05 -3.90364 
261 1 0.2 0.8 -1.50559e-05 -3.90366 
262 1 0.25 0.75 -1.50342e-05 -3.90364 
415 1 0.233333 0.8 0.117757 -4.44884 
418 1 0.233333 0.7 0.117757 -4.44885 
419 1 0.266667 0.7 0.0590166 -4.40826 
420 1 0.283333 0.65 0.117757 -4.44884 
421 1 0.283333 0.75 0.117757 -4.44884 
434 1 0.266667 0.8 0.0590166 -4.40826 
425 1 0.316667 0.65 0.0590166 -4.40826 
435 1 0.3 0.8 -1.50351e-05 -3.90364 
436 1 0.316667 0.75 0.0590166 -4.40826 
438 1 0.3 0.7 -1.50351e-05 -3.90364 
439 1 0.35 0.65 -1.50351e-05 -3.90364 
440 1 0.35 0.75 -1.50351e-05 -3.90364 
586 1 0.333333 0.7 0.117757 -4.44884 
592 1 0.383333 0.65 0.117757 -4.44884 
605 1 0.333333 0.8 0.117757 -4.44884 
606 1 0.366667 0.8 0.0590166 -4.40826 
607 1 0.383333 0.75 0.117757 -4.44884 
609 1 0.366667 0.7 0.0590166 -4.40826 
610 1 0.4 0.7 -1.50351e-05 -3.90364 
611 1 0.416667 0.65 0.0590166 -4.40826 
612 1 0.416667 0.75 0.0590166 -4.40826 
615 1 0.45 0.65 -1.50351e-05 -3.90364 
621 1 0.4 0.8 -1.50351e-05 -3.90364 
622 1 0.45 0.75 -1.50351e-05 -3.90364 
775 1 0.433333 0.8 0.117757 -4.44884 
778 1 0.433333 0.7 0.117757 -4.44884 
779 1 0.466667 0.7 0.0590166 -4.40826 
780 1 0.483333 0.65 0.117757 -4.44884 
781 1 0.483333 0.75 0.117757 -4.44884 
794 1 0.466667 0.8 0.0590166 -4.40826 
785 1 0.516667 0.65 0.0590166 -4.40826 
795 1 0.5 0.8 -1.50369e-05 -3.90364 
796 1 0.516667 0.75 0.0590166 -4.40826 
798 1 0.5 0.7 -1.50369e-05 -3.90364 
799 1 0.55 0.65 -1.49664e-05 -3.90366 
800 1 0.55 0.75 -1.50178e-05 -3.90366 
946 1 0.533333 0.7 0.117757 -4.44884 
952 1 0.583333 0.65 0.117755 -4.449 
965 1 0.533333 0.8 0.117757 -4.44884 
966 1 0.566667 0.8 0.0590164 -4.40829 
967 1 0.583333 0.75 0.117756 -4.44891 
969 1 0.566667 0.7 0.0590164 -4.40829 
970 1 0.6 0.7 -1.78165e-05 -3.90349 
971 1 0.616667 0.65 0.0590065 -4.4091 
972 1 0.616667 0.75 0.0590085 -4.40895 
975 1 0.65 0.65 2.04193e-05 -3.88968 
981 1 0.6 0.8 -1.78165e-05 -3.90349 
982 1 0.65 0.75 -1.47764e-05 -3.90425 
1131 1 0.633333 0.8 0.117749 -4.44849 
1134 1 0.633333 0.7 0.117749 -4.44849 
1135 1 0.666667 0.7 0.0590373 -4.39257 
1136 1 0.683333 0.65 0.117585 -4.45062 
1137 1 0.683333 0.75 0.117708 -4.44843 
1148 1 0.666667 0.8 0.0590373 -4.39257 
1141 1 0.716667 0.65 0.0583341 -4.28041 
1149 1 0.7 0.8 0.000418416 -3.72332 
1150 1 0.716667 0.75 0.0591462 -4.35102 
1152 1 0.7 0.7 0.000418416 -3.72332 
1153 1 0.75 0.75 0.000887731 -3.57854 
1297 1 0.733333 0.7 0.117679 -4.43976 
1303 1 0.783333 0.65 0.117586 -4.44104 
1316 1 0.733333 0.8 0.117679 -4.43976 
1317 1 0.766667 0.8 0.0584762 -4.27746 
1318 1 0.783333 0.75 0.117487 -4.45123 
1320 1 0.766667 0.7 0.0584762 -4.27746 
1321 1 0.8 0.7 0.000521439 -3.72401 
1322 1 0.816667 0.65 0.0592084 -4.36391 
1323 1 0.816667 0.75 0.0591985 -4.37689 
1326 1 0.85 0.65 -2.03861e-05 -3.88989 
1332 1 0.8 0.8 0.000521442 -3.72401 
1333 1 0.85 0.75 -7.13636e-06 -3.90433 
1486 1 0.833333 0.8 0.117752 -4.44701 
1489 1 0.833333 0.7 0.117752 -4.44698 
1490 1 0.866667 0.7 0.0589751 -4.40935 
1491 1 0.883333 0.65 0.117739 -4.44966 
1492 1 0.883333 0.75 0.117759 -4.44961 
1505 1 0.866667 0.8 0.0589767 -4.40943 
1496 1 0.916667 0.65 0.0590012 -4.40739 
1506 1 0.9 0.8 -1.39344e-05 -3.90314 
1507 1 0.916667 0.75 0.0590103 -4.40724 
1509 1 0.9 0.7 -1.99828e-05 -3.90336 
1510 1 0.95 0.65 -8.4867e-06 -3.90398 
1511 1 0.95 0.75 -2.21142e-05 -3.90276 
1646 1 0.933333 0.7 0.117656 -4.43363 
1652 1 0.983333 0.65 0.11765 -4.43329 
1659 1 0.933333 0.8 0.117756 -4.42375 
1660 1 0.966667 0.8 0.0591108 -4.40106 
1661 1 0.983333 0.75 0.118742 -4.3579 
1663 1 0.966667 0.7 0.059154 -4.40999 
24 1 0 0.9 -2.20531e-05 -3.90269 
25 1 0.0166667 0.85 0.0591107 -4.40106 
26 1 0.0166667 0.95 0.059011 -4.40724 
29 1 0.05 0.85 -2.20468e-05 -3.90269 
30 1 0.05 0.95 -7.80022e-06 -3.90341 
103 1 0.0333333 0.9 0.117756 -4.42379 
104 1 0.0666667 0.9 0.0590109 -4.40726 
105 1 0.0833333 0.85 0.117657 -4.43377 
106 1 0.0833333 0.95 0.117773 -4.44915 
110 1 0.116667 0.85 0.0590019 -4.40726 
114 1 0.116667 0.95 0.0590195 -4.40833 
115 1 0.1 0.9 -1.38199e-05 -3.9036 
116 1 0.15 0.85 -1.53107e-05 -3.90353 
117 1 0.15 0.95 -1.48552e-05 -3.90365 
242 1 0.133333 0.9 0.117758 -4.44897 
248 1 0.183333 0.85 0.117757 -4.44886 
256 1 0.183333 0.95 0.117757 -4.44884 
257 1 0.166667 0.9 0.0590168 -4.40832 
258 1 0.2 0.9 -1.50421e-05 -3.90365 
259 1 0.216667 0.85 0.0590166 -4.40826 
260 1 0.216667 0.95 0.0590166 -4.40826 
263 1 0.25 0.85 -1.50342e-05 -3.90364 
264 1 0.25 0.95 -1.5035e-05 -3.90364 
430 1 0.233333 0.9 0.117757 -4.44885 
431 1 0.266667 0.9 0.0590166 -4.40826 
432 1 0.283333 0.85 0.117757 -4.44884 
433 1 0.283333 0.95 0.117757 -4.44884 
437 1 0.316667 0.85 0.0590166 -4.40826 
441 1 0.316667 0.95 0.0590166 -4.40826 
442 1 0.3 0.9 -1.50351e-05 -3.90364 
443 1 0.35 0.85 -1.50351e-05 -3.90364 
444 1 0.35 0.95 -1.50351e-05 -3.90364 
602 1 0.333333 0.9 0.117757 -4.44884 
608 1 0.383333 0.85 0.117757 -4.44884 
616 1 0.383333 0.95 0.117757 -4.44884 
617 1 0.366667 0.9 0.0590166 -4.40826 
618 1 0.4 0.9 -1.50351e-05 -3.90364 
619 1 0.416667 0.85 0.0590166 -4.40826 
620 1 0.416667 0.95 0.0590166 -4.40826 
623 1 0.45 0.85 -1.50351e-05 -3.90364 
624 1 0.45 0.95 -1.5035e-05 -3.90364 
790 1 0.433333 0.9 0.117757 -4.44884 
791 1 0.466667 0.9 0.0590166 -4.40826 
792 1 0.483333 0.85 0.117757 -4.44884 
793 1 0.483333 0.95 0.117757 -4.44884 
797 1 0.516667 0.85 0.0590166 -4.40826 
801 1 0.516667 0.95 0.0590166 -4.40826 
802 1 0.5 0.9 -1.50381e-05 -3.90364 
803 1 0.55 0.85 -1.49664e-05 -3.90366 
804 1 0.55 0.95 -1.49427e-05 -3.90367 
962 1 0.533333 0.9 0.117757 -4.44883 
968 1 0.583333 0.85 0.117755 -4.449 
976 1 0.583333 0.95 0.117755 -4.44908 
977 1 0.566667 0.9 0.0590165 -4.40832 
978 1 0.6 0.9 -1.91334e-05 -3.90341 
979 1 0.616667 0.85 0.0590065 -4.4091 
980 1 0.616667 0.95 0.0590033 -4.40946 
983 1 0.65 0.85 2.04193e-05 -3.88968 
984 1 0.65 0.95 3.27666e-05 -3.89028 
1144 1 0.633333 0.9 0.117761 -4.44763 
1145 1 0.666667 0.9 0.0591763 -4.3757 
1146 1 0.683333 0.85 0.117585 -4.45062 
1147 1 0.683333 0.95 0.117597 -4.44954 
1151 1 0.716667 0.85 0.0583341 -4.28041 
1154 1 0.716667 0.95 0.0585244 -4.25124 
1155 1 0.7 0.9 0.000896739 -3.56271 
1313 1 0.733333 0.9 0.117674 -4.4312 
1319 1 0.783333 0.85 0.117586 -4.44104 
1327 1 0.783333 0.95 0.11746 -4.44303 
1328 1 0.766667 0.9 0.0574358 -4.19161 
1329 1 0.8 0.9 0.000946269 -3.56122 
1330 1 0.816667 0.85 0.0592084 -4.36391 
1331 1 0.816667 0.95 0.0593438 -4.34722 
1334 1 0.85 0.85 -2.00489e-05 -3.88989 
1335 1 0.85 0.95 -7.00992e-06 -3.89061 
1501 1 0.833333 0.9 0.117736 -4.44703 
1502 1 0.866667 0.9 0.0589415 -4.40926 
1503 1 0.883333 0.85 0.117753 -4.44975 
1504 1 0.883333 0.95 0.117733 -4.44978 
1508 1 0.916667 0.85 0.0590095 -4.40728 
1512 1 0.916667 0.95 0.0590003 -4.40726 
1513 1 0.9 0.9 -2.4693e-05 -3.90316 
1514 1 0.95 0.85 -2.22032e-05 -3.90277 
1515 1 0.95 0.95 -8.20217e-06 -3.9041 
1656 1 0.933333 0.9 0.117657 -4.43376 
1662 1 0.983333 0.85 0.118743 -4.35803 
1664 1 0.983333 0.95 0.117656 -4.43367 
1665 1 0.966667 0.9 0.0591535 -4.40997 
31 1 0 0.1 0.176493 -4.449 
32 1 0.0166667 0.05 0.235419 -4.44268 
33 1 0.0166667 0.15 0.235518 -4.42768 
34 1 0 0 0.176533 -4.45126 
36 1 0.05 0.05 0.176533 -4.44944 
39 1 0 0.2 0.176533 -4.35309 
41 1 0.05 0.15 0.176584 -4.43735 
131 1 0.0666667 0.1 0.23546 -4.45118 
134 1 0.0666667 0 0.235319 -4.4491 
148 1 0.0666667 0.2 0.235414 -4.43402 
135 1 0.1 0 0.176535 -4.44998 
136 1 0.116667 0.05 0.235306 -4.44905 
149 1 0.1 0.2 0.176535 -4.45149 
150 1 0.116667 0.15 0.235305 -4.44915 
152 1 0.1 0.1 0.176541 -4.4505 
154 1 0.15 0.05 0.176534 -4.45005 
155 1 0.15 0.15 0.176534 -4.44992 
288 1 0.166667 0 0.23532 -4.45001 
304 1 0.166667 0.2 0.23532 -4.44997 
307 1 0.166667 0.1 0.235321 -4.45009 
308 1 0.2 0.1 0.176534 -4.45018 
309 1 0.216667 0.05 0.23532 -4.44997 
310 1 0.216667 0.15 0.23532 -4.44997 
311 1 0.2 0 0.176534 -4.45016 
313 1 0.25 0.05 0.176534 -4.45016 
335 1 0.2 0.2 0.176534 -4.45018 
337 1 0.25 0.15 0.176534 -4.45016 
475 1 0.266667 0.1 0.23532 -4.44997 
478 1 0.266667 0 0.23532 -4.44997 
498 1 0.266667 0.2 0.23532 -4.44997 
479 1 0.3 0 0.176534 -4.45016 
480 1 0.316667 0.05 0.23532 -4.44997 
499 1 0.3 0.2 0.176534 -4.45016 
500 1 0.316667 0.15 0.23532 -4.44997 
502 1 0.3 0.1 0.176534 -4.45016 
504 1 0.35 0.05 0.176534 -4.45016 
505 1 0.35 0.15 0.176534 -4.45016 
648 1 0.366667 0 0.23532 -4.44997 
664 1 0.366667 0.2 0.23532 -4.44997 
667 1 0.366667 0.1 0.23532 -4.44997 
668 1 0.4 0.1 0.176534 -4.45016 
669 1 0.416667 0.05 0.23532 -4.44997 
670 1 0.416667 0.15 0.23532 -4.44997 
671 1 0.4 0 0.176534 -4.45016 
673 1 0.45 0.05 0.176534 -4.45016 
695 1 0.4 0.2 0.176534 -4.45016 
697 1 0.45 0.15 0.176534 -4.45016 
835 1 0.466667 0.1 0.23532 -4.44997 
838 1 0.466667 0 0.23532 -4.44997 
858 1 0.466667 0.2 0.23532 -4.44997 
839 1 0.5 0 0.176534 -4.45015 
840 1 0.516667 0.05 0.23532 -4.44997 
859 1 0.5 0.2 0.176534 -4.45015 
860 1 0.516667 0.15 0.23532 -4.44997 
862 1 0.5 0.1 0.176534 -4.45015 
864 1 0.55 0.05 0.176534 -4.45016 
865 1 0.55 0.15 0.176534 -4.45016 
1008 1 0.566667 0 0.23532 -4.44995 
1024 1 0.566667 0.2 0.23532 -4.44995 
1027 1 0.566667 0.1 0.23532 -4.44995 
1028 1 0.6 0.1 0.176533 -4.44995 
1029 1 0.616667 0.05 0.23532 -4.45002 
1030 1 0.616667 0.15 0.23532 -4.45002 
1031 1 0.6 0 0.176532 -4.44995 
1033 1 0.65 0.05 0.176513 -4.45096 
1055 1 0.6 0.2 0.176533 -4.44995 
1057 1 0.65 0.15 0.176513 -4.45095 
1186 1 0.666667 0.1 0.235319 -4.44982 
1189 1 0.666667 0 0.235319 -4.44983 
1209 1 0.666667 0.2 0.235319 -4.44982 
1190 1 0.7 0 0.176515 -4.45003 
1191 1 0.716667 0.05 0.235331 -4.44947 
1210 1 0.7 0.2 0.176514 -4.45006 
1211 1 0.716667 0.15 0.235331 -4.44946 
1213 1 0.7 0.1 0.176514 -4.45007 
1215 1 0.75 0.05 0.176585 -4.44734 
1216 1 0.75 0.15 0.176584 -4.44736 
1359 1 0.766667 0 0.235337 -4.44887 
1375 1 0.766667 0.2 0.235336 -4.44889 
1378 1 0.766667 0.1 0.235336 -4.44889 
1379 1 0.8 0.1 0.176514 -4.45082 
1380 1 0.816667 0.05 0.235323 -4.44984 
1381 1 0.816667 0.15 0.235323 -4.44982 
1382 1 0.8 0 0.176514 -4.45094 
1384 1 0.85 0.05 0.176513 -4.45022 
1406 1 0.8 0.2 0.176514 -4.45084 
1408 1 0.85 0.15 0.176513 -4.4501 
1546 1 0.866667 0.1 0.235322 -4.45012 
1549 1 0.866667 0 0.235321 -4.45009 
1569 1 0.866667 0.2 0.23532 -4.45013 
1550 1 0.9 0 0.176532 -4.44986 
1551 1 0.916667 0.05 0.235315 -4.44901 
1570 1 0.9 0.2 0.176532 -4.45152 
1571 1 0.916667 0.15 0.2353 -4.44916 
1573 1 0.9 0.1 0.176537 -4.44984 
1575 1 0.95 0.05 0.176533 -4.44926 
1576 1 0.95 0.15 0.176482 -4.43731 
1689 1 0.966667 0 0.23543 -4.45038 
1705 1 0.966667 0.2 0.235449 -4.42638 
1708 1 0.966667 0.1 0.235403 -4.44259 
37 1 0.0166667 0.25 0.23447 -4.34319 
38 1 0.0166667 0.35 0.233105 -4.26503 
42 1 0.05 0.25 0.176594 -4.33918 
54 1 0.05 0.35 0.176519 -4.24283 
145 1 0.0666667 0.3 0.235421 -4.41032 
169 1 0.0666667 0.4 0.235421 -4.41032 
151 1 0.116667 0.25 0.235307 -4.45037 
170 1 0.1 0.4 0.176483 -4.43955 
171 1 0.116667 0.35 0.235287 -4.45042 
173 1 0.1 0.3 0.176483 -4.43955 
175 1 0.15 0.25 0.176535 -4.44987 
176 1 0.15 0.35 0.176534 -4.44977 
328 1 0.166667 0.4 0.23532 -4.44989 
331 1 0.166667 0.3 0.23532 -4.44989 
332 1 0.2 0.3 0.176534 -4.45019 
333 1 0.216667 0.25 0.23532 -4.44998 
334 1 0.216667 0.35 0.23532 -4.44998 
338 1 0.25 0.25 0.176534 -4.45016 
366 1 0.2 0.4 0.176534 -4.45019 
368 1 0.25 0.35 0.176534 -4.45016 
495 1 0.266667 0.3 0.23532 -4.44997 
526 1 0.266667 0.4 0.23532 -4.44997 
501 1 0.316667 0.25 0.23532 -4.44997 
527 1 0.3 0.4 0.176534 -4.45016 
528 1 0.316667 0.35 0.23532 -4.44997 
530 1 0.3 0.3 0.176534 -4.45016 
532 1 0.35 0.25 0.176534 -4.45016 
533 1 0.35 0.35 0.176534 -4.45016 
688 1 0.366667 0.4 0.23532 -4.44997 
691 1 0.366667 0.3 0.23532 -4.44997 
692 1 0.4 0.3 0.176534 -4.45016 
693 1 0.416667 0.25 0.23532 -4.44997 
694 1 0.416667 0.35 0.23532 -4.44997 
698 1 0.45 0.25 0.176534 -4.45016 
726 1 0.4 0.4 0.176534 -4.45016 
728 1 0.45 0.35 0.176534 -4.45016 
855 1 0.466667 0.3 0.23532 -4.44997 
886 1 0.466667 0.4 0.23532 -4.44997 
861 1 0.516667 0.25 0.23532 -4.44997 
887 1 0.5 0.4 0.176534 -4.45015 
888 1 0.516667 0.35 0.23532 -4.44997 
890 1 0.5 0.3 0.176534 -4.45015 
892 1 0.55 0.25 0.176534 -4.45016 
893 1 0.55 0.35 0.176534 -4.45016 
1048 1 0.566667 0.4 0.23532 -4.44995 
1051 1 0.566667 0.3 0.23532 -4.44995 
1052 1 0.6 0.3 0.176533 -4.44995 
1053 1 0.616667 0.25 0.23532 -4.45002 
1054 1 0.616667 0.35 0.23532 -4.45002 
1058 1 0.65 0.25 0.176513 -4.45095 
1086 1 0.6 0.4 0.176533 -4.44995 
1088 1 0.65 0.35 0.176513 -4.45095 
1206 1 0.666667 0.3 0.235319 -4.44982 
1237 1 0.666667 0.4 0.235319 -4.44982 
1212 1 0.716667 0.25 0.235331 -4.44946 
1238 1 0.7 0.4 0.176514 -4.45007 
1239 1 0.716667 0.35 0.235331 -4.44946 
1241 1 0.7 0.3 0.176514 -4.45006 
1243 1 0.75 0.25 0.176584 -4.44736 
1244 1 0.75 0.35 0.176584 -4.44736 
1399 1 0.766667 0.4 0.235336 -4.44889 
1402 1 0.766667 0.3 0.235336 -4.44889 
1403 1 0.8 0.3 0.176515 -4.45086 
1404 1 0.816667 0.25 0.235323 -4.44984 
1405 1 0.816667 0.35 0.235323 -4.44987 
1409 1 0.85 0.25 0.176512 -4.4499 
1437 1 0.8 0.4 0.176515 -4.45085 
1439 1 0.85 0.35 0.176513 -4.44983 
1566 1 0.866667 0.3 0.235317 -4.45015 
1597 1 0.866667 0.4 0.235317 -4.45015 
1572 1 0.916667 0.25 0.235388 -4.43432 