ITEM: TIMESTEP
15
ITEM: NUMBER OF ATOMS
3584
ITEM: BOX BOUNDS pp pp ss
0.0000000000000000e+00 4.3111019472983898e+01
0.0000000000000000e+00 2.4890158697766498e+01
-3.6580800000000006e-03 3.4552298188307212e+01
ITEM: ATOMS id type xs ys zs c_peratom 
1 1 0 0.1 -0.000690985 -3.90428 
2 1 0.0166667 0.05 0.058244 -4.40815 
3 1 0.0166667 0.15 0.0582276 -4.40663 
4 1 0 0 -0.000791893 -3.90398 
5 1 0.05 0.05 -0.000847317 -3.90382 
9 1 0 0.2 -0.000574649 -3.90397 
10 1 0.05 0.15 -0.000791453 -3.90365 
35 1 0.0333333 0 0.116964 -4.44877 
40 1 0.0333333 0.2 0.11693 -4.4237 
43 1 0.0333333 0.1 0.11691 -4.45005 
44 1 0.0666667 0.1 0.0581157 -4.40771 
45 1 0.0833333 0.05 0.116817 -4.44932 
46 1 0.0833333 0.15 0.116843 -4.44908 
47 1 0.0666667 0 0.0582032 -4.40931 
60 1 0.0666667 0.2 0.0582349 -4.40813 
48 1 0.1 0 -0.000926175 -3.90394 
49 1 0.116667 0.05 0.058048 -4.40712 
61 1 0.1 0.2 -0.000936517 -3.90388 
62 1 0.116667 0.15 0.0581129 -4.40801 
64 1 0.1 0.1 -0.00083355 -3.90393 
65 1 0.15 0.05 -0.000896849 -3.90424 
66 1 0.15 0.15 -0.000967778 -3.90417 
153 1 0.133333 0.1 0.1167 -4.44859 
156 1 0.133333 0 0.116705 -4.44845 
157 1 0.166667 0 0.0580341 -4.40732 
158 1 0.183333 0.05 0.116639 -4.44843 
177 1 0.133333 0.2 0.116724 -4.4486 
178 1 0.166667 0.2 0.0580075 -4.40763 
179 1 0.183333 0.15 0.116611 -4.44838 
181 1 0.166667 0.1 0.0580317 -4.40729 
182 1 0.2 0.1 -0.00101589 -3.90419 
183 1 0.216667 0.05 0.0579634 -4.40756 
184 1 0.216667 0.15 0.0579551 -4.40751 
185 1 0.2 0 -0.00100016 -3.90417 
186 1 0.25 0.05 -0.00106563 -3.90404 
213 1 0.2 0.2 -0.00101448 -3.90411 
214 1 0.25 0.15 -0.0010632 -3.90407 
312 1 0.233333 0 0.11659 -4.44861 
336 1 0.233333 0.2 0.116586 -4.44852 
339 1 0.233333 0.1 0.116586 -4.44857 
340 1 0.266667 0.1 0.0579221 -4.40756 
341 1 0.283333 0.05 0.116564 -4.44857 
342 1 0.283333 0.15 0.116563 -4.44859 
343 1 0.266667 0 0.0579218 -4.40756 
374 1 0.266667 0.2 0.0579226 -4.40759 
344 1 0.3 0 -0.00107873 -3.90409 
345 1 0.316667 0.05 0.0579165 -4.40753 
375 1 0.3 0.2 -0.0010809 -3.9041 
376 1 0.316667 0.15 0.0579154 -4.40753 
378 1 0.3 0.1 -0.0010769 -3.90411 
379 1 0.35 0.05 -0.00107789 -3.90415 
380 1 0.35 0.15 -0.00107805 -3.90414 
503 1 0.333333 0.1 0.116563 -4.44856 
506 1 0.333333 0 0.116562 -4.44855 
507 1 0.366667 0 0.0579165 -4.40755 
508 1 0.383333 0.05 0.116564 -4.44857 
534 1 0.333333 0.2 0.116561 -4.44856 
535 1 0.366667 0.2 0.0579164 -4.40755 
536 1 0.383333 0.15 0.116564 -4.44857 
538 1 0.366667 0.1 0.0579163 -4.40755 
539 1 0.4 0.1 -0.001078 -3.90411 
540 1 0.416667 0.05 0.0579192 -4.40757 
541 1 0.416667 0.15 0.0579191 -4.40757 
542 1 0.4 0 -0.00107807 -3.90412 
543 1 0.45 0.05 -0.00106845 -3.90406 
573 1 0.4 0.2 -0.00107805 -3.90411 
574 1 0.45 0.15 -0.00106845 -3.90404 
672 1 0.433333 0 0.116569 -4.44857 
696 1 0.433333 0.2 0.116569 -4.44858 
699 1 0.433333 0.1 0.116569 -4.44858 
700 1 0.466667 0.1 0.0579405 -4.40755 
701 1 0.483333 0.05 0.116603 -4.44851 
702 1 0.483333 0.15 0.116605 -4.44852 
703 1 0.466667 0 0.0579382 -4.40754 
734 1 0.466667 0.2 0.0579404 -4.40755 
704 1 0.5 0 -0.00102081 -3.90428 
705 1 0.516667 0.05 0.0579871 -4.40743 
735 1 0.5 0.2 -0.00101273 -3.90429 
736 1 0.516667 0.15 0.057995 -4.40745 
738 1 0.5 0.1 -0.0010135 -3.9043 
739 1 0.55 0.05 -0.000999578 -3.90426 
740 1 0.55 0.15 -0.000983067 -3.90435 
863 1 0.533333 0.1 0.116634 -4.44856 
866 1 0.533333 0 0.116618 -4.44858 
867 1 0.566667 0 0.0579574 -4.40784 
868 1 0.583333 0.05 0.116596 -4.44886 
894 1 0.533333 0.2 0.116642 -4.44856 
895 1 0.566667 0.2 0.0579856 -4.40777 
896 1 0.583333 0.15 0.116603 -4.44888 
898 1 0.566667 0.1 0.0579709 -4.40776 
899 1 0.6 0.1 -0.00108773 -3.90334 
900 1 0.616667 0.05 0.0579628 -4.40853 
901 1 0.616667 0.15 0.057964 -4.40851 
902 1 0.6 0 -0.00108624 -3.90342 
903 1 0.65 0.05 -0.000783878 -3.89107 
933 1 0.6 0.2 -0.00106762 -3.90348 
934 1 0.65 0.15 -0.000801609 -3.89094 
1032 1 0.633333 0 0.116654 -4.44772 
1056 1 0.633333 0.2 0.116648 -4.44776 
1059 1 0.633333 0.1 0.116651 -4.44773 
1060 1 0.666667 0.1 0.0582495 -4.37526 
1061 1 0.683333 0.05 0.116577 -4.44858 
1062 1 0.683333 0.15 0.116574 -4.44852 
1063 1 0.666667 0 0.0582629 -4.37525 
1094 1 0.666667 0.2 0.0582429 -4.37526 
1064 1 0.7 0 -5.87123e-05 -3.54969 
1065 1 0.716667 0.05 0.0576439 -4.25231 
1095 1 0.7 0.2 -6.22337e-05 -3.54937 
1096 1 0.716667 0.15 0.0576341 -4.25214 
1098 1 0.7 0.1 -5.02115e-05 -3.54946 
1214 1 0.733333 0.1 0.116457 -4.42775 
1217 1 0.733333 0 0.11648 -4.42749 
1218 1 0.766667 0 0.0564987 -4.17738 
1219 1 0.783333 0.05 0.116167 -4.44039 
1245 1 0.733333 0.2 0.116442 -4.42765 
1246 1 0.766667 0.2 0.0564717 -4.17755 
1247 1 0.783333 0.15 0.116146 -4.44067 
1249 1 0.766667 0.1 0.0564758 -4.1778 
1250 1 0.8 0.1 -0.000228296 -3.546 
1251 1 0.816667 0.05 0.0583367 -4.34738 
1252 1 0.816667 0.15 0.0583285 -4.3476 
1253 1 0.8 0 -0.000206705 -3.54668 
1254 1 0.85 0.05 -0.000603707 -3.89249 
1284 1 0.8 0.2 -0.000209194 -3.54611 
1285 1 0.85 0.15 -0.000633661 -3.89228 
1383 1 0.833333 0 0.116768 -4.4457 
1407 1 0.833333 0.2 0.116791 -4.44589 
1410 1 0.833333 0.1 0.116775 -4.44583 
1411 1 0.866667 0.1 0.0581675 -4.40852 
1412 1 0.883333 0.05 0.116762 -4.44913 
1413 1 0.883333 0.15 0.116748 -4.44923 
1414 1 0.866667 0 0.0581758 -4.40836 
1445 1 0.866667 0.2 0.0581525 -4.40891 
1415 1 0.9 0 -0.000998108 -3.90311 
1416 1 0.916667 0.05 0.0580542 -4.40827 
1446 1 0.9 0.2 -0.00104919 -3.90242 
1447 1 0.916667 0.15 0.0580241 -4.4071 
1449 1 0.9 0.1 -0.00103089 -3.90297 
1450 1 0.95 0.05 -0.000809989 -3.90364 
1451 1 0.95 0.15 -0.000754413 -3.90412 
1574 1 0.933333 0.1 0.11674 -4.44882 
1577 1 0.933333 0 0.116754 -4.44897 
1578 1 0.966667 0 0.0581654 -4.40635 
1579 1 0.983333 0.05 0.116927 -4.44942 
1605 1 0.933333 0.2 0.116618 -4.43381 
1606 1 0.966667 0.2 0.0584132 -4.40615 
1607 1 0.983333 0.15 0.116786 -4.43429 
1609 1 0.966667 0.1 0.0581859 -4.40591 
6 1 0 0.3 0.000243799 -3.90504 
7 1 0.0166667 0.25 0.0586206 -4.39662 
8 1 0.0166667 0.35 0.0591411 -4.38624 
11 1 0.05 0.25 -0.000656612 -3.90378 
15 1 0 0.4 0.000250986 -3.90502 
16 1 0.05 0.35 -0.00014303 -3.90547 
53 1 0.0333333 0.4 0.117756 -4.33049 
56 1 0.0333333 0.3 0.11773 -4.33051 
57 1 0.0666667 0.3 0.0583978 -4.4059 
58 1 0.0833333 0.25 0.116708 -4.43362 
59 1 0.0833333 0.35 0.116541 -4.41823 
78 1 0.0666667 0.4 0.05843 -4.40598 
63 1 0.116667 0.25 0.0580951 -4.4073 
79 1 0.1 0.4 -0.000797111 -3.90432 
80 1 0.116667 0.35 0.0580494 -4.40521 
82 1 0.1 0.3 -0.000770227 -3.9042 
83 1 0.15 0.25 -0.000952731 -3.90395 
84 1 0.15 0.35 -0.000935856 -3.90373 
174 1 0.133333 0.3 0.116719 -4.44899 
180 1 0.183333 0.25 0.116615 -4.44867 
205 1 0.133333 0.4 0.116699 -4.44881 
206 1 0.166667 0.4 0.0580027 -4.40767 
207 1 0.183333 0.35 0.116642 -4.44882 
209 1 0.166667 0.3 0.0580209 -4.40772 
210 1 0.2 0.3 -0.00102477 -3.90418 
211 1 0.216667 0.25 0.057952 -4.40744 
212 1 0.216667 0.35 0.0579587 -4.40753 
215 1 0.25 0.25 -0.00106769 -3.90406 
237 1 0.2 0.4 -0.00101972 -3.9041 
238 1 0.25 0.35 -0.00107488 -3.90407 
367 1 0.233333 0.4 0.116569 -4.44853 
370 1 0.233333 0.3 0.116569 -4.44849 
371 1 0.266667 0.3 0.0579131 -4.40756 
372 1 0.283333 0.25 0.116562 -4.44857 
373 1 0.283333 0.35 0.116561 -4.44851 
402 1 0.266667 0.4 0.0579133 -4.40756 
377 1 0.316667 0.25 0.0579126 -4.40754 
403 1 0.3 0.4 -0.00108318 -3.90408 
404 1 0.316667 0.35 0.0579125 -4.40755 
406 1 0.3 0.3 -0.00108272 -3.90408 
407 1 0.35 0.25 -0.0010788 -3.90415 
408 1 0.35 0.35 -0.00107947 -3.90415 
531 1 0.333333 0.3 0.116559 -4.44858 
537 1 0.383333 0.25 0.116564 -4.44857 
565 1 0.333333 0.4 0.116558 -4.44858 
566 1 0.366667 0.4 0.057916 -4.40754 
567 1 0.383333 0.35 0.116564 -4.44856 
569 1 0.366667 0.3 0.0579161 -4.40754 
570 1 0.4 0.3 -0.00107803 -3.90411 
571 1 0.416667 0.25 0.057919 -4.40757 
572 1 0.416667 0.35 0.0579191 -4.40757 
575 1 0.45 0.25 -0.00106849 -3.90404 
597 1 0.4 0.4 -0.00107803 -3.90411 
598 1 0.45 0.35 -0.00106846 -3.90405 
727 1 0.433333 0.4 0.116569 -4.44858 
730 1 0.433333 0.3 0.116569 -4.44858 
731 1 0.466667 0.3 0.0579404 -4.40755 
732 1 0.483333 0.25 0.116604 -4.44853 
733 1 0.483333 0.35 0.116605 -4.44852 
762 1 0.466667 0.4 0.0579405 -4.40755 
737 1 0.516667 0.25 0.0579961 -4.40747 
763 1 0.5 0.4 -0.00101351 -3.9043 
764 1 0.516667 0.35 0.057995 -4.40745 
766 1 0.5 0.3 -0.00101273 -3.90429 
767 1 0.55 0.25 -0.000978874 -3.90437 
768 1 0.55 0.35 -0.000983117 -3.90435 
891 1 0.533333 0.3 0.116642 -4.44856 
897 1 0.583333 0.25 0.11662 -4.44882 
925 1 0.533333 0.4 0.116634 -4.44856 
926 1 0.566667 0.4 0.0579708 -4.40776 
927 1 0.583333 0.35 0.116603 -4.44888 
929 1 0.566667 0.3 0.0579855 -4.40777 
930 1 0.6 0.3 -0.00106764 -3.90348 
931 1 0.616667 0.25 0.0579796 -4.40844 
932 1 0.616667 0.35 0.0579636 -4.40851 
935 1 0.65 0.25 -0.000786141 -3.89102 
957 1 0.6 0.4 -0.00108782 -3.90334 
958 1 0.65 0.35 -0.000802099 -3.89094 
1087 1 0.633333 0.4 0.116651 -4.44773 
1090 1 0.633333 0.3 0.116647 -4.44775 
1091 1 0.666667 0.3 0.0582442 -4.37527 
1092 1 0.683333 0.25 0.116576 -4.44858 
1093 1 0.683333 0.35 0.116577 -4.44854 
1120 1 0.666667 0.4 0.0582516 -4.37527 
1097 1 0.716667 0.25 0.0576324 -4.25217 
1121 1 0.7 0.4 -4.54527e-05 -3.54944 
1122 1 0.716667 0.35 0.0576343 -4.25213 
1124 1 0.7 0.3 -5.95254e-05 -3.54937 
1242 1 0.733333 0.3 0.116441 -4.42762 
1248 1 0.783333 0.25 0.116154 -4.44061 
1276 1 0.733333 0.4 0.116457 -4.42771 
1277 1 0.766667 0.4 0.0564999 -4.17758 
1278 1 0.783333 0.35 0.116166 -4.44072 
1280 1 0.766667 0.3 0.0564851 -4.17743 
1281 1 0.8 0.3 -0.000182562 -3.54627 
1282 1 0.816667 0.25 0.0583505 -4.34753 
1283 1 0.816667 0.35 0.0583452 -4.34749 
1286 1 0.85 0.25 -0.000640147 -3.8922 
1308 1 0.8 0.4 -0.000177372 -3.54628 
1309 1 0.85 0.35 -0.000668485 -3.89199 
1438 1 0.833333 0.4 0.116813 -4.446 
1441 1 0.833333 0.3 0.116797 -4.44604 
1442 1 0.866667 0.3 0.0581443 -4.4097 
1443 1 0.883333 0.25 0.116739 -4.44955 
1444 1 0.883333 0.35 0.116764 -4.44982 
1473 1 0.866667 0.4 0.058162 -4.40969 
1448 1 0.916667 0.25 0.0580319 -4.40568 
1474 1 0.9 0.4 -0.00112376 -3.90158 
1475 1 0.916667 0.35 0.0581098 -4.40644 
1477 1 0.9 0.3 -0.0011139 -3.90169 
1478 1 0.95 0.25 -0.000403404 -3.90483 
1479 1 0.95 0.35 -8.18365e-05 -3.90502 
1602 1 0.933333 0.3 0.116774 -4.40845 
1608 1 0.983333 0.25 0.117817 -4.3432 
1631 1 0.933333 0.4 0.116809 -4.40843 
1632 1 0.966667 0.4 0.0590593 -4.39791 
1633 1 0.983333 0.35 0.119469 -4.26697 
1635 1 0.966667 0.3 0.0590392 -4.39753 
12 1 0 0.5 -0.000602894 -3.90364 
13 1 0.0166667 0.45 0.0586325 -4.39683 
14 1 0.0166667 0.55 0.0582598 -4.40777 
17 1 0.05 0.45 -0.000625735 -3.90369 
21 1 0 0.6 -0.000759524 -3.90357 
22 1 0.05 0.55 -0.000844356 -3.90333 
71 1 0.0333333 0.6 0.116962 -4.44964 
74 1 0.0333333 0.5 0.116988 -4.42415 
75 1 0.0666667 0.5 0.0582035 -4.40804 
76 1 0.0833333 0.45 0.11674 -4.43357 
77 1 0.0833333 0.55 0.116872 -4.44969 
95 1 0.0666667 0.6 0.0581884 -4.4091 
81 1 0.116667 0.45 0.0581383 -4.40736 
96 1 0.1 0.6 -0.000883271 -3.90376 
97 1 0.116667 0.55 0.058067 -4.40767 
99 1 0.1 0.5 -0.000877071 -3.90377 
100 1 0.15 0.45 -0.000973302 -3.90402 
101 1 0.15 0.55 -0.000912403 -3.90414 
202 1 0.133333 0.5 0.116749 -4.44854 
208 1 0.183333 0.45 0.116605 -4.4486 
229 1 0.133333 0.6 0.116712 -4.44894 
230 1 0.166667 0.6 0.0580247 -4.40707 
231 1 0.183333 0.55 0.116623 -4.44836 
233 1 0.166667 0.5 0.058039 -4.40763 
234 1 0.2 0.5 -0.00102802 -3.90415 
235 1 0.216667 0.45 0.0579435 -4.40744 
236 1 0.216667 0.55 0.05796 -4.4075 
239 1 0.25 0.45 -0.00106744 -3.90404 
253 1 0.2 0.6 -0.000989845 -3.90423 
254 1 0.25 0.55 -0.0010698 -3.90403 
395 1 0.233333 0.6 0.116588 -4.44861 
398 1 0.233333 0.5 0.11658 -4.44847 
399 1 0.266667 0.5 0.057919 -4.40759 
400 1 0.283333 0.45 0.11656 -4.44858 
401 1 0.283333 0.55 0.116559 -4.44857 
422 1 0.266667 0.6 0.0579166 -4.40756 
405 1 0.316667 0.45 0.0579119 -4.40753 
423 1 0.3 0.6 -0.00107994 -3.90408 
424 1 0.316667 0.55 0.0579141 -4.40753 
426 1 0.3 0.5 -0.00108178 -3.90411 
427 1 0.35 0.45 -0.00107901 -3.90415 
428 1 0.35 0.55 -0.0010786 -3.90415 
562 1 0.333333 0.5 0.11656 -4.44856 
568 1 0.383333 0.45 0.116564 -4.44857 
589 1 0.333333 0.6 0.116561 -4.44856 
590 1 0.366667 0.6 0.0579158 -4.40755 
591 1 0.383333 0.55 0.116564 -4.44857 
593 1 0.366667 0.5 0.057916 -4.40755 
594 1 0.4 0.5 -0.00107814 -3.90412 
595 1 0.416667 0.45 0.0579191 -4.40757 
596 1 0.416667 0.55 0.0579189 -4.40757 
599 1 0.45 0.45 -0.00106846 -3.90406 
613 1 0.4 0.6 -0.00107826 -3.90412 
614 1 0.45 0.55 -0.00106955 -3.90407 
755 1 0.433333 0.6 0.116568 -4.44857 
758 1 0.433333 0.5 0.116569 -4.44857 
759 1 0.466667 0.5 0.0579382 -4.40754 
760 1 0.483333 0.45 0.116603 -4.44851 
761 1 0.483333 0.55 0.116595 -4.44853 
782 1 0.466667 0.6 0.0579328 -4.40753 
765 1 0.516667 0.45 0.057987 -4.40743 
783 1 0.5 0.6 -0.00103325 -3.90422 
784 1 0.516667 0.55 0.0579744 -4.40747 
786 1 0.5 0.5 -0.00102082 -3.90429 
787 1 0.55 0.45 -0.000999643 -3.90426 
788 1 0.55 0.55 -0.00101535 -3.90419 
922 1 0.533333 0.5 0.116618 -4.44858 
928 1 0.583333 0.45 0.116596 -4.44886 
949 1 0.533333 0.6 0.116618 -4.44858 
950 1 0.566667 0.6 0.0579654 -4.40779 
951 1 0.583333 0.55 0.116607 -4.44885 
953 1 0.566667 0.5 0.0579573 -4.40784 
954 1 0.6 0.5 -0.0010864 -3.90342 
955 1 0.616667 0.45 0.0579623 -4.40853 
956 1 0.616667 0.55 0.0579925 -4.4084 
959 1 0.65 0.45 -0.000784477 -3.89107 
973 1 0.6 0.6 -0.00105135 -3.90373 
974 1 0.65 0.55 -0.000759757 -3.89139 
1113 1 0.633333 0.6 0.116657 -4.44752 
1116 1 0.633333 0.5 0.116654 -4.44772 
1117 1 0.666667 0.5 0.0582636 -4.37525 
1118 1 0.683333 0.45 0.116579 -4.44859 
1119 1 0.683333 0.55 0.116586 -4.44821 
1138 1 0.666667 0.6 0.0582245 -4.37543 
1123 1 0.716667 0.45 0.0576445 -4.25232 
1139 1 0.7 0.6 -0.00017153 -3.56349 
1140 1 0.716667 0.55 0.0576155 -4.25186 
1142 1 0.7 0.5 -5.68099e-05 -3.54967 
1273 1 0.733333 0.5 0.116481 -4.42748 
1279 1 0.783333 0.45 0.116183 -4.44035 
1300 1 0.733333 0.6 0.116346 -4.42888 
1301 1 0.766667 0.6 0.0561827 -4.19317 
1302 1 0.783333 0.55 0.116094 -4.44171 
1304 1 0.766667 0.5 0.0565111 -4.17728 
1305 1 0.8 0.5 -0.00017179 -3.54681 
1306 1 0.816667 0.45 0.0583784 -4.34734 
1307 1 0.816667 0.55 0.0583105 -4.34779 
1310 1 0.85 0.45 -0.000590471 -3.8924 
1324 1 0.8 0.6 -0.00043528 -3.55812 
1325 1 0.85 0.55 -0.000603972 -3.89253 
1466 1 0.833333 0.6 0.11675 -4.4469 
1469 1 0.833333 0.5 0.116816 -4.44571 
1470 1 0.866667 0.5 0.0582087 -4.40859 
1471 1 0.883333 0.45 0.11678 -4.44952 
1472 1 0.883333 0.55 0.116803 -4.44927 
1493 1 0.866667 0.6 0.0581623 -4.40866 
1476 1 0.916667 0.45 0.0580622 -4.40613 
1494 1 0.9 0.6 -0.00095904 -3.90303 
1495 1 0.916667 0.55 0.0580763 -4.40742 
1497 1 0.9 0.5 -0.00101061 -3.90252 
1498 1 0.95 0.45 -0.000421533 -3.90462 
1499 1 0.95 0.55 -0.00078974 -3.90347 
1628 1 0.933333 0.5 0.116697 -4.43406 
1634 1 0.983333 0.45 0.117871 -4.3433 
1649 1 0.933333 0.6 0.116833 -4.4489 
1650 1 0.966667 0.6 0.0581798 -4.4055 
1651 1 0.983333 0.55 0.11685 -4.43449 
1653 1 0.966667 0.5 0.0584291 -4.40704 
18 1 0 0.7 -0.000472112 -3.90445 
19 1 0.0166667 0.65 0.0582723 -4.40717 
20 1 0.0166667 0.75 0.0585961 -4.39765 
23 1 0.05 0.65 -0.000883945 -3.90328 
27 1 0 0.8 -0.000183587 -3.90404 
28 1 0.05 0.75 -0.000567596 -3.90422 
88 1 0.0333333 0.8 0.117834 -4.35827 
91 1 0.0333333 0.7 0.117024 -4.42367 
92 1 0.0666667 0.7 0.058227 -4.40771 
93 1 0.0833333 0.65 0.116866 -4.44873 
94 1 0.0833333 0.75 0.116757 -4.43368 
107 1 0.0666667 0.8 0.0583939 -4.40743 
98 1 0.116667 0.65 0.0581042 -4.40802 
108 1 0.1 0.8 -0.000753097 -3.90447 
109 1 0.116667 0.75 0.0581171 -4.40684 
111 1 0.1 0.7 -0.000939601 -3.90367 
112 1 0.15 0.65 -0.000910539 -3.90425 
113 1 0.15 0.75 -0.000932977 -3.90408 
226 1 0.133333 0.7 0.11673 -4.44819 
232 1 0.183333 0.65 0.116646 -4.44837 
245 1 0.133333 0.8 0.116716 -4.44866 
246 1 0.166667 0.8 0.0580369 -4.40738 
247 1 0.183333 0.75 0.116648 -4.44854 
249 1 0.166667 0.7 0.0580565 -4.4076 
250 1 0.2 0.7 -0.00098756 -3.90427 
251 1 0.216667 0.65 0.0579768 -4.4075 
252 1 0.216667 0.75 0.0579763 -4.4075 
255 1 0.25 0.65 -0.00106302 -3.90406 
261 1 0.2 0.8 -0.000989526 -3.90421 
262 1 0.25 0.75 -0.00105687 -3.90406 
415 1 0.233333 0.8 0.116592 -4.44857 
418 1 0.233333 0.7 0.116596 -4.44851 
419 1 0.266667 0.7 0.057926 -4.40758 
420 1 0.283333 0.65 0.11656 -4.44858 
421 1 0.283333 0.75 0.116563 -4.44858 
434 1 0.266667 0.8 0.0579205 -4.40755 
425 1 0.316667 0.65 0.0579127 -4.40753 
435 1 0.3 0.8 -0.00108111 -3.90406 
436 1 0.316667 0.75 0.0579115 -4.40753 
438 1 0.3 0.7 -0.001082 -3.90407 
439 1 0.35 0.65 -0.00107892 -3.90414 
440 1 0.35 0.75 -0.00107959 -3.90414 
586 1 0.333333 0.7 0.116559 -4.44854 
592 1 0.383333 0.65 0.116563 -4.44856 
605 1 0.333333 0.8 0.116558 -4.44856 
606 1 0.366667 0.8 0.0579154 -4.40754 
607 1 0.383333 0.75 0.116563 -4.44856 
609 1 0.366667 0.7 0.0579157 -4.40754 
610 1 0.4 0.7 -0.00107827 -3.90413 
611 1 0.416667 0.65 0.0579179 -4.40756 
612 1 0.416667 0.75 0.0579172 -4.40756 
615 1 0.45 0.65 -0.00107259 -3.90407 
621 1 0.4 0.8 -0.00107822 -3.90413 
622 1 0.45 0.75 -0.0010746 -3.90407 
775 1 0.433333 0.8 0.116566 -4.44857 
778 1 0.433333 0.7 0.116566 -4.44857 
779 1 0.466667 0.7 0.0579291 -4.40755 
780 1 0.483333 0.65 0.116588 -4.44854 
781 1 0.483333 0.75 0.116587 -4.44855 
794 1 0.466667 0.8 0.0579291 -4.40755 
785 1 0.516667 0.65 0.057967 -4.40752 
795 1 0.5 0.8 -0.00104072 -3.90417 
796 1 0.516667 0.75 0.0579651 -4.40751 
798 1 0.5 0.7 -0.00104072 -3.90418 
799 1 0.55 0.65 -0.00101116 -3.90427 
800 1 0.55 0.75 -0.00100348 -3.90433 
946 1 0.533333 0.7 0.116618 -4.44853 
952 1 0.583333 0.65 0.116608 -4.44873 
965 1 0.533333 0.8 0.116619 -4.44853 
966 1 0.566667 0.8 0.0579794 -4.40761 
967 1 0.583333 0.75 0.116608 -4.44876 
969 1 0.566667 0.7 0.0579794 -4.40761 
970 1 0.6 0.7 -0.00104475 -3.90378 
971 1 0.616667 0.65 0.0579775 -4.40812 
972 1 0.616667 0.75 0.0579392 -4.40812 
975 1 0.65 0.65 -0.000867469 -3.89048 
981 1 0.6 0.8 -0.00104467 -3.90378 
982 1 0.65 0.75 -0.000987344 -3.90471 
1131 1 0.633333 0.8 0.116616 -4.44833 
1134 1 0.633333 0.7 0.116616 -4.44833 
1135 1 0.666667 0.7 0.0580671 -4.39207 
1136 1 0.683333 0.65 0.116513 -4.44947 
1137 1 0.683333 0.75 0.116625 -4.4485 
1148 1 0.666667 0.8 0.0580678 -4.39207 
1141 1 0.716667 0.65 0.0574248 -4.28115 
1149 1 0.7 0.8 -0.000556824 -3.72385 
1150 1 0.716667 0.75 0.0581154 -4.35169 
1152 1 0.7 0.7 -0.000558171 -3.72384 
1153 1 0.75 0.75 -0.000193961 -3.57934 
1297 1 0.733333 0.7 0.116568 -4.43809 
1303 1 0.783333 0.65 0.116346 -4.43922 
1316 1 0.733333 0.8 0.116566 -4.43805 
1317 1 0.766667 0.8 0.0576809 -4.27814 
1318 1 0.783333 0.75 0.116495 -4.44875 
1320 1 0.766667 0.7 0.0576788 -4.27815 
1321 1 0.8 0.7 -0.000240636 -3.72591 
1322 1 0.816667 0.65 0.0582174 -4.36366 
1323 1 0.816667 0.75 0.0583272 -4.37512 
1326 1 0.85 0.65 -0.000781284 -3.89091 
1332 1 0.8 0.8 -0.000243925 -3.72588 
1333 1 0.85 0.75 -0.000851134 -3.90493 
1486 1 0.833333 0.8 0.116756 -4.44702 
1489 1 0.833333 0.7 0.116753 -4.4469 
1490 1 0.866667 0.7 0.0581022 -4.40921 
1491 1 0.883333 0.65 0.116783 -4.44905 
1492 1 0.883333 0.75 0.116748 -4.44884 
1505 1 0.866667 0.8 0.0581034 -4.40955 
1496 1 0.916667 0.65 0.0581182 -4.40748 
1506 1 0.9 0.8 -0.00101842 -3.9027 
1507 1 0.916667 0.75 0.0581282 -4.40716 
1509 1 0.9 0.7 -0.00102344 -3.90287 
1510 1 0.95 0.65 -0.000698994 -3.90423 
1511 1 0.95 0.75 -0.00047012 -3.90456 
1646 1 0.933333 0.7 0.116775 -4.43412 
1652 1 0.983333 0.65 0.1169 -4.43475 
1659 1 0.933333 0.8 0.11688 -4.42341 
1660 1 0.966667 0.8 0.0586063 -4.39701 
1661 1 0.983333 0.75 0.117931 -4.35869 
1663 1 0.966667 0.7 0.0584873 -4.40748 
24 1 0 0.9 -0.000498026 -3.90463 
25 1 0.0166667 0.85 0.0585874 -4.39741 
26 1 0.0166667 0.95 0.0582821 -4.40764 
29 1 0.05 0.85 -0.000516027 -3.90437 
30 1 0.05 0.95 -0.000917255 -3.90341 
103 1 0.0333333 0.9 0.116959 -4.42315 
104 1 0.0666667 0.9 0.0581948 -4.40703 
105 1 0.0833333 0.85 0.116712 -4.43434 
106 1 0.0833333 0.95 0.116832 -4.44812 
110 1 0.116667 0.85 0.0580655 -4.40609 
114 1 0.116667 0.95 0.0581467 -4.40822 
115 1 0.1 0.9 -0.000877088 -3.90387 
116 1 0.15 0.85 -0.000889695 -3.90405 
117 1 0.15 0.95 -0.000937855 -3.90433 
242 1 0.133333 0.9 0.116733 -4.44851 
248 1 0.183333 0.85 0.116659 -4.44864 
256 1 0.183333 0.95 0.116641 -4.44845 
257 1 0.166667 0.9 0.0580537 -4.40756 
258 1 0.2 0.9 -0.000996797 -3.90422 
259 1 0.216667 0.85 0.0579774 -4.40753 
260 1 0.216667 0.95 0.0579675 -4.40753 
263 1 0.25 0.85 -0.00106376 -3.90404 
264 1 0.25 0.95 -0.00106406 -3.90403 
430 1 0.233333 0.9 0.116591 -4.44853 
431 1 0.266667 0.9 0.0579204 -4.40757 
432 1 0.283333 0.85 0.116561 -4.44854 
433 1 0.283333 0.95 0.116561 -4.44858 
437 1 0.316667 0.85 0.057913 -4.40753 
441 1 0.316667 0.95 0.0579132 -4.40753 
442 1 0.3 0.9 -0.00108119 -3.90407 
443 1 0.35 0.85 -0.00107931 -3.90415 
444 1 0.35 0.95 -0.00107821 -3.90414 
602 1 0.333333 0.9 0.11656 -4.44855 
608 1 0.383333 0.85 0.116563 -4.44856 
616 1 0.383333 0.95 0.116564 -4.44857 
617 1 0.366667 0.9 0.0579161 -4.40754 
618 1 0.4 0.9 -0.00107819 -3.90412 
619 1 0.416667 0.85 0.057918 -4.40756 
620 1 0.416667 0.95 0.0579189 -4.40757 
623 1 0.45 0.85 -0.00107259 -3.90407 
624 1 0.45 0.95 -0.00106953 -3.90407 
790 1 0.433333 0.9 0.116568 -4.44857 
791 1 0.466667 0.9 0.0579328 -4.40753 
792 1 0.483333 0.85 0.116588 -4.44854 
793 1 0.483333 0.95 0.116595 -4.44853 
797 1 0.516667 0.85 0.057967 -4.40752 
801 1 0.516667 0.95 0.0579744 -4.40747 
802 1 0.5 0.9 -0.00103325 -3.90422 
803 1 0.55 0.85 -0.00101114 -3.90427 
804 1 0.55 0.95 -0.0010153 -3.90419 
962 1 0.533333 0.9 0.116618 -4.44858 
968 1 0.583333 0.85 0.116608 -4.44873 
976 1 0.583333 0.95 0.116608 -4.44885 
977 1 0.566667 0.9 0.0579655 -4.40779 
978 1 0.6 0.9 -0.00105119 -3.90373 
979 1 0.616667 0.85 0.0579776 -4.40812 
980 1 0.616667 0.95 0.0579929 -4.4084 
983 1 0.65 0.85 -0.000867325 -3.89048 
984 1 0.65 0.95 -0.000759345 -3.89139 
1144 1 0.633333 0.9 0.116657 -4.44752 
1145 1 0.666667 0.9 0.0582255 -4.37544 
1146 1 0.683333 0.85 0.116515 -4.44947 
1147 1 0.683333 0.95 0.116586 -4.4482 
1151 1 0.716667 0.85 0.0574252 -4.28113 
1154 1 0.716667 0.95 0.0576158 -4.25184 
1155 1 0.7 0.9 -0.000170036 -3.56351 
1313 1 0.733333 0.9 0.116345 -4.42885 
1319 1 0.783333 0.85 0.116343 -4.43931 
1327 1 0.783333 0.95 0.116082 -4.44178 
1328 1 0.766667 0.9 0.0561825 -4.19315 
1329 1 0.8 0.9 -0.000448238 -3.55811 
1330 1 0.816667 0.85 0.0581911 -4.36377 
1331 1 0.816667 0.95 0.0582698 -4.34788 
1334 1 0.85 0.85 -0.000840152 -3.89074 
1335 1 0.85 0.95 -0.000677078 -3.89231 
1501 1 0.833333 0.9 0.116733 -4.44706 
1502 1 0.866667 0.9 0.0581323 -4.40894 
1503 1 0.883333 0.85 0.11675 -4.44898 
1504 1 0.883333 0.95 0.116754 -4.44901 
1508 1 0.916667 0.85 0.0581165 -4.40703 
1512 1 0.916667 0.95 0.0580487 -4.40701 
1513 1 0.9 0.9 -0.00097476 -3.90314 
1514 1 0.95 0.85 -0.000498229 -3.9045 
1515 1 0.95 0.95 -0.00074406 -3.90427 
1656 1 0.933333 0.9 0.116719 -4.43411 
1662 1 0.983333 0.85 0.117887 -4.35796 
1664 1 0.983333 0.95 0.116826 -4.43394 
1665 1 0.966667 0.9 0.0584522 -4.40753 
31 1 0 0.1 0.175861 -4.45132 
32 1 0.0166667 0.05 0.234749 -4.44092 
33 1 0.0166667 0.15 0.234819 -4.42649 
34 1 0 0 0.175781 -4.45177 
36 1 0.05 0.05 0.175799 -4.45055 
39 1 0 0.2 0.17575 -4.35474 
41 1 0.05 0.15 0.175748 -4.43848 
131 1 0.0666667 0.1 0.234596 -4.45089 
134 1 0.0666667 0 0.234431 -4.44968 
148 1 0.0666667 0.2 0.234452 -4.43497 
135 1 0.1 0 0.175571 -4.45045 
136 1 0.116667 0.05 0.234256 -4.44911 
149 1 0.1 0.2 0.175558 -4.45197 
150 1 0.116667 0.15 0.234302 -4.4493 
152 1 0.1 0.1 0.175568 -4.45067 
154 1 0.15 0.05 0.175427 -4.45033 
155 1 0.15 0.15 0.175448 -4.45033 
288 1 0.166667 0 0.234219 -4.45006 
304 1 0.166667 0.2 0.234194 -4.44997 
307 1 0.166667 0.1 0.234187 -4.45001 
308 1 0.2 0.1 0.17539 -4.45064 
309 1 0.216667 0.05 0.234185 -4.45016 
310 1 0.216667 0.15 0.234174 -4.45009 
311 1 0.2 0 0.175406 -4.45065 
313 1 0.25 0.05 0.175367 -4.45067 
335 1 0.2 0.2 0.175372 -4.45062 
337 1 0.25 0.15 0.175369 -4.45067 
475 1 0.266667 0.1 0.234173 -4.45014 
478 1 0.266667 0 0.234171 -4.45014 
498 1 0.266667 0.2 0.23417 -4.45015 
479 1 0.3 0 0.175354 -4.45067 
480 1 0.316667 0.05 0.234168 -4.45012 
499 1 0.3 0.2 0.175355 -4.45067 
500 1 0.316667 0.15 0.234168 -4.45012 
502 1 0.3 0.1 0.175359 -4.45068 
504 1 0.35 0.05 0.175358 -4.45066 
505 1 0.35 0.15 0.175358 -4.45066 
648 1 0.366667 0 0.234172 -4.45011 
664 1 0.366667 0.2 0.234173 -4.45011 
667 1 0.366667 0.1 0.234173 -4.45011 
668 1 0.4 0.1 0.175362 -4.45068 
669 1 0.416667 0.05 0.234176 -4.45012 
670 1 0.416667 0.15 0.234176 -4.45013 
671 1 0.4 0 0.175361 -4.45068 
673 1 0.45 0.05 0.175373 -4.45064 
695 1 0.4 0.2 0.175362 -4.45068 
697 1 0.45 0.15 0.175373 -4.45065 
835 1 0.466667 0.1 0.234191 -4.4501 
838 1 0.466667 0 0.234189 -4.45011 
858 1 0.466667 0.2 0.234191 -4.4501 
839 1 0.5 0 0.175397 -4.45064 
840 1 0.516667 0.05 0.23422 -4.45008 
859 1 0.5 0.2 0.175408 -4.45062 
860 1 0.516667 0.15 0.234228 -4.45006 
862 1 0.5 0.1 0.175406 -4.45062 
864 1 0.55 0.05 0.175415 -4.45075 
865 1 0.55 0.15 0.175426 -4.45076 
1008 1 0.566667 0 0.234215 -4.45011 
1024 1 0.566667 0.2 0.234235 -4.45007 
1027 1 0.566667 0.1 0.234217 -4.45009 
1028 1 0.6 0.1 0.175398 -4.4505 
1029 1 0.616667 0.05 0.234199 -4.45023 
1030 1 0.616667 0.15 0.234182 -4.4502 
1031 1 0.6 0 0.175394 -4.45056 
1033 1 0.65 0.05 0.175395 -4.45113 
1055 1 0.6 0.2 0.175407 -4.45053 
1057 1 0.65 0.15 0.175393 -4.45101 
1186 1 0.666667 0.1 0.234187 -4.44998 
1189 1 0.666667 0 0.234171 -4.4497 
1209 1 0.666667 0.2 0.23417 -4.44995 
1190 1 0.7 0 0.175329 -4.44945 
1191 1 0.716667 0.05 0.234012 -4.44993 
1210 1 0.7 0.2 0.175307 -4.44974 
1211 1 0.716667 0.15 0.234015 -4.45011 
1213 1 0.7 0.1 0.175314 -4.44979 
1215 1 0.75 0.05 0.175146 -4.44764 
1216 1 0.75 0.15 0.175125 -4.44785 
1359 1 0.766667 0 0.233977 -4.45022 
1375 1 0.766667 0.2 0.233948 -4.45006 
1378 1 0.766667 0.1 0.233964 -4.4501 
1379 1 0.8 0.1 0.175219 -4.45085 
1380 1 0.816667 0.05 0.234124 -4.44998 
1381 1 0.816667 0.15 0.234126 -4.4499 
1382 1 0.8 0 0.175228 -4.45115 
1384 1 0.85 0.05 0.1755 -4.4497 
1406 1 0.8 0.2 0.175232 -4.45089 
1408 1 0.85 0.15 0.175501 -4.44946 
1546 1 0.866667 0.1 0.234249 -4.44968 
1549 1 0.866667 0 0.234248 -4.44983 
1569 1 0.866667 0.2 0.234213 -4.45004 
1550 1 0.9 0 0.175523 -4.45055 
1551 1 0.916667 0.05 0.234353 -4.44976 
1570 1 0.9 0.2 0.175468 -4.4522 
1571 1 0.916667 0.15 0.234341 -4.45028 
1573 1 0.9 0.1 0.175538 -4.4506 
1575 1 0.95 0.05 0.175657 -4.45049 
1576 1 0.95 0.15 0.175533 -4.4388 
1689 1 0.966667 0 0.234543 -4.45024 
1705 1 0.966667 0.2 0.234472 -4.42606 
1708 1 0.966667 0.1 0.234633 -4.44178 
37 1 0.0166667 0.25 0.233512 -4.34289 
38 1 0.0166667 0.35 0.231516 -4.26729 
42 1 0.05 0.25 0.175527 -4.34023 
54 1 0.05 0.35 0.175191 -4.24101 
145 1 0.0666667 0.3 0.234055 -4.40997 
169 1 0.0666667 0.4 0.234086 -4.40998 
151 1 0.116667 0.25 0.234316 -4.45072 
170 1 0.1 0.4 0.175417 -4.43984 
171 1 0.116667 0.35 0.234236 -4.45124 
173 1 0.1 0.3 0.175398 -4.4396 
175 1 0.15 0.25 0.175481 -4.45062 
176 1 0.15 0.35 0.175462 -4.45066 
328 1 0.166667 0.4 0.234251 -4.4503 
331 1 0.166667 0.3 0.234267 -4.45043 
332 1 0.2 0.3 0.175407 -4.45072 
333 1 0.216667 0.25 0.234164 -4.44995 
334 1 0.216667 0.35 0.234153 -4.44994 
338 1 0.25 0.25 0.175357 -4.45066 
366 1 0.2 0.4 0.175399 -4.45068 
368 1 0.25 0.35 0.175336 -4.45064 
495 1 0.266667 0.3 0.234162 -4.45009 
526 1 0.266667 0.4 0.23416 -4.45009 
501 1 0.316667 0.25 0.234165 -4.45013 
527 1 0.3 0.4 0.175354 -4.45065 
528 1 0.316667 0.35 0.234163 -4.45015 
530 1 0.3 0.3 0.175355 -4.45065 
532 1 0.35 0.25 0.175358 -4.45067 
533 1 0.35 0.35 0.175357 -4.45068 
688 1 0.366667 0.4 0.234173 -4.45011 
691 1 0.366667 0.3 0.234174 -4.45011 
692 1 0.4 0.3 0.175362 -4.45068 
693 1 0.416667 0.25 0.234176 -4.45013 
694 1 0.416667 0.35 0.234176 -4.45013 
698 1 0.45 0.25 0.175373 -4.45065 
726 1 0.4 0.4 0.175362 -4.45068 
728 1 0.45 0.35 0.175373 -4.45065 
855 1 0.466667 0.3 0.234191 -4.4501 
886 1 0.466667 0.4 0.234191 -4.4501 
861 1 0.516667 0.25 0.234227 -4.45008 
887 1 0.5 0.4 0.175406 -4.45062 
888 1 0.516667 0.35 0.234228 -4.45006 
890 1 0.5 0.3 0.175407 -4.45062 
892 1 0.55 0.25 0.175434 -4.45075 
893 1 0.55 0.35 0.175426 -4.45076 
1048 1 0.566667 0.4 0.234217 -4.45009 
1051 1 0.566667 0.3 0.234235 -4.45007 
1052 1 0.6 0.3 0.175407 -4.45053 
1053 1 0.616667 0.25 0.234207 -4.45014 
1054 1 0.616667 0.35 0.234181 -4.4502 
1058 1 0.65 0.25 0.175399 -4.45104 
1086 1 0.6 0.4 0.175398 -4.4505 
1088 1 0.65 0.35 0.175394 -4.45101 
1206 1 0.666667 0.3 0.234171 -4.44996 
1237 1 0.666667 0.4 0.234188 -4.44999 
1212 1 0.716667 0.25 0.234012 -4.45015 
1238 1 0.7 0.4 0.175313 -4.44982 
1239 1 0.716667 0.35 0.234015 -4.45012 
1241 1 0.7 0.3 0.175306 -4.44977 
1243 1 0.75 0.25 0.17512 -4.44785 
1244 1 0.75 0.35 0.175129 -4.44782 
1399 1 0.766667 0.4 0.233958 -4.45 
1402 1 0.766667 0.3 0.233953 -4.45004 
1403 1 0.8 0.3 0.175246 -4.45094 
1404 1 0.816667 0.25 0.234153 -4.44991 
1405 1 0.816667 0.35 0.234167 -4.44995 
1409 1 0.85 0.25 0.175508 -4.44946 
1437 1 0.8 0.4 0.175263 -4.45087 
1439 1 0.85 0.35 0.175541 -4.44974 
1566 1 0.866667 0.3 0.234261 -4.45025 
1597 1 0.866667 0.4 0.234292 -4.45023 
1572 1 0.916667 0.25 0.234329 -4.4351 
1598 1 0.9 0.4 0.175536 -4.43993 