ITEM: TIMESTEP
14
ITEM: NUMBER OF ATOMS
3584
ITEM: BOX BOUNDS pp pp ss
0.0000000000000000e+00 4.3111019472983898e+01
0.0000000000000000e+00 2.4890158697766498e+01
-3.6580800000000006e-03 3.4552298188307212e+01
ITEM: ATOMS id type xs ys zs c_peratom 
1 1 0 0.1 -0.000271994 -3.90468 
2 1 0.0166667 0.05 0.0585529 -4.40752 
3 1 0.0166667 0.15 0.0585348 -4.40606 
4 1 0 0 -0.000348867 -3.90447 
5 1 0.05 0.05 -0.000391397 -3.9046 
9 1 0 0.2 -0.000161683 -3.9043 
10 1 0.05 0.15 -0.000345729 -3.90422 
35 1 0.0333333 0 0.117224 -4.44899 
40 1 0.0333333 0.2 0.1172 -4.42405 
43 1 0.0333333 0.1 0.117177 -4.45003 
44 1 0.0666667 0.1 0.0584636 -4.4069 
45 1 0.0833333 0.05 0.117045 -4.44885 
46 1 0.0833333 0.15 0.11712 -4.44899 
47 1 0.0666667 0 0.0585219 -4.40823 
60 1 0.0666667 0.2 0.0585357 -4.40726 
48 1 0.1 0 -0.000451736 -3.90473 
49 1 0.116667 0.05 0.0583693 -4.40628 
61 1 0.1 0.2 -0.000483537 -3.9045 
62 1 0.116667 0.15 0.0584062 -4.40729 
64 1 0.1 0.1 -0.00038979 -3.90457 
65 1 0.15 0.05 -0.000466082 -3.9047 
66 1 0.15 0.15 -0.000519898 -3.90465 
153 1 0.133333 0.1 0.116979 -4.44862 
156 1 0.133333 0 0.116968 -4.44827 
157 1 0.166667 0 0.0583378 -4.40674 
158 1 0.183333 0.05 0.116912 -4.44846 
177 1 0.133333 0.2 0.116982 -4.44831 
178 1 0.166667 0.2 0.0583146 -4.40696 
179 1 0.183333 0.15 0.116886 -4.44837 
181 1 0.166667 0.1 0.0583287 -4.4067 
182 1 0.2 0.1 -0.000575333 -3.90468 
183 1 0.216667 0.05 0.0582726 -4.40689 
184 1 0.216667 0.15 0.0582737 -4.40684 
185 1 0.2 0 -0.000568537 -3.90465 
186 1 0.25 0.05 -0.000610847 -3.90461 
213 1 0.2 0.2 -0.000574396 -3.90465 
214 1 0.25 0.15 -0.000610741 -3.90463 
312 1 0.233333 0 0.116867 -4.44853 
336 1 0.233333 0.2 0.116868 -4.4485 
339 1 0.233333 0.1 0.116865 -4.44852 
340 1 0.266667 0.1 0.0582476 -4.40687 
341 1 0.283333 0.05 0.116853 -4.44851 
342 1 0.283333 0.15 0.116852 -4.44852 
343 1 0.266667 0 0.058247 -4.40687 
374 1 0.266667 0.2 0.0582456 -4.4069 
344 1 0.3 0 -0.000618035 -3.90467 
345 1 0.316667 0.05 0.0582454 -4.40686 
375 1 0.3 0.2 -0.000619776 -3.90466 
376 1 0.316667 0.15 0.0582449 -4.40686 
378 1 0.3 0.1 -0.000616849 -3.90467 
379 1 0.35 0.05 -0.000617255 -3.9047 
380 1 0.35 0.15 -0.000617348 -3.9047 
503 1 0.333333 0.1 0.116852 -4.4485 
506 1 0.333333 0 0.116852 -4.44849 
507 1 0.366667 0 0.0582456 -4.40687 
508 1 0.383333 0.05 0.116853 -4.4485 
534 1 0.333333 0.2 0.116852 -4.4485 
535 1 0.366667 0.2 0.0582456 -4.40687 
536 1 0.383333 0.15 0.116853 -4.4485 
538 1 0.366667 0.1 0.0582455 -4.40687 
539 1 0.4 0.1 -0.000617591 -3.90468 
540 1 0.416667 0.05 0.0582462 -4.40689 
541 1 0.416667 0.15 0.0582461 -4.40689 
542 1 0.4 0 -0.000617625 -3.90468 
543 1 0.45 0.05 -0.000613673 -3.90461 
573 1 0.4 0.2 -0.000617636 -3.90468 
574 1 0.45 0.15 -0.000613769 -3.9046 
672 1 0.433333 0 0.116856 -4.44852 
696 1 0.433333 0.2 0.116856 -4.44852 
699 1 0.433333 0.1 0.116856 -4.44852 
700 1 0.466667 0.1 0.058256 -4.40691 
701 1 0.483333 0.05 0.116877 -4.44845 
702 1 0.483333 0.15 0.116877 -4.44845 
703 1 0.466667 0 0.0582554 -4.4069 
734 1 0.466667 0.2 0.0582559 -4.4069 
704 1 0.5 0 -0.000583261 -3.90476 
705 1 0.516667 0.05 0.0583031 -4.40676 
735 1 0.5 0.2 -0.000579896 -3.90474 
736 1 0.516667 0.15 0.0583064 -4.40678 
738 1 0.5 0.1 -0.000579912 -3.90476 
739 1 0.55 0.05 -0.000533347 -3.90484 
740 1 0.55 0.15 -0.000523466 -3.9049 
863 1 0.533333 0.1 0.11691 -4.44853 
866 1 0.533333 0 0.116898 -4.44854 
867 1 0.566667 0 0.058294 -4.40704 
868 1 0.583333 0.05 0.116905 -4.44874 
894 1 0.533333 0.2 0.116914 -4.44853 
895 1 0.566667 0.2 0.0583206 -4.407 
896 1 0.583333 0.15 0.116913 -4.44877 
898 1 0.566667 0.1 0.0583106 -4.40699 
899 1 0.6 0.1 -0.000587701 -3.90414 
900 1 0.616667 0.05 0.0583032 -4.40788 
901 1 0.616667 0.15 0.0583092 -4.40788 
902 1 0.6 0 -0.000599153 -3.90416 
903 1 0.65 0.05 -0.000372629 -3.89132 
933 1 0.6 0.2 -0.00057176 -3.90424 
934 1 0.65 0.15 -0.000375459 -3.89126 
1032 1 0.633333 0 0.116932 -4.44767 
1056 1 0.633333 0.2 0.116942 -4.44763 
1059 1 0.633333 0.1 0.116938 -4.4476 
1060 1 0.666667 0.1 0.0585424 -4.37436 
1061 1 0.683333 0.05 0.116866 -4.44869 
1062 1 0.683333 0.15 0.116863 -4.44863 
1063 1 0.666667 0 0.0585493 -4.37436 
1094 1 0.666667 0.2 0.0585451 -4.37436 
1064 1 0.7 0 0.000410448 -3.55054 
1065 1 0.716667 0.05 0.0579936 -4.25189 
1095 1 0.7 0.2 0.000414025 -3.55031 
1096 1 0.716667 0.15 0.0579833 -4.25173 
1098 1 0.7 0.1 0.000411847 -3.55029 
1214 1 0.733333 0.1 0.116763 -4.42676 
1217 1 0.733333 0 0.116781 -4.4265 
1218 1 0.766667 0 0.0568795 -4.17775 
1219 1 0.783333 0.05 0.116497 -4.44028 
1245 1 0.733333 0.2 0.116761 -4.42673 
1246 1 0.766667 0.2 0.0568492 -4.17786 
1247 1 0.783333 0.15 0.116481 -4.44053 
1249 1 0.766667 0.1 0.0568406 -4.17807 
1250 1 0.8 0.1 0.000261076 -3.54717 
1251 1 0.816667 0.05 0.0586277 -4.34635 
1252 1 0.816667 0.15 0.0586225 -4.34651 
1253 1 0.8 0 0.000288571 -3.54785 
1254 1 0.85 0.05 -0.000291758 -3.89231 
1284 1 0.8 0.2 0.000291722 -3.54734 
1285 1 0.85 0.15 -0.000292772 -3.89224 
1383 1 0.833333 0 0.117 -4.44563 
1407 1 0.833333 0.2 0.11704 -4.44588 
1410 1 0.833333 0.1 0.117001 -4.44586 
1411 1 0.866667 0.1 0.0584044 -4.40803 
1412 1 0.883333 0.05 0.116994 -4.449 
1413 1 0.883333 0.15 0.116996 -4.44909 
1414 1 0.866667 0 0.0584134 -4.4079 
1445 1 0.866667 0.2 0.0584286 -4.40832 
1415 1 0.9 0 -0.000553831 -3.90369 
1416 1 0.916667 0.05 0.0583859 -4.40748 
1446 1 0.9 0.2 -0.000545731 -3.90339 
1447 1 0.916667 0.15 0.0584008 -4.4063 
1449 1 0.9 0.1 -0.000561264 -3.90366 
1450 1 0.95 0.05 -0.000334167 -3.90441 
1451 1 0.95 0.15 -0.000267896 -3.90502 
1574 1 0.933333 0.1 0.117065 -4.4486 
1577 1 0.933333 0 0.117025 -4.44873 
1578 1 0.966667 0 0.0585041 -4.4056 
1579 1 0.983333 0.05 0.117215 -4.44952 
1605 1 0.933333 0.2 0.116942 -4.43332 
1606 1 0.966667 0.2 0.0587721 -4.40599 
1607 1 0.983333 0.15 0.117104 -4.43436 
1609 1 0.966667 0.1 0.0585353 -4.4056 
6 1 0 0.3 0.000467195 -3.90458 
7 1 0.0166667 0.25 0.0588666 -4.39628 
8 1 0.0166667 0.35 0.0593499 -4.38655 
11 1 0.05 0.25 -0.000227617 -3.90424 
15 1 0 0.4 0.000472141 -3.90452 
16 1 0.05 0.35 0.00020258 -3.90569 
53 1 0.0333333 0.4 0.117987 -4.33105 
56 1 0.0333333 0.3 0.117973 -4.33096 
57 1 0.0666667 0.3 0.0587123 -4.40536 
58 1 0.0833333 0.25 0.116999 -4.43362 
59 1 0.0833333 0.35 0.116823 -4.41819 
78 1 0.0666667 0.4 0.0587175 -4.40546 
63 1 0.116667 0.25 0.0584194 -4.40666 
79 1 0.1 0.4 -0.000363415 -3.90488 
80 1 0.116667 0.35 0.0583658 -4.40454 
82 1 0.1 0.3 -0.000343094 -3.90489 
83 1 0.15 0.25 -0.000522041 -3.90446 
84 1 0.15 0.35 -0.000502727 -3.90421 
174 1 0.133333 0.3 0.116988 -4.44887 
180 1 0.183333 0.25 0.116888 -4.44851 
205 1 0.133333 0.4 0.116963 -4.44864 
206 1 0.166667 0.4 0.0583049 -4.40707 
207 1 0.183333 0.35 0.116915 -4.44871 
209 1 0.166667 0.3 0.0583055 -4.40713 
210 1 0.2 0.3 -0.000584848 -3.90461 
211 1 0.216667 0.25 0.0582684 -4.40679 
212 1 0.216667 0.35 0.0582635 -4.40683 
215 1 0.25 0.25 -0.000615709 -3.90464 
237 1 0.2 0.4 -0.000581143 -3.90462 
238 1 0.25 0.35 -0.000620383 -3.90465 
367 1 0.233333 0.4 0.116845 -4.44852 
370 1 0.233333 0.3 0.116844 -4.4485 
371 1 0.266667 0.3 0.0582425 -4.40685 
372 1 0.283333 0.25 0.11685 -4.4485 
373 1 0.283333 0.35 0.116852 -4.44846 
402 1 0.266667 0.4 0.0582421 -4.40686 
377 1 0.316667 0.25 0.0582425 -4.40687 
403 1 0.3 0.4 -0.000621451 -3.90465 
404 1 0.316667 0.35 0.0582415 -4.4069 
406 1 0.3 0.3 -0.000621214 -3.90465 
407 1 0.35 0.25 -0.000617549 -3.9047 
408 1 0.35 0.35 -0.000617894 -3.9047 
531 1 0.333333 0.3 0.11685 -4.44851 
537 1 0.383333 0.25 0.116853 -4.44851 
565 1 0.333333 0.4 0.11685 -4.44851 
566 1 0.366667 0.4 0.0582457 -4.40687 
567 1 0.383333 0.35 0.116853 -4.44851 
569 1 0.366667 0.3 0.0582458 -4.40687 
570 1 0.4 0.3 -0.000617649 -3.90468 
571 1 0.416667 0.25 0.0582461 -4.40689 
572 1 0.416667 0.35 0.0582461 -4.40689 
575 1 0.45 0.25 -0.000613811 -3.90459 
597 1 0.4 0.4 -0.000617646 -3.90468 
598 1 0.45 0.35 -0.000613764 -3.9046 
727 1 0.433333 0.4 0.116856 -4.44852 
730 1 0.433333 0.3 0.116856 -4.44852 
731 1 0.466667 0.3 0.0582559 -4.4069 
732 1 0.483333 0.25 0.116877 -4.44846 
733 1 0.483333 0.35 0.116877 -4.44845 
762 1 0.466667 0.4 0.058256 -4.40691 
737 1 0.516667 0.25 0.0583061 -4.4068 
763 1 0.5 0.4 -0.000579916 -3.90476 
764 1 0.516667 0.35 0.0583064 -4.40678 
766 1 0.5 0.3 -0.000579898 -3.90474 
767 1 0.55 0.25 -0.000522249 -3.9049 
768 1 0.55 0.35 -0.000523482 -3.9049 
891 1 0.533333 0.3 0.116914 -4.44853 
897 1 0.583333 0.25 0.116924 -4.44876 
925 1 0.533333 0.4 0.11691 -4.44853 
926 1 0.566667 0.4 0.0583105 -4.40699 
927 1 0.583333 0.35 0.116913 -4.44877 
929 1 0.566667 0.3 0.0583206 -4.407 
930 1 0.6 0.3 -0.000571779 -3.90424 
931 1 0.616667 0.25 0.058324 -4.40783 
932 1 0.616667 0.35 0.0583091 -4.40788 
935 1 0.65 0.25 -0.000360983 -3.89133 
957 1 0.6 0.4 -0.000587759 -3.90414 
958 1 0.65 0.35 -0.000375844 -3.89125 
1087 1 0.633333 0.4 0.116937 -4.4476 
1090 1 0.633333 0.3 0.116942 -4.44763 
1091 1 0.666667 0.3 0.0585453 -4.37437 
1092 1 0.683333 0.25 0.116873 -4.44866 
1093 1 0.683333 0.35 0.116866 -4.44864 
1120 1 0.666667 0.4 0.0585426 -4.37437 
1097 1 0.716667 0.25 0.0579952 -4.2518 
1121 1 0.7 0.4 0.000414767 -3.5503 
1122 1 0.716667 0.35 0.0579858 -4.25174 
1124 1 0.7 0.3 0.000415683 -3.55031 
1242 1 0.733333 0.3 0.116759 -4.42674 
1248 1 0.783333 0.25 0.116495 -4.44048 
1276 1 0.733333 0.4 0.116762 -4.42678 
1277 1 0.766667 0.4 0.0568519 -4.17786 
1278 1 0.783333 0.35 0.1165 -4.4406 
1280 1 0.766667 0.3 0.056854 -4.17774 
1281 1 0.8 0.3 0.000316932 -3.54743 
1282 1 0.816667 0.25 0.0586561 -4.34648 
1283 1 0.816667 0.35 0.0586519 -4.34646 
1286 1 0.85 0.25 -0.00026504 -3.89235 
1308 1 0.8 0.4 0.000306297 -3.5473 
1309 1 0.85 0.35 -0.000278297 -3.89225 
1438 1 0.833333 0.4 0.117055 -4.44573 
1441 1 0.833333 0.3 0.117053 -4.44585 
1442 1 0.866667 0.3 0.0584464 -4.40902 
1443 1 0.883333 0.25 0.117026 -4.4494 
1444 1 0.883333 0.35 0.117052 -4.4498 
1473 1 0.866667 0.4 0.0584486 -4.40907 
1448 1 0.916667 0.25 0.0584081 -4.40479 
1474 1 0.9 0.4 -0.000607693 -3.90253 
1475 1 0.916667 0.35 0.0584264 -4.4054 
1477 1 0.9 0.3 -0.00059119 -3.90268 
1478 1 0.95 0.25 1.84912e-05 -3.90549 
1479 1 0.95 0.35 0.000240328 -3.90501 
1602 1 0.933333 0.3 0.117066 -4.40853 
1608 1 0.983333 0.25 0.118089 -4.34337 
1631 1 0.933333 0.4 0.117083 -4.40872 
1632 1 0.966667 0.4 0.0592945 -4.39805 
1633 1 0.983333 0.35 0.119705 -4.26776 
1635 1 0.966667 0.3 0.059292 -4.39788 
12 1 0 0.5 -0.000159549 -3.90418 
13 1 0.0166667 0.45 0.0588663 -4.39621 
14 1 0.0166667 0.55 0.0585857 -4.4069 
17 1 0.05 0.45 -0.000194816 -3.9041 
21 1 0 0.6 -0.000291524 -3.9042 
22 1 0.05 0.55 -0.000363825 -3.9043 
71 1 0.0333333 0.6 0.117266 -4.44964 
74 1 0.0333333 0.5 0.117225 -4.42433 
75 1 0.0666667 0.5 0.0585188 -4.4069 
76 1 0.0833333 0.45 0.117038 -4.43379 
77 1 0.0833333 0.55 0.117101 -4.44903 
95 1 0.0666667 0.6 0.0585723 -4.40826 
81 1 0.116667 0.45 0.0584329 -4.4068 
96 1 0.1 0.6 -0.000411878 -3.90474 
97 1 0.116667 0.55 0.0583909 -4.40679 
99 1 0.1 0.5 -0.000424868 -3.9044 
100 1 0.15 0.45 -0.000538623 -3.90448 
101 1 0.15 0.55 -0.000471003 -3.9046 
202 1 0.133333 0.5 0.117022 -4.44843 
208 1 0.183333 0.45 0.116874 -4.44841 
229 1 0.133333 0.6 0.116966 -4.44859 
230 1 0.166667 0.6 0.0583335 -4.40644 
231 1 0.183333 0.55 0.116899 -4.44842 
233 1 0.166667 0.5 0.0583239 -4.40703 
234 1 0.2 0.5 -0.000584711 -3.90465 
235 1 0.216667 0.45 0.0582666 -4.40677 
236 1 0.216667 0.55 0.058273 -4.40684 
239 1 0.25 0.45 -0.000615101 -3.90464 
253 1 0.2 0.6 -0.000557509 -3.90468 
254 1 0.25 0.55 -0.000614858 -3.90461 
395 1 0.233333 0.6 0.116862 -4.44853 
398 1 0.233333 0.5 0.116862 -4.44848 
399 1 0.266667 0.5 0.0582441 -4.40691 
400 1 0.283333 0.45 0.116849 -4.4485 
401 1 0.283333 0.55 0.116849 -4.44851 
422 1 0.266667 0.6 0.0582433 -4.40685 
405 1 0.316667 0.45 0.0582421 -4.40687 
423 1 0.3 0.6 -0.000618266 -3.90466 
424 1 0.316667 0.55 0.0582442 -4.40686 
426 1 0.3 0.5 -0.000620116 -3.90467 
427 1 0.35 0.45 -0.00061764 -3.9047 
428 1 0.35 0.55 -0.000617614 -3.90471 
562 1 0.333333 0.5 0.116851 -4.4485 
568 1 0.383333 0.45 0.116853 -4.44851 
589 1 0.333333 0.6 0.116851 -4.44849 
590 1 0.366667 0.6 0.0582452 -4.40687 
591 1 0.383333 0.55 0.116853 -4.4485 
593 1 0.366667 0.5 0.0582455 -4.40687 
594 1 0.4 0.5 -0.000617663 -3.90468 
595 1 0.416667 0.45 0.0582461 -4.40689 
596 1 0.416667 0.55 0.0582461 -4.40689 
599 1 0.45 0.45 -0.000613672 -3.90461 
613 1 0.4 0.6 -0.000617646 -3.90469 
614 1 0.45 0.55 -0.000614058 -3.90462 
755 1 0.433333 0.6 0.116855 -4.44851 
758 1 0.433333 0.5 0.116856 -4.44852 
759 1 0.466667 0.5 0.0582554 -4.4069 
760 1 0.483333 0.45 0.116877 -4.44845 
761 1 0.483333 0.55 0.116871 -4.44846 
782 1 0.466667 0.6 0.0582529 -4.40689 
765 1 0.516667 0.45 0.058303 -4.40676 
783 1 0.5 0.6 -0.000591163 -3.90471 
784 1 0.516667 0.55 0.0582918 -4.40679 
786 1 0.5 0.5 -0.000583265 -3.90476 
787 1 0.55 0.45 -0.000533368 -3.90484 
788 1 0.55 0.55 -0.000550775 -3.90477 
922 1 0.533333 0.5 0.116898 -4.44854 
928 1 0.583333 0.45 0.116905 -4.44874 
949 1 0.533333 0.6 0.116895 -4.44853 
950 1 0.566667 0.6 0.0582955 -4.40702 
951 1 0.583333 0.55 0.116903 -4.44876 
953 1 0.566667 0.5 0.0582939 -4.40704 
954 1 0.6 0.5 -0.000599237 -3.90416 
955 1 0.616667 0.45 0.0583031 -4.40788 
956 1 0.616667 0.55 0.05832 -4.40781 
959 1 0.65 0.45 -0.000373069 -3.89131 
973 1 0.6 0.6 -0.00058009 -3.90436 
974 1 0.65 0.55 -0.000348533 -3.89161 
1113 1 0.633333 0.6 0.116945 -4.4474 
1116 1 0.633333 0.5 0.116931 -4.44767 
1117 1 0.666667 0.5 0.0585492 -4.37436 
1118 1 0.683333 0.45 0.116868 -4.4487 
1119 1 0.683333 0.55 0.116876 -4.44824 
1138 1 0.666667 0.6 0.058529 -4.37454 
1123 1 0.716667 0.45 0.0579957 -4.2519 
1139 1 0.7 0.6 0.000308346 -3.56448 
1140 1 0.716667 0.55 0.0579736 -4.25153 
1142 1 0.7 0.5 0.000411651 -3.55053 
1273 1 0.733333 0.5 0.116781 -4.42652 
1279 1 0.783333 0.45 0.116506 -4.44028 
1300 1 0.733333 0.6 0.116685 -4.42805 
1301 1 0.766667 0.6 0.0566209 -4.1937 
1302 1 0.783333 0.55 0.116455 -4.44147 
1304 1 0.766667 0.5 0.0568855 -4.17767 
1305 1 0.8 0.5 0.000312734 -3.54786 
1306 1 0.816667 0.45 0.058666 -4.34635 
1307 1 0.816667 0.55 0.0586187 -4.34672 
1310 1 0.85 0.45 -0.000248954 -3.89242 
1324 1 0.8 0.6 9.50514e-05 -3.5599 
1325 1 0.85 0.55 -0.000239125 -3.89254 
1466 1 0.833333 0.6 0.116995 -4.4467 
1469 1 0.833333 0.5 0.117046 -4.44558 
1470 1 0.866667 0.5 0.0584676 -4.4081 
1471 1 0.883333 0.45 0.11704 -4.44937 
1472 1 0.883333 0.55 0.11705 -4.44899 
1493 1 0.866667 0.6 0.058432 -4.40792 
1476 1 0.916667 0.45 0.0584026 -4.40499 
1494 1 0.9 0.6 -0.000480342 -3.90382 
1495 1 0.916667 0.55 0.0584322 -4.40646 
1497 1 0.9 0.5 -0.000528142 -3.90336 
1498 1 0.95 0.45 1.16835e-05 -3.90525 
1499 1 0.95 0.55 -0.000273391 -3.90456 
1628 1 0.933333 0.5 0.116985 -4.43378 
1634 1 0.983333 0.45 0.118119 -4.34369 
1649 1 0.933333 0.6 0.117125 -4.4487 
1650 1 0.966667 0.6 0.0585381 -4.40476 
1651 1 0.983333 0.55 0.117152 -4.43461 
1653 1 0.966667 0.5 0.0587678 -4.40635 
18 1 0 0.7 -7.36421e-05 -3.9047 
19 1 0.0166667 0.65 0.0585718 -4.40639 
20 1 0.0166667 0.75 0.0588726 -4.39731 
23 1 0.05 0.65 -0.000398788 -3.90404 
27 1 0 0.8 0.000130265 -3.90403 
28 1 0.05 0.75 -0.000134175 -3.90466 
88 1 0.0333333 0.8 0.1181 -4.35848 
91 1 0.0333333 0.7 0.117265 -4.42413 
92 1 0.0666667 0.7 0.0585202 -4.40658 
93 1 0.0833333 0.65 0.117142 -4.44846 
94 1 0.0833333 0.75 0.117031 -4.43377 
107 1 0.0666667 0.8 0.0587249 -4.4069 
98 1 0.116667 0.65 0.0584406 -4.40718 
108 1 0.1 0.8 -0.000308334 -3.9052 
109 1 0.116667 0.75 0.0584384 -4.40604 
111 1 0.1 0.7 -0.000447908 -3.90442 
112 1 0.15 0.65 -0.000465372 -3.90481 
113 1 0.15 0.75 -0.000489147 -3.90462 
226 1 0.133333 0.7 0.117008 -4.44808 
232 1 0.183333 0.65 0.116921 -4.44838 
245 1 0.133333 0.8 0.116984 -4.44851 
246 1 0.166667 0.8 0.0583366 -4.4068 
247 1 0.183333 0.75 0.116919 -4.44842 
249 1 0.166667 0.7 0.0583585 -4.407 
250 1 0.2 0.7 -0.00055594 -3.9047 
251 1 0.216667 0.65 0.0582823 -4.40688 
252 1 0.216667 0.75 0.0582833 -4.40685 
255 1 0.25 0.65 -0.000612058 -3.9046 
261 1 0.2 0.8 -0.000556382 -3.90466 
262 1 0.25 0.75 -0.00060865 -3.90462 
415 1 0.233333 0.8 0.116861 -4.44854 
418 1 0.233333 0.7 0.116874 -4.44849 
419 1 0.266667 0.7 0.0582479 -4.4069 
420 1 0.283333 0.65 0.116848 -4.44851 
421 1 0.283333 0.75 0.116849 -4.44849 
434 1 0.266667 0.8 0.0582459 -4.40685 
425 1 0.316667 0.65 0.0582433 -4.40685 
435 1 0.3 0.8 -0.000620303 -3.90464 
436 1 0.316667 0.75 0.0582417 -4.40686 
438 1 0.3 0.7 -0.000621036 -3.90465 
439 1 0.35 0.65 -0.000617695 -3.9047 
440 1 0.35 0.75 -0.000617968 -3.9047 
586 1 0.333333 0.7 0.11685 -4.44849 
592 1 0.383333 0.65 0.116853 -4.4485 
605 1 0.333333 0.8 0.11685 -4.4485 
606 1 0.366667 0.8 0.0582453 -4.40687 
607 1 0.383333 0.75 0.116853 -4.4485 
609 1 0.366667 0.7 0.0582453 -4.40687 
610 1 0.4 0.7 -0.000617618 -3.90469 
611 1 0.416667 0.65 0.0582458 -4.40688 
612 1 0.416667 0.75 0.0582456 -4.40688 
615 1 0.45 0.65 -0.000615492 -3.90463 
621 1 0.4 0.8 -0.000617592 -3.90469 
622 1 0.45 0.75 -0.000616501 -3.90463 
775 1 0.433333 0.8 0.116854 -4.44852 
778 1 0.433333 0.7 0.116854 -4.44852 
779 1 0.466667 0.7 0.0582496 -4.4069 
780 1 0.483333 0.65 0.116866 -4.44847 
781 1 0.483333 0.75 0.116866 -4.44847 
794 1 0.466667 0.8 0.0582496 -4.4069 
785 1 0.516667 0.65 0.0582824 -4.40683 
795 1 0.5 0.8 -0.00059788 -3.90468 
796 1 0.516667 0.75 0.0582804 -4.40683 
798 1 0.5 0.7 -0.000597881 -3.90468 
799 1 0.55 0.65 -0.000557758 -3.9048 
800 1 0.55 0.75 -0.000555988 -3.90483 
946 1 0.533333 0.7 0.116889 -4.4485 
952 1 0.583333 0.65 0.1169 -4.44867 
965 1 0.533333 0.8 0.116889 -4.4485 
966 1 0.566667 0.8 0.058303 -4.40689 
967 1 0.583333 0.75 0.116906 -4.44869 
969 1 0.566667 0.7 0.058303 -4.40689 
970 1 0.6 0.7 -0.000567721 -3.90443 
971 1 0.616667 0.65 0.0583081 -4.4075 
972 1 0.616667 0.75 0.0582796 -4.40748 
975 1 0.65 0.65 -0.000426275 -3.89087 
981 1 0.6 0.8 -0.000567689 -3.90443 
982 1 0.65 0.75 -0.000535252 -3.9052 
1131 1 0.633333 0.8 0.116907 -4.44818 
1134 1 0.633333 0.7 0.116907 -4.44818 
1135 1 0.666667 0.7 0.0583862 -4.39119 
1136 1 0.683333 0.65 0.116807 -4.44954 
1137 1 0.683333 0.75 0.116918 -4.44844 
1148 1 0.666667 0.8 0.0583863 -4.3912 
1141 1 0.716667 0.65 0.0577889 -4.28081 
1149 1 0.7 0.8 -8.31764e-05 -3.72468 
1150 1 0.716667 0.75 0.0584542 -4.35075 
1152 1 0.7 0.7 -8.39628e-05 -3.72467 
1153 1 0.75 0.75 0.00024484 -3.57978 
1297 1 0.733333 0.7 0.116865 -4.43769 
1303 1 0.783333 0.65 0.116674 -4.43909 
1316 1 0.733333 0.8 0.116863 -4.43766 
1317 1 0.766667 0.8 0.0579561 -4.2777 
1318 1 0.783333 0.75 0.116772 -4.44928 
1320 1 0.766667 0.7 0.0579552 -4.27774 
1321 1 0.8 0.7 0.000186219 -3.72621 
1322 1 0.816667 0.65 0.0585352 -4.3627 
1323 1 0.816667 0.75 0.058606 -4.37429 
1326 1 0.85 0.65 -0.000375897 -3.89127 
1332 1 0.8 0.8 0.000189494 -3.7262 
1333 1 0.85 0.75 -0.000459149 -3.90539 
1486 1 0.833333 0.8 0.116997 -4.44664 
1489 1 0.833333 0.7 0.116999 -4.44664 
1490 1 0.866667 0.7 0.058411 -4.40849 
1491 1 0.883333 0.65 0.117034 -4.44879 
1492 1 0.883333 0.75 0.117031 -4.44869 
1505 1 0.866667 0.8 0.0584227 -4.40891 
1496 1 0.916667 0.65 0.058472 -4.40647 
1506 1 0.9 0.8 -0.00050285 -3.90358 
1507 1 0.916667 0.75 0.0584588 -4.40604 
1509 1 0.9 0.7 -0.000504826 -3.90384 
1510 1 0.95 0.65 -0.000229853 -3.90502 
1511 1 0.95 0.75 -5.80851e-05 -3.90495 
1646 1 0.933333 0.7 0.117058 -4.43411 
1652 1 0.983333 0.65 0.117175 -4.43502 
1659 1 0.933333 0.8 0.117143 -4.42365 
1660 1 0.966667 0.8 0.0588892 -4.39685 
1661 1 0.983333 0.75 0.118192 -4.35914 
1663 1 0.966667 0.7 0.0587976 -4.40711 
24 1 0 0.9 -0.000102749 -3.90493 
25 1 0.0166667 0.85 0.0588713 -4.39718 
26 1 0.0166667 0.95 0.058559 -4.40664 
29 1 0.05 0.85 -0.000109725 -3.90488 
30 1 0.05 0.95 -0.000433659 -3.90408 
103 1 0.0333333 0.9 0.117193 -4.42337 
104 1 0.0666667 0.9 0.0585029 -4.4061 
105 1 0.0833333 0.85 0.116969 -4.43404 
106 1 0.0833333 0.95 0.117121 -4.44805 
110 1 0.116667 0.85 0.0583945 -4.4054 
114 1 0.116667 0.95 0.0584563 -4.40754 
115 1 0.1 0.9 -0.000422337 -3.90453 
116 1 0.15 0.85 -0.000459291 -3.90452 
117 1 0.15 0.95 -0.000503978 -3.90481 
242 1 0.133333 0.9 0.117004 -4.44837 
248 1 0.183333 0.85 0.116928 -4.4486 
256 1 0.183333 0.95 0.11691 -4.44838 
257 1 0.166667 0.9 0.0583425 -4.40698 
258 1 0.2 0.9 -0.000565059 -3.90464 
259 1 0.216667 0.85 0.0582798 -4.40684 
260 1 0.216667 0.95 0.0582777 -4.40689 
263 1 0.25 0.85 -0.000612775 -3.90461 
264 1 0.25 0.95 -0.000613036 -3.9046 
430 1 0.233333 0.9 0.116865 -4.44849 
431 1 0.266667 0.9 0.0582452 -4.40687 
432 1 0.283333 0.85 0.116851 -4.44848 
433 1 0.283333 0.95 0.116848 -4.44851 
437 1 0.316667 0.85 0.0582426 -4.40687 
441 1 0.316667 0.95 0.0582436 -4.40686 
442 1 0.3 0.9 -0.00061984 -3.90465 
443 1 0.35 0.85 -0.000617903 -3.9047 
444 1 0.35 0.95 -0.000617229 -3.9047 
602 1 0.333333 0.9 0.116851 -4.44849 
608 1 0.383333 0.85 0.116853 -4.4485 
616 1 0.383333 0.95 0.116853 -4.44851 
617 1 0.366667 0.9 0.0582455 -4.40687 
618 1 0.4 0.9 -0.000617649 -3.90469 
619 1 0.416667 0.85 0.0582458 -4.40688 
620 1 0.416667 0.95 0.0582461 -4.40689 
623 1 0.45 0.85 -0.000615489 -3.90463 
624 1 0.45 0.95 -0.000614049 -3.90462 
790 1 0.433333 0.9 0.116855 -4.44851 
791 1 0.466667 0.9 0.0582529 -4.40689 
792 1 0.483333 0.85 0.116866 -4.44847 
793 1 0.483333 0.95 0.116871 -4.44846 
797 1 0.516667 0.85 0.0582824 -4.40683 
801 1 0.516667 0.95 0.0582918 -4.40679 
802 1 0.5 0.9 -0.00059116 -3.90471 
803 1 0.55 0.85 -0.000557751 -3.9048 
804 1 0.55 0.95 -0.000550759 -3.90477 
962 1 0.533333 0.9 0.116895 -4.44853 
968 1 0.583333 0.85 0.1169 -4.44868 
976 1 0.583333 0.95 0.116904 -4.44876 
977 1 0.566667 0.9 0.0582956 -4.40703 
978 1 0.6 0.9 -0.000580014 -3.90436 
979 1 0.616667 0.85 0.0583082 -4.4075 
980 1 0.616667 0.95 0.0583202 -4.40782 
983 1 0.65 0.85 -0.000426206 -3.89087 
984 1 0.65 0.95 -0.000348269 -3.89161 
1144 1 0.633333 0.9 0.116946 -4.4474 
1145 1 0.666667 0.9 0.0585293 -4.37455 
1146 1 0.683333 0.85 0.116808 -4.44954 
1147 1 0.683333 0.95 0.116877 -4.44824 
1151 1 0.716667 0.85 0.0577904 -4.28081 
1154 1 0.716667 0.95 0.057974 -4.25152 
1155 1 0.7 0.9 0.000309172 -3.56449 
1313 1 0.733333 0.9 0.116685 -4.42803 
1319 1 0.783333 0.85 0.116676 -4.43919 
1327 1 0.783333 0.95 0.116449 -4.4415 
1328 1 0.766667 0.9 0.0566222 -4.19365 
1329 1 0.8 0.9 9.55016e-05 -3.55995 
1330 1 0.816667 0.85 0.0585193 -4.36276 
1331 1 0.816667 0.95 0.0585922 -4.34675 
1334 1 0.85 0.85 -0.000421701 -3.89121 
1335 1 0.85 0.95 -0.000302422 -3.89239 
1501 1 0.833333 0.9 0.116989 -4.44673 
1502 1 0.866667 0.9 0.0584123 -4.4083 
1503 1 0.883333 0.85 0.117038 -4.44893 
1504 1 0.883333 0.95 0.117006 -4.44895 
1508 1 0.916667 0.85 0.0584326 -4.40596 
1512 1 0.916667 0.95 0.0583798 -4.40599 
1513 1 0.9 0.9 -0.000510425 -3.90378 
1514 1 0.95 0.85 -8.72119e-05 -3.90493 
1515 1 0.95 0.95 -0.000274082 -3.9051 
1656 1 0.933333 0.9 0.116981 -4.43409 
1662 1 0.983333 0.85 0.118159 -4.35841 
1664 1 0.983333 0.95 0.117093 -4.43413 
1665 1 0.966667 0.9 0.0587644 -4.40701 
31 1 0 0.1 0.176043 -4.4508 
32 1 0.0166667 0.05 0.234824 -4.44069 
33 1 0.0166667 0.15 0.234889 -4.42622 
34 1 0 0 0.175951 -4.45153 
36 1 0.05 0.05 0.175915 -4.45057 
39 1 0 0.2 0.175916 -4.35413 
41 1 0.05 0.15 0.175913 -4.43815 
131 1 0.0666667 0.1 0.234685 -4.45085 
134 1 0.0666667 0 0.234552 -4.44988 
148 1 0.0666667 0.2 0.234584 -4.43488 
135 1 0.1 0 0.175694 -4.45035 
136 1 0.116667 0.05 0.234367 -4.44945 
149 1 0.1 0.2 0.175704 -4.45169 
150 1 0.116667 0.15 0.234413 -4.44964 
152 1 0.1 0.1 0.175718 -4.45052 
154 1 0.15 0.05 0.17559 -4.45014 
155 1 0.15 0.15 0.175582 -4.45009 
288 1 0.166667 0 0.234356 -4.45037 
304 1 0.166667 0.2 0.234319 -4.45038 
307 1 0.166667 0.1 0.234333 -4.45036 
308 1 0.2 0.1 0.175555 -4.45053 
309 1 0.216667 0.05 0.234328 -4.45037 
310 1 0.216667 0.15 0.234326 -4.45033 
311 1 0.2 0 0.175563 -4.45054 
313 1 0.25 0.05 0.175535 -4.4505 
335 1 0.2 0.2 0.175547 -4.45046 
337 1 0.25 0.15 0.175536 -4.45053 
475 1 0.266667 0.1 0.23432 -4.4504 
478 1 0.266667 0 0.234314 -4.45038 
498 1 0.266667 0.2 0.234317 -4.45038 
479 1 0.3 0 0.175528 -4.45049 
480 1 0.316667 0.05 0.234317 -4.45036 
499 1 0.3 0.2 0.175527 -4.45049 
500 1 0.316667 0.15 0.234317 -4.45037 
502 1 0.3 0.1 0.175531 -4.4505 
504 1 0.35 0.05 0.175531 -4.45049 
505 1 0.35 0.15 0.175531 -4.45049 
648 1 0.366667 0 0.23432 -4.45036 
664 1 0.366667 0.2 0.234321 -4.45036 
667 1 0.366667 0.1 0.234321 -4.45036 
668 1 0.4 0.1 0.175533 -4.45051 
669 1 0.416667 0.05 0.234322 -4.45038 
670 1 0.416667 0.15 0.234322 -4.45038 
671 1 0.4 0 0.175533 -4.45051 
673 1 0.45 0.05 0.175537 -4.45049 
695 1 0.4 0.2 0.175533 -4.45051 
697 1 0.45 0.15 0.175537 -4.45049 
835 1 0.466667 0.1 0.234331 -4.45036 
838 1 0.466667 0 0.23433 -4.45036 
858 1 0.466667 0.2 0.23433 -4.45037 
839 1 0.5 0 0.175558 -4.4505 
840 1 0.516667 0.05 0.234353 -4.45029 
859 1 0.5 0.2 0.175562 -4.4505 
860 1 0.516667 0.15 0.234358 -4.45027 
862 1 0.5 0.1 0.175562 -4.45049 
864 1 0.55 0.05 0.175588 -4.45051 
865 1 0.55 0.15 0.175599 -4.45049 
1008 1 0.566667 0 0.23436 -4.45038 
1024 1 0.566667 0.2 0.234374 -4.45035 
1027 1 0.566667 0.1 0.234359 -4.45041 
1028 1 0.6 0.1 0.17557 -4.45033 
1029 1 0.616667 0.05 0.234364 -4.4504 
1030 1 0.616667 0.15 0.234348 -4.45052 
1031 1 0.6 0 0.17557 -4.45038 
1033 1 0.65 0.05 0.175573 -4.45103 
1055 1 0.6 0.2 0.175587 -4.45031 
1057 1 0.65 0.15 0.175559 -4.45097 
1186 1 0.666667 0.1 0.234349 -4.44999 
1189 1 0.666667 0 0.234322 -4.44997 
1209 1 0.666667 0.2 0.234338 -4.45007 
1190 1 0.7 0 0.175493 -4.44939 
1191 1 0.716667 0.05 0.234193 -4.45066 
1210 1 0.7 0.2 0.175496 -4.44971 
1211 1 0.716667 0.15 0.234204 -4.45068 
1213 1 0.7 0.1 0.175499 -4.44973 
1215 1 0.75 0.05 0.175291 -4.44748 
1216 1 0.75 0.15 0.17528 -4.44764 
1359 1 0.766667 0 0.234158 -4.45077 
1375 1 0.766667 0.2 0.234143 -4.45082 
1378 1 0.766667 0.1 0.234151 -4.45082 
1379 1 0.8 0.1 0.175405 -4.45068 
1380 1 0.816667 0.05 0.23426 -4.45011 
1381 1 0.816667 0.15 0.234261 -4.45007 
1382 1 0.8 0 0.175414 -4.45093 
1384 1 0.85 0.05 0.175601 -4.44978 
1406 1 0.8 0.2 0.175412 -4.45063 
1408 1 0.85 0.15 0.175623 -4.44964 
1546 1 0.866667 0.1 0.234375 -4.4502 
1549 1 0.866667 0 0.234366 -4.4504 
1569 1 0.866667 0.2 0.234368 -4.45018 
1550 1 0.9 0 0.175649 -4.45035 
1551 1 0.916667 0.05 0.23444 -4.44994 
1570 1 0.9 0.2 0.175639 -4.45208 
1571 1 0.916667 0.15 0.234457 -4.45019 
1573 1 0.9 0.1 0.175672 -4.4503 
1575 1 0.95 0.05 0.17581 -4.45019 
1576 1 0.95 0.15 0.17574 -4.43819 
1689 1 0.966667 0 0.234679 -4.45026 
1705 1 0.966667 0.2 0.2346 -4.42647 
1708 1 0.966667 0.1 0.234746 -4.44165 
37 1 0.0166667 0.25 0.233653 -4.34354 
38 1 0.0166667 0.35 0.231727 -4.26811 
42 1 0.05 0.25 0.175725 -4.34016 
54 1 0.05 0.35 0.175393 -4.24143 
145 1 0.0666667 0.3 0.23428 -4.41019 
169 1 0.0666667 0.4 0.234293 -4.41034 
151 1 0.116667 0.25 0.234447 -4.4509 
170 1 0.1 0.4 0.17561 -4.43974 
171 1 0.116667 0.35 0.234396 -4.45113 
173 1 0.1 0.3 0.17562 -4.4397 
175 1 0.15 0.25 0.175595 -4.4504 
176 1 0.15 0.35 0.175604 -4.45048 
328 1 0.166667 0.4 0.234364 -4.45059 
331 1 0.166667 0.3 0.234376 -4.45066 
332 1 0.2 0.3 0.175546 -4.45037 
333 1 0.216667 0.25 0.234305 -4.45025 
334 1 0.216667 0.35 0.234276 -4.45024 
338 1 0.25 0.25 0.175531 -4.45054 
366 1 0.2 0.4 0.175546 -4.45042 
368 1 0.25 0.35 0.175521 -4.45049 
495 1 0.266667 0.3 0.234317 -4.45031 
526 1 0.266667 0.4 0.234316 -4.4503 
501 1 0.316667 0.25 0.234315 -4.45039 
527 1 0.3 0.4 0.175524 -4.45051 
528 1 0.316667 0.35 0.234313 -4.45042 
530 1 0.3 0.3 0.175525 -4.45051 
532 1 0.35 0.25 0.175532 -4.45049 
533 1 0.35 0.35 0.175532 -4.45049 
688 1 0.366667 0.4 0.234321 -4.45035 
691 1 0.366667 0.3 0.234321 -4.45035 
692 1 0.4 0.3 0.175533 -4.45051 
693 1 0.416667 0.25 0.234322 -4.45038 
694 1 0.416667 0.35 0.234322 -4.45038 
698 1 0.45 0.25 0.175537 -4.45049 
726 1 0.4 0.4 0.175533 -4.45051 
728 1 0.45 0.35 0.175537 -4.45049 
855 1 0.466667 0.3 0.23433 -4.45037 
886 1 0.466667 0.4 0.234331 -4.45036 
861 1 0.516667 0.25 0.234356 -4.4503 
887 1 0.5 0.4 0.175562 -4.45049 
888 1 0.516667 0.35 0.234358 -4.45027 
890 1 0.5 0.3 0.175562 -4.4505 
892 1 0.55 0.25 0.1756 -4.45052 
893 1 0.55 0.35 0.175599 -4.45049 
1048 1 0.566667 0.4 0.234359 -4.45041 
1051 1 0.566667 0.3 0.234374 -4.45035 
1052 1 0.6 0.3 0.175587 -4.45032 
1053 1 0.616667 0.25 0.234369 -4.45041 
1054 1 0.616667 0.35 0.234347 -4.45051 
1058 1 0.65 0.25 0.175577 -4.45092 
1086 1 0.6 0.4 0.175569 -4.45033 
1088 1 0.65 0.35 0.175559 -4.45096 
1206 1 0.666667 0.3 0.234339 -4.45007 
1237 1 0.666667 0.4 0.23435 -4.44999 
1212 1 0.716667 0.25 0.234206 -4.45072 
1238 1 0.7 0.4 0.1755 -4.44975 
1239 1 0.716667 0.35 0.234203 -4.45071 
1241 1 0.7 0.3 0.175496 -4.44973 
1243 1 0.75 0.25 0.175291 -4.44766 
1244 1 0.75 0.35 0.175284 -4.44762 
1399 1 0.766667 0.4 0.234143 -4.45067 
1402 1 0.766667 0.3 0.234146 -4.45073 
1403 1 0.8 0.3 0.175428 -4.45066 
1404 1 0.816667 0.25 0.23429 -4.45013 
1405 1 0.816667 0.35 0.234289 -4.4502 
1409 1 0.85 0.25 0.175648 -4.44953 
1437 1 0.8 0.4 0.175431 -4.45064 
1439 1 0.85 0.35 0.175655 -4.44974 
1566 1 0.866667 0.3 0.234419 -4.45048 
1597 1 0.866667 0.4 0.234439 -4.45056 
1572 1 0.916667 0.25 0.234473 -4.43491 
1598 1 0.9 0.4 0.175722 -4.43979 