ITEM: TIMESTEP
10
ITEM: NUMBER OF ATOMS
3584
ITEM: BOX BOUNDS pp pp ss
0.0000000000000000e+00 4.3111019472983898e+01
0.0000000000000000e+00 2.4890158697766498e+01
-3.6580800000000006e-03 3.4552298188307212e+01
ITEM: ATOMS id type xs ys zs c_peratom 
1 1 0 0.1 0.00026101 -3.90419 
2 1 0.0166667 0.05 0.0591173 -4.40742 
3 1 0.0166667 0.15 0.0591638 -4.40619 
4 1 0 0 0.000228192 -3.90426 
5 1 0.05 0.05 0.000159568 -3.90423 
9 1 0 0.2 0.000450558 -3.90415 
10 1 0.05 0.15 0.000236443 -3.90417 
35 1 0.0333333 0 0.117849 -4.44914 
40 1 0.0333333 0.2 0.117932 -4.42436 
43 1 0.0333333 0.1 0.117791 -4.45002 
44 1 0.0666667 0.1 0.0590524 -4.40792 
45 1 0.0833333 0.05 0.11775 -4.44984 
46 1 0.0833333 0.15 0.117767 -4.44956 
47 1 0.0666667 0 0.0591195 -4.40881 
60 1 0.0666667 0.2 0.0591635 -4.40744 
48 1 0.1 0 7.74528e-06 -3.90384 
49 1 0.116667 0.05 0.0589362 -4.40835 
61 1 0.1 0.2 6.18174e-05 -3.90403 
62 1 0.116667 0.15 0.0589819 -4.40847 
64 1 0.1 0.1 5.18394e-05 -3.90377 
65 1 0.15 0.05 -5.56099e-05 -3.90358 
66 1 0.15 0.15 -5.47757e-05 -3.90371 
153 1 0.133333 0.1 0.117679 -4.44987 
156 1 0.133333 0 0.117667 -4.44968 
157 1 0.166667 0 0.0588874 -4.40831 
158 1 0.183333 0.05 0.117625 -4.44962 
177 1 0.133333 0.2 0.117669 -4.44947 
178 1 0.166667 0.2 0.0588894 -4.40839 
179 1 0.183333 0.15 0.11762 -4.44962 
181 1 0.166667 0.1 0.0588956 -4.4083 
182 1 0.2 0.1 -8.52425e-05 -3.90378 
183 1 0.216667 0.05 0.0588763 -4.40825 
184 1 0.216667 0.15 0.0588739 -4.40824 
185 1 0.2 0 -8.66983e-05 -3.90374 
186 1 0.25 0.05 -8.96666e-05 -3.90385 
213 1 0.2 0.2 -9.14995e-05 -3.90373 
214 1 0.25 0.15 -8.9936e-05 -3.90384 
312 1 0.233333 0 0.117613 -4.44955 
336 1 0.233333 0.2 0.117609 -4.44956 
339 1 0.233333 0.1 0.117613 -4.44956 
340 1 0.266667 0.1 0.0588736 -4.40826 
341 1 0.283333 0.05 0.117613 -4.44956 
342 1 0.283333 0.15 0.117613 -4.44956 
343 1 0.266667 0 0.0588743 -4.40826 
374 1 0.266667 0.2 0.0588736 -4.40826 
344 1 0.3 0 -8.96674e-05 -3.90386 
345 1 0.316667 0.05 0.0588743 -4.40827 
375 1 0.3 0.2 -8.97677e-05 -3.90387 
376 1 0.316667 0.15 0.0588743 -4.40827 
378 1 0.3 0.1 -8.97514e-05 -3.90386 
379 1 0.35 0.05 -8.96586e-05 -3.90386 
380 1 0.35 0.15 -8.96603e-05 -3.90386 
503 1 0.333333 0.1 0.117613 -4.44957 
506 1 0.333333 0 0.117613 -4.44957 
507 1 0.366667 0 0.0588743 -4.40827 
508 1 0.383333 0.05 0.117613 -4.44957 
534 1 0.333333 0.2 0.117613 -4.44957 
535 1 0.366667 0.2 0.0588743 -4.40827 
536 1 0.383333 0.15 0.117613 -4.44957 
538 1 0.366667 0.1 0.0588743 -4.40827 
539 1 0.4 0.1 -8.96827e-05 -3.90387 
540 1 0.416667 0.05 0.0588743 -4.40827 
541 1 0.416667 0.15 0.0588743 -4.40827 
542 1 0.4 0 -8.96825e-05 -3.90387 
543 1 0.45 0.05 -8.97834e-05 -3.90385 
573 1 0.4 0.2 -8.96833e-05 -3.90387 
574 1 0.45 0.15 -8.97977e-05 -3.90385 
672 1 0.433333 0 0.117613 -4.44958 
696 1 0.433333 0.2 0.117613 -4.44958 
699 1 0.433333 0.1 0.117613 -4.44958 
700 1 0.466667 0.1 0.0588732 -4.40829 
701 1 0.483333 0.05 0.117613 -4.4496 
702 1 0.483333 0.15 0.117612 -4.44959 
703 1 0.466667 0 0.0588732 -4.40829 
734 1 0.466667 0.2 0.0588732 -4.40829 
704 1 0.5 0 -9.14972e-05 -3.90379 
705 1 0.516667 0.05 0.0588782 -4.40832 
735 1 0.5 0.2 -9.15942e-05 -3.90378 
736 1 0.516667 0.15 0.0588778 -4.40831 
738 1 0.5 0.1 -9.15282e-05 -3.90378 
739 1 0.55 0.05 -6.81655e-05 -3.90371 
740 1 0.55 0.15 -6.89768e-05 -3.90369 
863 1 0.533333 0.1 0.117621 -4.44963 
866 1 0.533333 0 0.117622 -4.44961 
867 1 0.566667 0 0.0589164 -4.40834 
868 1 0.583333 0.05 0.117683 -4.44963 
894 1 0.533333 0.2 0.117621 -4.44962 
895 1 0.566667 0.2 0.0589165 -4.40834 
896 1 0.583333 0.15 0.117681 -4.44967 
898 1 0.566667 0.1 0.0589176 -4.40835 
899 1 0.6 0.1 3.61557e-05 -3.90388 
900 1 0.616667 0.05 0.0590119 -4.40895 
901 1 0.616667 0.15 0.0590162 -4.40902 
902 1 0.6 0 2.83931e-05 -3.90389 
903 1 0.65 0.05 0.000152958 -3.89038 
933 1 0.6 0.2 3.43379e-05 -3.90385 
934 1 0.65 0.15 0.000166396 -3.89041 
1032 1 0.633333 0 0.117714 -4.44875 
1056 1 0.633333 0.2 0.117742 -4.4487 
1059 1 0.633333 0.1 0.117745 -4.44864 
1060 1 0.666667 0.1 0.0591469 -4.37643 
1061 1 0.683333 0.05 0.117595 -4.45011 
1062 1 0.683333 0.15 0.117625 -4.45003 
1063 1 0.666667 0 0.0591155 -4.37651 
1094 1 0.666667 0.2 0.0591513 -4.37648 
1064 1 0.7 0 0.000760171 -3.54766 
1065 1 0.716667 0.05 0.0586189 -4.25394 
1095 1 0.7 0.2 0.000803052 -3.5477 
1096 1 0.716667 0.15 0.0586469 -4.254 
1098 1 0.7 0.1 0.000793839 -3.54771 
1214 1 0.733333 0.1 0.117608 -4.42823 
1217 1 0.733333 0 0.117596 -4.42812 
1218 1 0.766667 0 0.0576114 -4.17847 
1219 1 0.783333 0.05 0.117228 -4.4414 
1245 1 0.733333 0.2 0.11762 -4.4282 
1246 1 0.766667 0.2 0.0576682 -4.17878 
1247 1 0.783333 0.15 0.11726 -4.4414 
1249 1 0.766667 0.1 0.0576553 -4.17872 
1250 1 0.8 0.1 0.000673966 -3.54607 
1251 1 0.816667 0.05 0.0590963 -4.34892 
1252 1 0.816667 0.15 0.0591197 -4.34897 
1253 1 0.8 0 0.000648683 -3.54592 
1254 1 0.85 0.05 -0.000103845 -3.8898 
1284 1 0.8 0.2 0.000691288 -3.54598 
1285 1 0.85 0.15 -6.66791e-05 -3.88989 
1383 1 0.833333 0 0.11763 -4.44736 
1407 1 0.833333 0.2 0.117663 -4.44748 
1410 1 0.833333 0.1 0.117636 -4.4475 
1411 1 0.866667 0.1 0.058853 -4.40942 
1412 1 0.883333 0.05 0.117634 -4.45027 
1413 1 0.883333 0.15 0.117667 -4.45022 
1414 1 0.866667 0 0.0588344 -4.40947 
1445 1 0.866667 0.2 0.0589099 -4.40945 
1415 1 0.9 0 4.23438e-05 -3.9035 
1416 1 0.916667 0.05 0.0590407 -4.40831 
1446 1 0.9 0.2 0.000165407 -3.90376 
1447 1 0.916667 0.15 0.059105 -4.40731 
1449 1 0.9 0.1 5.54395e-05 -3.90355 
1450 1 0.95 0.05 0.000136492 -3.90379 
1451 1 0.95 0.15 0.000245996 -3.90448 
1574 1 0.933333 0.1 0.117784 -4.44913 
1577 1 0.933333 0 0.117784 -4.44926 
1578 1 0.966667 0 0.0590683 -4.40694 
1579 1 0.983333 0.05 0.117772 -4.44997 
1605 1 0.933333 0.2 0.117809 -4.43409 
1606 1 0.966667 0.2 0.0593599 -4.40759 
1607 1 0.983333 0.15 0.117744 -4.43516 
1609 1 0.966667 0.1 0.0590608 -4.40655 
6 1 0 0.3 0.000571227 -3.90175 
7 1 0.0166667 0.25 0.059451 -4.39814 
8 1 0.0166667 0.35 0.059682 -4.39074 
11 1 0.05 0.25 0.000348878 -3.90385 
15 1 0 0.4 0.000573125 -3.90169 
16 1 0.05 0.35 0.000363775 -3.90327 
53 1 0.0333333 0.4 0.118812 -4.33289 
56 1 0.0333333 0.3 0.118809 -4.33282 
57 1 0.0666667 0.3 0.0592879 -4.40822 
58 1 0.0833333 0.25 0.117685 -4.43462 
59 1 0.0833333 0.35 0.117627 -4.42019 
78 1 0.0666667 0.4 0.0592934 -4.40828 
63 1 0.116667 0.25 0.0589718 -4.40743 
79 1 0.1 0.4 8.92141e-05 -3.90407 
80 1 0.116667 0.35 0.0589424 -4.40646 
82 1 0.1 0.3 8.87245e-05 -3.90403 
83 1 0.15 0.25 -6.07242e-05 -3.90353 
84 1 0.15 0.35 -6.78621e-05 -3.90335 
174 1 0.133333 0.3 0.117625 -4.44953 
180 1 0.183333 0.25 0.117613 -4.44966 
205 1 0.133333 0.4 0.117624 -4.44951 
206 1 0.166667 0.4 0.0588695 -4.40841 
207 1 0.183333 0.35 0.117614 -4.44962 
209 1 0.166667 0.3 0.05887 -4.40842 
210 1 0.2 0.3 -9.78979e-05 -3.9037 
211 1 0.216667 0.25 0.0588678 -4.40825 
212 1 0.216667 0.35 0.0588661 -4.40829 
215 1 0.25 0.25 -9.21373e-05 -3.90385 
237 1 0.2 0.4 -9.77922e-05 -3.90369 
238 1 0.25 0.35 -9.44196e-05 -3.90386 
367 1 0.233333 0.4 0.117603 -4.44963 
370 1 0.233333 0.3 0.117603 -4.44963 
371 1 0.266667 0.3 0.0588724 -4.40826 
372 1 0.283333 0.25 0.117613 -4.44957 
373 1 0.283333 0.35 0.117613 -4.44956 
402 1 0.266667 0.4 0.0588724 -4.40826 
377 1 0.316667 0.25 0.0588742 -4.40828 
403 1 0.3 0.4 -8.98217e-05 -3.90387 
404 1 0.316667 0.35 0.0588742 -4.40828 
406 1 0.3 0.3 -8.98198e-05 -3.90387 
407 1 0.35 0.25 -8.96739e-05 -3.90387 
408 1 0.35 0.35 -8.96911e-05 -3.90387 
531 1 0.333333 0.3 0.117613 -4.44958 
537 1 0.383333 0.25 0.117613 -4.44957 
565 1 0.333333 0.4 0.117613 -4.44958 
566 1 0.366667 0.4 0.0588743 -4.40827 
567 1 0.383333 0.35 0.117613 -4.44957 
569 1 0.366667 0.3 0.0588743 -4.40827 
570 1 0.4 0.3 -8.96837e-05 -3.90387 
571 1 0.416667 0.25 0.0588743 -4.40827 
572 1 0.416667 0.35 0.0588743 -4.40827 
575 1 0.45 0.25 -8.97991e-05 -3.90385 
597 1 0.4 0.4 -8.96836e-05 -3.90387 
598 1 0.45 0.35 -8.97977e-05 -3.90385 
727 1 0.433333 0.4 0.117613 -4.44958 
730 1 0.433333 0.3 0.117613 -4.44958 
731 1 0.466667 0.3 0.0588732 -4.40829 
732 1 0.483333 0.25 0.117612 -4.4496 
733 1 0.483333 0.35 0.117612 -4.44959 
762 1 0.466667 0.4 0.0588732 -4.40829 
737 1 0.516667 0.25 0.0588778 -4.40831 
763 1 0.5 0.4 -9.15282e-05 -3.90378 
764 1 0.516667 0.35 0.0588778 -4.40831 
766 1 0.5 0.3 -9.15942e-05 -3.90378 
767 1 0.55 0.25 -6.90556e-05 -3.90368 
768 1 0.55 0.35 -6.89769e-05 -3.90369 
891 1 0.533333 0.3 0.117621 -4.44962 
897 1 0.583333 0.25 0.117681 -4.44965 
925 1 0.533333 0.4 0.117621 -4.44963 
926 1 0.566667 0.4 0.0589176 -4.40835 
927 1 0.583333 0.35 0.117681 -4.44967 
929 1 0.566667 0.3 0.0589165 -4.40834 
930 1 0.6 0.3 3.43379e-05 -3.90385 
931 1 0.616667 0.25 0.0590149 -4.40899 
932 1 0.616667 0.35 0.0590162 -4.40902 
935 1 0.65 0.25 0.000165405 -3.89038 
957 1 0.6 0.4 3.61554e-05 -3.90388 
958 1 0.65 0.35 0.000166386 -3.89041 
1087 1 0.633333 0.4 0.117745 -4.44864 
1090 1 0.633333 0.3 0.117742 -4.4487 
1091 1 0.666667 0.3 0.0591514 -4.37648 
1092 1 0.683333 0.25 0.117624 -4.45007 
1093 1 0.683333 0.35 0.117625 -4.45004 
1120 1 0.666667 0.4 0.0591469 -4.37643 
1097 1 0.716667 0.25 0.0586489 -4.25399 
1121 1 0.7 0.4 0.000793979 -3.5477 
1122 1 0.716667 0.35 0.0586468 -4.254 
1124 1 0.7 0.3 0.000803135 -3.5477 
1242 1 0.733333 0.3 0.11762 -4.42821 
1248 1 0.783333 0.25 0.117268 -4.44152 
1276 1 0.733333 0.4 0.117609 -4.42823 
1277 1 0.766667 0.4 0.0576647 -4.17874 
1278 1 0.783333 0.35 0.11727 -4.44153 
1280 1 0.766667 0.3 0.0576736 -4.17879 
1281 1 0.8 0.3 0.00069898 -3.54589 
1282 1 0.816667 0.25 0.05913 -4.34907 
1283 1 0.816667 0.35 0.0591275 -4.34914 
1286 1 0.85 0.25 -3.3729e-05 -3.88998 
1308 1 0.8 0.4 0.000687255 -3.54591 
1309 1 0.85 0.35 -1.70135e-05 -3.89009 
1438 1 0.833333 0.4 0.117665 -4.44734 
1441 1 0.833333 0.3 0.117677 -4.44738 
1442 1 0.866667 0.3 0.0589923 -4.40954 
1443 1 0.883333 0.25 0.117739 -4.45028 
1444 1 0.883333 0.35 0.117788 -4.45033 
1473 1 0.866667 0.4 0.0589821 -4.40951 
1448 1 0.916667 0.25 0.0592326 -4.40575 
1474 1 0.9 0.4 0.000323425 -3.90415 
1475 1 0.916667 0.35 0.0593109 -4.40571 
1477 1 0.9 0.3 0.000326616 -3.90416 
1478 1 0.95 0.25 0.000472891 -3.90476 
1479 1 0.95 0.35 0.000609294 -3.90384 
1602 1 0.933333 0.3 0.117942 -4.40925 
1608 1 0.983333 0.25 0.118731 -4.34437 
1631 1 0.933333 0.4 0.117936 -4.40924 
1632 1 0.966667 0.4 0.0596914 -4.40048 
1633 1 0.983333 0.35 0.120149 -4.26737 
1635 1 0.966667 0.3 0.0596935 -4.40049 
12 1 0 0.5 0.000461539 -3.90412 
13 1 0.0166667 0.45 0.0594482 -4.39816 
14 1 0.0166667 0.55 0.0592436 -4.40648 
17 1 0.05 0.45 0.000356953 -3.90371 
21 1 0 0.6 0.000384686 -3.90452 
22 1 0.05 0.55 0.000265156 -3.90432 
71 1 0.0333333 0.6 0.117877 -4.44944 
74 1 0.0333333 0.5 0.117941 -4.42447 
75 1 0.0666667 0.5 0.0591566 -4.40744 
76 1 0.0833333 0.45 0.117693 -4.43467 
77 1 0.0833333 0.55 0.117779 -4.44964 
95 1 0.0666667 0.6 0.0591806 -4.40831 
81 1 0.116667 0.45 0.0589802 -4.4075 
96 1 0.1 0.6 7.58438e-05 -3.90393 
97 1 0.116667 0.55 0.0589721 -4.40843 
99 1 0.1 0.5 7.39206e-05 -3.90384 
100 1 0.15 0.45 -6.0158e-05 -3.90356 
101 1 0.15 0.55 -4.73058e-05 -3.90356 
202 1 0.133333 0.5 0.117677 -4.44953 
208 1 0.183333 0.45 0.117612 -4.44965 
229 1 0.133333 0.6 0.117684 -4.44993 
230 1 0.166667 0.6 0.058889 -4.40827 
231 1 0.183333 0.55 0.117621 -4.44964 
233 1 0.166667 0.5 0.0588949 -4.40843 
234 1 0.2 0.5 -9.10734e-05 -3.90375 
235 1 0.216667 0.45 0.0588676 -4.40825 
236 1 0.216667 0.55 0.0588752 -4.40824 
239 1 0.25 0.45 -9.21153e-05 -3.90385 
253 1 0.2 0.6 -8.39685e-05 -3.90371 
254 1 0.25 0.55 -8.98076e-05 -3.90385 
395 1 0.233333 0.6 0.117612 -4.44957 
398 1 0.233333 0.5 0.117609 -4.44956 
399 1 0.266667 0.5 0.0588736 -4.40826 
400 1 0.283333 0.45 0.117613 -4.44957 
401 1 0.283333 0.55 0.117613 -4.44956 
422 1 0.266667 0.6 0.0588735 -4.40826 
405 1 0.316667 0.45 0.0588742 -4.40828 
423 1 0.3 0.6 -8.97613e-05 -3.90386 
424 1 0.316667 0.55 0.0588743 -4.40827 
426 1 0.3 0.5 -8.97676e-05 -3.90387 
427 1 0.35 0.45 -8.96747e-05 -3.90387 
428 1 0.35 0.55 -8.96616e-05 -3.90386 
562 1 0.333333 0.5 0.117613 -4.44957 
568 1 0.383333 0.45 0.117613 -4.44957 
589 1 0.333333 0.6 0.117613 -4.44957 
590 1 0.366667 0.6 0.0588743 -4.40827 
591 1 0.383333 0.55 0.117613 -4.44957 
593 1 0.366667 0.5 0.0588743 -4.40827 
594 1 0.4 0.5 -8.96829e-05 -3.90387 
595 1 0.416667 0.45 0.0588743 -4.40827 
596 1 0.416667 0.55 0.0588743 -4.40827 
599 1 0.45 0.45 -8.97834e-05 -3.90385 
613 1 0.4 0.6 -8.968e-05 -3.90387 
614 1 0.45 0.55 -8.97627e-05 -3.90386 
755 1 0.433333 0.6 0.117613 -4.44958 
758 1 0.433333 0.5 0.117613 -4.44958 
759 1 0.466667 0.5 0.0588732 -4.40829 
760 1 0.483333 0.45 0.117613 -4.4496 
761 1 0.483333 0.55 0.117613 -4.44959 
782 1 0.466667 0.6 0.0588733 -4.40828 
765 1 0.516667 0.45 0.0588782 -4.40832 
783 1 0.5 0.6 -9.15055e-05 -3.90381 
784 1 0.516667 0.55 0.0588784 -4.40831 
786 1 0.5 0.5 -9.14972e-05 -3.90379 
787 1 0.55 0.45 -6.81656e-05 -3.90371 
788 1 0.55 0.55 -6.90214e-05 -3.90375 
922 1 0.533333 0.5 0.117622 -4.44961 
928 1 0.583333 0.45 0.117683 -4.44963 
949 1 0.533333 0.6 0.11762 -4.44961 
950 1 0.566667 0.6 0.0589042 -4.40832 
951 1 0.583333 0.55 0.11767 -4.44968 
953 1 0.566667 0.5 0.0589164 -4.40834 
954 1 0.6 0.5 2.83925e-05 -3.90389 
955 1 0.616667 0.45 0.0590119 -4.40895 
956 1 0.616667 0.55 0.0589879 -4.40898 
959 1 0.65 0.45 0.00015295 -3.89038 
973 1 0.6 0.6 -2.02387e-06 -3.90382 
974 1 0.65 0.55 0.000119151 -3.89038 
1113 1 0.633333 0.6 0.117707 -4.44853 
1116 1 0.633333 0.5 0.117714 -4.44875 
1117 1 0.666667 0.5 0.0591155 -4.37651 
1118 1 0.683333 0.45 0.117595 -4.45012 
1119 1 0.683333 0.55 0.117614 -4.4498 
1138 1 0.666667 0.6 0.0591119 -4.37662 
1123 1 0.716667 0.45 0.0586188 -4.25394 
1139 1 0.7 0.6 0.000731333 -3.56225 
1140 1 0.716667 0.55 0.0586244 -4.25377 
1142 1 0.7 0.5 0.000760234 -3.54765 
1273 1 0.733333 0.5 0.117596 -4.42812 
1279 1 0.783333 0.45 0.117235 -4.44148 
1300 1 0.733333 0.6 0.117555 -4.42894 
1301 1 0.766667 0.6 0.0575748 -4.1941 
1302 1 0.783333 0.55 0.117235 -4.44217 
1304 1 0.766667 0.5 0.0576153 -4.17848 
1305 1 0.8 0.5 0.000654473 -3.54583 
1306 1 0.816667 0.45 0.0591054 -4.34905 
1307 1 0.816667 0.55 0.059114 -4.34897 
1310 1 0.85 0.45 -6.02571e-05 -3.88985 
1324 1 0.8 0.6 0.000669614 -3.56031 
1325 1 0.85 0.55 -0.000104627 -3.88969 
1466 1 0.833333 0.6 0.117659 -4.44842 
1469 1 0.833333 0.5 0.117638 -4.44735 
1470 1 0.866667 0.5 0.0588785 -4.40951 
1471 1 0.883333 0.45 0.117715 -4.45031 
1472 1 0.883333 0.55 0.117653 -4.45023 
1493 1 0.866667 0.6 0.0588735 -4.40939 
1476 1 0.916667 0.45 0.0592233 -4.40575 
1494 1 0.9 0.6 7.3057e-05 -3.90334 
1495 1 0.916667 0.55 0.0591121 -4.40745 
1497 1 0.9 0.5 0.000152257 -3.90359 
1498 1 0.95 0.45 0.000468814 -3.90467 
1499 1 0.95 0.55 0.000286952 -3.90441 
1628 1 0.933333 0.5 0.117814 -4.43417 
1634 1 0.983333 0.45 0.118726 -4.34448 
1649 1 0.933333 0.6 0.117812 -4.44898 
1650 1 0.966667 0.6 0.059149 -4.40554 
1651 1 0.983333 0.55 0.117792 -4.43495 
1653 1 0.966667 0.5 0.0593737 -4.40779 
18 1 0 0.7 0.000473874 -3.90427 
19 1 0.0166667 0.65 0.0592447 -4.40621 
20 1 0.0166667 0.75 0.0594032 -4.39854 
23 1 0.05 0.65 0.00032337 -3.90452 
27 1 0 0.8 0.000432927 -3.90229 
28 1 0.05 0.75 0.000366821 -3.90411 
88 1 0.0333333 0.8 0.118761 -4.35963 
91 1 0.0333333 0.7 0.117981 -4.42434 
92 1 0.0666667 0.7 0.0591985 -4.40737 
93 1 0.0833333 0.65 0.11783 -4.44924 
94 1 0.0833333 0.75 0.117759 -4.43463 
107 1 0.0666667 0.8 0.0592897 -4.40897 
98 1 0.116667 0.65 0.0590169 -4.40857 
108 1 0.1 0.8 0.000126213 -3.90428 
109 1 0.116667 0.75 0.0590184 -4.40753 
111 1 0.1 0.7 0.000110493 -3.90406 
112 1 0.15 0.65 -5.07959e-05 -3.90359 
113 1 0.15 0.75 -4.37012e-05 -3.90357 
226 1 0.133333 0.7 0.1177 -4.44941 
232 1 0.183333 0.65 0.11762 -4.44963 
245 1 0.133333 0.8 0.117674 -4.44958 
246 1 0.166667 0.8 0.0588898 -4.40833 
247 1 0.183333 0.75 0.117621 -4.44964 
249 1 0.166667 0.7 0.0589016 -4.40843 
250 1 0.2 0.7 -9.17884e-05 -3.90368 
251 1 0.216667 0.65 0.0588732 -4.40824 
252 1 0.216667 0.75 0.0588683 -4.40824 
255 1 0.25 0.65 -8.99714e-05 -3.90384 
261 1 0.2 0.8 -9.07217e-05 -3.90368 
262 1 0.25 0.75 -9.23202e-05 -3.90383 
415 1 0.233333 0.8 0.117605 -4.44959 
418 1 0.233333 0.7 0.117608 -4.44953 
419 1 0.266667 0.7 0.0588735 -4.40826 
420 1 0.283333 0.65 0.117612 -4.44957 
421 1 0.283333 0.75 0.117613 -4.44956 
434 1 0.266667 0.8 0.0588723 -4.40825 
425 1 0.316667 0.65 0.0588742 -4.40827 
435 1 0.3 0.8 -8.98316e-05 -3.90387 
436 1 0.316667 0.75 0.0588742 -4.40828 
438 1 0.3 0.7 -8.97888e-05 -3.90387 
439 1 0.35 0.65 -8.96621e-05 -3.90386 
440 1 0.35 0.75 -8.96792e-05 -3.90387 
586 1 0.333333 0.7 0.117613 -4.44957 
592 1 0.383333 0.65 0.117613 -4.44957 
605 1 0.333333 0.8 0.117613 -4.44958 
606 1 0.366667 0.8 0.0588743 -4.40827 
607 1 0.383333 0.75 0.117613 -4.44957 
609 1 0.366667 0.7 0.0588743 -4.40827 
610 1 0.4 0.7 -8.96755e-05 -3.90387 
611 1 0.416667 0.65 0.0588743 -4.40827 
612 1 0.416667 0.75 0.0588743 -4.40827 
615 1 0.45 0.65 -8.97868e-05 -3.90386 
621 1 0.4 0.8 -8.96754e-05 -3.90387 
622 1 0.45 0.75 -8.9819e-05 -3.90386 
775 1 0.433333 0.8 0.117613 -4.44957 
778 1 0.433333 0.7 0.117613 -4.44957 
779 1 0.466667 0.7 0.0588735 -4.40828 
780 1 0.483333 0.65 0.117612 -4.44958 
781 1 0.483333 0.75 0.117612 -4.44958 
794 1 0.466667 0.8 0.0588735 -4.40828 
785 1 0.516667 0.65 0.0588761 -4.40829 
795 1 0.5 0.8 -9.13426e-05 -3.90382 
796 1 0.516667 0.75 0.0588736 -4.40828 
798 1 0.5 0.7 -9.13426e-05 -3.90382 
799 1 0.55 0.65 -7.78558e-05 -3.90375 
800 1 0.55 0.75 -8.51698e-05 -3.90372 
946 1 0.533333 0.7 0.117613 -4.4496 
952 1 0.583333 0.65 0.117649 -4.44964 
965 1 0.533333 0.8 0.117613 -4.4496 
966 1 0.566667 0.8 0.0588917 -4.40831 
967 1 0.583333 0.75 0.117645 -4.44963 
969 1 0.566667 0.7 0.0588917 -4.40831 
970 1 0.6 0.7 -2.86834e-05 -3.90374 
971 1 0.616667 0.65 0.0589568 -4.40882 
972 1 0.616667 0.75 0.0589395 -4.40875 
975 1 0.65 0.65 7.69119e-05 -3.8899 
981 1 0.6 0.8 -2.8683e-05 -3.90374 
982 1 0.65 0.75 3.94083e-05 -3.90453 
1131 1 0.633333 0.8 0.117682 -4.44919 
1134 1 0.633333 0.7 0.117682 -4.44919 
1135 1 0.666667 0.7 0.0590169 -4.39279 
1136 1 0.683333 0.65 0.11756 -4.45074 
1137 1 0.683333 0.75 0.117685 -4.44961 
1148 1 0.666667 0.8 0.0590169 -4.39279 
1141 1 0.716667 0.65 0.0584821 -4.28262 
1149 1 0.7 0.8 0.000385965 -3.72316 
1150 1 0.716667 0.75 0.0590869 -4.35238 
1152 1 0.7 0.7 0.000385925 -3.72317 
1153 1 0.75 0.75 0.000783383 -3.57832 
1297 1 0.733333 0.7 0.117684 -4.43909 
1303 1 0.783333 0.65 0.11747 -4.43993 
1316 1 0.733333 0.8 0.117684 -4.43908 
1317 1 0.766667 0.8 0.0586154 -4.27986 
1318 1 0.783333 0.75 0.117489 -4.45084 
1320 1 0.766667 0.7 0.0586132 -4.27984 
1321 1 0.8 0.7 0.0004394 -3.72369 
1322 1 0.816667 0.65 0.0590768 -4.36499 
1323 1 0.816667 0.75 0.0590995 -4.3773 
1326 1 0.85 0.65 -2.04685e-05 -3.88955 
1332 1 0.8 0.8 0.000442704 -3.72369 
1333 1 0.85 0.75 0.000102085 -3.90465 
1486 1 0.833333 0.8 0.117713 -4.4483 
1489 1 0.833333 0.7 0.117709 -4.44839 
1490 1 0.866667 0.7 0.0590301 -4.40919 
1491 1 0.883333 0.65 0.117707 -4.44973 
1492 1 0.883333 0.75 0.117785 -4.44941 
1505 1 0.866667 0.8 0.0590582 -4.40923 
1496 1 0.916667 0.65 0.0591102 -4.4074 
1506 1 0.9 0.8 0.000178995 -3.90397 
1507 1 0.916667 0.75 0.0591497 -4.40724 
1509 1 0.9 0.7 0.000143382 -3.904 
1510 1 0.95 0.65 0.000297481 -3.90456 
1511 1 0.95 0.75 0.000364626 -3.90391 
1646 1 0.933333 0.7 0.117787 -4.43465 
1652 1 0.983333 0.65 0.117807 -4.43522 
1659 1 0.933333 0.8 0.117903 -4.42446 
1660 1 0.966667 0.8 0.0593417 -4.39852 
1661 1 0.983333 0.75 0.118768 -4.35999 
1663 1 0.966667 0.7 0.0593395 -4.40834 
24 1 0 0.9 0.000334056 -3.90396 
25 1 0.0166667 0.85 0.0593545 -4.3987 
26 1 0.0166667 0.95 0.0591806 -4.4072 
29 1 0.05 0.85 0.000305623 -3.90385 
30 1 0.05 0.95 0.000188353 -3.90419 
103 1 0.0333333 0.9 0.11791 -4.42422 
104 1 0.0666667 0.9 0.0591254 -4.40748 
105 1 0.0833333 0.85 0.117715 -4.43521 
106 1 0.0833333 0.95 0.117791 -4.44901 
110 1 0.116667 0.85 0.0589677 -4.40731 
114 1 0.116667 0.95 0.0589958 -4.40873 
115 1 0.1 0.9 6.1459e-05 -3.90385 
116 1 0.15 0.85 -4.58388e-05 -3.90348 
117 1 0.15 0.95 -7.15969e-05 -3.90364 
242 1 0.133333 0.9 0.117676 -4.44957 
248 1 0.183333 0.85 0.117621 -4.44964 
256 1 0.183333 0.95 0.117615 -4.4496 
257 1 0.166667 0.9 0.0588875 -4.40839 
258 1 0.2 0.9 -9.22153e-05 -3.90371 
259 1 0.216667 0.85 0.0588704 -4.40825 
260 1 0.216667 0.95 0.0588722 -4.40825 
263 1 0.25 0.85 -9.22637e-05 -3.90384 
264 1 0.25 0.95 -8.96986e-05 -3.90385 
430 1 0.233333 0.9 0.117609 -4.44956 
431 1 0.266667 0.9 0.0588737 -4.40826 
432 1 0.283333 0.85 0.117613 -4.44956 
433 1 0.283333 0.95 0.117613 -4.44958 
437 1 0.316667 0.85 0.0588742 -4.40828 
441 1 0.316667 0.95 0.0588742 -4.40827 
442 1 0.3 0.9 -8.97573e-05 -3.90387 
443 1 0.35 0.85 -8.96787e-05 -3.90387 
444 1 0.35 0.95 -8.96554e-05 -3.90386 
602 1 0.333333 0.9 0.117613 -4.44957 
608 1 0.383333 0.85 0.117613 -4.44957 
616 1 0.383333 0.95 0.117613 -4.44957 
617 1 0.366667 0.9 0.0588743 -4.40827 
618 1 0.4 0.9 -8.96802e-05 -3.90387 
619 1 0.416667 0.85 0.0588743 -4.40827 
620 1 0.416667 0.95 0.0588743 -4.40827 
623 1 0.45 0.85 -8.97868e-05 -3.90386 
624 1 0.45 0.95 -8.97626e-05 -3.90386 
790 1 0.433333 0.9 0.117613 -4.44958 
791 1 0.466667 0.9 0.0588733 -4.40828 
792 1 0.483333 0.85 0.117612 -4.44958 
793 1 0.483333 0.95 0.117613 -4.44959 
797 1 0.516667 0.85 0.0588761 -4.40829 
801 1 0.516667 0.95 0.0588784 -4.40831 
802 1 0.5 0.9 -9.15055e-05 -3.90381 
803 1 0.55 0.85 -7.78557e-05 -3.90375 
804 1 0.55 0.95 -6.90214e-05 -3.90375 
962 1 0.533333 0.9 0.11762 -4.44961 
968 1 0.583333 0.85 0.117649 -4.44964 
976 1 0.583333 0.95 0.11767 -4.44968 
977 1 0.566667 0.9 0.0589042 -4.40832 
978 1 0.6 0.9 -2.02321e-06 -3.90382 
979 1 0.616667 0.85 0.0589568 -4.40882 
980 1 0.616667 0.95 0.0589879 -4.40898 
983 1 0.65 0.85 7.69102e-05 -3.8899 
984 1 0.65 0.95 0.000119154 -3.89038 
1144 1 0.633333 0.9 0.117707 -4.44853 
1145 1 0.666667 0.9 0.0591119 -4.37662 
1146 1 0.683333 0.85 0.11756 -4.45074 
1147 1 0.683333 0.95 0.117614 -4.4498 
1151 1 0.716667 0.85 0.0584821 -4.28262 
1154 1 0.716667 0.95 0.0586244 -4.25377 
1155 1 0.7 0.9 0.000731366 -3.56225 
1313 1 0.733333 0.9 0.117555 -4.42894 
1319 1 0.783333 0.85 0.117474 -4.43998 
1327 1 0.783333 0.95 0.117235 -4.44215 
1328 1 0.766667 0.9 0.0575769 -4.19411 
1329 1 0.8 0.9 0.000672542 -3.56031 
1330 1 0.816667 0.85 0.0590802 -4.36504 
1331 1 0.816667 0.95 0.0591146 -4.34899 
1334 1 0.85 0.85 -9.46124e-08 -3.88978 
1335 1 0.85 0.95 -0.000103685 -3.88989 
1501 1 0.833333 0.9 0.117671 -4.44829 
1502 1 0.866667 0.9 0.0589027 -4.40925 
1503 1 0.883333 0.85 0.117728 -4.44973 
1504 1 0.883333 0.95 0.117636 -4.45018 
1508 1 0.916667 0.85 0.0591234 -4.40718 
1512 1 0.916667 0.95 0.0590573 -4.40723 
1513 1 0.9 0.9 0.000102742 -3.90373 
1514 1 0.95 0.85 0.000314025 -3.90384 
1515 1 0.95 0.95 0.000190844 -3.9045 
1656 1 0.933333 0.9 0.117759 -4.43483 
1662 1 0.983333 0.85 0.118721 -4.35963 
1664 1 0.983333 0.95 0.117753 -4.43496 
1665 1 0.966667 0.9 0.0592858 -4.40885 
31 1 0 0.1 0.176507 -4.44999 
32 1 0.0166667 0.05 0.2351 -4.44024 
33 1 0.0166667 0.15 0.235168 -4.42508 
34 1 0 0 0.176447 -4.45047 
36 1 0.05 0.05 0.176486 -4.44938 
39 1 0 0.2 0.176537 -4.35288 
41 1 0.05 0.15 0.176481 -4.43664 
131 1 0.0666667 0.1 0.235044 -4.45044 
134 1 0.0666667 0 0.234908 -4.44912 
148 1 0.0666667 0.2 0.234909 -4.43366 
135 1 0.1 0 0.176372 -4.44917 
136 1 0.116667 0.05 0.234828 -4.44871 
149 1 0.1 0.2 0.176311 -4.45038 
150 1 0.116667 0.15 0.234823 -4.44896 
152 1 0.1 0.1 0.176381 -4.4496 
154 1 0.15 0.05 0.176297 -4.44916 
155 1 0.15 0.15 0.1763 -4.44911 
288 1 0.166667 0 0.234799 -4.44958 
304 1 0.166667 0.2 0.234791 -4.44962 
307 1 0.166667 0.1 0.234809 -4.44961 
308 1 0.2 0.1 0.17627 -4.44934 
309 1 0.216667 0.05 0.234786 -4.44953 
310 1 0.216667 0.15 0.234785 -4.44952 
311 1 0.2 0 0.176262 -4.44932 
313 1 0.25 0.05 0.176262 -4.44927 
335 1 0.2 0.2 0.176259 -4.44933 
337 1 0.25 0.15 0.176261 -4.44928 
475 1 0.266667 0.1 0.234787 -4.4495 
478 1 0.266667 0 0.234787 -4.44952 
498 1 0.266667 0.2 0.234788 -4.44952 
479 1 0.3 0 0.176264 -4.44929 
480 1 0.316667 0.05 0.234789 -4.44952 
499 1 0.3 0.2 0.176264 -4.44929 
500 1 0.316667 0.15 0.234789 -4.44952 
502 1 0.3 0.1 0.176264 -4.44929 
504 1 0.35 0.05 0.176264 -4.44929 
505 1 0.35 0.15 0.176264 -4.44929 
648 1 0.366667 0 0.234789 -4.44952 
664 1 0.366667 0.2 0.234789 -4.44952 
667 1 0.366667 0.1 0.234789 -4.44952 
668 1 0.4 0.1 0.176264 -4.44929 
669 1 0.416667 0.05 0.234789 -4.44952 
670 1 0.416667 0.15 0.234789 -4.44952 
671 1 0.4 0 0.176264 -4.44929 
673 1 0.45 0.05 0.176264 -4.4493 
695 1 0.4 0.2 0.176264 -4.44929 
697 1 0.45 0.15 0.176264 -4.4493 
835 1 0.466667 0.1 0.234789 -4.44953 
838 1 0.466667 0 0.234789 -4.44953 
858 1 0.466667 0.2 0.234789 -4.44953 
839 1 0.5 0 0.176265 -4.44933 
840 1 0.516667 0.05 0.234789 -4.44954 
859 1 0.5 0.2 0.176265 -4.44934 
860 1 0.516667 0.15 0.234789 -4.44954 
862 1 0.5 0.1 0.176265 -4.44934 
864 1 0.55 0.05 0.176281 -4.44925 
865 1 0.55 0.15 0.176279 -4.44926 
1008 1 0.566667 0 0.234805 -4.44952 
1024 1 0.566667 0.2 0.234804 -4.44953 
1027 1 0.566667 0.1 0.234804 -4.44952 
1028 1 0.6 0.1 0.176324 -4.44907 
1029 1 0.616667 0.05 0.234843 -4.4494 
1030 1 0.616667 0.15 0.234841 -4.4494 
1031 1 0.6 0 0.176312 -4.44914 
1033 1 0.65 0.05 0.176327 -4.4498 
1055 1 0.6 0.2 0.17632 -4.44909 
1057 1 0.65 0.15 0.176344 -4.44972 
1186 1 0.666667 0.1 0.234822 -4.44901 
1189 1 0.666667 0 0.234794 -4.44893 
1209 1 0.666667 0.2 0.234821 -4.44901 
1190 1 0.7 0 0.176275 -4.44835 
1191 1 0.716667 0.05 0.234722 -4.44942 
1210 1 0.7 0.2 0.176291 -4.4485 
1211 1 0.716667 0.15 0.234743 -4.44947 
1213 1 0.7 0.1 0.176281 -4.44853 
1215 1 0.75 0.05 0.176184 -4.44704 
1216 1 0.75 0.15 0.1762 -4.44708 
1359 1 0.766667 0 0.234737 -4.44992 
1375 1 0.766667 0.2 0.234753 -4.44984 
1378 1 0.766667 0.1 0.234743 -4.44985 
1379 1 0.8 0.1 0.176132 -4.45007 
1380 1 0.816667 0.05 0.234686 -4.4496 
1381 1 0.816667 0.15 0.234704 -4.44959 
1382 1 0.8 0 0.176122 -4.45015 
1384 1 0.85 0.05 0.176258 -4.44862 
1406 1 0.8 0.2 0.176151 -4.45002 
1408 1 0.85 0.15 0.176274 -4.44853 
1546 1 0.866667 0.1 0.234777 -4.4492 
1549 1 0.866667 0 0.234757 -4.44921 
1569 1 0.866667 0.2 0.234773 -4.4491 
1550 1 0.9 0 0.176318 -4.44942 
1551 1 0.916667 0.05 0.234888 -4.44923 
1570 1 0.9 0.2 0.176374 -4.45082 
1571 1 0.916667 0.15 0.234903 -4.44929 
1573 1 0.9 0.1 0.176319 -4.44936 
1575 1 0.95 0.05 0.176427 -4.4491 
1576 1 0.95 0.15 0.17642 -4.43676 
1689 1 0.966667 0 0.235032 -4.44989 
1705 1 0.966667 0.2 0.235051 -4.42531 
1708 1 0.966667 0.1 0.235063 -4.44055 
37 1 0.0166667 0.25 0.234143 -4.34409 
38 1 0.0166667 0.35 0.232914 -4.26904 
42 1 0.05 0.25 0.176474 -4.33819 
54 1 0.05 0.35 0.176468 -4.24315 
145 1 0.0666667 0.3 0.234876 -4.40861 
169 1 0.0666667 0.4 0.234868 -4.40866 
151 1 0.116667 0.25 0.234763 -4.44982 
170 1 0.1 0.4 0.176274 -4.43803 
171 1 0.116667 0.35 0.234684 -4.44967 
173 1 0.1 0.3 0.176274 -4.43799 
175 1 0.15 0.25 0.176262 -4.44914 
176 1 0.15 0.35 0.176213 -4.44899 
328 1 0.166667 0.4 0.234767 -4.44961 
331 1 0.166667 0.3 0.234769 -4.44964 
332 1 0.2 0.3 0.17626 -4.44931 
333 1 0.216667 0.25 0.23478 -4.44954 
334 1 0.216667 0.35 0.234777 -4.44961 
338 1 0.25 0.25 0.176261 -4.44932 
366 1 0.2 0.4 0.176259 -4.44931 
368 1 0.25 0.35 0.176258 -4.44935 
495 1 0.266667 0.3 0.234788 -4.44952 
526 1 0.266667 0.4 0.234788 -4.44952 
501 1 0.316667 0.25 0.234789 -4.44952 
527 1 0.3 0.4 0.176264 -4.44929 
528 1 0.316667 0.35 0.234789 -4.44953 
530 1 0.3 0.3 0.176264 -4.44929 
532 1 0.35 0.25 0.176264 -4.44929 
533 1 0.35 0.35 0.176264 -4.44929 
688 1 0.366667 0.4 0.234789 -4.44952 
691 1 0.366667 0.3 0.234789 -4.44952 
692 1 0.4 0.3 0.176264 -4.44929 
693 1 0.416667 0.25 0.234789 -4.44952 
694 1 0.416667 0.35 0.234789 -4.44952 
698 1 0.45 0.25 0.176264 -4.4493 
726 1 0.4 0.4 0.176264 -4.44929 
728 1 0.45 0.35 0.176264 -4.4493 
855 1 0.466667 0.3 0.234789 -4.44953 
886 1 0.466667 0.4 0.234789 -4.44953 
861 1 0.516667 0.25 0.234789 -4.44954 
887 1 0.5 0.4 0.176265 -4.44934 
888 1 0.516667 0.35 0.234789 -4.44954 
890 1 0.5 0.3 0.176265 -4.44934 
892 1 0.55 0.25 0.176279 -4.44926 
893 1 0.55 0.35 0.176279 -4.44926 
1048 1 0.566667 0.4 0.234804 -4.44952 
1051 1 0.566667 0.3 0.234804 -4.44953 
1052 1 0.6 0.3 0.17632 -4.44909 
1053 1 0.616667 0.25 0.234841 -4.4494 
1054 1 0.616667 0.35 0.234841 -4.44939 
1058 1 0.65 0.25 0.176341 -4.44974 
1086 1 0.6 0.4 0.176324 -4.44907 
1088 1 0.65 0.35 0.176343 -4.44972 
1206 1 0.666667 0.3 0.234821 -4.44901 
1237 1 0.666667 0.4 0.234822 -4.44902 
1212 1 0.716667 0.25 0.234743 -4.44948 
1238 1 0.7 0.4 0.176281 -4.44854 
1239 1 0.716667 0.35 0.234742 -4.44947 
1241 1 0.7 0.3 0.176291 -4.4485 
1243 1 0.75 0.25 0.176205 -4.44711 
1244 1 0.75 0.35 0.176204 -4.44712 
1399 1 0.766667 0.4 0.234747 -4.44982 
1402 1 0.766667 0.3 0.234757 -4.44983 
1403 1 0.8 0.3 0.176153 -4.45004 
1404 1 0.816667 0.25 0.234709 -4.44966 
1405 1 0.816667 0.35 0.234701 -4.44967 
1409 1 0.85 0.25 0.176283 -4.44838 
1437 1 0.8 0.4 0.176139 -4.4501 
1439 1 0.85 0.35 0.176291 -4.44832 
1566 1 0.866667 0.3 0.234785 -4.44913 
1597 1 0.866667 0.4 0.23477 -4.44914 
1572 1 0.916667 0.25 0.235009 -4.43374 
1598 1 0.9 0.4 0.176436 -4.43811 