ITEM: TIMESTEP
24
ITEM: NUMBER OF ATOMS
3584
ITEM: BOX BOUNDS pp pp ss
0.0000000000000000e+00 4.3111019472983898e+01
0.0000000000000000e+00 2.4890158697766498e+01
-3.6580800000000006e-03 3.4552298188307212e+01
ITEM: ATOMS id type xs ys zs c_peratom 
1 1 0 0.1 -0.0010875 -3.90428 
2 1 0.0166667 0.05 0.0569552 -4.45009 
3 1 0.0166667 0.15 0.0570203 -4.45004 
4 1 0 0 -0.00109437 -3.90429 
5 1 0.05 0.05 -0.00113219 -3.90428 
10 1 0.05 0.15 -0.00108749 -3.90448 
35 1 0.0333333 0 0.115702 -4.45044 
43 1 0.0333333 0.1 0.115713 -4.45044 
44 1 0.0666667 0.1 0.0569146 -4.45013 
45 1 0.0833333 0.05 0.115602 -4.44986 
46 1 0.0833333 0.15 0.115639 -4.4504 
47 1 0.0666667 0 0.0569105 -4.45016 
48 1 0.1 0 -0.00121502 -3.90427 
49 1 0.116667 0.05 0.0568066 -4.44988 
62 1 0.116667 0.15 0.0568189 -4.45 
64 1 0.1 0.1 -0.00121577 -3.90426 
65 1 0.15 0.05 -0.00130147 -3.90434 
66 1 0.15 0.15 -0.00129692 -3.90434 
153 1 0.133333 0.1 0.11551 -4.44989 
156 1 0.133333 0 0.115508 -4.44986 
157 1 0.166667 0 0.0567341 -4.44997 
181 1 0.166667 0.1 0.0567327 -4.44998 
158 1 0.183333 0.05 0.115444 -4.44985 
179 1 0.183333 0.15 0.115443 -4.44985 
182 1 0.2 0.1 -0.00136184 -3.90436 
183 1 0.216667 0.05 0.0566794 -4.44997 
184 1 0.216667 0.15 0.0566784 -4.44997 
185 1 0.2 0 -0.00136043 -3.90436 
186 1 0.25 0.05 -0.00140325 -3.90436 
214 1 0.25 0.15 -0.0014038 -3.90436 
312 1 0.233333 0 0.115401 -4.44985 
339 1 0.233333 0.1 0.1154 -4.44985 
340 1 0.266667 0.1 0.0566449 -4.44998 
343 1 0.266667 0 0.056644 -4.44998 
341 1 0.283333 0.05 0.115375 -4.44986 
342 1 0.283333 0.15 0.115375 -4.44986 
344 1 0.3 0 -0.00142704 -3.90437 
345 1 0.316667 0.05 0.0566278 -4.44998 
376 1 0.316667 0.15 0.0566287 -4.44998 
378 1 0.3 0.1 -0.00142534 -3.90437 
379 1 0.35 0.05 -0.00143502 -3.90439 
380 1 0.35 0.15 -0.00143424 -3.90439 
503 1 0.333333 0.1 0.115365 -4.44986 
506 1 0.333333 0 0.115364 -4.44986 
507 1 0.366667 0 0.0566204 -4.44997 
508 1 0.383333 0.05 0.115359 -4.44986 
536 1 0.383333 0.15 0.115359 -4.44986 
538 1 0.366667 0.1 0.0566209 -4.44997 
539 1 0.4 0.1 -0.00144178 -3.90437 
540 1 0.416667 0.05 0.0566161 -4.44997 
541 1 0.416667 0.15 0.0566154 -4.44997 
542 1 0.4 0 -0.00144153 -3.90438 
543 1 0.45 0.05 -0.00144154 -3.90437 
574 1 0.45 0.15 -0.00144237 -3.90436 
672 1 0.433333 0 0.115357 -4.44986 
699 1 0.433333 0.1 0.115356 -4.44986 
700 1 0.466667 0.1 0.0566203 -4.44998 
701 1 0.483333 0.05 0.115364 -4.44986 
702 1 0.483333 0.15 0.115364 -4.44986 
703 1 0.466667 0 0.05662 -4.44998 
704 1 0.5 0 -0.00142813 -3.90437 
705 1 0.516667 0.05 0.056638 -4.44997 
736 1 0.516667 0.15 0.0566398 -4.44997 
738 1 0.5 0.1 -0.0014264 -3.90437 
863 1 0.533333 0.1 0.115384 -4.44985 
866 1 0.533333 0 0.115381 -4.44985 
739 1 0.55 0.05 -0.0014024 -3.90434 
740 1 0.55 0.15 -0.00139855 -3.90434 
867 1 0.566667 0 0.0566657 -4.44998 
868 1 0.583333 0.05 0.115415 -4.44986 
896 1 0.583333 0.15 0.11542 -4.44986 
898 1 0.566667 0.1 0.0566719 -4.44998 
899 1 0.6 0.1 -0.0013448 -3.90419 
900 1 0.616667 0.05 0.0567326 -4.4502 
901 1 0.616667 0.15 0.0567406 -4.45019 
902 1 0.6 0 -0.001354 -3.90419 
1032 1 0.633333 0 0.115458 -4.44982 
1059 1 0.633333 0.1 0.115468 -4.44979 
903 1 0.65 0.05 -0.00118377 -3.90298 
934 1 0.65 0.15 -0.00117413 -3.90298 
1060 1 0.666667 0.1 0.0569047 -4.44435 
1061 1 0.683333 0.05 0.11542 -4.45345 
1062 1 0.683333 0.15 0.115428 -4.45343 
1063 1 0.666667 0 0.0568906 -4.44426 
1064 1 0.7 0 -0.000594127 -3.4678 
1065 1 0.716667 0.05 0.0572088 -4.28689 
1096 1 0.716667 0.15 0.0572193 -4.2869 
1098 1 0.7 0.1 -0.000573453 -3.46776 
1214 1 0.733333 0.1 0.115402 -4.44262 
1217 1 0.733333 0 0.115392 -4.44255 
1218 1 0.766667 0 0.0559622 -4.17111 
1219 1 0.783333 0.05 0.115037 -4.45253 
1247 1 0.783333 0.15 0.11504 -4.45254 
1249 1 0.766667 0.1 0.0559618 -4.17121 
1250 1 0.8 0.1 -0.00104037 -3.4654 
1251 1 0.816667 0.05 0.0569868 -4.4263 
1252 1 0.816667 0.15 0.0569914 -4.42629 
1253 1 0.8 0 -0.00104046 -3.4655 
1254 1 0.85 0.05 -0.0012348 -3.90314 
1285 1 0.85 0.15 -0.00122461 -3.90313 
1383 1 0.833333 0 0.115401 -4.44955 
1410 1 0.833333 0.1 0.115401 -4.44955 
1411 1 0.866667 0.1 0.0567253 -4.45134 
1412 1 0.883333 0.05 0.115475 -4.4503 
1413 1 0.883333 0.15 0.115491 -4.45034 
1414 1 0.866667 0 0.0567249 -4.45134 
1415 1 0.9 0 -0.00125352 -3.90419 
1449 1 0.9 0.1 -0.00125121 -3.90419 
1416 1 0.916667 0.05 0.0568258 -4.45015 
1447 1 0.916667 0.15 0.0568658 -4.45004 
1450 1 0.95 0.05 -0.00116191 -3.90431 
1451 1 0.95 0.15 -0.00108242 -3.90454 
1574 1 0.933333 0.1 0.115599 -4.44993 
1577 1 0.933333 0 0.115596 -4.44992 
1578 1 0.966667 0 0.056933 -4.44988 
1579 1 0.983333 0.05 0.115672 -4.44993 
1607 1 0.983333 0.15 0.115718 -4.4466 
1609 1 0.966667 0.1 0.0569386 -4.44987 
6 1 0 0.3 -0.000779825 -3.9043 
7 1 0.0166667 0.25 0.0571593 -4.44672 
9 1 0 0.2 -0.000944259 -3.90462 
11 1 0.05 0.25 -0.000968757 -3.90485 
40 1 0.0333333 0.2 0.115578 -4.43461 
56 1 0.0333333 0.3 0.115829 -4.30797 
57 1 0.0666667 0.3 0.0571148 -4.45266 
58 1 0.0833333 0.25 0.115652 -4.44714 
60 1 0.0666667 0.2 0.0569797 -4.45032 
61 1 0.1 0.2 -0.00118225 -3.90417 
63 1 0.116667 0.25 0.0568405 -4.44997 
82 1 0.1 0.3 -0.00113086 -3.90433 
83 1 0.15 0.25 -0.00128897 -3.90431 
174 1 0.133333 0.3 0.115509 -4.45003 
177 1 0.133333 0.2 0.115509 -4.44989 
178 1 0.166667 0.2 0.0567341 -4.44996 
209 1 0.166667 0.3 0.0567343 -4.45 
180 1 0.183333 0.25 0.115439 -4.44984 
210 1 0.2 0.3 -0.00136388 -3.90434 
211 1 0.216667 0.25 0.0566764 -4.44997 
213 1 0.2 0.2 -0.00136221 -3.90435 
215 1 0.25 0.25 -0.00140524 -3.90436 
336 1 0.233333 0.2 0.115399 -4.44985 
370 1 0.233333 0.3 0.115396 -4.44985 
371 1 0.266667 0.3 0.0566426 -4.44998 
374 1 0.266667 0.2 0.0566442 -4.44998 
372 1 0.283333 0.25 0.115374 -4.44986 
375 1 0.3 0.2 -0.00142533 -3.90437 
377 1 0.316667 0.25 0.0566284 -4.44997 
406 1 0.3 0.3 -0.00142633 -3.90437 
407 1 0.35 0.25 -0.00143447 -3.90439 
531 1 0.333333 0.3 0.115364 -4.44986 
534 1 0.333333 0.2 0.115365 -4.44986 
535 1 0.366667 0.2 0.0566209 -4.44997 
537 1 0.383333 0.25 0.115359 -4.44986 
569 1 0.366667 0.3 0.0566202 -4.44997 
570 1 0.4 0.3 -0.00144297 -3.90437 
571 1 0.416667 0.25 0.0566146 -4.44998 
573 1 0.4 0.2 -0.00144244 -3.90437 
575 1 0.45 0.25 -0.00144326 -3.90436 
696 1 0.433333 0.2 0.115355 -4.44986 
730 1 0.433333 0.3 0.115355 -4.44986 
731 1 0.466667 0.3 0.0566198 -4.44998 
732 1 0.483333 0.25 0.115364 -4.44986 
734 1 0.466667 0.2 0.05662 -4.44998 
735 1 0.5 0.2 -0.00142563 -3.90437 
737 1 0.516667 0.25 0.0566407 -4.44997 
766 1 0.5 0.3 -0.00142575 -3.90437 
891 1 0.533333 0.3 0.115386 -4.44985 
894 1 0.533333 0.2 0.115386 -4.44985 
767 1 0.55 0.25 -0.00139667 -3.90435 
895 1 0.566667 0.2 0.0566755 -4.44998 
897 1 0.583333 0.25 0.115422 -4.44986 
929 1 0.566667 0.3 0.0566755 -4.44998 
930 1 0.6 0.3 -0.00133961 -3.90419 
931 1 0.616667 0.25 0.0567432 -4.45019 
933 1 0.6 0.2 -0.00133959 -3.90419 
1056 1 0.633333 0.2 0.115473 -4.44979 
1090 1 0.633333 0.3 0.115473 -4.44979 
935 1 0.65 0.25 -0.00117119 -3.90298 
1091 1 0.666667 0.3 0.0569106 -4.44435 
1092 1 0.683333 0.25 0.115431 -4.45343 
1094 1 0.666667 0.2 0.0569108 -4.44435 
1095 1 0.7 0.2 -0.000566908 -3.46776 
1097 1 0.716667 0.25 0.0572227 -4.2869 
1124 1 0.7 0.3 -0.000566902 -3.46775 
1242 1 0.733333 0.3 0.115409 -4.44261 
1245 1 0.733333 0.2 0.115408 -4.44261 
1246 1 0.766667 0.2 0.0559671 -4.17121 
1248 1 0.783333 0.25 0.115045 -4.45253 
1280 1 0.766667 0.3 0.0559715 -4.17121 
1281 1 0.8 0.3 -0.00102848 -3.46536 
1282 1 0.816667 0.25 0.0570009 -4.42625 
1284 1 0.8 0.2 -0.00103431 -3.46539 
1286 1 0.85 0.25 -0.001201 -3.90308 
1407 1 0.833333 0.2 0.115411 -4.44956 
1441 1 0.833333 0.3 0.11542 -4.44957 
1442 1 0.866667 0.3 0.0567883 -4.45167 
1443 1 0.883333 0.25 0.115548 -4.45089 
1445 1 0.866667 0.2 0.0567535 -4.4514 
1446 1 0.9 0.2 -0.00119755 -3.90408 
1477 1 0.9 0.3 -0.00113905 -3.90424 
1448 1 0.916667 0.25 0.0569602 -4.45 
1478 1 0.95 0.25 -0.000921183 -3.90503 
1602 1 0.933333 0.3 0.115557 -4.43071 
1605 1 0.933333 0.2 0.11566 -4.44665 
1606 1 0.966667 0.2 0.0571372 -4.45254 
1608 1 0.983333 0.25 0.1161 -4.3232 
1635 1 0.966667 0.3 0.057304 -4.44963 
8 1 0.0166667 0.35 0.0572611 -4.44369 
12 1 0 0.5 -0.000933045 -3.90458 
13 1 0.0166667 0.45 0.0571612 -4.44672 
15 1 0 0.4 -0.000781674 -3.90428 
16 1 0.05 0.35 -0.000882432 -3.90515 
17 1 0.05 0.45 -0.000963934 -3.90482 
53 1 0.0333333 0.4 0.115828 -4.30799 
59 1 0.0833333 0.35 0.115631 -4.44321 
74 1 0.0333333 0.5 0.115583 -4.43461 
75 1 0.0666667 0.5 0.0569907 -4.45027 
76 1 0.0833333 0.45 0.115653 -4.44713 
78 1 0.0666667 0.4 0.0571167 -4.45267 
79 1 0.1 0.4 -0.00112779 -3.90434 
80 1 0.116667 0.35 0.0568507 -4.44983 
81 1 0.116667 0.45 0.0568442 -4.44997 
84 1 0.15 0.35 -0.00128615 -3.90427 
99 1 0.1 0.5 -0.00117261 -3.90415 
100 1 0.15 0.45 -0.00128698 -3.9043 
202 1 0.133333 0.5 0.11551 -4.44988 
205 1 0.133333 0.4 0.115508 -4.45003 
206 1 0.166667 0.4 0.0567341 -4.44999 
233 1 0.166667 0.5 0.0567349 -4.44996 
207 1 0.183333 0.35 0.115435 -4.44983 
208 1 0.183333 0.45 0.115436 -4.44984 
212 1 0.216667 0.35 0.0566741 -4.44997 
234 1 0.2 0.5 -0.00136423 -3.90434 
235 1 0.216667 0.45 0.0566736 -4.44998 
237 1 0.2 0.4 -0.00136486 -3.90434 
238 1 0.25 0.35 -0.0014073 -3.90435 
239 1 0.25 0.45 -0.00140899 -3.90435 
367 1 0.233333 0.4 0.115394 -4.44985 
398 1 0.233333 0.5 0.115395 -4.44985 
399 1 0.266667 0.5 0.0566399 -4.44998 
402 1 0.266667 0.4 0.0566406 -4.44998 
373 1 0.283333 0.35 0.115373 -4.44986 
400 1 0.283333 0.45 0.115371 -4.44986 
403 1 0.3 0.4 -0.00142833 -3.90437 
404 1 0.316667 0.35 0.056627 -4.44998 
405 1 0.316667 0.45 0.0566251 -4.44998 
408 1 0.35 0.35 -0.00143571 -3.90439 
426 1 0.3 0.5 -0.00142994 -3.90437 
427 1 0.35 0.45 -0.0014372 -3.90438 
562 1 0.333333 0.5 0.115361 -4.44986 
565 1 0.333333 0.4 0.115363 -4.44986 
566 1 0.366667 0.4 0.0566192 -4.44997 
567 1 0.383333 0.35 0.115358 -4.44986 
568 1 0.383333 0.45 0.115357 -4.44986 
572 1 0.416667 0.35 0.0566146 -4.44997 
593 1 0.366667 0.5 0.0566181 -4.44997 
594 1 0.4 0.5 -0.00144332 -3.90438 
595 1 0.416667 0.45 0.0566148 -4.44997 
597 1 0.4 0.4 -0.00144318 -3.90437 
598 1 0.45 0.35 -0.00144277 -3.90436 
599 1 0.45 0.45 -0.00144223 -3.90437 
727 1 0.433333 0.4 0.115356 -4.44986 
758 1 0.433333 0.5 0.115356 -4.44986 
733 1 0.483333 0.35 0.115364 -4.44986 
759 1 0.466667 0.5 0.0566195 -4.44998 
760 1 0.483333 0.45 0.115364 -4.44986 
762 1 0.466667 0.4 0.0566199 -4.44998 
763 1 0.5 0.4 -0.00142667 -3.90437 
764 1 0.516667 0.35 0.0566397 -4.44997 
765 1 0.516667 0.45 0.0566377 -4.44997 
786 1 0.5 0.5 -0.00142842 -3.90437 
922 1 0.533333 0.5 0.115381 -4.44985 
925 1 0.533333 0.4 0.115384 -4.44985 
768 1 0.55 0.35 -0.00139857 -3.90434 
787 1 0.55 0.45 -0.00140253 -3.90434 
926 1 0.566667 0.4 0.0566718 -4.44998 
927 1 0.583333 0.35 0.11542 -4.44986 
928 1 0.583333 0.45 0.115415 -4.44986 
932 1 0.616667 0.35 0.0567404 -4.45019 
953 1 0.566667 0.5 0.0566656 -4.44998 
954 1 0.6 0.5 -0.0013541 -3.90419 
955 1 0.616667 0.45 0.0567324 -4.4502 
957 1 0.6 0.4 -0.00134484 -3.90419 
1087 1 0.633333 0.4 0.115467 -4.44979 
1116 1 0.633333 0.5 0.115458 -4.44982 
958 1 0.65 0.35 -0.00117459 -3.90297 
959 1 0.65 0.45 -0.00118438 -3.90298 
1093 1 0.683333 0.35 0.115428 -4.45343 
1117 1 0.666667 0.5 0.05689 -4.44426 
1118 1 0.683333 0.45 0.11542 -4.45346 
1120 1 0.666667 0.4 0.0569042 -4.44435 
1121 1 0.7 0.4 -0.000573679 -3.46774 
1122 1 0.716667 0.35 0.05722 -4.2869 
1123 1 0.716667 0.45 0.0572092 -4.28689 
1142 1 0.7 0.5 -0.000594613 -3.46779 
1273 1 0.733333 0.5 0.115393 -4.44255 
1276 1 0.733333 0.4 0.115405 -4.44262 
1277 1 0.766667 0.4 0.0559708 -4.17121 
1278 1 0.783333 0.35 0.115046 -4.45252 
1279 1 0.783333 0.45 0.115044 -4.45251 
1283 1 0.816667 0.35 0.0570052 -4.42621 
1304 1 0.766667 0.5 0.055968 -4.17112 
1305 1 0.8 0.5 -0.00103203 -3.46547 
1306 1 0.816667 0.45 0.0570018 -4.42625 
1308 1 0.8 0.4 -0.00102835 -3.46536 
1309 1 0.85 0.35 -0.00118915 -3.90303 
1310 1 0.85 0.45 -0.00119895 -3.90308 
1438 1 0.833333 0.4 0.115418 -4.44957 
1444 1 0.883333 0.35 0.115587 -4.45136 
1469 1 0.833333 0.5 0.115411 -4.44955 
1470 1 0.866667 0.5 0.0567591 -4.4514 
1471 1 0.883333 0.45 0.115544 -4.45089 
1473 1 0.866667 0.4 0.0567874 -4.45167 
1474 1 0.9 0.4 -0.00114081 -3.90422 
1497 1 0.9 0.5 -0.00118884 -3.90406 
1475 1 0.916667 0.35 0.0570104 -4.44996 
1476 1 0.916667 0.45 0.0569595 -4.45001 
1479 1 0.95 0.35 -0.000841327 -3.90511 
1498 1 0.95 0.45 -0.000921843 -3.90499 
1628 1 0.933333 0.5 0.11566 -4.44663 
1631 1 0.933333 0.4 0.115553 -4.43071 
1632 1 0.966667 0.4 0.0573014 -4.44963 
1633 1 0.983333 0.35 0.116556 -4.18097 
1634 1 0.983333 0.45 0.116095 -4.32322 
1653 1 0.966667 0.5 0.0571462 -4.45255 
14 1 0.0166667 0.55 0.057053 -4.45012 
19 1 0.0166667 0.65 0.0570666 -4.45003 
21 1 0 0.6 -0.00101843 -3.90417 
22 1 0.05 0.55 -0.00105819 -3.90441 
23 1 0.05 0.65 -0.00104779 -3.90448 
71 1 0.0333333 0.6 0.115781 -4.45096 
77 1 0.0833333 0.55 0.115654 -4.45042 
93 1 0.0833333 0.65 0.115669 -4.45036 
95 1 0.0666667 0.6 0.056966 -4.45043 
96 1 0.1 0.6 -0.00118188 -3.90422 
97 1 0.116667 0.55 0.0568327 -4.44994 
98 1 0.116667 0.65 0.0568423 -4.44998 
101 1 0.15 0.55 -0.00129044 -3.90432 
112 1 0.15 0.65 -0.00128257 -3.90434 
229 1 0.133333 0.6 0.115521 -4.4499 
230 1 0.166667 0.6 0.0567396 -4.44997 
231 1 0.183333 0.55 0.115441 -4.44985 
232 1 0.183333 0.65 0.115447 -4.44985 
236 1 0.216667 0.55 0.0566758 -4.44997 
251 1 0.216667 0.65 0.0566782 -4.44998 
253 1 0.2 0.6 -0.00136116 -3.90435 
254 1 0.25 0.55 -0.00140773 -3.90435 
255 1 0.25 0.65 -0.00140753 -3.90435 
395 1 0.233333 0.6 0.115396 -4.44985 
422 1 0.266667 0.6 0.0566401 -4.44998 
401 1 0.283333 0.55 0.115371 -4.44986 
420 1 0.283333 0.65 0.11537 -4.44986 
423 1 0.3 0.6 -0.00143108 -3.90437 
424 1 0.316667 0.55 0.0566237 -4.44998 
425 1 0.316667 0.65 0.0566227 -4.44998 
428 1 0.35 0.55 -0.00143878 -3.90438 
439 1 0.35 0.65 -0.0014393 -3.90438 
589 1 0.333333 0.6 0.11536 -4.44986 
590 1 0.366667 0.6 0.0566173 -4.44997 
591 1 0.383333 0.55 0.115357 -4.44986 
592 1 0.383333 0.65 0.115357 -4.44986 
596 1 0.416667 0.55 0.0566146 -4.44997 
611 1 0.416667 0.65 0.0566145 -4.44997 
613 1 0.4 0.6 -0.00144336 -3.90438 
614 1 0.45 0.55 -0.00144276 -3.90437 
615 1 0.45 0.65 -0.0014437 -3.90437 
755 1 0.433333 0.6 0.115355 -4.44986 
761 1 0.483333 0.55 0.115362 -4.44986 
780 1 0.483333 0.65 0.11536 -4.44986 
782 1 0.466667 0.6 0.0566183 -4.44998 
783 1 0.5 0.6 -0.00143121 -3.90437 
784 1 0.516667 0.55 0.0566344 -4.44997 
785 1 0.516667 0.65 0.0566306 -4.44997 
949 1 0.533333 0.6 0.115377 -4.44985 
788 1 0.55 0.55 -0.00140804 -3.90435 
799 1 0.55 0.65 -0.00141381 -3.90435 
950 1 0.566667 0.6 0.0566582 -4.44998 
951 1 0.583333 0.55 0.115407 -4.44986 
952 1 0.583333 0.65 0.115398 -4.44986 
956 1 0.616667 0.55 0.0567195 -4.45018 
971 1 0.616667 0.65 0.0567005 -4.45015 
973 1 0.6 0.6 -0.00136687 -3.9042 
1113 1 0.633333 0.6 0.115442 -4.44971 
974 1 0.65 0.55 -0.00120569 -3.90307 
975 1 0.65 0.65 -0.00125432 -3.90141 
1119 1 0.683333 0.55 0.115402 -4.45307 
1136 1 0.683333 0.65 0.115357 -4.45337 
1138 1 0.666667 0.6 0.0568557 -4.44377 
1139 1 0.7 0.6 -0.000737774 -3.4725 
1140 1 0.716667 0.55 0.0571731 -4.28638 
1141 1 0.716667 0.65 0.0568386 -4.3072 
1300 1 0.733333 0.6 0.115359 -4.443 
1301 1 0.766667 0.6 0.0559398 -4.17551 
1302 1 0.783333 0.55 0.115045 -4.45258 
1303 1 0.783333 0.65 0.115222 -4.44942 
1307 1 0.816667 0.55 0.0569949 -4.42625 
1322 1 0.816667 0.65 0.0570109 -4.42982 
1324 1 0.8 0.6 -0.00106982 -3.46994 
1325 1 0.85 0.55 -0.00121105 -3.90317 
1326 1 0.85 0.65 -0.00119825 -3.90145 
1466 1 0.833333 0.6 0.115426 -4.44962 
1472 1 0.883333 0.55 0.115501 -4.45032 
1491 1 0.883333 0.65 0.115518 -4.45025 
1493 1 0.866667 0.6 0.0567557 -4.45125 
1494 1 0.9 0.6 -0.00120962 -3.90414 
1495 1 0.916667 0.55 0.0568886 -4.45008 
1496 1 0.916667 0.65 0.0568977 -4.45001 
1499 1 0.95 0.55 -0.00105009 -3.90451 
1510 1 0.95 0.65 -0.00104547 -3.90456 
1649 1 0.933333 0.6 0.115639 -4.45012 
1650 1 0.966667 0.6 0.0570046 -4.4498 
1651 1 0.983333 0.55 0.115737 -4.44662 
1652 1 0.983333 0.65 0.115765 -4.44662 
18 1 0 0.7 -0.000924797 -3.90484 
20 1 0.0166667 0.75 0.0571572 -4.44694 
27 1 0 0.8 -0.000890933 -3.90404 
28 1 0.05 0.75 -0.000961303 -3.9048 
88 1 0.0333333 0.8 0.116103 -4.32686 
91 1 0.0333333 0.7 0.115617 -4.43421 
92 1 0.0666667 0.7 0.0570034 -4.44991 
94 1 0.0833333 0.75 0.115672 -4.44656 
107 1 0.0666667 0.8 0.057106 -4.45258 
108 1 0.1 0.8 -0.00112416 -3.90455 
109 1 0.116667 0.75 0.0568599 -4.44989 
111 1 0.1 0.7 -0.00115828 -3.90423 
113 1 0.15 0.75 -0.00127317 -3.90433 
226 1 0.133333 0.7 0.115529 -4.44987 
245 1 0.133333 0.8 0.115533 -4.45003 
246 1 0.166667 0.8 0.0567469 -4.45 
249 1 0.166667 0.7 0.0567458 -4.44997 
247 1 0.183333 0.75 0.115448 -4.44984 
250 1 0.2 0.7 -0.00135777 -3.90435 
252 1 0.216667 0.75 0.0566793 -4.44997 
261 1 0.2 0.8 -0.00135681 -3.90435 
262 1 0.25 0.75 -0.00140771 -3.90435 
415 1 0.233333 0.8 0.115398 -4.44985 
418 1 0.233333 0.7 0.115398 -4.44985 
419 1 0.266667 0.7 0.0566396 -4.44998 
434 1 0.266667 0.8 0.0566403 -4.44998 
421 1 0.283333 0.75 0.11537 -4.44986 
435 1 0.3 0.8 -0.00143101 -3.90436 
436 1 0.316667 0.75 0.0566229 -4.44998 
438 1 0.3 0.7 -0.00143206 -3.90436 
440 1 0.35 0.75 -0.00143858 -3.90438 
586 1 0.333333 0.7 0.11536 -4.44986 
605 1 0.333333 0.8 0.115361 -4.44986 
606 1 0.366667 0.8 0.0566185 -4.44997 
607 1 0.383333 0.75 0.115357 -4.44986 
609 1 0.366667 0.7 0.0566176 -4.44997 
610 1 0.4 0.7 -0.00144297 -3.90438 
612 1 0.416667 0.75 0.0566147 -4.44997 
621 1 0.4 0.8 -0.0014424 -3.90438 
622 1 0.45 0.75 -0.00144403 -3.90437 
775 1 0.433333 0.8 0.115355 -4.44986 
778 1 0.433333 0.7 0.115355 -4.44986 
779 1 0.466667 0.7 0.0566168 -4.44998 
781 1 0.483333 0.75 0.115359 -4.44986 
794 1 0.466667 0.8 0.056617 -4.44998 
795 1 0.5 0.8 -0.00143373 -3.90437 
796 1 0.516667 0.75 0.0566292 -4.44997 
798 1 0.5 0.7 -0.00143379 -3.90437 
946 1 0.533333 0.7 0.115373 -4.44985 
965 1 0.533333 0.8 0.115373 -4.44985 
800 1 0.55 0.75 -0.00141602 -3.90436 
966 1 0.566667 0.8 0.0566515 -4.44998 
967 1 0.583333 0.75 0.115393 -4.44985 
969 1 0.566667 0.7 0.0566515 -4.44998 
970 1 0.6 0.7 -0.00138106 -3.9043 
972 1 0.616667 0.75 0.0566826 -4.45015 
981 1 0.6 0.8 -0.00138096 -3.9043 
1131 1 0.633333 0.8 0.115421 -4.44986 
1134 1 0.633333 0.7 0.115421 -4.44986 
982 1 0.65 0.75 -0.00131459 -3.90743 
1135 1 0.666667 0.7 0.0567652 -4.44797 
1137 1 0.683333 0.75 0.115441 -4.45067 
1148 1 0.666667 0.8 0.0567653 -4.44796 
1149 1 0.7 0.8 -0.000906541 -3.69129 
1150 1 0.716667 0.75 0.0572584 -4.41719 
1152 1 0.7 0.7 -0.000906698 -3.69129 
1153 1 0.75 0.75 -0.000936839 -3.47888 
1297 1 0.733333 0.7 0.115423 -4.44647 
1316 1 0.733333 0.8 0.115424 -4.44647 
1317 1 0.766667 0.8 0.0565487 -4.31863 
1318 1 0.783333 0.75 0.115227 -4.45536 
1320 1 0.766667 0.7 0.0565485 -4.31863 
1321 1 0.8 0.7 -0.00101786 -3.69155 
1323 1 0.816667 0.75 0.0568458 -4.44315 
1332 1 0.8 0.8 -0.00101769 -3.69154 
1333 1 0.85 0.75 -0.00124327 -3.9074 
1486 1 0.833333 0.8 0.115462 -4.44977 
1489 1 0.833333 0.7 0.115459 -4.44976 
1490 1 0.866667 0.7 0.0567901 -4.45084 
1492 1 0.883333 0.75 0.115569 -4.45052 
1505 1 0.866667 0.8 0.0568014 -4.45103 
1506 1 0.9 0.8 -0.0011641 -3.90445 
1509 1 0.9 0.7 -0.00117901 -3.90419 
1507 1 0.916667 0.75 0.0569489 -4.45 
1511 1 0.95 0.75 -0.000979296 -3.90478 
1646 1 0.933333 0.7 0.115685 -4.44649 
1659 1 0.933333 0.8 0.115534 -4.43422 
1660 1 0.966667 0.8 0.0571227 -4.44693 
1661 1 0.983333 0.75 0.116125 -4.32689 
1663 1 0.966667 0.7 0.0571495 -4.45261 
24 1 0 0.9 -0.0009681 -3.9048 
25 1 0.0166667 0.85 0.0571314 -4.44692 
26 1 0.0166667 0.95 0.0570081 -4.44997 
29 1 0.05 0.85 -0.00098282 -3.90477 
30 1 0.05 0.95 -0.00109642 -3.90451 
103 1 0.0333333 0.9 0.115572 -4.43419 
104 1 0.0666667 0.9 0.0569715 -4.44996 
105 1 0.0833333 0.85 0.115658 -4.44658 
106 1 0.0833333 0.95 0.115633 -4.45034 
110 1 0.116667 0.85 0.0568508 -4.44989 
114 1 0.116667 0.95 0.0568214 -4.45003 
115 1 0.1 0.9 -0.00118008 -3.90422 
116 1 0.15 0.85 -0.00127881 -3.90433 
117 1 0.15 0.95 -0.00129284 -3.90434 
242 1 0.133333 0.9 0.115518 -4.44989 
257 1 0.166667 0.9 0.0567404 -4.44997 
248 1 0.183333 0.85 0.115447 -4.44984 
256 1 0.183333 0.95 0.115445 -4.44986 
258 1 0.2 0.9 -0.00135863 -3.90435 
259 1 0.216667 0.85 0.0566795 -4.44997 
260 1 0.216667 0.95 0.0566795 -4.44997 
263 1 0.25 0.85 -0.00140622 -3.90435 
264 1 0.25 0.95 -0.00140476 -3.90435 
430 1 0.233333 0.9 0.115399 -4.44985 
431 1 0.266667 0.9 0.0566421 -4.44998 
432 1 0.283333 0.85 0.115372 -4.44986 
433 1 0.283333 0.95 0.115374 -4.44986 
437 1 0.316667 0.85 0.0566244 -4.44998 
441 1 0.316667 0.95 0.0566261 -4.44998 
442 1 0.3 0.9 -0.00142903 -3.90436 
443 1 0.35 0.85 -0.00143739 -3.90439 
444 1 0.35 0.95 -0.00143606 -3.90439 
602 1 0.333333 0.9 0.115362 -4.44986 
608 1 0.383333 0.85 0.115358 -4.44986 
616 1 0.383333 0.95 0.115359 -4.44986 
617 1 0.366667 0.9 0.0566195 -4.44997 
618 1 0.4 0.9 -0.00144185 -3.90438 
619 1 0.416667 0.85 0.0566153 -4.44997 
620 1 0.416667 0.95 0.0566159 -4.44997 
623 1 0.45 0.85 -0.00144331 -3.90437 
624 1 0.45 0.95 -0.00144211 -3.90437 
790 1 0.433333 0.9 0.115356 -4.44986 
791 1 0.466667 0.9 0.0566186 -4.44998 
792 1 0.483333 0.85 0.11536 -4.44986 
793 1 0.483333 0.95 0.115363 -4.44986 
797 1 0.516667 0.85 0.0566307 -4.44997 
801 1 0.516667 0.95 0.0566346 -4.44997 
802 1 0.5 0.9 -0.00143102 -3.90437 
962 1 0.533333 0.9 0.115377 -4.44985 
803 1 0.55 0.85 -0.00141365 -3.90435 
804 1 0.55 0.95 -0.00140783 -3.90435 
968 1 0.583333 0.85 0.115398 -4.44986 
976 1 0.583333 0.95 0.115407 -4.44986 
977 1 0.566667 0.9 0.0566583 -4.44998 
978 1 0.6 0.9 -0.00136669 -3.9042 
979 1 0.616667 0.85 0.0567007 -4.45015 
980 1 0.616667 0.95 0.0567198 -4.45018 
1144 1 0.633333 0.9 0.115442 -4.44971 
983 1 0.65 0.85 -0.0012541 -3.90141 
984 1 0.65 0.95 -0.00120523 -3.90307 
1145 1 0.666667 0.9 0.056856 -4.44377 
1146 1 0.683333 0.85 0.115357 -4.45337 
1147 1 0.683333 0.95 0.115402 -4.45306 
1151 1 0.716667 0.85 0.056839 -4.3072 
1154 1 0.716667 0.95 0.0571734 -4.28638 
1155 1 0.7 0.9 -0.000737388 -3.4725 
1313 1 0.733333 0.9 0.11536 -4.443 
1319 1 0.783333 0.85 0.115223 -4.44941 
1327 1 0.783333 0.95 0.115043 -4.45259 
1328 1 0.766667 0.9 0.055939 -4.17551 
1329 1 0.8 0.9 -0.00107167 -3.46995 
1330 1 0.816667 0.85 0.0570116 -4.42978 
1331 1 0.816667 0.95 0.0569887 -4.42624 
1334 1 0.85 0.85 -0.00119389 -3.90142 
1335 1 0.85 0.95 -0.00122374 -3.90318 
1501 1 0.833333 0.9 0.115427 -4.44963 
1502 1 0.866667 0.9 0.0567577 -4.45133 
1503 1 0.883333 0.85 0.115554 -4.45077 
1504 1 0.883333 0.95 0.115491 -4.45036 
1513 1 0.9 0.9 -0.00120838 -3.9041 
1508 1 0.916667 0.85 0.0569318 -4.45007 
1512 1 0.916667 0.95 0.0568592 -4.45001 
1514 1 0.95 0.85 -0.000998423 -3.90478 
1515 1 0.95 0.95 -0.00109628 -3.90458 
1656 1 0.933333 0.9 0.115651 -4.44653 
1662 1 0.983333 0.85 0.116087 -4.32687 
1664 1 0.983333 0.95 0.11571 -4.44658 
1665 1 0.966667 0.9 0.0571089 -4.45259 
31 1 0 0.1 0.174499 -4.45121 
32 1 0.0166667 0.05 0.233288 -4.44724 
33 1 0.0166667 0.15 0.233239 -4.44381 
34 1 0 0 0.174484 -4.45181 
36 1 0.05 0.05 0.174474 -4.45002 
41 1 0.05 0.15 0.174452 -4.44751 
131 1 0.0666667 0.1 0.233297 -4.4527 
134 1 0.0666667 0 0.233197 -4.45044 
135 1 0.1 0 0.174359 -4.44982 
136 1 0.116667 0.05 0.233109 -4.44986 
150 1 0.116667 0.15 0.233097 -4.44997 
152 1 0.1 0.1 0.174376 -4.45005 
154 1 0.15 0.05 0.17428 -4.44998 
155 1 0.15 0.15 0.174276 -4.45006 
288 1 0.166667 0 0.233048 -4.44999 
307 1 0.166667 0.1 0.233047 -4.45002 
308 1 0.2 0.1 0.17423 -4.44998 
309 1 0.216667 0.05 0.233016 -4.44999 
310 1 0.216667 0.15 0.233014 -4.44999 
311 1 0.2 0 0.174231 -4.44998 
313 1 0.25 0.05 0.174199 -4.44999 
337 1 0.25 0.15 0.174198 -4.44999 
475 1 0.266667 0.1 0.232995 -4.45 
478 1 0.266667 0 0.232995 -4.45 
479 1 0.3 0 0.174182 -4.44999 
480 1 0.316667 0.05 0.232986 -4.45 
500 1 0.316667 0.15 0.232986 -4.45 
502 1 0.3 0.1 0.174183 -4.44999 
504 1 0.35 0.05 0.174176 -4.44999 
505 1 0.35 0.15 0.174176 -4.44999 
648 1 0.366667 0 0.232982 -4.45 
667 1 0.366667 0.1 0.232983 -4.45 
668 1 0.4 0.1 0.174173 -4.44999 
669 1 0.416667 0.05 0.232981 -4.45 
670 1 0.416667 0.15 0.232981 -4.45 
671 1 0.4 0 0.174172 -4.44999 
673 1 0.45 0.05 0.174172 -4.44999 
697 1 0.45 0.15 0.174172 -4.44999 
835 1 0.466667 0.1 0.232982 -4.45 
838 1 0.466667 0 0.232982 -4.45 
839 1 0.5 0 0.174181 -4.44999 
840 1 0.516667 0.05 0.232992 -4.45 
860 1 0.516667 0.15 0.232993 -4.45 
862 1 0.5 0.1 0.174182 -4.44999 
864 1 0.55 0.05 0.1742 -4.44999 
865 1 0.55 0.15 0.174204 -4.44999 
1008 1 0.566667 0 0.233005 -4.45 
1027 1 0.566667 0.1 0.23301 -4.45 
1028 1 0.6 0.1 0.174229 -4.44994 
1029 1 0.616667 0.05 0.233019 -4.45002 
1030 1 0.616667 0.15 0.233024 -4.45002 
1031 1 0.6 0 0.174222 -4.44994 
1033 1 0.65 0.05 0.174236 -4.44981 
1057 1 0.65 0.15 0.174242 -4.44981 
1186 1 0.666667 0.1 0.23301 -4.44996 
1189 1 0.666667 0 0.233004 -4.44995 
1190 1 0.7 0 0.174186 -4.45054 
1191 1 0.716667 0.05 0.232956 -4.45006 
1211 1 0.716667 0.15 0.23296 -4.45007 
1213 1 0.7 0.1 0.174194 -4.45054 
1215 1 0.75 0.05 0.174069 -4.44909 
1216 1 0.75 0.15 0.174073 -4.44909 
1359 1 0.766667 0 0.232891 -4.44991 
1378 1 0.766667 0.1 0.232891 -4.44989 
1379 1 0.8 0.1 0.174033 -4.45055 
1380 1 0.816667 0.05 0.232922 -4.45005 
1381 1 0.816667 0.15 0.232925 -4.45005 
1382 1 0.8 0 0.174035 -4.45058 
1384 1 0.85 0.05 0.174216 -4.44973 
1408 1 0.85 0.15 0.17422 -4.4498 
1546 1 0.866667 0.1 0.233041 -4.45018 
1549 1 0.866667 0 0.233029 -4.44999 
1550 1 0.9 0 0.174303 -4.4498 
1573 1 0.9 0.1 0.17431 -4.45002 
1551 1 0.916667 0.05 0.233134 -4.45009 
1571 1 0.916667 0.15 0.233104 -4.45064 
1575 1 0.95 0.05 0.174426 -4.45003 
1576 1 0.95 0.15 0.174444 -4.44752 
1689 1 0.966667 0 0.233276 -4.45313 
1708 1 0.966667 0.1 0.233229 -4.44766 
37 1 0.0166667 0.25 0.232772 -4.32309 
39 1 0 0.2 0.174471 -4.32868 
42 1 0.05 0.25 0.174367 -4.32454 
145 1 0.0666667 0.3 0.233172 -4.43108 
148 1 0.0666667 0.2 0.233119 -4.44693 
149 1 0.1 0.2 0.174342 -4.4515 
151 1 0.116667 0.25 0.233028 -4.45065 
173 1 0.1 0.3 0.174316 -4.449 
175 1 0.15 0.25 0.174261 -4.45004 
304 1 0.166667 0.2 0.23304 -4.45001 
331 1 0.166667 0.3 0.233025 -4.45003 
332 1 0.2 0.3 0.174222 -4.45 
333 1 0.216667 0.25 0.233011 -4.44999 
335 1 0.2 0.2 0.174227 -4.44999 
338 1 0.25 0.25 0.174196 -4.44999 
495 1 0.266667 0.3 0.232992 -4.45 
498 1 0.266667 0.2 0.232994 -4.45 
499 1 0.3 0.2 0.174182 -4.44999 
501 1 0.316667 0.25 0.232985 -4.45 
530 1 0.3 0.3 0.174181 -4.44999 
532 1 0.35 0.25 0.174176 -4.44999 
664 1 0.366667 0.2 0.232983 -4.45 
691 1 0.366667 0.3 0.232982 -4.45 
692 1 0.4 0.3 0.174172 -4.44999 
693 1 0.416667 0.25 0.23298 -4.45 
695 1 0.4 0.2 0.174172 -4.44999 
698 1 0.45 0.25 0.174172 -4.44999 
855 1 0.466667 0.3 0.232982 -4.45 
858 1 0.466667 0.2 0.232982 -4.45 
859 1 0.5 0.2 0.174183 -4.44999 
861 1 0.516667 0.25 0.232994 -4.45 
890 1 0.5 0.3 0.174183 -4.44999 
892 1 0.55 0.25 0.174205 -4.44999 
1024 1 0.566667 0.2 0.233012 -4.45 
1051 1 0.566667 0.3 0.233012 -4.45 
1052 1 0.6 0.3 0.174233 -4.44994 
1053 1 0.616667 0.25 0.233026 -4.45002 
1055 1 0.6 0.2 0.174233 -4.44994 
1058 1 0.65 0.25 0.174244 -4.44981 
1206 1 0.666667 0.3 0.233014 -4.44996 
1209 1 0.666667 0.2 0.233014 -4.44996 
1210 1 0.7 0.2 0.174199 -4.45054 
1212 1 0.716667 0.25 0.232962 -4.45007 
1241 1 0.7 0.3 0.174199 -4.45054 
1243 1 0.75 0.25 0.174076 -4.44908 
1375 1 0.766667 0.2 0.232895 -4.44989 
1402 1 0.766667 0.3 0.232895 -4.44989 
1403 1 0.8 0.3 0.17404 -4.45057 
1404 1 0.816667 0.25 0.232926 -4.45008 
1406 1 0.8 0.2 0.174038 -4.45056 
1409 1 0.85 0.25 0.174228 -4.44979 
1566 1 0.866667 0.3 0.233013 -4.45012 
1569 1 0.866667 0.2 0.233031 -4.45004 
1570 1 0.9 0.2 0.174315 -4.45148 
1601 1 0.9 0.3 0.174308 -4.44901 
1572 1 0.916667 0.25 0.233036 -4.44724 
1603 1 0.95 0.25 0.174441 -4.32441 
1705 1 0.966667 0.2 0.233391 -4.43753 
1726 1 0.966667 0.3 0.232955 -4.30789 
38 1 0.0166667 0.35 0.232224 -4.18065 
50 1 0 0.5 0.174461 -4.32883 
51 1 0.0166667 0.45 0.232747 -4.32315 
54 1 0.05 0.35 0.174286 -4.1808 
55 1 0.05 0.45 0.174359 -4.32455 
166 1 0.0666667 0.5 0.233101 -4.44686 
169 1 0.0666667 0.4 0.233162 -4.43107 
170 1 0.1 0.4 0.174313 -4.449 
171 1 0.116667 0.35 0.232971 -4.45098 
172 1 0.116667 0.45 0.233018 -4.45065 
176 1 0.15 0.35 0.174249 -4.4499 
201 1 0.1 0.5 0.174339 -4.4515 
203 1 0.15 0.45 0.174257 -4.45004 
328 1 0.166667 0.4 0.233021 -4.45003 
362 1 0.166667 0.5 0.23303 -4.45001 
334 1 0.216667 0.35 0.233007 -4.44999 
363 1 0.2 0.5 0.174222 -4.44999 
364 1 0.216667 0.45 0.233006 -4.44999 
366 1 0.2 0.4 0.174219 -4.45 
368 1 0.25 0.35 0.174194 -4.44999 
369 1 0.25 0.45 0.174193 -4.44999 
523 1 0.266667 0.5 0.23299 -4.45 
526 1 0.266667 0.4 0.23299 -4.45 
527 1 0.3 0.4 0.17418 -4.44999 
528 1 0.316667 0.35 0.232984 -4.45 
529 1 0.316667 0.45 0.232983 -4.45 
533 1 0.35 0.35 0.174175 -4.44999 
561 1 0.3 0.5 0.174179 -4.44999 
563 1 0.35 0.45 0.174174 -4.44999 
688 1 0.366667 0.4 0.232981 -4.45 
694 1 0.416667 0.35 0.23298 -4.45 
722 1 0.366667 0.5 0.232981 -4.45 
723 1 0.4 0.5 0.174171 -4.44999 
724 1 0.416667 0.45 0.23298 -4.45 
726 1 0.4 0.4 0.174171 -4.44999 
728 1 0.45 0.35 0.174171 -4.44999 
729 1 0.45 0.45 0.174172 -4.44999 
883 1 0.466667 0.5 0.232982 -4.45 
886 1 0.466667 0.4 0.232982 -4.45 