ITEM: TIMESTEP
6
ITEM: NUMBER OF ATOMS
3584
ITEM: BOX BOUNDS pp pp ss
0.0000000000000000e+00 4.3111019472983898e+01
0.0000000000000000e+00 2.4890158697766498e+01
-3.6580800000000006e-03 3.4552298188307212e+01
ITEM: ATOMS id type xs ys zs c_peratom 
1 1 0 0.1 -5.29892e-05 -3.90267 
2 1 0.0166667 0.05 0.0590131 -4.40912 
3 1 0.0166667 0.15 0.0591004 -4.4088 
4 1 0 0 -5.13678e-05 -3.90294 
5 1 0.05 0.05 -1.55054e-07 -3.90323 
9 1 0 0.2 0.000315099 -3.90329 
10 1 0.05 0.15 -3.20773e-05 -3.90281 
35 1 0.0333333 0 0.11781 -4.44944 
40 1 0.0333333 0.2 0.117963 -4.4248 
43 1 0.0333333 0.1 0.117944 -4.45111 
44 1 0.0666667 0.1 0.0590149 -4.40881 
45 1 0.0833333 0.05 0.117776 -4.44954 
46 1 0.0833333 0.15 0.11779 -4.44951 
47 1 0.0666667 0 0.0590022 -4.40834 
60 1 0.0666667 0.2 0.0590925 -4.40839 
48 1 0.1 0 -9.26674e-06 -3.90366 
49 1 0.116667 0.05 0.058978 -4.40774 
61 1 0.1 0.2 -3.39787e-05 -3.90334 
62 1 0.116667 0.15 0.0589791 -4.40811 
64 1 0.1 0.1 -1.26901e-05 -3.90355 
65 1 0.15 0.05 -2.59185e-05 -3.90379 
66 1 0.15 0.15 -2.05883e-05 -3.90376 
153 1 0.133333 0.1 0.117705 -4.44902 
156 1 0.133333 0 0.117689 -4.44902 
157 1 0.166667 0 0.0589667 -4.40774 
158 1 0.183333 0.05 0.117686 -4.44898 
177 1 0.133333 0.2 0.117683 -4.44906 
178 1 0.166667 0.2 0.0589639 -4.40781 
179 1 0.183333 0.15 0.117686 -4.449 
181 1 0.166667 0.1 0.0589681 -4.40776 
182 1 0.2 0.1 -2.57261e-05 -3.90384 
183 1 0.216667 0.05 0.0589657 -4.40781 
184 1 0.216667 0.15 0.0589656 -4.40781 
185 1 0.2 0 -2.56696e-05 -3.90384 
186 1 0.25 0.05 -2.58006e-05 -3.90385 
213 1 0.2 0.2 -2.58524e-05 -3.90385 
214 1 0.25 0.15 -2.5786e-05 -3.90385 
312 1 0.233333 0 0.117688 -4.44907 
336 1 0.233333 0.2 0.117688 -4.44907 
339 1 0.233333 0.1 0.117688 -4.44907 
340 1 0.266667 0.1 0.0589658 -4.40782 
341 1 0.283333 0.05 0.117688 -4.44907 
342 1 0.283333 0.15 0.117688 -4.44907 
343 1 0.266667 0 0.0589658 -4.40782 
374 1 0.266667 0.2 0.0589658 -4.40782 
344 1 0.3 0 -2.58171e-05 -3.90385 
345 1 0.316667 0.05 0.0589658 -4.40782 
375 1 0.3 0.2 -2.5816e-05 -3.90385 
376 1 0.316667 0.15 0.0589658 -4.40782 
378 1 0.3 0.1 -2.58184e-05 -3.90385 
379 1 0.35 0.05 -2.58166e-05 -3.90385 
380 1 0.35 0.15 -2.58166e-05 -3.90385 
503 1 0.333333 0.1 0.117688 -4.44907 
506 1 0.333333 0 0.117688 -4.44907 
507 1 0.366667 0 0.0589658 -4.40782 
508 1 0.383333 0.05 0.117688 -4.44907 
534 1 0.333333 0.2 0.117688 -4.44907 
535 1 0.366667 0.2 0.0589658 -4.40782 
536 1 0.383333 0.15 0.117688 -4.44907 
538 1 0.366667 0.1 0.0589658 -4.40782 
539 1 0.4 0.1 -2.58168e-05 -3.90385 
540 1 0.416667 0.05 0.0589658 -4.40782 
541 1 0.416667 0.15 0.0589658 -4.40782 
542 1 0.4 0 -2.58168e-05 -3.90385 
543 1 0.45 0.05 -2.58234e-05 -3.90385 
573 1 0.4 0.2 -2.58168e-05 -3.90385 
574 1 0.45 0.15 -2.58235e-05 -3.90385 
672 1 0.433333 0 0.117688 -4.44907 
696 1 0.433333 0.2 0.117688 -4.44907 
699 1 0.433333 0.1 0.117688 -4.44907 
700 1 0.466667 0.1 0.0589658 -4.40782 
701 1 0.483333 0.05 0.117688 -4.44906 
702 1 0.483333 0.15 0.117688 -4.44906 
703 1 0.466667 0 0.0589658 -4.40782 
734 1 0.466667 0.2 0.0589658 -4.40782 
704 1 0.5 0 -2.58415e-05 -3.90386 
705 1 0.516667 0.05 0.0589655 -4.40782 
735 1 0.5 0.2 -2.58494e-05 -3.90386 
736 1 0.516667 0.15 0.0589655 -4.40782 
738 1 0.5 0.1 -2.5849e-05 -3.90386 
739 1 0.55 0.05 -2.85526e-05 -3.90371 
740 1 0.55 0.15 -2.85884e-05 -3.90372 
863 1 0.533333 0.1 0.117686 -4.44914 
866 1 0.533333 0 0.117686 -4.44915 
867 1 0.566667 0 0.0589603 -4.40814 
868 1 0.583333 0.05 0.117691 -4.44936 
894 1 0.533333 0.2 0.117686 -4.44914 
895 1 0.566667 0.2 0.0589599 -4.40813 
896 1 0.583333 0.15 0.117691 -4.44936 
898 1 0.566667 0.1 0.05896 -4.40812 
899 1 0.6 0.1 -2.06096e-05 -3.90321 
900 1 0.616667 0.05 0.0590216 -4.40862 
901 1 0.616667 0.15 0.0590212 -4.4086 
902 1 0.6 0 -1.87729e-05 -3.90329 
903 1 0.65 0.05 0.000285537 -3.89076 
933 1 0.6 0.2 -2.07131e-05 -3.90323 
934 1 0.65 0.15 0.000283286 -3.89065 
1032 1 0.633333 0 0.11775 -4.44822 
1056 1 0.633333 0.2 0.117743 -4.44824 
1059 1 0.633333 0.1 0.117743 -4.44823 
1060 1 0.666667 0.1 0.0593475 -4.37522 
1061 1 0.683333 0.05 0.117767 -4.44902 
1062 1 0.683333 0.15 0.117762 -4.449 
1063 1 0.666667 0 0.0593595 -4.37525 
1094 1 0.666667 0.2 0.0593472 -4.37519 
1064 1 0.7 0 0.00120729 -3.55086 
1065 1 0.716667 0.05 0.0588722 -4.25208 
1095 1 0.7 0.2 0.00121224 -3.5506 
1096 1 0.716667 0.15 0.0588706 -4.2521 
1098 1 0.7 0.1 0.00121254 -3.55065 
1214 1 0.733333 0.1 0.117584 -4.42643 
1217 1 0.733333 0 0.117571 -4.42618 
1218 1 0.766667 0 0.0575583 -4.17706 
1219 1 0.783333 0.05 0.117136 -4.43941 
1245 1 0.733333 0.2 0.117584 -4.42643 
1246 1 0.766667 0.2 0.0575667 -4.17743 
1247 1 0.783333 0.15 0.117138 -4.43965 
1249 1 0.766667 0.1 0.0575664 -4.17746 
1250 1 0.8 0.1 0.000935743 -3.54706 
1251 1 0.816667 0.05 0.0594012 -4.34788 
1252 1 0.816667 0.15 0.0594033 -4.34798 
1253 1 0.8 0 0.000915486 -3.54726 
1254 1 0.85 0.05 0.000228392 -3.89152 
1284 1 0.8 0.2 0.000935183 -3.54695 
1285 1 0.85 0.15 0.000233501 -3.89136 
1383 1 0.833333 0 0.117901 -4.44673 
1407 1 0.833333 0.2 0.117927 -4.44675 
1410 1 0.833333 0.1 0.117923 -4.44662 
1411 1 0.866667 0.1 0.0590237 -4.40882 
1412 1 0.883333 0.05 0.117635 -4.44976 
1413 1 0.883333 0.15 0.117637 -4.44992 
1414 1 0.866667 0 0.0590212 -4.40861 
1445 1 0.866667 0.2 0.0590274 -4.40918 
1415 1 0.9 0 -9.69244e-05 -3.90277 
1416 1 0.916667 0.05 0.0588944 -4.40792 
1446 1 0.9 0.2 -0.000119315 -3.90215 
1447 1 0.916667 0.15 0.0589133 -4.407 
1449 1 0.9 0.1 -9.7653e-05 -3.90263 
1450 1 0.95 0.05 -6.98838e-05 -3.90266 
1451 1 0.95 0.15 6.14408e-05 -3.90318 
1574 1 0.933333 0.1 0.117719 -4.44949 
1577 1 0.933333 0 0.117701 -4.44903 
1578 1 0.966667 0 0.0589959 -4.40751 
1579 1 0.983333 0.05 0.117887 -4.45059 
1605 1 0.933333 0.2 0.117662 -4.43406 
1606 1 0.966667 0.2 0.0592938 -4.4067 
1607 1 0.983333 0.15 0.117872 -4.43598 
1609 1 0.966667 0.1 0.0589969 -4.40785 
6 1 0 0.3 0.00121964 -3.90481 
7 1 0.0166667 0.25 0.0594776 -4.39574 
8 1 0.0166667 0.35 0.0601351 -4.38632 
11 1 0.05 0.25 0.000333717 -3.90355 
15 1 0 0.4 0.00121969 -3.90481 
16 1 0.05 0.35 0.000811478 -3.90564 
53 1 0.0333333 0.4 0.118684 -4.33053 
56 1 0.0333333 0.3 0.118684 -4.33055 
57 1 0.0666667 0.3 0.0593403 -4.4061 
58 1 0.0833333 0.25 0.117691 -4.43448 
59 1 0.0833333 0.35 0.117567 -4.41842 
78 1 0.0666667 0.4 0.0593403 -4.4061 
63 1 0.116667 0.25 0.0589734 -4.40731 
79 1 0.1 0.4 7.28192e-05 -3.90373 
80 1 0.116667 0.35 0.0589667 -4.40595 
82 1 0.1 0.3 7.27409e-05 -3.90374 
83 1 0.15 0.25 -3.37973e-05 -3.90351 
84 1 0.15 0.35 -5.19744e-05 -3.90327 
174 1 0.133333 0.3 0.117654 -4.44942 
180 1 0.183333 0.25 0.117685 -4.44911 
205 1 0.133333 0.4 0.117654 -4.44943 
206 1 0.166667 0.4 0.0589453 -4.40793 
207 1 0.183333 0.35 0.11768 -4.44913 
209 1 0.166667 0.3 0.0589453 -4.40793 
210 1 0.2 0.3 -2.67552e-05 -3.90382 
211 1 0.216667 0.25 0.0589661 -4.40783 
212 1 0.216667 0.35 0.0589662 -4.40783 
215 1 0.25 0.25 -2.58904e-05 -3.90386 
237 1 0.2 0.4 -2.67564e-05 -3.90382 
238 1 0.25 0.35 -2.59977e-05 -3.90388 
367 1 0.233333 0.4 0.117688 -4.44908 
370 1 0.233333 0.3 0.117688 -4.44908 
371 1 0.266667 0.3 0.0589657 -4.40783 
372 1 0.283333 0.25 0.117688 -4.44907 
373 1 0.283333 0.35 0.117688 -4.44907 
402 1 0.266667 0.4 0.0589657 -4.40783 
377 1 0.316667 0.25 0.0589658 -4.40782 
403 1 0.3 0.4 -2.58122e-05 -3.90385 
404 1 0.316667 0.35 0.0589658 -4.40782 
406 1 0.3 0.3 -2.58122e-05 -3.90385 
407 1 0.35 0.25 -2.58169e-05 -3.90385 
408 1 0.35 0.35 -2.58171e-05 -3.90385 
531 1 0.333333 0.3 0.117688 -4.44907 
537 1 0.383333 0.25 0.117688 -4.44907 
565 1 0.333333 0.4 0.117688 -4.44907 
566 1 0.366667 0.4 0.0589658 -4.40782 
567 1 0.383333 0.35 0.117688 -4.44907 
569 1 0.366667 0.3 0.0589658 -4.40782 
570 1 0.4 0.3 -2.58168e-05 -3.90385 
571 1 0.416667 0.25 0.0589658 -4.40782 
572 1 0.416667 0.35 0.0589658 -4.40782 
575 1 0.45 0.25 -2.58235e-05 -3.90385 
597 1 0.4 0.4 -2.58168e-05 -3.90385 
598 1 0.45 0.35 -2.58235e-05 -3.90385 
727 1 0.433333 0.4 0.117688 -4.44907 
730 1 0.433333 0.3 0.117688 -4.44907 
731 1 0.466667 0.3 0.0589658 -4.40782 
732 1 0.483333 0.25 0.117688 -4.44906 
733 1 0.483333 0.35 0.117688 -4.44906 
762 1 0.466667 0.4 0.0589658 -4.40782 
737 1 0.516667 0.25 0.0589655 -4.40782 
763 1 0.5 0.4 -2.5849e-05 -3.90386 
764 1 0.516667 0.35 0.0589655 -4.40782 
766 1 0.5 0.3 -2.58494e-05 -3.90386 
767 1 0.55 0.25 -2.8592e-05 -3.90372 
768 1 0.55 0.35 -2.85884e-05 -3.90372 
891 1 0.533333 0.3 0.117686 -4.44914 
897 1 0.583333 0.25 0.117691 -4.44936 
925 1 0.533333 0.4 0.117686 -4.44914 
926 1 0.566667 0.4 0.05896 -4.40812 
927 1 0.583333 0.35 0.117691 -4.44936 
929 1 0.566667 0.3 0.0589599 -4.40813 
930 1 0.6 0.3 -2.07131e-05 -3.90323 
931 1 0.616667 0.25 0.0590211 -4.40861 
932 1 0.616667 0.35 0.0590212 -4.4086 
935 1 0.65 0.25 0.000283203 -3.89066 
957 1 0.6 0.4 -2.06096e-05 -3.90321 
958 1 0.65 0.35 0.000283286 -3.89065 
1087 1 0.633333 0.4 0.117743 -4.44823 
1090 1 0.633333 0.3 0.117743 -4.44824 
1091 1 0.666667 0.3 0.0593472 -4.37519 
1092 1 0.683333 0.25 0.117762 -4.449 
1093 1 0.683333 0.35 0.117762 -4.449 
1120 1 0.666667 0.4 0.0593475 -4.37522 
1097 1 0.716667 0.25 0.0588706 -4.25209 
1121 1 0.7 0.4 0.00121254 -3.55065 
1122 1 0.716667 0.35 0.0588706 -4.2521 
1124 1 0.7 0.3 0.00121224 -3.5506 
1242 1 0.733333 0.3 0.117584 -4.42643 
1248 1 0.783333 0.25 0.117138 -4.43963 
1276 1 0.733333 0.4 0.117584 -4.42643 
1277 1 0.766667 0.4 0.0575666 -4.17748 
1278 1 0.783333 0.35 0.117138 -4.43965 
1280 1 0.766667 0.3 0.0575669 -4.17744 
1281 1 0.8 0.3 0.00093494 -3.54691 
1282 1 0.816667 0.25 0.0594057 -4.34793 
1283 1 0.816667 0.35 0.0594069 -4.34792 
1286 1 0.85 0.25 0.000249591 -3.89127 
1308 1 0.8 0.4 0.000935441 -3.547 
1309 1 0.85 0.35 0.000260395 -3.89124 
1438 1 0.833333 0.4 0.117937 -4.44686 
1441 1 0.833333 0.3 0.117936 -4.44692 
1442 1 0.866667 0.3 0.0590497 -4.40984 
1443 1 0.883333 0.25 0.117675 -4.4502 
1444 1 0.883333 0.35 0.11771 -4.45077 
1473 1 0.866667 0.4 0.0590494 -4.40983 
1448 1 0.916667 0.25 0.0590294 -4.40608 
1474 1 0.9 0.4 -0.000117905 -3.90169 
1475 1 0.916667 0.35 0.0591233 -4.40711 
1477 1 0.9 0.3 -0.000117782 -3.90168 
1478 1 0.95 0.25 0.000536473 -3.90474 
1479 1 0.95 0.35 0.000864974 -3.90468 
1602 1 0.933333 0.3 0.117931 -4.40873 
1608 1 0.983333 0.25 0.118702 -4.34357 
1631 1 0.933333 0.4 0.117931 -4.40874 
1632 1 0.966667 0.4 0.0600361 -4.39852 
1633 1 0.983333 0.35 0.120753 -4.2683 
1635 1 0.966667 0.3 0.0600361 -4.39852 
12 1 0 0.5 0.000320836 -3.90323 
13 1 0.0166667 0.45 0.0594792 -4.39571 
14 1 0.0166667 0.55 0.0591035 -4.40904 
17 1 0.05 0.45 0.000333622 -3.90353 
21 1 0 0.6 -8.28079e-05 -3.90222 
22 1 0.05 0.55 -1.55134e-05 -3.90274 
71 1 0.0333333 0.6 0.117957 -4.45087 
74 1 0.0333333 0.5 0.117971 -4.42497 
75 1 0.0666667 0.5 0.0590954 -4.40835 
76 1 0.0833333 0.45 0.117691 -4.43445 
77 1 0.0833333 0.55 0.117805 -4.44978 
95 1 0.0666667 0.6 0.059031 -4.40933 
81 1 0.116667 0.45 0.0589735 -4.40732 
96 1 0.1 0.6 3.95914e-06 -3.90349 
97 1 0.116667 0.55 0.058982 -4.40807 
99 1 0.1 0.5 -3.42276e-05 -3.90332 
100 1 0.15 0.45 -3.37196e-05 -3.90351 
101 1 0.15 0.55 -2.07332e-05 -3.90375 
202 1 0.133333 0.5 0.117683 -4.44903 
208 1 0.183333 0.45 0.117685 -4.44912 
229 1 0.133333 0.6 0.117713 -4.4492 
230 1 0.166667 0.6 0.0589696 -4.40773 
231 1 0.183333 0.55 0.117686 -4.44898 
233 1 0.166667 0.5 0.0589639 -4.40781 
234 1 0.2 0.5 -2.58246e-05 -3.90384 
235 1 0.216667 0.45 0.0589661 -4.40783 
236 1 0.216667 0.55 0.0589656 -4.4078 
239 1 0.25 0.45 -2.58906e-05 -3.90386 
253 1 0.2 0.6 -2.5704e-05 -3.90384 
254 1 0.25 0.55 -2.57833e-05 -3.90385 
395 1 0.233333 0.6 0.117688 -4.44906 
398 1 0.233333 0.5 0.117688 -4.44907 
399 1 0.266667 0.5 0.0589658 -4.40782 
400 1 0.283333 0.45 0.117688 -4.44907 
401 1 0.283333 0.55 0.117688 -4.44907 
422 1 0.266667 0.6 0.0589658 -4.40782 
405 1 0.316667 0.45 0.0589658 -4.40782 
423 1 0.3 0.6 -2.58187e-05 -3.90385 
424 1 0.316667 0.55 0.0589658 -4.40782 
426 1 0.3 0.5 -2.58159e-05 -3.90385 
427 1 0.35 0.45 -2.58169e-05 -3.90385 
428 1 0.35 0.55 -2.58166e-05 -3.90385 
562 1 0.333333 0.5 0.117688 -4.44907 
568 1 0.383333 0.45 0.117688 -4.44907 
589 1 0.333333 0.6 0.117688 -4.44907 
590 1 0.366667 0.6 0.0589658 -4.40782 
591 1 0.383333 0.55 0.117688 -4.44907 
593 1 0.366667 0.5 0.0589658 -4.40782 
594 1 0.4 0.5 -2.58168e-05 -3.90385 
595 1 0.416667 0.45 0.0589658 -4.40782 
596 1 0.416667 0.55 0.0589658 -4.40782 
599 1 0.45 0.45 -2.58234e-05 -3.90385 
613 1 0.4 0.6 -2.58167e-05 -3.90385 
614 1 0.45 0.55 -2.58231e-05 -3.90385 
755 1 0.433333 0.6 0.117688 -4.44907 
758 1 0.433333 0.5 0.117688 -4.44907 
759 1 0.466667 0.5 0.0589658 -4.40782 
760 1 0.483333 0.45 0.117688 -4.44906 
761 1 0.483333 0.55 0.117688 -4.44906 
782 1 0.466667 0.6 0.0589658 -4.40782 
765 1 0.516667 0.45 0.0589655 -4.40782 
783 1 0.5 0.6 -2.58348e-05 -3.90386 
784 1 0.516667 0.55 0.0589655 -4.40782 
786 1 0.5 0.5 -2.58415e-05 -3.90386 
787 1 0.55 0.45 -2.85526e-05 -3.90371 
788 1 0.55 0.55 -2.83792e-05 -3.90372 
922 1 0.533333 0.5 0.117686 -4.44915 
928 1 0.583333 0.45 0.117691 -4.44936 
949 1 0.533333 0.6 0.117686 -4.44914 
950 1 0.566667 0.6 0.0589605 -4.40811 
951 1 0.583333 0.55 0.117694 -4.44935 
953 1 0.566667 0.5 0.0589603 -4.40814 
954 1 0.6 0.5 -1.8773e-05 -3.90329 
955 1 0.616667 0.45 0.0590216 -4.40862 
956 1 0.616667 0.55 0.0590309 -4.40855 
959 1 0.65 0.45 0.000285537 -3.89076 
973 1 0.6 0.6 -1.98271e-05 -3.90344 
974 1 0.65 0.55 0.000294291 -3.89099 
1113 1 0.633333 0.6 0.117739 -4.44803 
1116 1 0.633333 0.5 0.11775 -4.44822 
1117 1 0.666667 0.5 0.0593595 -4.37525 
1118 1 0.683333 0.45 0.117767 -4.44902 
1119 1 0.683333 0.55 0.11775 -4.44861 
1138 1 0.666667 0.6 0.0592891 -4.37544 
1123 1 0.716667 0.45 0.0588722 -4.25208 
1139 1 0.7 0.6 0.00101999 -3.56425 
1140 1 0.716667 0.55 0.0587945 -4.25151 
1142 1 0.7 0.5 0.00120729 -3.55086 
1273 1 0.733333 0.5 0.117571 -4.42618 
1279 1 0.783333 0.45 0.117136 -4.43938 
1300 1 0.733333 0.6 0.117455 -4.4274 
1301 1 0.766667 0.6 0.0573259 -4.19382 
1302 1 0.783333 0.55 0.11707 -4.44078 
1304 1 0.766667 0.5 0.0575583 -4.17707 
1305 1 0.8 0.5 0.000915444 -3.54723 
1306 1 0.816667 0.45 0.0594048 -4.3478 
1307 1 0.816667 0.55 0.0592995 -4.34843 
1310 1 0.85 0.45 0.000249812 -3.89138 
1324 1 0.8 0.6 0.00061888 -3.55856 
1325 1 0.85 0.55 0.00021233 -3.89139 
1466 1 0.833333 0.6 0.117857 -4.44789 
1469 1 0.833333 0.5 0.117905 -4.44682 
1470 1 0.866667 0.5 0.0590263 -4.40897 
1471 1 0.883333 0.45 0.117675 -4.45015 
1472 1 0.883333 0.55 0.11763 -4.44979 
1493 1 0.866667 0.6 0.0589977 -4.4088 
1476 1 0.916667 0.45 0.0590295 -4.40608 
1494 1 0.9 0.6 -0.000111477 -3.90248 
1495 1 0.916667 0.55 0.0588962 -4.40693 
1497 1 0.9 0.5 -0.000119853 -3.90218 
1498 1 0.95 0.45 0.000536385 -3.90473 
1499 1 0.95 0.55 4.773e-05 -3.90286 
1628 1 0.933333 0.5 0.117657 -4.43406 
1634 1 0.983333 0.45 0.118703 -4.34359 
1649 1 0.933333 0.6 0.117706 -4.44939 
1650 1 0.966667 0.6 0.05901 -4.40702 
1651 1 0.983333 0.55 0.117862 -4.43587 
1653 1 0.966667 0.5 0.0592908 -4.40674 
18 1 0 0.7 0.000367479 -3.90375 
19 1 0.0166667 0.65 0.0591183 -4.40875 
20 1 0.0166667 0.75 0.0594653 -4.39732 
23 1 0.05 0.65 -3.15546e-05 -3.90263 
27 1 0 0.8 0.000733366 -3.90385 
28 1 0.05 0.75 0.000368755 -3.90408 
88 1 0.0333333 0.8 0.118771 -4.35874 
91 1 0.0333333 0.7 0.118061 -4.42456 
92 1 0.0666667 0.7 0.0590927 -4.40765 
93 1 0.0833333 0.65 0.117781 -4.44919 
94 1 0.0833333 0.75 0.117724 -4.43433 
107 1 0.0666667 0.8 0.0593042 -4.40786 
98 1 0.116667 0.65 0.0589793 -4.40798 
108 1 0.1 0.8 9.90688e-05 -3.90406 
109 1 0.116667 0.75 0.0589744 -4.40687 
111 1 0.1 0.7 -5.00314e-05 -3.90327 
112 1 0.15 0.65 -2.01595e-05 -3.90375 
113 1 0.15 0.75 -3.94541e-05 -3.90351 
226 1 0.133333 0.7 0.117671 -4.44877 
232 1 0.183333 0.65 0.117687 -4.44902 
245 1 0.133333 0.8 0.117669 -4.449 
246 1 0.166667 0.8 0.0589486 -4.40776 
247 1 0.183333 0.75 0.117683 -4.44907 
249 1 0.166667 0.7 0.0589619 -4.4078 
250 1 0.2 0.7 -2.58199e-05 -3.90384 
251 1 0.216667 0.65 0.0589657 -4.40781 
252 1 0.216667 0.75 0.058966 -4.40783 
255 1 0.25 0.65 -2.57887e-05 -3.90385 
261 1 0.2 0.8 -2.6676e-05 -3.90381 
262 1 0.25 0.75 -2.59002e-05 -3.90386 
415 1 0.233333 0.8 0.117688 -4.44909 
418 1 0.233333 0.7 0.117688 -4.44907 
419 1 0.266667 0.7 0.0589658 -4.40783 
420 1 0.283333 0.65 0.117688 -4.44907 
421 1 0.283333 0.75 0.117688 -4.44907 
434 1 0.266667 0.8 0.0589657 -4.40783 
425 1 0.316667 0.65 0.0589658 -4.40782 
435 1 0.3 0.8 -2.58147e-05 -3.90385 
436 1 0.316667 0.75 0.0589658 -4.40782 
438 1 0.3 0.7 -2.58157e-05 -3.90385 
439 1 0.35 0.65 -2.58166e-05 -3.90385 
440 1 0.35 0.75 -2.58169e-05 -3.90385 
586 1 0.333333 0.7 0.117688 -4.44907 
592 1 0.383333 0.65 0.117688 -4.44907 
605 1 0.333333 0.8 0.117688 -4.44907 
606 1 0.366667 0.8 0.0589658 -4.40782 
607 1 0.383333 0.75 0.117688 -4.44907 
609 1 0.366667 0.7 0.0589658 -4.40782 
610 1 0.4 0.7 -2.58167e-05 -3.90385 
611 1 0.416667 0.65 0.0589658 -4.40782 
612 1 0.416667 0.75 0.0589658 -4.40782 
615 1 0.45 0.65 -2.58219e-05 -3.90385 
621 1 0.4 0.8 -2.58167e-05 -3.90385 
622 1 0.45 0.75 -2.5821e-05 -3.90385 
775 1 0.433333 0.8 0.117688 -4.44907 
778 1 0.433333 0.7 0.117688 -4.44907 
779 1 0.466667 0.7 0.0589658 -4.40782 
780 1 0.483333 0.65 0.117688 -4.44906 
781 1 0.483333 0.75 0.117688 -4.44906 
794 1 0.466667 0.8 0.0589658 -4.40782 
785 1 0.516667 0.65 0.0589655 -4.40782 
795 1 0.5 0.8 -2.58611e-05 -3.90386 
796 1 0.516667 0.75 0.0589655 -4.40782 
798 1 0.5 0.7 -2.58611e-05 -3.90386 
799 1 0.55 0.65 -2.80143e-05 -3.90377 
800 1 0.55 0.75 -2.77717e-05 -3.90379 
946 1 0.533333 0.7 0.117687 -4.44909 
952 1 0.583333 0.65 0.117691 -4.44923 
965 1 0.533333 0.8 0.117687 -4.44909 
966 1 0.566667 0.8 0.0589613 -4.40796 
967 1 0.583333 0.75 0.11768 -4.44926 
969 1 0.566667 0.7 0.0589613 -4.40796 
970 1 0.6 0.7 -2.87596e-05 -3.90344 
971 1 0.616667 0.65 0.0590046 -4.40833 
972 1 0.616667 0.75 0.0589563 -4.40835 
975 1 0.65 0.65 0.000186234 -3.89012 
981 1 0.6 0.8 -2.87596e-05 -3.90344 
982 1 0.65 0.75 3.80066e-05 -3.90423 
1131 1 0.633333 0.8 0.11769 -4.44886 
1134 1 0.633333 0.7 0.11769 -4.44886 
1135 1 0.666667 0.7 0.0591124 -4.39203 
1136 1 0.683333 0.65 0.117651 -4.44989 
1137 1 0.683333 0.75 0.11774 -4.44958 
1148 1 0.666667 0.8 0.0591124 -4.39203 
1141 1 0.716667 0.65 0.0586346 -4.28158 
1149 1 0.7 0.8 0.00058962 -3.72395 
1150 1 0.716667 0.75 0.0592196 -4.35189 
1152 1 0.7 0.7 0.000589621 -3.72395 
1153 1 0.75 0.75 0.00100919 -3.57967 
1297 1 0.733333 0.7 0.117773 -4.43802 
1303 1 0.783333 0.65 0.117417 -4.4384 
1316 1 0.733333 0.8 0.117773 -4.43802 
1317 1 0.766667 0.8 0.0588384 -4.27834 
1318 1 0.783333 0.75 0.117653 -4.44861 
1320 1 0.766667 0.7 0.0588383 -4.27833 
1321 1 0.8 0.7 0.000896467 -3.72651 
1322 1 0.816667 0.65 0.0592639 -4.36426 
1323 1 0.816667 0.75 0.0594335 -4.37547 
1326 1 0.85 0.65 0.000135714 -3.89029 
1332 1 0.8 0.8 0.000896315 -3.7265 
1333 1 0.85 0.75 0.000123331 -3.90459 
1486 1 0.833333 0.8 0.117842 -4.44752 
1489 1 0.833333 0.7 0.117837 -4.44745 
1490 1 0.866667 0.7 0.0589925 -4.4087 
1491 1 0.883333 0.65 0.117633 -4.44955 
1492 1 0.883333 0.75 0.11768 -4.44944 
1505 1 0.866667 0.8 0.0590062 -4.40904 
1496 1 0.916667 0.65 0.058933 -4.40716 
1506 1 0.9 0.8 -7.32452e-05 -3.90257 
1507 1 0.916667 0.75 0.0590536 -4.40767 
1509 1 0.9 0.7 -8.30333e-05 -3.90269 
1510 1 0.95 0.65 7.04542e-05 -3.90328 
1511 1 0.95 0.75 0.000360876 -3.90398 
1646 1 0.933333 0.7 0.117775 -4.43471 
1652 1 0.983333 0.65 0.117943 -4.4362 
1659 1 0.933333 0.8 0.117949 -4.42391 
1660 1 0.966667 0.8 0.0594511 -4.39709 
1661 1 0.983333 0.75 0.11885 -4.35925 
1663 1 0.966667 0.7 0.0593264 -4.4086 
24 1 0 0.9 0.000368222 -3.90417 
25 1 0.0166667 0.85 0.059446 -4.39694 
26 1 0.0166667 0.95 0.0590905 -4.40771 
29 1 0.05 0.85 0.000370035 -3.90417 
30 1 0.05 0.95 -4.05891e-05 -3.90305 
103 1 0.0333333 0.9 0.117949 -4.42384 
104 1 0.0666667 0.9 0.0590748 -4.40747 
105 1 0.0833333 0.85 0.117742 -4.43481 
106 1 0.0833333 0.95 0.117696 -4.4486 
110 1 0.116667 0.85 0.0589754 -4.40705 
114 1 0.116667 0.95 0.0589697 -4.40789 
115 1 0.1 0.9 -4.9201e-05 -3.90335 
116 1 0.15 0.85 -3.99206e-05 -3.90352 
117 1 0.15 0.95 -1.96651e-05 -3.90378 
242 1 0.133333 0.9 0.11768 -4.44899 
248 1 0.183333 0.85 0.117682 -4.44904 
256 1 0.183333 0.95 0.117689 -4.44909 
257 1 0.166667 0.9 0.0589628 -4.40787 
258 1 0.2 0.9 -2.59135e-05 -3.90385 
259 1 0.216667 0.85 0.0589659 -4.40782 
260 1 0.216667 0.95 0.0589659 -4.40782 
263 1 0.25 0.85 -2.58964e-05 -3.90386 
264 1 0.25 0.95 -2.58046e-05 -3.90385 
430 1 0.233333 0.9 0.117688 -4.44907 
431 1 0.266667 0.9 0.0589658 -4.40782 
432 1 0.283333 0.85 0.117688 -4.44907 
433 1 0.283333 0.95 0.117688 -4.44907 
437 1 0.316667 0.85 0.0589658 -4.40782 
441 1 0.316667 0.95 0.0589658 -4.40782 
442 1 0.3 0.9 -2.58154e-05 -3.90385 
443 1 0.35 0.85 -2.58169e-05 -3.90385 
444 1 0.35 0.95 -2.58166e-05 -3.90385 
602 1 0.333333 0.9 0.117688 -4.44907 
608 1 0.383333 0.85 0.117688 -4.44907 
616 1 0.383333 0.95 0.117688 -4.44907 
617 1 0.366667 0.9 0.0589658 -4.40782 
618 1 0.4 0.9 -2.58167e-05 -3.90385 
619 1 0.416667 0.85 0.0589658 -4.40782 
620 1 0.416667 0.95 0.0589658 -4.40782 
623 1 0.45 0.85 -2.58219e-05 -3.90385 
624 1 0.45 0.95 -2.58231e-05 -3.90385 
790 1 0.433333 0.9 0.117688 -4.44907 
791 1 0.466667 0.9 0.0589658 -4.40782 
792 1 0.483333 0.85 0.117688 -4.44906 
793 1 0.483333 0.95 0.117688 -4.44906 
797 1 0.516667 0.85 0.0589655 -4.40782 
801 1 0.516667 0.95 0.0589655 -4.40782 
802 1 0.5 0.9 -2.58348e-05 -3.90386 
803 1 0.55 0.85 -2.80143e-05 -3.90377 
804 1 0.55 0.95 -2.83792e-05 -3.90372 
962 1 0.533333 0.9 0.117686 -4.44914 
968 1 0.583333 0.85 0.117691 -4.44923 
976 1 0.583333 0.95 0.117694 -4.44935 
977 1 0.566667 0.9 0.0589605 -4.40811 
978 1 0.6 0.9 -1.98271e-05 -3.90344 
979 1 0.616667 0.85 0.0590046 -4.40833 
980 1 0.616667 0.95 0.0590309 -4.40855 
983 1 0.65 0.85 0.000186234 -3.89012 
984 1 0.65 0.95 0.000294291 -3.89099 
1144 1 0.633333 0.9 0.117739 -4.44803 
1145 1 0.666667 0.9 0.0592891 -4.37544 
1146 1 0.683333 0.85 0.117651 -4.44989 
1147 1 0.683333 0.95 0.11775 -4.44861 
1151 1 0.716667 0.85 0.0586346 -4.28158 
1154 1 0.716667 0.95 0.0587945 -4.25151 
1155 1 0.7 0.9 0.00101999 -3.56425 
1313 1 0.733333 0.9 0.117455 -4.4274 
1319 1 0.783333 0.85 0.117417 -4.43841 
1327 1 0.783333 0.95 0.11707 -4.44078 
1328 1 0.766667 0.9 0.0573259 -4.19382 
1329 1 0.8 0.9 0.000618682 -3.55854 
1330 1 0.816667 0.85 0.0592649 -4.36425 
1331 1 0.816667 0.95 0.0592996 -4.34845 
1334 1 0.85 0.85 0.000145921 -3.89025 
1335 1 0.85 0.95 0.000212262 -3.8914 
1501 1 0.833333 0.9 0.117861 -4.44798 
1502 1 0.866667 0.9 0.0590063 -4.40899 
1503 1 0.883333 0.85 0.117673 -4.44971 
1504 1 0.883333 0.95 0.117635 -4.44974 
1508 1 0.916667 0.85 0.0590371 -4.40765 
1512 1 0.916667 0.95 0.0589305 -4.40712 
1513 1 0.9 0.9 -0.000107533 -3.90276 
1514 1 0.95 0.85 0.00036051 -3.90409 
1515 1 0.95 0.95 8.65806e-05 -3.9038 
1656 1 0.933333 0.9 0.117721 -4.43449 
1662 1 0.983333 0.85 0.11876 -4.35863 
1664 1 0.983333 0.95 0.117796 -4.43477 
1665 1 0.966667 0.9 0.0593063 -4.40791 
31 1 0 0.1 0.176989 -4.4504 
32 1 0.0166667 0.05 0.235719 -4.44023 
33 1 0.0166667 0.15 0.235741 -4.42568 
34 1 0 0 0.176727 -4.45155 
36 1 0.05 0.05 0.176786 -4.45054 
39 1 0 0.2 0.176717 -4.35412 
41 1 0.05 0.15 0.176806 -4.43774 
131 1 0.0666667 0.1 0.235602 -4.4506 
134 1 0.0666667 0 0.235408 -4.45017 
148 1 0.0666667 0.2 0.235425 -4.43478 
135 1 0.1 0 0.176519 -4.45057 
136 1 0.116667 0.05 0.235274 -4.44931 
149 1 0.1 0.2 0.17651 -4.45173 
150 1 0.116667 0.15 0.235272 -4.44938 
152 1 0.1 0.1 0.176583 -4.45061 
154 1 0.15 0.05 0.176485 -4.45011 
155 1 0.15 0.15 0.176485 -4.45009 
288 1 0.166667 0 0.235261 -4.45009 
304 1 0.166667 0.2 0.235255 -4.45016 
307 1 0.166667 0.1 0.235246 -4.45002 
308 1 0.2 0.1 0.176488 -4.45032 
309 1 0.216667 0.05 0.235262 -4.45008 
310 1 0.216667 0.15 0.235262 -4.45007 
311 1 0.2 0 0.176489 -4.45036 
313 1 0.25 0.05 0.176489 -4.45037 
335 1 0.2 0.2 0.176489 -4.45036 
337 1 0.25 0.15 0.176489 -4.45037 
475 1 0.266667 0.1 0.235261 -4.45008 
478 1 0.266667 0 0.235261 -4.45007 
498 1 0.266667 0.2 0.235261 -4.45008 
479 1 0.3 0 0.176489 -4.45036 
480 1 0.316667 0.05 0.235262 -4.45007 
499 1 0.3 0.2 0.176489 -4.45036 
500 1 0.316667 0.15 0.235262 -4.45007 
502 1 0.3 0.1 0.176489 -4.45036 
504 1 0.35 0.05 0.176489 -4.45036 
505 1 0.35 0.15 0.176489 -4.45036 
648 1 0.366667 0 0.235262 -4.45007 
664 1 0.366667 0.2 0.235262 -4.45007 
667 1 0.366667 0.1 0.235262 -4.45007 
668 1 0.4 0.1 0.176489 -4.45036 
669 1 0.416667 0.05 0.235262 -4.45007 
670 1 0.416667 0.15 0.235262 -4.45007 
671 1 0.4 0 0.176489 -4.45036 
673 1 0.45 0.05 0.176489 -4.45036 
695 1 0.4 0.2 0.176489 -4.45036 
697 1 0.45 0.15 0.176489 -4.45036 
835 1 0.466667 0.1 0.235262 -4.45007 
838 1 0.466667 0 0.235262 -4.45007 
858 1 0.466667 0.2 0.235262 -4.45007 
839 1 0.5 0 0.176489 -4.45037 
840 1 0.516667 0.05 0.235261 -4.45008 
859 1 0.5 0.2 0.176489 -4.45037 
860 1 0.516667 0.15 0.235261 -4.45008 
862 1 0.5 0.1 0.176489 -4.45037 
864 1 0.55 0.05 0.176487 -4.45043 
865 1 0.55 0.15 0.176487 -4.45043 
1008 1 0.566667 0 0.235259 -4.45013 
1024 1 0.566667 0.2 0.235259 -4.45012 
1027 1 0.566667 0.1 0.235259 -4.45012 
1028 1 0.6 0.1 0.176487 -4.45042 
1029 1 0.616667 0.05 0.235249 -4.44999 
1030 1 0.616667 0.15 0.235249 -4.44998 
1031 1 0.6 0 0.176488 -4.45043 
1033 1 0.65 0.05 0.176504 -4.45051 
1055 1 0.6 0.2 0.176487 -4.45043 
1057 1 0.65 0.15 0.176504 -4.4505 
1186 1 0.666667 0.1 0.235189 -4.44962 
1189 1 0.666667 0 0.235195 -4.44945 
1209 1 0.666667 0.2 0.235189 -4.4496 
1190 1 0.7 0 0.176419 -4.44859 
1191 1 0.716667 0.05 0.235039 -4.45083 
1210 1 0.7 0.2 0.17641 -4.4488 
1211 1 0.716667 0.15 0.235036 -4.45095 
1213 1 0.7 0.1 0.176411 -4.44881 
1215 1 0.75 0.05 0.17606 -4.44731 
1216 1 0.75 0.15 0.176059 -4.44742 
1359 1 0.766667 0 0.234916 -4.45204 
1375 1 0.766667 0.2 0.234929 -4.45187 
1378 1 0.766667 0.1 0.23493 -4.45183 
1379 1 0.8 0.1 0.176176 -4.45 
1380 1 0.816667 0.05 0.235098 -4.45012 
1381 1 0.816667 0.15 0.235101 -4.45009 
1382 1 0.8 0 0.176161 -4.45028 
1384 1 0.85 0.05 0.176639 -4.44907 
1406 1 0.8 0.2 0.176177 -4.45005 
1408 1 0.85 0.15 0.176641 -4.44903 
1546 1 0.866667 0.1 0.235294 -4.44929 
1549 1 0.866667 0 0.235281 -4.44919 
1569 1 0.866667 0.2 0.235288 -4.44919 
1550 1 0.9 0 0.176402 -4.45098 
1551 1 0.916667 0.05 0.235297 -4.45051 
1570 1 0.9 0.2 0.176406 -4.45248 
1571 1 0.916667 0.15 0.235295 -4.45065 
1573 1 0.9 0.1 0.176413 -4.4512 
1575 1 0.95 0.05 0.176678 -4.4502 
1576 1 0.95 0.15 0.176651 -4.43766 
1689 1 0.966667 0 0.235523 -4.44997 
1705 1 0.966667 0.2 0.235368 -4.42569 
1708 1 0.966667 0.1 0.235666 -4.44035 
37 1 0.0166667 0.25 0.234405 -4.34305 
38 1 0.0166667 0.35 0.232202 -4.2681 
42 1 0.05 0.25 0.176537 -4.34 
54 1 0.05 0.35 0.176079 -4.23943 
145 1 0.0666667 0.3 0.235016 -4.40998 
169 1 0.0666667 0.4 0.235016 -4.41 
151 1 0.116667 0.25 0.235239 -4.45051 
170 1 0.1 0.4 0.176433 -4.43942 
171 1 0.116667 0.35 0.235207 -4.4509 
173 1 0.1 0.3 0.176433 -4.43941 
175 1 0.15 0.25 0.17647 -4.45042 
176 1 0.15 0.35 0.176444 -4.45064 
328 1 0.166667 0.4 0.235247 -4.45031 
331 1 0.166667 0.3 0.235247 -4.4503 
332 1 0.2 0.3 0.176489 -4.45035 
333 1 0.216667 0.25 0.235261 -4.45004 
334 1 0.216667 0.35 0.235261 -4.45004 
338 1 0.25 0.25 0.176489 -4.45037 
366 1 0.2 0.4 0.176489 -4.45035 
368 1 0.25 0.35 0.176489 -4.45038 
495 1 0.266667 0.3 0.235261 -4.45008 
526 1 0.266667 0.4 0.235261 -4.45008 
501 1 0.316667 0.25 0.235262 -4.45007 
527 1 0.3 0.4 0.176489 -4.45036 
528 1 0.316667 0.35 0.235262 -4.45007 
530 1 0.3 0.3 0.176489 -4.45036 
532 1 0.35 0.25 0.176489 -4.45036 
533 1 0.35 0.35 0.176489 -4.45036 
688 1 0.366667 0.4 0.235262 -4.45007 
691 1 0.366667 0.3 0.235262 -4.45007 
692 1 0.4 0.3 0.176489 -4.45036 
693 1 0.416667 0.25 0.235262 -4.45007 
694 1 0.416667 0.35 0.235262 -4.45007 
698 1 0.45 0.25 0.176489 -4.45036 
726 1 0.4 0.4 0.176489 -4.45036 
728 1 0.45 0.35 0.176489 -4.45036 
855 1 0.466667 0.3 0.235262 -4.45007 
886 1 0.466667 0.4 0.235262 -4.45007 
861 1 0.516667 0.25 0.235261 -4.45008 
887 1 0.5 0.4 0.176489 -4.45037 
888 1 0.516667 0.35 0.235261 -4.45008 
890 1 0.5 0.3 0.176489 -4.45037 
892 1 0.55 0.25 0.176487 -4.45043 
893 1 0.55 0.35 0.176487 -4.45043 
1048 1 0.566667 0.4 0.235259 -4.45012 
1051 1 0.566667 0.3 0.235259 -4.45012 
1052 1 0.6 0.3 0.176487 -4.45043 
1053 1 0.616667 0.25 0.235249 -4.44998 
1054 1 0.616667 0.35 0.235249 -4.44998 
1058 1 0.65 0.25 0.176504 -4.4505 
1086 1 0.6 0.4 0.176487 -4.45042 
1088 1 0.65 0.35 0.176504 -4.4505 
1206 1 0.666667 0.3 0.235189 -4.4496 
1237 1 0.666667 0.4 0.235189 -4.44962 
1212 1 0.716667 0.25 0.235036 -4.45094 
1238 1 0.7 0.4 0.176411 -4.44881 
1239 1 0.716667 0.35 0.235036 -4.45095 
1241 1 0.7 0.3 0.17641 -4.4488 
1243 1 0.75 0.25 0.176059 -4.44742 
1244 1 0.75 0.35 0.176059 -4.44743 
1399 1 0.766667 0.4 0.23493 -4.45184 
1402 1 0.766667 0.3 0.234929 -4.45189 
1403 1 0.8 0.3 0.176177 -4.45007 
1404 1 0.816667 0.25 0.235104 -4.45013 
1405 1 0.816667 0.35 0.235107 -4.45018 
1409 1 0.85 0.25 0.176657 -4.44909 
1437 1 0.8 0.4 0.176177 -4.45002 
1439 1 0.85 0.35 0.176677 -4.44934 
1566 1 0.866667 0.3 0.235322 -4.44929 
1597 1 0.866667 0.4 0.235321 -4.4493 
1572 1 0.916667 0.25 0.235226 -4.43546 
1598 1 0.9 0.4 0.176487 -4.43987 